
     Program PWSCF v.6.8 starts on 16Apr2022 at 12:42:18 

     This program is part of the open-source Quantum ESPRESSO suite
     for quantum simulation of materials; please cite
         "P. Giannozzi et al., J. Phys.:Condens. Matter 21 395502 (2009);
         "P. Giannozzi et al., J. Phys.:Condens. Matter 29 465901 (2017);
         "P. Giannozzi et al., J. Chem. Phys. 152 154105 (2020);
          URL http://www.quantum-espresso.org", 
     in publications or presentations arising from this work. More details at
     http://www.quantum-espresso.org/quote

     Parallel version (MPI & OpenMP), running on       4 processor cores
     Number of MPI processes:                 2
     Threads/MPI process:                     2

     MPI processes distributed on     1 nodes
     R & G space division:  proc/nbgrp/npool/nimage =       2
     125280 MiB available memory on the printing compute node when the environment starts
 
     Reading input from Ta2C.scf.in

     Current dimensions of program PWSCF are:
     Max number of different atomic species (ntypx) = 10
     Max number of k-points (npk) =  40000
     Max angular momentum in pseudopotentials (lmaxx) =  4
     file Ta.pbesol-spfn-rrkjus_psl.1.0.0.UPF: wavefunction(s)  5S 5P renormalized
     Message from routine setup:
     using ibrav=0 with symmetry is DISCOURAGED, use correct ibrav instead

     Subspace diagonalization in iterative solution of the eigenvalue problem:
     a serial algorithm will be used

 
     Parallelization info
     --------------------
     sticks:   dense  smooth     PW     G-vecs:    dense   smooth      PW
     Min         807     690    189               250723   198905   29465
     Max         808     691    190               250750   198908   29498
     Sum        1615    1381    379               501473   397813   58963
 
     Using Slab Decomposition
 


     bravais-lattice index     =            0
     lattice parameter (alat)  =       5.5500  a.u.
     unit-cell volume          =    1602.9280 (a.u.)^3
     number of atoms/cell      =            3
     number of atomic types    =            2
     number of electrons       =        58.00
     number of Kohn-Sham states=           35
     kinetic-energy cutoff     =     150.0000  Ry
     charge density cutoff     =     700.0000  Ry
     scf convergence threshold =      1.0E-12
     mixing beta               =       0.7000
     number of iterations used =            8  plain     mixing
     Exchange-correlation= PBESOL
                           (   1   4  10   8   0   0   0)

     celldm(1)=   5.550000  celldm(2)=   0.000000  celldm(3)=   0.000000
     celldm(4)=   0.000000  celldm(5)=   0.000000  celldm(6)=   0.000000

     crystal axes: (cart. coord. in units of alat)
               a(1) = (   1.040524   0.000000   0.000000 )  
               a(2) = (  -0.520262   0.901120   0.000000 )  
               a(3) = (   0.000000   0.000000  10.000000 )  

     reciprocal axes: (cart. coord. in units 2 pi/alat)
               b(1) = (  0.961054  0.554865  0.000000 )  
               b(2) = (  0.000000  1.109730  0.000000 )  
               b(3) = (  0.000000  0.000000  0.100000 )  


     PseudoPot. # 1 for Ta read from file:
     /shared/home/as3359/pseudo/Ta.pbesol-spfn-rrkjus_psl.1.0.0.UPF
     MD5 check sum: f099565ffaca9b150a52e9412a28e20b
     Pseudo is Ultrasoft + core correction, Zval = 27.0
     Generated using &quot;atomic&quot; code by A. Dal Corso  v.6.3
     Using radial grid of 1273 points,  8 beta functions with: 
                l(1) =   0
                l(2) =   0
                l(3) =   1
                l(4) =   1
                l(5) =   2
                l(6) =   2
                l(7) =   3
                l(8) =   3
     Q(r) pseudized with 0 coefficients 


     PseudoPot. # 2 for C  read from file:
     /shared/home/as3359/pseudo/C.pbesol-n-rrkjus_psl.1.0.0.UPF
     MD5 check sum: 05995be603a8a7c99da3dc4413f31573
     Pseudo is Ultrasoft + core correction, Zval =  4.0
     Generated using &quot;atomic&quot; code by A. Dal Corso  v.6.3MaX
     Using radial grid of 1073 points,  4 beta functions with: 
                l(1) =   0
                l(2) =   0
                l(3) =   1
                l(4) =   1
     Q(r) pseudized with 0 coefficients 


     atomic species   valence    mass     pseudopotential
        Ta            27.00   180.94788     Ta( 1.00)
        C              4.00    12.01070     C ( 1.00)

     12 Sym. Ops., with inversion, found



   Cartesian axes

     site n.     atom                  positions (alat units)
         1           C   tau(   1) = (   0.0000000   0.0000000   0.0000000  )
         2           Ta  tau(   2) = (   0.5202621   0.3003735  -0.4102757  )
         3           Ta  tau(   3) = (   0.0000000   0.6007470   0.4102757  )

     number of k points=    27  Marzari-Vanderbilt smearing, width (Ry)=  0.0010
                       cart. coord. in units 2pi/alat
        k(    1) = (   0.0000000   0.0000000   0.0000000), wk =   0.0088889
        k(    2) = (   0.0000000   0.0739820   0.0000000), wk =   0.0533333
        k(    3) = (   0.0000000   0.1479639   0.0000000), wk =   0.0533333
        k(    4) = (   0.0000000   0.2219459   0.0000000), wk =   0.0533333
        k(    5) = (   0.0000000   0.2959279   0.0000000), wk =   0.0533333
        k(    6) = (   0.0000000   0.3699099   0.0000000), wk =   0.0533333
        k(    7) = (   0.0000000   0.4438918   0.0000000), wk =   0.0533333
        k(    8) = (   0.0000000   0.5178738   0.0000000), wk =   0.0533333
        k(    9) = (   0.0640703   0.1109730   0.0000000), wk =   0.0533333
        k(   10) = (   0.0640703   0.1849549   0.0000000), wk =   0.1066667
        k(   11) = (   0.0640703   0.2589369   0.0000000), wk =   0.1066667
        k(   12) = (   0.0640703   0.3329189   0.0000000), wk =   0.1066667
        k(   13) = (   0.0640703   0.4069008   0.0000000), wk =   0.1066667
        k(   14) = (   0.0640703   0.4808828   0.0000000), wk =   0.1066667
        k(   15) = (   0.0640703   0.5548648   0.0000000), wk =   0.0533333
        k(   16) = (   0.1281405   0.2219459   0.0000000), wk =   0.0533333
        k(   17) = (   0.1281405   0.2959279   0.0000000), wk =   0.1066667
        k(   18) = (   0.1281405   0.3699099   0.0000000), wk =   0.1066667
        k(   19) = (   0.1281405   0.4438918   0.0000000), wk =   0.1066667
        k(   20) = (   0.1281405   0.5178738   0.0000000), wk =   0.1066667
        k(   21) = (   0.1922108   0.3329189   0.0000000), wk =   0.0533333
        k(   22) = (   0.1922108   0.4069008   0.0000000), wk =   0.1066667
        k(   23) = (   0.1922108   0.4808828   0.0000000), wk =   0.1066667
        k(   24) = (   0.1922108   0.5548648   0.0000000), wk =   0.0533333
        k(   25) = (   0.2562811   0.4438918   0.0000000), wk =   0.0533333
        k(   26) = (   0.2562811   0.5178738   0.0000000), wk =   0.1066667
        k(   27) = (   0.3203513   0.5548648   0.0000000), wk =   0.0177778

     Dense  grid:   501473 G-vectors     FFT dimensions: (  50,  50, 480)

     Smooth grid:   397813 G-vectors     FFT dimensions: (  45,  45, 450)

     Estimated max dynamical RAM per process >       2.72 GB

     Estimated total dynamical RAM >       5.45 GB

     Initial potential from superposition of free atoms

     starting charge   57.99842, renormalised to   58.00000

     negative rho (up, down):  5.504E-05 0.000E+00
     Starting wfcs are   38 randomized atomic wfcs

     total cpu time spent up to now is       14.5 secs

     Self-consistent Calculation

     iteration #  1     ecut=   150.00 Ry     beta= 0.70
     Davidson diagonalization with overlap
     ethr =  1.00E-02,  avg # of iterations =  2.2

     negative rho (up, down):  1.128E-05 0.000E+00

     total cpu time spent up to now is       32.1 secs

     total energy              =   -1372.45350675 Ry
     estimated scf accuracy    <       1.29795596 Ry

     iteration #  2     ecut=   150.00 Ry     beta= 0.70
     Davidson diagonalization with overlap
     ethr =  2.24E-03,  avg # of iterations = 11.4

     total cpu time spent up to now is       58.5 secs

     total energy              =   -1370.76381584 Ry
     estimated scf accuracy    <      16.02124603 Ry

     iteration #  3     ecut=   150.00 Ry     beta= 0.70
     Davidson diagonalization with overlap
     ethr =  2.24E-03,  avg # of iterations =  8.2

     total cpu time spent up to now is       82.6 secs

     total energy              =   -1373.22003615 Ry
     estimated scf accuracy    <       0.33789436 Ry

     iteration #  4     ecut=   150.00 Ry     beta= 0.70
     Davidson diagonalization with overlap
     ethr =  5.83E-04,  avg # of iterations =  3.1

     total cpu time spent up to now is      100.6 secs

     total energy              =   -1373.26743091 Ry
     estimated scf accuracy    <       0.04735087 Ry

     iteration #  5     ecut=   150.00 Ry     beta= 0.70
     Davidson diagonalization with overlap
     ethr =  8.16E-05,  avg # of iterations =  4.1

     total cpu time spent up to now is      118.2 secs

     total energy              =   -1373.26295443 Ry
     estimated scf accuracy    <       0.03487619 Ry

     iteration #  6     ecut=   150.00 Ry     beta= 0.70
     Davidson diagonalization with overlap
     ethr =  6.01E-05,  avg # of iterations =  1.7

     total cpu time spent up to now is      134.3 secs

     total energy              =   -1373.25663058 Ry
     estimated scf accuracy    <       0.01927986 Ry

     iteration #  7     ecut=   150.00 Ry     beta= 0.70
     Davidson diagonalization with overlap
     ethr =  3.32E-05,  avg # of iterations =  2.7

     total cpu time spent up to now is      151.4 secs

     total energy              =   -1373.25741051 Ry
     estimated scf accuracy    <       0.00312461 Ry

     iteration #  8     ecut=   150.00 Ry     beta= 0.70
     Davidson diagonalization with overlap
     ethr =  5.39E-06,  avg # of iterations =  3.3

     negative rho (up, down):  1.563E-03 0.000E+00

     total cpu time spent up to now is      168.3 secs

     total energy              =   -1373.25624145 Ry
     estimated scf accuracy    <       0.00214776 Ry

     iteration #  9     ecut=   150.00 Ry     beta= 0.70
     Davidson diagonalization with overlap
     ethr =  3.70E-06,  avg # of iterations =  3.7

     negative rho (up, down):  2.242E-03 0.000E+00

     total cpu time spent up to now is      186.4 secs

     total energy              =   -1373.25659787 Ry
     estimated scf accuracy    <       0.00023449 Ry

     iteration # 10     ecut=   150.00 Ry     beta= 0.70
     Davidson diagonalization with overlap
     ethr =  4.04E-07,  avg # of iterations =  2.1

     negative rho (up, down):  8.940E-08 0.000E+00

     total cpu time spent up to now is      202.9 secs

     total energy              =   -1373.25656431 Ry
     estimated scf accuracy    <       0.00004407 Ry

     iteration # 11     ecut=   150.00 Ry     beta= 0.70
     Davidson diagonalization with overlap
     ethr =  7.60E-08,  avg # of iterations =  2.4

     negative rho (up, down):  6.293E-05 0.000E+00

     total cpu time spent up to now is      220.2 secs

     total energy              =   -1373.25657429 Ry
     estimated scf accuracy    <       0.00001003 Ry

     iteration # 12     ecut=   150.00 Ry     beta= 0.70
     Davidson diagonalization with overlap
     ethr =  1.73E-08,  avg # of iterations =  2.1

     negative rho (up, down):  6.523E-05 0.000E+00

     total cpu time spent up to now is      237.4 secs

     total energy              =   -1373.25657647 Ry
     estimated scf accuracy    <       0.00000089 Ry

     iteration # 13     ecut=   150.00 Ry     beta= 0.70
     Davidson diagonalization with overlap
     ethr =  1.53E-09,  avg # of iterations =  2.1

     negative rho (up, down):  6.535E-05 0.000E+00

     total cpu time spent up to now is      254.5 secs

     total energy              =   -1373.25657658 Ry
     estimated scf accuracy    <       0.00000007 Ry

     iteration # 14     ecut=   150.00 Ry     beta= 0.70
     Davidson diagonalization with overlap
     ethr =  1.13E-10,  avg # of iterations =  3.2

     negative rho (up, down):  6.538E-05 0.000E+00

     total cpu time spent up to now is      274.3 secs

     total energy              =   -1373.25657660 Ry
     estimated scf accuracy    <          7.7E-09 Ry

     iteration # 15     ecut=   150.00 Ry     beta= 0.70
     Davidson diagonalization with overlap
     ethr =  1.33E-11,  avg # of iterations =  3.0

     negative rho (up, down):  6.538E-05 0.000E+00

     total cpu time spent up to now is      292.2 secs

     total energy              =   -1373.25657660 Ry
     estimated scf accuracy    <          1.4E-09 Ry

     iteration # 16     ecut=   150.00 Ry     beta= 0.70
     Davidson diagonalization with overlap
     ethr =  2.36E-12,  avg # of iterations =  2.5

     negative rho (up, down):  6.524E-05 0.000E+00

     total cpu time spent up to now is      311.3 secs

     total energy              =   -1373.25657661 Ry
     estimated scf accuracy    <          2.0E-10 Ry

     iteration # 17     ecut=   150.00 Ry     beta= 0.70
     Davidson diagonalization with overlap
     ethr =  3.44E-13,  avg # of iterations =  2.0

     negative rho (up, down):  6.521E-05 0.000E+00

     total cpu time spent up to now is      329.6 secs

     total energy              =   -1373.25657661 Ry
     estimated scf accuracy    <          2.3E-11 Ry

     iteration # 18     ecut=   150.00 Ry     beta= 0.70
     Davidson diagonalization with overlap
     ethr =  1.00E-13,  avg # of iterations =  2.0

     negative rho (up, down):  6.522E-05 0.000E+00

     total cpu time spent up to now is      346.5 secs

     total energy              =   -1373.25657661 Ry
     estimated scf accuracy    <          3.2E-12 Ry

     iteration # 19     ecut=   150.00 Ry     beta= 0.70
     Davidson diagonalization with overlap
     ethr =  1.00E-13,  avg # of iterations =  1.0

     negative rho (up, down):  6.521E-05 0.000E+00

     total cpu time spent up to now is      362.1 secs

     End of self-consistent calculation

          k = 0.0000 0.0000 0.0000 ( 49825 PWs)   bands (ev):

   -68.3580 -68.3092 -35.3825 -34.7778 -34.4830 -34.4830 -34.4144 -34.4144
   -20.0205 -20.0072 -19.9832 -19.9832 -19.9779 -19.9779 -19.9504 -19.9504
   -19.9437 -19.9437 -19.9307 -19.9255 -19.8666 -19.8651 -13.2990  -7.7075
    -4.4624  -4.4624  -1.9544  -1.0167  -0.8017  -0.2793  -0.2793   1.6604
     1.6604   2.8077   2.8077

          k = 0.0000 0.0740 0.0000 ( 49817 PWs)   bands (ev):

   -68.3556 -68.3078 -35.3744 -34.7814 -34.5123 -34.4934 -34.4418 -34.4180
   -20.0196 -20.0066 -19.9842 -19.9835 -19.9781 -19.9772 -19.9514 -19.9503
   -19.9439 -19.9433 -19.9289 -19.9239 -19.8684 -19.8669 -13.2255  -7.5665
    -4.6772  -4.4383  -1.8835  -1.1340  -0.6781  -0.4354  -0.1659   1.4190
     1.5805   2.8137   2.9588

          k = 0.0000 0.1480 0.0000 ( 49765 PWs)   bands (ev):

   -68.3488 -68.3037 -35.3519 -34.7969 -34.5896 -34.5214 -34.5180 -34.4295
   -20.0169 -20.0050 -19.9867 -19.9842 -19.9785 -19.9754 -19.9540 -19.9497
   -19.9445 -19.9420 -19.9240 -19.9192 -19.8733 -19.8720 -13.0223  -7.1723
    -5.1679  -4.3843  -1.7945  -1.4196  -0.8686  -0.3213   0.1554   1.1944
     1.5330   2.8486   3.2341

          k = 0.0000 0.2219 0.0000 ( 49745 PWs)   bands (ev):

   -68.3385 -68.2979 -35.3195 -34.8449 -34.6783 -34.6251 -34.5602 -34.4486
   -20.0134 -20.0028 -19.9899 -19.9851 -19.9793 -19.9732 -19.9574 -19.9487
   -19.9453 -19.9401 -19.9166 -19.9123 -19.8802 -19.8792 -12.7368  -6.6538
    -5.6633  -4.3431  -2.0663  -1.6192  -1.1411   0.1523   0.6286   1.1973
     1.7595   2.9537   3.4436

          k = 0.0000 0.2959 0.0000 ( 49692 PWs)   bands (ev):

   -68.3264 -68.2915 -35.2857 -34.9485 -34.7497 -34.7206 -34.6026 -34.4722
   -20.0103 -20.0000 -19.9930 -19.9861 -19.9805 -19.9715 -19.9603 -19.9472
   -19.9460 -19.9376 -19.9081 -19.9043 -19.8881 -19.8868 -12.4335  -6.5514
    -5.6427  -4.3478  -2.6376  -1.6007  -1.0659   0.6875   1.2031   1.4099
     2.3434   3.0073   3.5462

          k = 0.0000 0.3699 0.0000 ( 49688 PWs)   bands (ev):

   -68.3142 -68.2860 -35.2629 -35.0707 -34.8383 -34.7534 -34.6419 -34.4958
   -20.0090 -19.9967 -19.9950 -19.9873 -19.9823 -19.9707 -19.9621 -19.9466
   -19.9453 -19.9351 -19.8997 -19.8967 -19.8956 -19.8935 -12.1735  -6.8740
    -5.2424  -4.3952  -3.1315  -1.3018  -0.7757   1.2204   1.7683   1.8680
     2.9210   3.1624   3.6038

          k = 0.0000 0.4439 0.0000 ( 49680 PWs)   bands (ev):

   -68.3040 -68.2824 -35.2606 -35.1692 -34.8888 -34.7753 -34.6718 -34.5147
   -20.0091 -19.9959 -19.9939 -19.9883 -19.9841 -19.9707 -19.9626 -19.9471
   -19.9436 -19.9329 -19.9013 -19.8983 -19.8930 -19.8907 -11.9947  -7.1357
    -5.0301  -4.4546  -3.4707  -0.7004  -0.3818   1.6636   2.1021   2.5241
     2.7895   3.5809   4.1299

          k = 0.0000 0.5179 0.0000 ( 49712 PWs)   bands (ev):

   -68.2979 -68.2809 -35.2702 -35.2217 -34.9032 -34.7899 -34.6879 -34.5252
   -20.0095 -19.9957 -19.9931 -19.9889 -19.9849 -19.9709 -19.9626 -19.9473
   -19.9426 -19.9316 -19.9044 -19.9008 -19.8891 -19.8875 -11.9070  -7.2700
    -4.9743  -4.4936  -3.6404  -0.1484  -0.0715   1.8437   2.2157   2.8552
     2.9077   3.7282   4.7669

          k = 0.0641 0.1110 0.0000 ( 49771 PWs)   bands (ev):

   -68.3510 -68.3050 -35.3591 -34.7907 -34.5601 -34.5299 -34.4774 -34.4303
   -20.0178 -20.0055 -19.9857 -19.9843 -19.9782 -19.9760 -19.9532 -19.9499
   -19.9442 -19.9426 -19.9256 -19.9207 -19.8717 -19.8704 -13.0871  -7.2969
    -5.0151  -4.4173  -1.7980  -1.2964  -0.7596  -0.4664   0.0486   1.3630
     1.3669   2.9966   3.0466

          k = 0.0641 0.1850 0.0000 ( 49757 PWs)   bands (ev):

   -68.3424 -68.3001 -35.3315 -34.8196 -34.6409 -34.6082 -34.5241 -34.4508
   -20.0145 -20.0037 -19.9883 -19.9855 -19.9784 -19.9742 -19.9561 -19.9493
   -19.9445 -19.9412 -19.9194 -19.9149 -19.8776 -19.8766 -12.8425  -6.8149
    -5.4967  -4.4217  -1.7939  -1.5237  -1.1446  -0.1002   0.3324   1.2558
     1.5797   3.0011   3.4333

          k = 0.0641 0.2589 0.0000 ( 49698 PWs)   bands (ev):

   -68.3313 -68.2940 -35.2980 -34.8937 -34.7247 -34.6931 -34.5766 -34.4748
   -20.0109 -20.0014 -19.9914 -19.9867 -19.9792 -19.9723 -19.9592 -19.9485
   -19.9448 -19.9391 -19.9115 -19.9075 -19.8850 -19.8841 -12.5477  -6.3915
    -5.8028  -4.4681  -2.2702  -1.4874  -1.2366   0.3972   0.5320   1.5999
     2.0500   2.9870   3.7550

          k = 0.0641 0.3329 0.0000 ( 49715 PWs)   bands (ev):

   -68.3191 -68.2881 -35.2686 -35.0081 -34.8100 -34.7415 -34.6254 -34.5004
   -20.0085 -19.9985 -19.9939 -19.9878 -19.9806 -19.9712 -19.9616 -19.9476
   -19.9445 -19.9367 -19.9031 -19.8997 -19.8927 -19.8913 -12.2664  -6.6313
    -5.4163  -4.5400  -2.7902  -1.3169  -1.0660   0.8159   1.0083   2.0961
     2.6581   3.0938   3.9177

          k = 0.0641 0.4069 0.0000 ( 49714 PWs)   bands (ev):

   -68.3078 -68.2836 -35.2550 -35.1182 -34.8721 -34.7718 -34.6640 -34.5232
   -20.0080 -19.9954 -19.9952 -19.9885 -19.9826 -19.9709 -19.9627 -19.9472
   -19.9437 -19.9343 -19.8995 -19.8973 -19.8953 -19.8928 -12.0486  -6.9431
    -5.0774  -4.6060  -3.1686  -0.9315  -0.6901   1.1925   1.6668   2.3104
     3.0152   3.7788   3.9740

          k = 0.0641 0.4809 0.0000 ( 49730 PWs)   bands (ev):

   -68.2994 -68.2812 -35.2585 -35.1941 -34.8964 -34.7958 -34.6883 -34.5391
   -20.0084 -19.9957 -19.9933 -19.9888 -19.9844 -19.9711 -19.9630 -19.9470
   -19.9429 -19.9326 -19.9039 -19.9008 -19.8901 -19.8883 -11.9173  -7.1414
    -4.9574  -4.6581  -3.3870  -0.3947  -0.2759   1.5528   2.1239   2.2298
     3.4998   3.8202   4.6490

          k = 0.0641 0.5549 0.0000 ( 49762 PWs)   bands (ev):

   -68.2962 -68.2807 -35.2632 -35.2206 -34.8995 -34.8062 -34.6965 -34.5447
   -20.0086 -19.9956 -19.9928 -19.9889 -19.9849 -19.9712 -19.9630 -19.9470
   -19.9426 -19.9319 -19.9055 -19.9021 -19.8882 -19.8867 -11.8744  -7.2081
    -4.9341  -4.6830  -3.4578  -0.1040  -0.1002   1.7785   1.9261   2.4643
     3.7588   3.7644   5.0013

          k = 0.1281 0.2219 0.0000 ( 49701 PWs)   bands (ev):

   -68.3330 -68.2949 -35.3024 -34.8699 -34.7184 -34.6869 -34.5528 -34.4887
   -20.0110 -20.0020 -19.9901 -19.9878 -19.9783 -19.9729 -19.9588 -19.9490
   -19.9438 -19.9401 -19.9127 -19.9086 -19.8839 -19.8832 -12.5882  -6.2846
    -5.8769  -4.5856  -1.8938  -1.7031  -1.0778  -0.0058   0.3743   1.7454
     1.8929   2.9749   3.9597

          k = 0.1281 0.2959 0.0000 ( 49682 PWs)   bands (ev):

   -68.3217 -68.2893 -35.2720 -34.9543 -34.8133 -34.7264 -34.6040 -34.5252
   -20.0074 -20.0001 -19.9922 -19.9895 -19.9789 -19.9720 -19.9613 -19.9486
   -19.9427 -19.9387 -19.9049 -19.9013 -19.8911 -19.8905 -12.3153  -6.2835
    -5.6558  -4.7802  -2.3282  -1.5500  -0.8746  -0.0190   0.7825   2.2425
     2.5368   2.9789   4.4760

          k = 0.1281 0.3699 0.0000 ( 49711 PWs)   bands (ev):

   -68.3103 -68.2845 -35.2499 -35.0544 -34.8745 -34.7634 -34.6568 -34.5560
   -20.0054 -19.9974 -19.9940 -19.9900 -19.9805 -19.9717 -19.9630 -19.9479
   -19.9422 -19.9367 -19.8986 -19.8977 -19.8963 -19.8941 -12.0779  -6.6127
    -5.1578  -4.9293  -2.6712  -1.2115  -0.8318   0.3784   1.3294   2.3257
     3.1176   3.5417   4.7738

          k = 0.1281 0.4439 0.0000 ( 49740 PWs)   bands (ev):

   -68.3006 -68.2815 -35.2408 -35.1402 -34.8970 -34.8051 -34.6924 -34.5798
   -20.0054 -19.9955 -19.9940 -19.9894 -19.9827 -19.9719 -19.9638 -19.9470
   -19.9424 -19.9347 -19.9039 -19.9018 -19.8909 -19.8889 -11.9112  -6.8528
    -5.0175  -4.9000  -2.8806  -0.7493  -0.6041   0.7943   1.9046   2.2395
     3.5273   4.0379   5.0769

          k = 0.1281 0.5179 0.0000 ( 49777 PWs)   bands (ev):

   -68.2947 -68.2805 -35.2377 -35.1917 -34.8903 -34.8428 -34.7085 -34.5930
   -20.0059 -19.9956 -19.9924 -19.9887 -19.9844 -19.9722 -19.9640 -19.9462
   -19.9429 -19.9335 -19.9069 -19.9042 -19.8874 -19.8861 -11.8278  -6.9777
    -5.0506  -4.8350  -2.9832  -0.3749  -0.3056   1.0276   2.1405   2.3557
     3.7028   4.0406   5.6100

          k = 0.1922 0.3329 0.0000 ( 49675 PWs)   bands (ev):

   -68.3112 -68.2848 -35.2480 -35.0165 -34.8925 -34.7523 -34.6475 -34.5812
   -20.0034 -19.9993 -19.9921 -19.9919 -19.9795 -19.9722 -19.9631 -19.9483
   -19.9403 -19.9388 -19.8987 -19.8979 -19.8965 -19.8945 -12.0869  -6.3867
    -5.3311  -5.0214  -2.2765  -1.6269  -0.5406  -0.1723   1.2200   2.3227
     3.2547   3.3713   5.2590

          k = 0.1922 0.4069 0.0000 ( 49716 PWs)   bands (ev):

   -68.3013 -68.2816 -35.2292 -35.0796 -34.9327 -34.7869 -34.6948 -34.6243
   -20.0016 -19.9978 -19.9929 -19.9908 -19.9811 -19.9728 -19.9644 -19.9474
   -19.9404 -19.9375 -19.9037 -19.9030 -19.8914 -19.8893 -11.9026  -6.5325
    -5.3641  -4.8623  -2.2726  -1.3524  -0.7163   0.3056   1.7178   2.2945
     3.5704   3.9950   5.7078

          k = 0.1922 0.4809 0.0000 ( 49754 PWs)   bands (ev):

   -68.2937 -68.2804 -35.2118 -35.1361 -34.9340 -34.8353 -34.7193 -34.6524
   -20.0022 -19.9959 -19.9923 -19.9889 -19.9831 -19.9735 -19.9652 -19.9460
   -19.9420 -19.9359 -19.9079 -19.9064 -19.8870 -19.8856 -11.7863  -6.6538
    -5.4384  -4.7190  -2.3407  -0.8633  -0.6333   0.5414   2.1667   2.3418
     3.6286   3.9878   5.9516

          k = 0.1922 0.5549 0.0000 ( 49742 PWs)   bands (ev):

   -68.2905 -68.2804 -35.1954 -35.1678 -34.9217 -34.8661 -34.7245 -34.6629
   -20.0026 -19.9954 -19.9915 -19.9879 -19.9843 -19.9738 -19.9654 -19.9447
   -19.9434 -19.9353 -19.9094 -19.9077 -19.8854 -19.8844 -11.7471  -6.7005
    -5.4590  -4.6820  -2.3792  -0.6032  -0.5361   0.5964   2.3249   2.4086
     3.6202   3.7581   5.8403

          k = 0.2563 0.4439 0.0000 ( 49721 PWs)   bands (ev):

   -68.2933 -68.2804 -35.2014 -35.0911 -34.9818 -34.8111 -34.7309 -34.6817
   -19.9997 -19.9970 -19.9919 -19.9895 -19.9823 -19.9742 -19.9657 -19.9461
   -19.9405 -19.9379 -19.9081 -19.9076 -19.8869 -19.8855 -11.7697  -6.4482
    -5.6595  -4.6638  -1.7297  -1.4352  -0.7860   0.3884   2.1082   2.3682
     3.6099   3.9615   5.9887

          k = 0.2563 0.5179 0.0000 ( 49737 PWs)   bands (ev):

   -68.2877 -68.2809 -35.1624 -35.1168 -35.0033 -34.8401 -34.7403 -34.7176
   -20.0003 -19.9947 -19.9916 -19.9872 -19.9839 -19.9751 -19.9666 -19.9443
   -19.9423 -19.9375 -19.9107 -19.9100 -19.8842 -19.8836 -11.6987  -6.4025
    -5.8103  -4.5574  -1.6786  -1.0327  -0.7882   0.3916   2.3493   2.3808
     3.4900   3.5562   6.0731

          k = 0.3204 0.5549 0.0000 ( 49803 PWs)   bands (ev):

   -68.2833 -68.2833 -35.1080 -35.1080 -35.0644 -34.8387 -34.7470 -34.7470
   -20.0000 -19.9926 -19.9926 -19.9851 -19.9851 -19.9759 -19.9673 -19.9430
   -19.9430 -19.9384 -19.9115 -19.9115 -19.8830 -19.8830 -11.6671  -6.1251
    -6.1251  -4.4888  -1.1941  -1.0635  -1.0635   0.3369   2.3430   2.3430
     3.3942   3.3942   6.5283

     the Fermi energy is    -0.1709 ev

!    total energy              =   -1373.25657661 Ry
     estimated scf accuracy    <          6.2E-13 Ry
     smearing contrib. (-TS)   =      -0.00001628 Ry
     internal energy E=F+TS    =   -1373.25656032 Ry

     The total energy is F=E-TS. E is the sum of the following terms:
     one-electron contribution =  -10823.31373013 Ry
     hartree contribution      =    5439.83151361 Ry
     xc contribution           =    -138.76491930 Ry
     ewald contribution        =    4148.99057550 Ry

     convergence has been achieved in  19 iterations

     negative rho (up, down):  6.521E-05 0.000E+00

     Forces acting on atoms (cartesian axes, Ry/au):

     atom    1 type  2   force =     0.00000000    0.00000000    0.00000000
     atom    2 type  1   force =     0.00000000   -0.00000000   -0.00028668
     atom    3 type  1   force =     0.00000000    0.00000000    0.00028668

     Total force =     0.000405     Total SCF correction =     0.000005


     Computing stress (Cartesian axis) and pressure


     negative rho (up, down):  6.521E-05 0.000E+00
          total   stress  (Ry/bohr**3)                   (kbar)     P=        0.34
   0.00000336  -0.00000000   0.00000000            0.49       -0.00        0.00
  -0.00000000   0.00000336   0.00000000           -0.00        0.49        0.00
   0.00000000   0.00000000   0.00000016            0.00        0.00        0.02


     Writing output data file /scratch/as3359/Ta2C_bandsdos/Ta.save/
 
     init_run     :     23.89s CPU     14.15s WALL (       1 calls)
     electrons    :    676.29s CPU    347.80s WALL (       1 calls)
     forces       :      9.32s CPU      4.87s WALL (       1 calls)
     stress       :     32.17s CPU     16.60s WALL (       1 calls)

     Called by init_run:
     wfcinit      :     12.68s CPU      6.53s WALL (       1 calls)
     potinit      :      2.66s CPU      1.36s WALL (       1 calls)
     hinit0       :      6.68s CPU      5.04s WALL (       1 calls)

     Called by electrons:
     c_bands      :    511.41s CPU    258.25s WALL (      19 calls)
     sum_band     :    126.18s CPU     66.78s WALL (      19 calls)
     v_of_rho     :      5.53s CPU      3.08s WALL (      20 calls)
     newd         :     32.25s CPU     19.08s WALL (      20 calls)
     mix_rho      :      1.90s CPU      1.13s WALL (      19 calls)

     Called by c_bands:
     init_us_2    :     11.02s CPU      5.52s WALL (    1107 calls)
     cegterg      :    472.34s CPU    238.61s WALL (     513 calls)

     Called by *egterg:
     cdiaghg      :      4.44s CPU      2.30s WALL (    2214 calls)
     h_psi        :    393.78s CPU    199.15s WALL (    2241 calls)
     s_psi        :     16.07s CPU      8.05s WALL (    2241 calls)
     g_psi        :      2.28s CPU      1.14s WALL (    1701 calls)

     Called by h_psi:
     h_psi:calbec :     12.87s CPU      6.45s WALL (    2241 calls)
     vloc_psi     :    361.46s CPU    182.89s WALL (    2241 calls)
     add_vuspsi   :     16.70s CPU      8.37s WALL (    2241 calls)

     General routines
     calbec       :     18.46s CPU      9.25s WALL (    2889 calls)
     fft          :      3.60s CPU      2.35s WALL (     283 calls)
     ffts         :      0.30s CPU      0.16s WALL (      39 calls)
     fftw         :    389.70s CPU    197.30s WALL (  104935 calls)
     interpolate  :      0.48s CPU      0.25s WALL (      20 calls)
 
     Parallel routines
 
     PWSCF        :  12m26.20s CPU   6m29.02s WALL

 
   This run was terminated on:  12:48:47  16Apr2022            

=------------------------------------------------------------------------------=
   JOB DONE.
=------------------------------------------------------------------------------=
