
     Program PWSCF v.6.8 starts on 16Apr2022 at 13: 3:55 

     This program is part of the open-source Quantum ESPRESSO suite
     for quantum simulation of materials; please cite
         "P. Giannozzi et al., J. Phys.:Condens. Matter 21 395502 (2009);
         "P. Giannozzi et al., J. Phys.:Condens. Matter 29 465901 (2017);
         "P. Giannozzi et al., J. Chem. Phys. 152 154105 (2020);
          URL http://www.quantum-espresso.org", 
     in publications or presentations arising from this work. More details at
     http://www.quantum-espresso.org/quote

     Parallel version (MPI & OpenMP), running on       4 processor cores
     Number of MPI processes:                 2
     Threads/MPI process:                     2

     MPI processes distributed on     1 nodes
     R & G space division:  proc/nbgrp/npool/nimage =       2
     119323 MiB available memory on the printing compute node when the environment starts
 
     Waiting for input...
     Reading input from standard input

     Current dimensions of program PWSCF are:
     Max number of different atomic species (ntypx) = 10
     Max number of k-points (npk) =  40000
     Max angular momentum in pseudopotentials (lmaxx) =  4

     Atomic positions and unit cell read from directory:
     /scratch/as3359/Ta2C_bandsdos/Ta.save/
 
     file Ta.pbesol-spfn-rrkjus_psl.1.0.0.UPF: wavefunction(s)  5S 5P renormalized
     Message from routine setup:
     using ibrav=0 with symmetry is DISCOURAGED, use correct ibrav instead

     Subspace diagonalization in iterative solution of the eigenvalue problem:
     a serial algorithm will be used

 
     Parallelization info
     --------------------
     sticks:   dense  smooth     PW     G-vecs:    dense   smooth      PW
     Min         807     690    189               250723   198905   29465
     Max         808     691    190               250750   198908   29498
     Sum        1615    1381    379               501473   397813   58963
 
     Using Slab Decomposition
 


     bravais-lattice index     =            0
     lattice parameter (alat)  =       5.5500  a.u.
     unit-cell volume          =    1602.9280 (a.u.)^3
     number of atoms/cell      =            3
     number of atomic types    =            2
     number of electrons       =        58.00
     number of Kohn-Sham states=           42
     kinetic-energy cutoff     =     150.0000  Ry
     charge density cutoff     =     700.0000  Ry
     Exchange-correlation= PBESOL
                           (   1   4  10   8   0   0   0)

     celldm(1)=   5.550000  celldm(2)=   0.000000  celldm(3)=   0.000000
     celldm(4)=   0.000000  celldm(5)=   0.000000  celldm(6)=   0.000000

     crystal axes: (cart. coord. in units of alat)
               a(1) = (   1.040524   0.000000   0.000000 )  
               a(2) = (  -0.520262   0.901120   0.000000 )  
               a(3) = (   0.000000   0.000000  10.000000 )  

     reciprocal axes: (cart. coord. in units 2 pi/alat)
               b(1) = (  0.961054  0.554865  0.000000 )  
               b(2) = (  0.000000  1.109730  0.000000 )  
               b(3) = (  0.000000  0.000000  0.100000 )  


     PseudoPot. # 1 for Ta read from file:
     /shared/home/as3359/pseudo/Ta.pbesol-spfn-rrkjus_psl.1.0.0.UPF
     MD5 check sum: f099565ffaca9b150a52e9412a28e20b
     Pseudo is Ultrasoft + core correction, Zval = 27.0
     Generated using &quot;atomic&quot; code by A. Dal Corso  v.6.3
     Using radial grid of 1273 points,  8 beta functions with: 
                l(1) =   0
                l(2) =   0
                l(3) =   1
                l(4) =   1
                l(5) =   2
                l(6) =   2
                l(7) =   3
                l(8) =   3
     Q(r) pseudized with 0 coefficients 


     PseudoPot. # 2 for C  read from file:
     /shared/home/as3359/pseudo/C.pbesol-n-rrkjus_psl.1.0.0.UPF
     MD5 check sum: 05995be603a8a7c99da3dc4413f31573
     Pseudo is Ultrasoft + core correction, Zval =  4.0
     Generated using &quot;atomic&quot; code by A. Dal Corso  v.6.3MaX
     Using radial grid of 1073 points,  4 beta functions with: 
                l(1) =   0
                l(2) =   0
                l(3) =   1
                l(4) =   1
     Q(r) pseudized with 0 coefficients 


     atomic species   valence    mass     pseudopotential
        Ta            27.00   180.94788     Ta( 1.00)
        C              4.00    12.01070     C ( 1.00)

     12 Sym. Ops., with inversion, found



   Cartesian axes

     site n.     atom                  positions (alat units)
         1           C   tau(   1) = (   0.0000000   0.0000000   0.0000000  )
         2           Ta  tau(   2) = (   0.5202621   0.3003735  -0.4102757  )
         3           Ta  tau(   3) = (   0.0000000   0.6007470   0.4102757  )

     number of k points=    91  Marzari-Vanderbilt smearing, width (Ry)=  0.0010
                       cart. coord. in units 2pi/alat
        k(    1) = (   0.0000000   0.0000000   0.0000000), wk =   0.0219780
        k(    2) = (   0.0213568  -0.0000000   0.0000000), wk =   0.0219780
        k(    3) = (   0.0427135  -0.0000000   0.0000000), wk =   0.0219780
        k(    4) = (   0.0640703  -0.0000000   0.0000000), wk =   0.0219780
        k(    5) = (   0.0854270  -0.0000000   0.0000000), wk =   0.0219780
        k(    6) = (   0.1067838  -0.0000000   0.0000000), wk =   0.0219780
        k(    7) = (   0.1281405  -0.0000000   0.0000000), wk =   0.0219780
        k(    8) = (   0.1494973  -0.0000000   0.0000000), wk =   0.0219780
        k(    9) = (   0.1708540  -0.0000000   0.0000000), wk =   0.0219780
        k(   10) = (   0.1922108  -0.0000000   0.0000000), wk =   0.0219780
        k(   11) = (   0.2135676  -0.0000000   0.0000000), wk =   0.0219780
        k(   12) = (   0.2349243  -0.0000000   0.0000000), wk =   0.0219780
        k(   13) = (   0.2562811  -0.0000000   0.0000000), wk =   0.0219780
        k(   14) = (   0.2776378  -0.0000000   0.0000000), wk =   0.0219780
        k(   15) = (   0.2989946  -0.0000000   0.0000000), wk =   0.0219780
        k(   16) = (   0.3203513  -0.0000000   0.0000000), wk =   0.0219780
        k(   17) = (   0.3417081  -0.0000000   0.0000000), wk =   0.0219780
        k(   18) = (   0.3630648  -0.0000000   0.0000000), wk =   0.0219780
        k(   19) = (   0.3844216  -0.0000000   0.0000000), wk =   0.0219780
        k(   20) = (   0.4057784  -0.0000000   0.0000000), wk =   0.0219780
        k(   21) = (   0.4271351  -0.0000000   0.0000000), wk =   0.0219780
        k(   22) = (   0.4484919  -0.0000000   0.0000000), wk =   0.0219780
        k(   23) = (   0.4698486  -0.0000000   0.0000000), wk =   0.0219780
        k(   24) = (   0.4912054  -0.0000000   0.0000000), wk =   0.0219780
        k(   25) = (   0.5125621  -0.0000000   0.0000000), wk =   0.0219780
        k(   26) = (   0.5339189  -0.0000000   0.0000000), wk =   0.0219780
        k(   27) = (   0.5552756  -0.0000000   0.0000000), wk =   0.0219780
        k(   28) = (   0.5766324  -0.0000000   0.0000000), wk =   0.0219780
        k(   29) = (   0.5979892  -0.0000000   0.0000000), wk =   0.0219780
        k(   30) = (   0.6193459  -0.0000000   0.0000000), wk =   0.0219780
        k(   31) = (   0.6407027  -0.0000000   0.0000000), wk =   0.0219780
        k(   32) = (   0.6353635  -0.0092477   0.0000000), wk =   0.0219780
        k(   33) = (   0.6300243  -0.0184955   0.0000000), wk =   0.0219780
        k(   34) = (   0.6246851  -0.0277432   0.0000000), wk =   0.0219780
        k(   35) = (   0.6193459  -0.0369910   0.0000000), wk =   0.0219780
        k(   36) = (   0.6140067  -0.0462387   0.0000000), wk =   0.0219780
        k(   37) = (   0.6086675  -0.0554865   0.0000000), wk =   0.0219780
        k(   38) = (   0.6033283  -0.0647342   0.0000000), wk =   0.0219780
        k(   39) = (   0.5979892  -0.0739820   0.0000000), wk =   0.0219780
        k(   40) = (   0.5926500  -0.0832297   0.0000000), wk =   0.0219780
        k(   41) = (   0.5873108  -0.0924775   0.0000000), wk =   0.0219780
        k(   42) = (   0.5819716  -0.1017252   0.0000000), wk =   0.0219780
        k(   43) = (   0.5766324  -0.1109730   0.0000000), wk =   0.0219780
        k(   44) = (   0.5712932  -0.1202207   0.0000000), wk =   0.0219780
        k(   45) = (   0.5659540  -0.1294684   0.0000000), wk =   0.0219780
        k(   46) = (   0.5606148  -0.1387162   0.0000000), wk =   0.0219780
        k(   47) = (   0.5552756  -0.1479639   0.0000000), wk =   0.0219780
        k(   48) = (   0.5499365  -0.1572117   0.0000000), wk =   0.0219780
        k(   49) = (   0.5445973  -0.1664594   0.0000000), wk =   0.0219780
        k(   50) = (   0.5392581  -0.1757072   0.0000000), wk =   0.0219780
        k(   51) = (   0.5339189  -0.1849549   0.0000000), wk =   0.0219780
        k(   52) = (   0.5285797  -0.1942027   0.0000000), wk =   0.0219780
        k(   53) = (   0.5232405  -0.2034504   0.0000000), wk =   0.0219780
        k(   54) = (   0.5179013  -0.2126982   0.0000000), wk =   0.0219780
        k(   55) = (   0.5125621  -0.2219459   0.0000000), wk =   0.0219780
        k(   56) = (   0.5072229  -0.2311937   0.0000000), wk =   0.0219780
        k(   57) = (   0.5018838  -0.2404414   0.0000000), wk =   0.0219780
        k(   58) = (   0.4965446  -0.2496892   0.0000000), wk =   0.0219780
        k(   59) = (   0.4912054  -0.2589369   0.0000000), wk =   0.0219780
        k(   60) = (   0.4858662  -0.2681846   0.0000000), wk =   0.0219780
        k(   61) = (   0.4805270  -0.2774324   0.0000000), wk =   0.0219780
        k(   62) = (   0.4645094  -0.2681846   0.0000000), wk =   0.0219780
        k(   63) = (   0.4484919  -0.2589369   0.0000000), wk =   0.0219780
        k(   64) = (   0.4324743  -0.2496892   0.0000000), wk =   0.0219780
        k(   65) = (   0.4164567  -0.2404414   0.0000000), wk =   0.0219780
        k(   66) = (   0.4004392  -0.2311937   0.0000000), wk =   0.0219780
        k(   67) = (   0.3844216  -0.2219459   0.0000000), wk =   0.0219780
        k(   68) = (   0.3684040  -0.2126982   0.0000000), wk =   0.0219780
        k(   69) = (   0.3523865  -0.2034504   0.0000000), wk =   0.0219780
        k(   70) = (   0.3363689  -0.1942027   0.0000000), wk =   0.0219780
        k(   71) = (   0.3203513  -0.1849549   0.0000000), wk =   0.0219780
        k(   72) = (   0.3043338  -0.1757072   0.0000000), wk =   0.0219780
        k(   73) = (   0.2883162  -0.1664594   0.0000000), wk =   0.0219780
        k(   74) = (   0.2722986  -0.1572117   0.0000000), wk =   0.0219780
        k(   75) = (   0.2562811  -0.1479639   0.0000000), wk =   0.0219780
        k(   76) = (   0.2402635  -0.1387162   0.0000000), wk =   0.0219780
        k(   77) = (   0.2242459  -0.1294684   0.0000000), wk =   0.0219780
        k(   78) = (   0.2082284  -0.1202207   0.0000000), wk =   0.0219780
        k(   79) = (   0.1922108  -0.1109730   0.0000000), wk =   0.0219780
        k(   80) = (   0.1761932  -0.1017252   0.0000000), wk =   0.0219780
        k(   81) = (   0.1601757  -0.0924775   0.0000000), wk =   0.0219780
        k(   82) = (   0.1441581  -0.0832297   0.0000000), wk =   0.0219780
        k(   83) = (   0.1281405  -0.0739820   0.0000000), wk =   0.0219780
        k(   84) = (   0.1121230  -0.0647342   0.0000000), wk =   0.0219780
        k(   85) = (   0.0961054  -0.0554865   0.0000000), wk =   0.0219780
        k(   86) = (   0.0800878  -0.0462387   0.0000000), wk =   0.0219780
        k(   87) = (   0.0640703  -0.0369910   0.0000000), wk =   0.0219780
        k(   88) = (   0.0480527  -0.0277432   0.0000000), wk =   0.0219780
        k(   89) = (   0.0320351  -0.0184955   0.0000000), wk =   0.0219780
        k(   90) = (   0.0160176  -0.0092477   0.0000000), wk =   0.0219780
        k(   91) = (   0.0000000   0.0000000   0.0000000), wk =   0.0219780

     Dense  grid:   501473 G-vectors     FFT dimensions: (  50,  50, 480)

     Smooth grid:   397813 G-vectors     FFT dimensions: (  45,  45, 450)

     Estimated max dynamical RAM per process >       2.21 GB

     Estimated total dynamical RAM >       4.43 GB

     The potential is recalculated from file :
     /scratch/as3359/Ta2C_bandsdos/Ta.save/charge-density


     negative rho (up, down):  6.521E-05 0.000E+00
     Starting wfcs are   38 randomized atomic wfcs +    4 random wfcs

     Band Structure Calculation
     Davidson diagonalization with overlap

     ethr =  1.00E-13,  avg # of iterations = 74.4

     total cpu time spent up to now is      700.4 secs

     End of band structure calculation

          k = 0.0000 0.0000 0.0000 ( 49825 PWs)   bands (ev):

   -68.3580 -68.3092 -35.3825 -34.7778 -34.4830 -34.4830 -34.4144 -34.4144
   -20.0205 -20.0072 -19.9832 -19.9832 -19.9779 -19.9779 -19.9504 -19.9504
   -19.9437 -19.9437 -19.9307 -19.9255 -19.8666 -19.8651 -13.2990  -7.7075
    -4.4624  -4.4624  -1.9544  -1.0167  -0.8017  -0.2793  -0.2793   1.6604
     1.6604   2.8077   2.8077   3.4965   4.1685   4.3832   4.6334   5.1121
     5.3851   6.3143

          k = 0.0214-0.0000 0.0000 ( 49829 PWs)   bands (ev):

   -68.3578 -68.3091 -35.3818 -34.7780 -34.4855 -34.4839 -34.4167 -34.4147
   -20.0204 -20.0071 -19.9833 -19.9832 -19.9779 -19.9779 -19.9505 -19.9504
   -19.9437 -19.9436 -19.9305 -19.9254 -19.8668 -19.8652 -13.2927  -7.6956
    -4.4817  -4.4603  -1.9474  -1.0272  -0.7909  -0.2920  -0.2697   1.6317
     1.6514   2.8109   2.8216   3.5394   4.1793   4.3931   4.6421   5.1208
     5.3965   6.3229

          k = 0.0427-0.0000 0.0000 ( 49833 PWs)   bands (ev):

   -68.3572 -68.3087 -35.3798 -34.7789 -34.4928 -34.4867 -34.4235 -34.4157
   -20.0202 -20.0070 -19.9835 -19.9833 -19.9780 -19.9777 -19.9508 -19.9504
   -19.9437 -19.9435 -19.9301 -19.9250 -19.8672 -19.8657 -13.2741  -7.6600
    -4.5378  -4.4542  -1.9276  -1.0577  -0.7590  -0.3312  -0.2410   1.5606
     1.6241   2.8225   2.8550   3.6606   4.2111   4.4234   4.6680   5.1470
     5.4300   6.3487

          k = 0.0641-0.0000 0.0000 ( 49825 PWs)   bands (ev):

   -68.3562 -68.3081 -35.3764 -34.7805 -34.5045 -34.4917 -34.4343 -34.4176
   -20.0198 -20.0067 -19.9839 -19.9834 -19.9780 -19.9774 -19.9512 -19.9503
   -19.9438 -19.9434 -19.9294 -19.9243 -19.8680 -19.8664 -13.2436  -7.6013
    -4.6258  -4.4451  -1.8985  -1.1050  -0.7078  -0.3985  -0.1933   1.4776
     1.5786   2.8477   2.8946   3.8393   4.2627   4.4762   4.7109   5.1909
     5.4841   6.3915

          k = 0.0854-0.0000 0.0000 ( 49805 PWs)   bands (ev):

   -68.3548 -68.3073 -35.3718 -34.7828 -34.5201 -34.4997 -34.4481 -34.4206
   -20.0192 -20.0064 -19.9844 -19.9836 -19.9780 -19.9770 -19.9517 -19.9502
   -19.9439 -19.9431 -19.9283 -19.9233 -19.8690 -19.8675 -13.2017  -7.5204
    -4.7393  -4.4344  -1.8647  -1.1642  -0.6399  -0.4950  -0.1274   1.4086
     1.5167   2.8916   2.9333   4.0472   4.3324   4.5561   4.7703   5.2530
     5.5570   6.4513

          k = 0.1068-0.0000 0.0000 ( 49795 PWs)   bands (ev):

   -68.3531 -68.3062 -35.3660 -34.7861 -34.5388 -34.5119 -34.4631 -34.4248
   -20.0186 -20.0060 -19.9850 -19.9839 -19.9781 -19.9765 -19.9524 -19.9501
   -19.9440 -19.9429 -19.9271 -19.9221 -19.8702 -19.8688 -13.1492  -7.4184
    -4.8712  -4.4243  -1.8301  -1.2297  -0.6178  -0.5584  -0.0452   1.3686
     1.4432   2.9576   2.9681   4.2542   4.4190   4.6723   4.8462   5.3342
     5.6469   6.5275

          k = 0.1281-0.0000 0.0000 ( 49771 PWs)   bands (ev):

   -68.3510 -68.3050 -35.3591 -34.7907 -34.5601 -34.5299 -34.4774 -34.4303
   -20.0177 -20.0055 -19.9857 -19.9842 -19.9781 -19.9760 -19.9532 -19.9499
   -19.9442 -19.9425 -19.9255 -19.9207 -19.8717 -19.8704 -13.0872  -7.2969
    -5.0151  -4.4173  -1.7980  -1.2964  -0.7596  -0.4664   0.0486   1.3630
     1.3669   2.9966   3.0466   4.4350   4.5220   4.8332   4.9381   5.4362
     5.7524   6.6197

          k = 0.1495-0.0000 0.0000 ( 49765 PWs)   bands (ev):

   -68.3486 -68.3036 -35.3512 -34.7970 -34.5829 -34.5539 -34.4902 -34.4370
   -20.0168 -20.0050 -19.9864 -19.9847 -19.9782 -19.9755 -19.9540 -19.9498
   -19.9443 -19.9422 -19.9238 -19.9191 -19.8734 -19.8721 -13.0168  -7.1578
    -5.1655  -4.4166  -1.7702  -1.3616  -0.9081  -0.3667   0.1454   1.3017
     1.3911   3.0171   3.1573   4.5867   4.6409   5.0277   5.0461   5.5607
     5.8727   6.7264

          k = 0.1709-0.0000 0.0000 ( 49755 PWs)   bands (ev):

   -68.3459 -68.3020 -35.3425 -34.8054 -34.6065 -34.5826 -34.5022 -34.4450
   -20.0158 -20.0044 -19.9872 -19.9852 -19.9782 -19.9749 -19.9550 -19.9496
   -19.9443 -19.9418 -19.9219 -19.9173 -19.8753 -19.8741 -12.9393  -7.0033
    -5.3175  -4.4249  -1.7477  -1.4294  -1.0442  -0.2622   0.2298   1.2676
     1.4492   3.0280   3.2878   4.7244   4.7757   5.1701   5.2308   5.7085
     6.0072   6.8424

          k = 0.1922-0.0000 0.0000 ( 49767 PWs)   bands (ev):

   -68.3429 -68.3004 -35.3331 -34.8165 -34.6296 -34.6145 -34.5140 -34.4543
   -20.0147 -20.0038 -19.9879 -19.9857 -19.9782 -19.9743 -19.9559 -19.9494
   -19.9443 -19.9414 -19.9198 -19.9153 -19.8773 -19.8762 -12.8563  -6.8358
    -5.4674  -4.4450  -1.7306  -1.5149  -1.1397  -0.1568   0.2835   1.2887
     1.5330   3.0284   3.4354   4.8602   4.9261   5.3101   5.4262   5.8762
     6.1557   6.8510

          k = 0.2136-0.0000 0.0000 ( 49753 PWs)   bands (ev):

   -68.3398 -68.2986 -35.3231 -34.8308 -34.6511 -34.6484 -34.5262 -34.4646
   -20.0135 -20.0032 -19.9887 -19.9864 -19.9782 -19.9738 -19.9569 -19.9493
   -19.9443 -19.9409 -19.9175 -19.9131 -19.8794 -19.8785 -12.7691  -6.6581
    -5.6122  -4.4784  -1.7183  -1.6295  -1.1727  -0.0599   0.3013   1.3805
     1.6381   3.0184   3.5978   5.0000   5.0919   5.4659   5.6110   6.0551
     6.3177   6.8440

          k = 0.2349-0.0000 0.0000 ( 49705 PWs)   bands (ev):

   -68.3364 -68.2967 -35.3128 -34.8487 -34.6834 -34.6704 -34.5391 -34.4762
   -20.0123 -20.0026 -19.9894 -19.9871 -19.9782 -19.9733 -19.9578 -19.9491
   -19.9441 -19.9405 -19.9152 -19.9109 -19.8816 -19.8808 -12.6792  -6.4733
    -5.7493  -4.5256  -1.7616  -1.7096  -1.1476   0.0026   0.3142   1.5381
     1.7598   2.9995   3.7731   5.1458   5.2727   5.6376   5.7893   6.2346
     6.4922   6.8328

          k = 0.2563-0.0000 0.0000 ( 49701 PWs)   bands (ev):

   -68.3329 -68.2949 -35.3024 -34.8699 -34.7184 -34.6869 -34.5527 -34.4887
   -20.0110 -20.0020 -19.9901 -19.9878 -19.9783 -19.9729 -19.9587 -19.9490
   -19.9438 -19.9401 -19.9127 -19.9086 -19.8839 -19.8832 -12.5882  -6.2846
    -5.8769  -4.5856  -1.8938  -1.7031  -1.0778  -0.0058   0.3743   1.7454
     1.8929   2.9749   3.9597   5.2979   5.4681   5.8248   5.9648   6.4064
     6.6728   6.8285

          k = 0.2776-0.0000 0.0000 ( 49679 PWs)   bands (ev):

   -68.3294 -68.2930 -35.2921 -34.8938 -34.7527 -34.7010 -34.5671 -34.5023
   -20.0097 -20.0014 -19.9907 -19.9886 -19.9784 -19.9725 -19.9596 -19.9489
   -19.9434 -19.9397 -19.9102 -19.9062 -19.8862 -19.8857 -12.4974  -6.0956
    -5.9935  -4.6563  -2.0148  -1.6973  -0.9728  -0.0720   0.4821   1.9872
     2.0296   2.9510   4.1565   5.4555   5.6771   6.0272   6.1375   6.5665
     6.7760   6.9159

          k = 0.2990-0.0000 0.0000 ( 49653 PWs)   bands (ev):

   -68.3257 -68.2912 -35.2821 -34.9191 -34.7856 -34.7131 -34.5823 -34.5167
   -20.0084 -20.0009 -19.9912 -19.9893 -19.9785 -19.9723 -19.9605 -19.9488
   -19.9429 -19.9394 -19.9077 -19.9039 -19.8885 -19.8881 -12.4081  -6.0981
    -5.9102  -4.7350  -2.1181  -1.6904  -0.8399  -0.1629   0.6134   2.1580
     2.2521   2.9388   4.3625   5.6170   5.8984   6.2439   6.3016   6.7166
     6.7760   7.1210

          k = 0.3204-0.0000 0.0000 ( 49669 PWs)   bands (ev):

   -68.3220 -68.2894 -35.2725 -34.9450 -34.8165 -34.7237 -34.5980 -34.5319
   -20.0071 -20.0004 -19.9916 -19.9901 -19.9787 -19.9721 -19.9612 -19.9487
   -19.9423 -19.9391 -19.9051 -19.9015 -19.8908 -19.8905 -12.3216  -6.1899
    -5.7330  -4.8180  -2.1989  -1.6809  -0.6858  -0.2617   0.7565   2.2599
     2.5313   2.9559   4.5771   5.7795   6.1286   6.4439   6.4713   6.7699
     6.8683   7.3499

          k = 0.3417-0.0000 0.0000 ( 49677 PWs)   bands (ev):

   -68.3183 -68.2878 -35.2636 -34.9704 -34.8448 -34.7336 -34.6142 -34.5478
   -20.0058 -19.9999 -19.9919 -19.9908 -19.9789 -19.9720 -19.9619 -19.9486
   -19.9416 -19.9389 -19.9027 -19.8993 -19.8930 -19.8929 -12.2386  -6.2687
    -5.5694  -4.9008  -2.2538  -1.6676  -0.5179  -0.3604   0.9068   2.3181
     2.8166   3.0186   4.7992   5.9384   6.3536   6.5490   6.6760   6.8089
     7.0392   7.5939

          k = 0.3631-0.0000 0.0000 ( 49677 PWs)   bands (ev):

   -68.3147 -68.2862 -35.2555 -34.9944 -34.8701 -34.7430 -34.6308 -34.5643
   -20.0046 -19.9995 -19.9921 -19.9914 -19.9791 -19.9720 -19.9626 -19.9485
   -19.9410 -19.9388 -19.9003 -19.8974 -19.8951 -19.8949 -12.1602  -6.3342
    -5.4284  -4.9754  -2.2802  -1.6497  -0.4545  -0.3438   1.0620   2.3330
     3.0998   3.1250   5.0275   6.0846   6.5030   6.6174   6.7978   7.0204
     7.2386   7.8521

          k = 0.3844-0.0000 0.0000 ( 49675 PWs)   bands (ev):

   -68.3112 -68.2848 -35.2480 -35.0165 -34.8925 -34.7523 -34.6475 -34.5812
   -20.0034 -19.9993 -19.9921 -19.9919 -19.9795 -19.9722 -19.9631 -19.9483
   -19.9403 -19.9388 -19.8987 -19.8979 -19.8965 -19.8945 -12.0869  -6.3867
    -5.3311  -5.0214  -2.2765  -1.6269  -0.5406  -0.1723   1.2200   2.3227
     3.2547   3.3713   5.2590   6.2000   6.5030   6.6740   7.0199   7.2933
     7.4623   8.1243

          k = 0.4058-0.0000 0.0000 ( 49671 PWs)   bands (ev):

   -68.3078 -68.2836 -35.2411 -35.0361 -34.9118 -34.7618 -34.6640 -34.5983
   -20.0022 -19.9991 -19.9922 -19.9920 -19.9799 -19.9724 -19.9636 -19.9481
   -19.9397 -19.9388 -19.8998 -19.8998 -19.8952 -19.8927 -12.0191  -6.4264
    -5.3136  -5.0029  -2.2428  -1.5994  -0.6162  -0.0125   1.3792   2.3063
     3.3849   3.6197   5.4878   6.2578   6.4399   6.7576   7.3006   7.5869
     7.7012   8.3281

          k = 0.4271-0.0000 0.0000 ( 49663 PWs)   bands (ev):

   -68.3045 -68.2825 -35.2344 -35.0529 -34.9285 -34.7714 -34.6799 -34.6155
   -20.0011 -19.9991 -19.9924 -19.9917 -19.9803 -19.9726 -19.9641 -19.9478
   -19.9392 -19.9390 -19.9018 -19.9015 -19.8933 -19.8909 -11.9571  -6.4538
    -5.3611  -4.9342  -2.1804  -1.5683  -0.6788   0.1268   1.5375   2.2966
     3.4977   3.8304   5.6995   6.2523   6.3695   6.8872   7.6059   7.8970
     7.9434   8.4894

          k = 0.4485-0.0000 0.0000 ( 49673 PWs)   bands (ev):

   -68.3014 -68.2817 -35.2276 -35.0668 -34.9431 -34.7813 -34.6950 -34.6327
   -20.0000 -19.9992 -19.9924 -19.9913 -19.9808 -19.9729 -19.9645 -19.9474
   -19.9393 -19.9387 -19.9036 -19.9032 -19.8914 -19.8893 -11.9012  -6.4692
    -5.4310  -4.8563  -2.0926  -1.5350  -0.7269   0.2382   1.6928   2.3003
     3.5803   3.9852   5.8576   6.2091   6.3487   7.0513   7.9272   8.1713
     8.2216   8.6724

          k = 0.4698-0.0000 0.0000 ( 49675 PWs)   bands (ev):

   -68.2985 -68.2810 -35.2202 -35.0776 -34.9564 -34.7914 -34.7088 -34.6495
   -19.9993 -19.9990 -19.9923 -19.9908 -19.9812 -19.9733 -19.9649 -19.9470
   -19.9396 -19.9383 -19.9053 -19.9048 -19.8897 -19.8878 -11.8513  -6.4731
    -5.5068  -4.7839  -1.9842  -1.5010  -0.7597   0.3178   1.8421   2.3178
     3.6254   4.0636   5.9218   6.1568   6.4384   7.2336   8.2579   8.3706
     8.5570   8.9031

          k = 0.4912-0.0000 0.0000 ( 49671 PWs)   bands (ev):

   -68.2958 -68.2806 -35.2116 -35.0856 -34.9690 -34.8014 -34.7209 -34.6659
   -19.9995 -19.9980 -19.9921 -19.9902 -19.9818 -19.9737 -19.9653 -19.9466
   -19.9400 -19.9380 -19.9067 -19.9063 -19.8882 -19.8865 -11.8075  -6.4660
    -5.5834  -4.7199  -1.8611  -1.4677  -0.7782   0.3663   1.9821   2.3436
     3.6329   4.0529   5.9449   6.1168   6.6005   7.4191   8.5510   8.5841
     8.8954   9.1869

          k = 0.5126-0.0000 0.0000 ( 49721 PWs)   bands (ev):

   -68.2933 -68.2804 -35.2014 -35.0911 -34.9818 -34.8111 -34.7309 -34.6817
   -19.9997 -19.9970 -19.9919 -19.9894 -19.9823 -19.9742 -19.9657 -19.9461
   -19.9405 -19.9379 -19.9081 -19.9076 -19.8868 -19.8855 -11.7697  -6.4482
    -5.6595  -4.6638  -1.7297  -1.4352  -0.7860   0.3884   2.1082   2.3682
     3.6099   3.9615   5.9886   6.1031   6.7660   7.5910   8.7411   8.8578
     9.2224   9.5106

          k = 0.5339-0.0000 0.0000 ( 49729 PWs)   bands (ev):

   -68.2910 -68.2804 -35.1892 -35.0945 -34.9953 -34.8201 -34.7387 -34.6967
   -19.9998 -19.9961 -19.9917 -19.9887 -19.9828 -19.9746 -19.9661 -19.9455
   -19.9409 -19.9378 -19.9092 -19.9087 -19.8857 -19.8846 -11.7379  -6.4199
    -5.7350  -4.6150  -1.5965  -1.4024  -0.7899   0.3911   2.2148   2.3822
     3.5684   3.8193   6.0623   6.1233   6.8950   7.7329   8.9630   8.9838
     9.5445   9.7358

          k = 0.5553-0.0000 0.0000 ( 49741 PWs)   bands (ev):

   -68.2890 -68.2806 -35.1749 -35.0965 -35.0097 -34.8277 -34.7442 -34.7106
   -19.9999 -19.9953 -19.9916 -19.9879 -19.9832 -19.9750 -19.9665 -19.9450
   -19.9414 -19.9378 -19.9101 -19.9096 -19.8848 -19.8839 -11.7121  -6.3814
    -5.8103  -4.5730  -1.4676  -1.3673  -0.7991   0.3818   2.2950   2.3814
     3.5208   3.6646   6.1548   6.1783   6.9592   7.8368   9.0134   9.2213
     9.7506   9.9503

          k = 0.5766-0.0000 0.0000 ( 49729 PWs)   bands (ev):

   -68.2873 -68.2810 -35.1585 -35.0981 -35.0252 -34.8335 -34.7475 -34.7233
   -20.0000 -19.9945 -19.9916 -19.9871 -19.9837 -19.9753 -19.9668 -19.9444
   -19.9419 -19.9380 -19.9107 -19.9103 -19.8841 -19.8834 -11.6922  -6.3326
    -5.8861  -4.5383  -1.3480  -1.3277  -0.8245   0.3671   2.3429   2.3686
     3.4757   3.5318   6.2545   6.2630   6.9438   7.9056   9.0678   9.4995
     9.7453  10.3425

          k = 0.5980-0.0000 0.0000 ( 49747 PWs)   bands (ev):

   -68.2857 -68.2816 -35.1402 -35.1000 -35.0411 -34.8371 -34.7488 -34.7341
   -20.0000 -19.9938 -19.9918 -19.9864 -19.9842 -19.9756 -19.9671 -19.9438
   -19.9423 -19.9381 -19.9112 -19.9109 -19.8836 -19.8831 -11.6781  -6.2736
    -5.9632  -4.5118  -1.2823  -1.2409  -0.8764   0.3522   2.3525   2.3585
     3.4376   3.4426   6.3541   6.3666   6.8560   7.9485   9.1708   9.7256
     9.7603  10.2851

          k = 0.6193-0.0000 0.0000 ( 49777 PWs)   bands (ev):

   -68.2844 -68.2824 -35.1214 -35.1032 -35.0562 -34.8385 -34.7485 -34.7425
   -20.0000 -19.9931 -19.9921 -19.9857 -19.9846 -19.9758 -19.9673 -19.9433
   -19.9427 -19.9383 -19.9114 -19.9112 -19.8832 -19.8830 -11.6698  -6.2044
    -6.0426  -4.4948  -1.2318  -1.1468  -0.9612   0.3411   2.3421   2.3528
     3.4003   3.4094   6.4495   6.4739   6.7189   7.9741   9.2765   9.7555
     9.9431  10.0863

          k = 0.6407-0.0000 0.0000 ( 49803 PWs)   bands (ev):

   -68.2833 -68.2833 -35.1080 -35.1080 -35.0644 -34.8386 -34.7470 -34.7470
   -20.0000 -19.9926 -19.9926 -19.9851 -19.9851 -19.9759 -19.9673 -19.9430
   -19.9430 -19.9384 -19.9114 -19.9114 -19.8830 -19.8830 -11.6671  -6.1251
    -6.1251  -4.4888  -1.1941  -1.0635  -1.0635   0.3369   2.3430   2.3430
     3.3942   3.3942   6.5282   6.5675   6.5675   7.9845   9.3156   9.8883
     9.8883  10.0061

          k = 0.6354-0.0092 0.0000 ( 49781 PWs)   bands (ev):

   -68.2838 -68.2829 -35.1112 -35.1078 -35.0615 -34.8387 -34.7473 -34.7458
   -20.0000 -19.9928 -19.9923 -19.9854 -19.9849 -19.9759 -19.9673 -19.9431
   -19.9429 -19.9384 -19.9115 -19.9114 -19.8831 -19.8830 -11.6678  -6.1678
    -6.0817  -4.4904  -1.2199  -1.0808  -1.0243   0.3381   2.3408   2.3479
     3.3929   3.4003   6.4659   6.5881   6.6042   7.9807   9.3083   9.8010
     9.9877   9.9957

          k = 0.6300-0.0185 0.0000 ( 49803 PWs)   bands (ev):

   -68.2844 -68.2824 -35.1149 -35.1122 -35.0537 -34.8391 -34.7461 -34.7444
   -20.0000 -19.9931 -19.9921 -19.9856 -19.9847 -19.9758 -19.9673 -19.9432
   -19.9428 -19.9383 -19.9115 -19.9112 -19.8832 -19.8830 -11.6697  -6.2115
    -6.0358  -4.4950  -1.2893  -1.0610  -0.9860   0.3419   2.3413   2.3549
     3.3968   3.4106   6.3825   6.6287   6.6323   7.9667   9.2898   9.7247
     9.9692  10.0973

          k = 0.6247-0.0277 0.0000 ( 49785 PWs)   bands (ev):

   -68.2849 -68.2821 -35.1191 -35.1190 -35.0430 -34.8399 -34.7433 -34.7429
   -20.0001 -19.9934 -19.9919 -19.9859 -19.9845 -19.9757 -19.9672 -19.9433
   -19.9428 -19.9381 -19.9114 -19.9111 -19.8833 -19.8830 -11.6729  -6.2562
    -5.9875  -4.5028  -1.3779  -1.0274  -0.9476   0.3486   2.3444   2.3635
     3.4065   3.4241   6.3000   6.6512   6.6691   7.9382   9.2640   9.6626
     9.9348  10.2074

          k = 0.6193-0.0370 0.0000 ( 49755 PWs)   bands (ev):

   -68.2855 -68.2817 -35.1271 -35.1236 -35.0309 -34.8413 -34.7412 -34.7389
   -20.0001 -19.9937 -19.9918 -19.9861 -19.9844 -19.9756 -19.9671 -19.9434
   -19.9429 -19.9379 -19.9113 -19.9108 -19.8835 -19.8831 -11.6774  -6.3021
    -5.9368  -4.5137  -1.4765  -0.9882  -0.9086   0.3585   2.3493   2.3728
     3.4225   3.4402   6.2205   6.6606   6.7084   7.8911   9.2333   9.6152
     9.9007  10.3074

          k = 0.6140-0.0462 0.0000 ( 49729 PWs)   bands (ev):

   -68.2861 -68.2815 -35.1356 -35.1284 -35.0179 -34.8433 -34.7393 -34.7329
   -20.0003 -19.9941 -19.9916 -19.9864 -19.9843 -19.9754 -19.9669 -19.9434
   -19.9431 -19.9377 -19.9112 -19.9106 -19.8837 -19.8832 -11.6830  -6.3491
    -5.8839  -4.5274  -1.5817  -0.9457  -0.8682   0.3719   2.3552   2.3818
     3.4452   3.4583   6.1456   6.6612   6.7465   7.8224   9.1990   9.5784
     9.8764  10.3844

          k = 0.6087-0.0555 0.0000 ( 49729 PWs)   bands (ev):

   -68.2867 -68.2812 -35.1444 -35.1336 -35.0044 -34.8458 -34.7374 -34.7255
   -20.0004 -19.9943 -19.9915 -19.9866 -19.9843 -19.9753 -19.9668 -19.9435
   -19.9432 -19.9374 -19.9110 -19.9102 -19.8839 -19.8833 -11.6896  -6.3971
    -5.8287  -4.5439  -1.6915  -0.9008  -0.8261   0.3891   2.3607   2.3899
     3.4746   3.4783   6.0766   6.6538   6.7832   7.7312   9.1619   9.5439
     9.8722  10.4250

          k = 0.6033-0.0647 0.0000 ( 49736 PWs)   bands (ev):

   -68.2873 -68.2810 -35.1532 -35.1391 -34.9906 -34.8487 -34.7354 -34.7169
   -20.0006 -19.9946 -19.9915 -19.9869 -19.9842 -19.9750 -19.9666 -19.9435
   -19.9434 -19.9371 -19.9108 -19.9099 -19.8841 -19.8835 -11.6972  -6.4461
    -5.7715  -4.5629  -1.8046  -0.8540  -0.7821   0.4106   2.3645   2.3966
     3.4999   3.5106   6.0144   6.6393   6.8185   7.6188   9.1226   9.5036
     9.8941  10.4245

          k = 0.5980-0.0740 0.0000 ( 49748 PWs)   bands (ev):

   -68.2880 -68.2808 -35.1620 -35.1447 -34.9767 -34.8519 -34.7333 -34.7073
   -20.0009 -19.9948 -19.9914 -19.9871 -19.9842 -19.9748 -19.9664 -19.9437
   -19.9435 -19.9368 -19.9106 -19.9095 -19.8843 -19.8836 -11.7058  -6.4960
    -5.7123  -4.5840  -1.9196  -0.8056  -0.7359   0.4366   2.3654   2.4018
     3.5228   3.5525   5.9602   6.6188   6.8523   7.4880   9.0816   9.4555
     9.9399  10.3928

          k = 0.5926-0.0832 0.0000 ( 49746 PWs)   bands (ev):

   -68.2886 -68.2807 -35.1706 -35.1505 -34.9628 -34.8553 -34.7312 -34.6969
   -20.0013 -19.9950 -19.9914 -19.9873 -19.9842 -19.9745 -19.9661 -19.9439
   -19.9435 -19.9364 -19.9103 -19.9091 -19.8846 -19.8838 -11.7151  -6.5465
    -5.6513  -4.6068  -2.0354  -0.7560  -0.6878   0.4676   2.3625   2.4053
     3.5468   3.5994   5.9149   6.5933   6.8843   7.3423   9.0391   9.4013
    10.0010  10.3443

          k = 0.5873-0.0925 0.0000 ( 49738 PWs)   bands (ev):

   -68.2892 -68.2806 -35.1791 -35.1563 -34.9489 -34.8589 -34.7290 -34.6860
   -20.0017 -19.9952 -19.9914 -19.9875 -19.9842 -19.9743 -19.9659 -19.9442
   -19.9435 -19.9361 -19.9100 -19.9086 -19.8848 -19.8840 -11.7252  -6.5977
    -5.5886  -4.6310  -2.1512  -0.7055  -0.6381   0.5042   2.3550   2.4074
     3.5714   3.6502   5.8794   6.5636   6.9144   7.1851   8.9957   9.3439
    10.0665  10.2886

          k = 0.5820-0.1017 0.0000 ( 49752 PWs)   bands (ev):

   -68.2899 -68.2805 -35.1874 -35.1621 -34.9352 -34.8625 -34.7268 -34.6746
   -20.0021 -19.9953 -19.9915 -19.9877 -19.9843 -19.9740 -19.9657 -19.9444
   -19.9434 -19.9357 -19.9097 -19.9081 -19.8851 -19.8842 -11.7359  -6.6491
    -5.5245  -4.6562  -2.2660  -0.6545  -0.5873   0.5470   2.3425   2.4084
     3.5961   3.7036   5.8544   6.5299   6.9425   7.0203   8.9515   9.2852
    10.1246  10.2299

          k = 0.5766-0.1110 0.0000 ( 49742 PWs)   bands (ev):

   -68.2905 -68.2804 -35.1954 -35.1678 -34.9217 -34.8661 -34.7245 -34.6629
   -20.0026 -19.9954 -19.9915 -19.9879 -19.9843 -19.9737 -19.9654 -19.9447
   -19.9434 -19.9353 -19.9094 -19.9076 -19.8853 -19.8844 -11.7471  -6.7005
    -5.4590  -4.6820  -2.3792  -0.6032  -0.5361   0.5964   2.3249   2.4086
     3.6202   3.7581   5.8402   6.4910   6.8523   6.9682   8.9071   9.2267
    10.1649  10.1675

          k = 0.5713-0.1202 0.0000 ( 49780 PWs)   bands (ev):

   -68.2911 -68.2804 -35.2032 -35.1735 -34.9086 -34.8697 -34.7222 -34.6512
   -20.0031 -19.9955 -19.9916 -19.9881 -19.9844 -19.9735 -19.9652 -19.9449
   -19.9433 -19.9350 -19.9090 -19.9071 -19.8856 -19.8846 -11.7586  -6.7518
    -5.3926  -4.7081  -2.4902  -0.5521  -0.4852   0.6530   2.3024   2.4085
     3.6431   3.8123   5.8373   6.4414   6.6900   6.9914   8.8627   9.1692
    10.0884  10.1410

          k = 0.5660-0.1295 0.0000 ( 49792 PWs)   bands (ev):

   -68.2917 -68.2804 -35.2106 -35.1791 -34.8959 -34.8733 -34.7199 -34.6394
   -20.0037 -19.9955 -19.9917 -19.9882 -19.9844 -19.9732 -19.9649 -19.9452
   -19.9433 -19.9346 -19.9087 -19.9066 -19.8859 -19.8848 -11.7704  -6.8025
    -5.3253  -4.7340  -2.5985  -0.5014  -0.4353   0.7174   2.2754   2.4083
     3.6643   3.8643   5.8455   6.3608   6.5562   7.0118   8.8187   9.1134
     9.9875  10.0807

          k = 0.5606-0.1387 0.0000 ( 49784 PWs)   bands (ev):

   -68.2923 -68.2804 -35.2177 -35.1845 -34.8837 -34.8767 -34.7176 -34.6278
   -20.0043 -19.9955 -19.9918 -19.9883 -19.9844 -19.9730 -19.9647 -19.9454
   -19.9432 -19.9343 -19.9083 -19.9061 -19.8862 -19.8851 -11.7823  -6.8524
    -5.2575  -4.7595  -2.7035  -0.4517  -0.3873   0.7899   2.2445   2.4085
     3.6834   3.9126   5.8645   6.2269   6.4759   7.0292   8.7755   9.0597
     9.8799  10.0284

          k = 0.5553-0.1480 0.0000 ( 49760 PWs)   bands (ev):

   -68.2928 -68.2804 -35.2244 -35.1896 -34.8800 -34.8720 -34.7152 -34.6164
   -20.0048 -19.9956 -19.9919 -19.9885 -19.9845 -19.9727 -19.9644 -19.9457
   -19.9432 -19.9339 -19.9080 -19.9056 -19.8864 -19.8853 -11.7942  -6.9011
    -5.1895  -4.7842  -2.8050  -0.4032  -0.3418   0.8708   2.2105   2.4093
     3.7000   3.9552   5.8938   6.0627   6.4289   7.0432   8.7334   9.0086
     9.7713   9.9801

          k = 0.5499-0.1572 0.0000 ( 49766 PWs)   bands (ev):

   -68.2934 -68.2804 -35.2308 -35.1946 -34.8831 -34.8610 -34.7128 -34.6054
   -20.0054 -19.9956 -19.9920 -19.9886 -19.9846 -19.9725 -19.9642 -19.9459
   -19.9431 -19.9336 -19.9076 -19.9051 -19.8867 -19.8855 -11.8060  -6.9482
    -5.1215  -4.8081  -2.9027  -0.3564  -0.2994   0.9602   2.1741   2.4108
     3.7142   3.9898   5.8913   5.9326   6.3946   7.0536   8.6928   8.9602
     9.6641   9.9351

          k = 0.5446-0.1665 0.0000 ( 49762 PWs)   bands (ev):

   -68.2939 -68.2804 -35.2367 -35.1993 -34.8861 -34.8508 -34.7104 -34.5948
   -20.0060 -19.9956 -19.9921 -19.9886 -19.9846 -19.9722 -19.9640 -19.9461
   -19.9430 -19.9333 -19.9072 -19.9045 -19.8869 -19.8857 -11.8175  -6.9935
    -5.0540  -4.8307  -2.9963  -0.3116  -0.2602   1.0578   2.1363   2.4134
     3.7259   4.0140   5.7219   5.9798   6.3667   7.0602   8.6539   8.9148
     9.5598   9.8929

          k = 0.5393-0.1757 0.0000 ( 49764 PWs)   bands (ev):

   -68.2944 -68.2805 -35.2422 -35.2037 -34.8889 -34.8412 -34.7079 -34.5847
   -20.0065 -19.9956 -19.9923 -19.9887 -19.9847 -19.9720 -19.9638 -19.9463
   -19.9429 -19.9330 -19.9069 -19.9041 -19.8872 -19.8859 -11.8286  -7.0366
    -4.9873  -4.8520  -3.0855  -0.2692  -0.2247   1.1634   2.0979   2.4170
     3.7354   4.0247   5.5599   6.0342   6.3433   7.0626   8.6171   8.8725
     9.4598   9.8536

          k = 0.5339-0.1850 0.0000 ( 49758 PWs)   bands (ev):

   -68.2948 -68.2805 -35.2473 -35.2078 -34.8914 -34.8325 -34.7055 -34.5752
   -20.0070 -19.9956 -19.9924 -19.9888 -19.9847 -19.9718 -19.9636 -19.9464
   -19.9429 -19.9327 -19.9066 -19.9036 -19.8874 -19.8861 -11.8392  -7.0771
    -4.9219  -4.8719  -3.1702  -0.2296  -0.1928   1.2764   2.0598   2.4221
     3.7429   4.0185   5.4097   6.0944   6.3239   7.0606   8.5826   8.8336
     9.3651   9.8171

          k = 0.5286-0.1942 0.0000 ( 49754 PWs)   bands (ev):

   -68.2952 -68.2806 -35.2520 -35.2115 -34.8938 -34.8246 -34.7031 -34.5664
   -20.0074 -19.9956 -19.9925 -19.9888 -19.9848 -19.9717 -19.9634 -19.9466
   -19.9428 -19.9325 -19.9063 -19.9032 -19.8876 -19.8863 -11.8492  -7.1148
    -4.8901  -4.8581  -3.2500  -0.1930  -0.1645   1.3957   2.0228   2.4287
     3.7487   3.9916   5.2757   6.1594   6.3081   7.0539   8.5506   8.7981
     9.2769   9.7836

          k = 0.5232-0.2035 0.0000 ( 49754 PWs)   bands (ev):

   -68.2956 -68.2806 -35.2562 -35.2149 -34.8959 -34.8176 -34.7008 -34.5584
   -20.0079 -19.9956 -19.9926 -19.9888 -19.9848 -19.9715 -19.9632 -19.9467
   -19.9427 -19.9323 -19.9060 -19.9027 -19.8878 -19.8864 -11.8585  -7.1494
    -4.9065  -4.7966  -3.3249  -0.1597  -0.1397   1.5204   1.9878   2.4373
     3.7531   3.9407   5.1620   6.2276   6.2955   7.0424   8.5214   8.7660
     9.1959   9.7530

          k = 0.5179-0.2127 0.0000 ( 49758 PWs)   bands (ev):

   -68.2959 -68.2806 -35.2599 -35.2180 -34.8978 -34.8115 -34.6986 -34.5511
   -20.0083 -19.9956 -19.9927 -19.9889 -19.9848 -19.9714 -19.9631 -19.9469
   -19.9427 -19.9321 -19.9057 -19.9024 -19.8880 -19.8866 -11.8669  -7.1806
    -4.9212  -4.7380  -3.3943  -0.1300  -0.1183   1.6488   1.9553   2.4486
     3.7564   3.8646   5.0706   6.2859   6.2978   7.0258   8.4952   8.7376
     9.1229   9.7255

          k = 0.5126-0.2219 0.0000 ( 49762 PWs)   bands (ev):

   -68.2962 -68.2807 -35.2632 -35.2206 -34.8995 -34.8062 -34.6965 -34.5447
   -20.0086 -19.9956 -19.9928 -19.9889 -19.9849 -19.9712 -19.9629 -19.9470
   -19.9426 -19.9319 -19.9055 -19.9020 -19.8882 -19.8867 -11.8744  -7.2081
    -4.9341  -4.6830  -3.4578  -0.1040  -0.1002   1.7785   1.9261   2.4643
     3.7588   3.7644   5.0013   6.2789   6.3690   7.0040   8.4721   8.7128
     9.0586   9.7012

          k = 0.5072-0.2312 0.0000 ( 49764 PWs)   bands (ev):

   -68.2965 -68.2807 -35.2660 -35.2229 -34.9009 -34.8018 -34.6947 -34.5392
   -20.0089 -19.9956 -19.9929 -19.9889 -19.9849 -19.9711 -19.9628 -19.9471
   -19.9426 -19.9317 -19.9052 -19.9018 -19.8883 -19.8868 -11.8809  -7.2317
    -4.9450  -4.6327  -3.5147  -0.0851  -0.0820   1.9005   1.9054   2.4871
     3.6441   3.7605   4.9511   6.2739   6.4399   6.9769   8.4522   8.6917
     9.0035   9.6802

          k = 0.5019-0.2404 0.0000 ( 49754 PWs)   bands (ev):

   -68.2967 -68.2807 -35.2682 -35.2248 -34.9021 -34.7982 -34.6931 -34.5347
   -20.0092 -19.9956 -19.9930 -19.9889 -19.9849 -19.9710 -19.9627 -19.9471
   -19.9425 -19.9316 -19.9051 -19.9015 -19.8884 -19.8869 -11.8863  -7.2513
    -4.9540  -4.5883  -3.5642  -0.0729  -0.0638   1.8791   2.0228   2.5227
     3.5089   3.7618   4.9162   6.2707   6.5096   6.9445   8.4358   8.6744
     8.9579   9.6628

          k = 0.4965-0.2497 0.0000 ( 49750 PWs)   bands (ev):

   -68.2968 -68.2808 -35.2700 -35.2262 -34.9030 -34.7955 -34.6918 -34.5311
   -20.0093 -19.9956 -19.9930 -19.9889 -19.9849 -19.9710 -19.9627 -19.9472
   -19.9425 -19.9315 -19.9049 -19.9013 -19.8885 -19.8870 -11.8906  -7.2668
    -4.9610  -4.5511  -3.6050  -0.0636  -0.0497   1.8621   2.1206   2.5795
     3.3641   3.7626   4.8928   6.2686   6.5772   6.9068   8.4228   8.6610
     8.9222   9.6491

          k = 0.4912-0.2589 0.0000 ( 49744 PWs)   bands (ev):

   -68.2969 -68.2808 -35.2713 -35.2273 -34.9037 -34.7936 -34.6908 -34.5286
   -20.0095 -19.9956 -19.9931 -19.9889 -19.9850 -19.9709 -19.9626 -19.9472
   -19.9425 -19.9315 -19.9048 -19.9012 -19.8886 -19.8871 -11.8937  -7.2779
    -4.9661  -4.5228  -3.6358  -0.0570  -0.0397   1.8498   2.1893   2.6651
     3.2148   3.7632   4.8780   6.2675   6.6418   6.8640   8.4136   8.6513
     8.8965   9.6391

          k = 0.4859-0.2682 0.0000 ( 49728 PWs)   bands (ev):

   -68.2970 -68.2808 -35.2721 -35.2279 -34.9041 -34.7924 -34.6902 -34.5270
   -20.0096 -19.9956 -19.9931 -19.9889 -19.9850 -19.9709 -19.9626 -19.9473
   -19.9425 -19.9314 -19.9048 -19.9011 -19.8886 -19.8871 -11.8955  -7.2845
    -4.9691  -4.5050  -3.6550  -0.0530  -0.0336   1.8424   2.2273   2.7777
     3.0665   3.7635   4.8698   6.2669   6.7022   6.8169   8.4079   8.6455
     8.8811   9.6331

          k = 0.4805-0.2774 0.0000 ( 49720 PWs)   bands (ev):

   -68.2970 -68.2808 -35.2723 -35.2281 -34.9042 -34.7920 -34.6900 -34.5265
   -20.0096 -19.9956 -19.9931 -19.9889 -19.9850 -19.9709 -19.9626 -19.9473
   -19.9425 -19.9314 -19.9048 -19.9011 -19.8886 -19.8871 -11.8962  -7.2868
    -4.9701  -4.4989  -3.6615  -0.0517  -0.0316   1.8399   2.2390   2.8814
     2.9517   3.7636   4.8672   6.2668   6.7462   6.7774   8.4061   8.6436
     8.8759   9.6311

          k = 0.4645-0.2682 0.0000 ( 49728 PWs)   bands (ev):

   -68.2973 -68.2808 -35.2718 -35.2265 -34.9040 -34.7915 -34.6895 -34.5262
   -20.0096 -19.9957 -19.9931 -19.9889 -19.9850 -19.9709 -19.9626 -19.9473
   -19.9425 -19.9314 -19.9047 -19.9010 -19.8887 -19.8872 -11.8989  -7.2826
    -4.9711  -4.4975  -3.6562  -0.0786  -0.0396   1.8419   2.2325   2.8745
     2.9409   3.7542   4.8415   6.2642   6.7664   6.8051   8.3563   8.5600
     8.9282   9.5735

          k = 0.4485-0.2589 0.0000 ( 49712 PWs)   bands (ev):

   -68.2979 -68.2809 -35.2702 -35.2217 -34.9032 -34.7899 -34.6879 -34.5252
   -20.0095 -19.9957 -19.9931 -19.9889 -19.9849 -19.9709 -19.9626 -19.9473
   -19.9426 -19.9316 -19.9044 -19.9008 -19.8891 -19.8875 -11.9070  -7.2700
    -4.9743  -4.4936  -3.6404  -0.1484  -0.0715   1.8437   2.2157   2.8552
     2.9077   3.7282   4.7669   6.2569   6.8239   6.8855   8.1781   8.4728
     8.9634   9.2611

          k = 0.4325-0.2497 0.0000 ( 49714 PWs)   bands (ev):

   -68.2989 -68.2811 -35.2679 -35.2135 -34.9017 -34.7873 -34.6853 -34.5235
   -20.0095 -19.9958 -19.9932 -19.9888 -19.9848 -19.9708 -19.9626 -19.9472
   -19.9428 -19.9318 -19.9039 -19.9004 -19.8897 -19.8880 -11.9205  -7.2489
    -4.9804  -4.4871  -3.6139  -0.2533  -0.1262   1.8341   2.1947   2.8286
     2.8501   3.6917   4.6502   6.2458   6.9108   7.0093   7.9447   8.3578
     8.9475   8.9835

          k = 0.4165-0.2404 0.0000 ( 49708 PWs)   bands (ev):

   -68.3003 -68.2814 -35.2653 -35.2020 -34.8991 -34.7839 -34.6818 -34.5211
   -20.0094 -19.9959 -19.9933 -19.9886 -19.9847 -19.9708 -19.9626 -19.9472
   -19.9430 -19.9321 -19.9032 -19.8998 -19.8906 -19.8887 -11.9396  -7.2195
    -4.9906  -4.4782  -3.5768  -0.3859  -0.1994   1.8018   2.1731   2.7663
     2.8027   3.6521   4.4995   6.2319   7.0173   7.1536   7.7217   8.1809
     8.6437   8.8775

          k = 0.4004-0.2312 0.0000 ( 49702 PWs)   bands (ev):

   -68.3020 -68.2818 -35.2627 -35.1872 -34.8950 -34.7799 -34.6772 -34.5182
   -20.0092 -19.9959 -19.9935 -19.9885 -19.9844 -19.9707 -19.9626 -19.9471
   -19.9433 -19.9324 -19.9023 -19.8991 -19.8917 -19.8896 -11.9643  -7.1818
    -5.0066  -4.4673  -3.5290  -0.5379  -0.2861   1.7436   2.1456   2.6567
     2.7872   3.6148   4.3232   6.2167   7.1344   7.2241   7.6065   7.9657
     8.3499   8.6235

          k = 0.3844-0.2219 0.0000 ( 49680 PWs)   bands (ev):

   -68.3040 -68.2824 -35.2606 -35.1692 -34.8888 -34.7753 -34.6718 -34.5147
   -20.0091 -19.9959 -19.9939 -19.9883 -19.9841 -19.9707 -19.9626 -19.9470
   -19.9436 -19.9329 -19.9013 -19.8983 -19.8930 -19.8907 -11.9947  -7.1357
    -5.0301  -4.4546  -3.4707  -0.7004  -0.3818   1.6636   2.1021   2.5241
     2.7895   3.5809   4.1299   6.2012   7.0888   7.2543   7.6958   7.7610
     8.0673   8.3586

          k = 0.3684-0.2127 0.0000 ( 49694 PWs)   bands (ev):

   -68.3063 -68.2831 -35.2593 -35.1483 -34.8803 -34.7703 -34.6654 -34.5106
   -20.0090 -19.9958 -19.9944 -19.9881 -19.9837 -19.9706 -19.9625 -19.9470
   -19.9440 -19.9333 -19.9001 -19.8973 -19.8944 -19.8920 -12.0309  -7.0815
    -5.0636  -4.4406  -3.4016  -0.8652  -0.4820   1.5677   2.0382   2.3736
     2.8101   3.5454   3.9310   6.1863   6.8824   7.3705   7.4886   7.7945
     7.9113   8.1258

          k = 0.3524-0.2035 0.0000 ( 49708 PWs)   bands (ev):

   -68.3088 -68.2839 -35.2592 -35.1247 -34.8691 -34.7650 -34.6583 -34.5061
   -20.0090 -19.9958 -19.9949 -19.9878 -19.9833 -19.9706 -19.9624 -19.9469
   -19.9444 -19.9339 -19.8987 -19.8962 -19.8961 -19.8934 -12.0728  -7.0195
    -5.1090  -4.4257  -3.3220  -1.0246  -0.5831   1.4602   1.9572   2.2108
     2.8435   3.4871   3.7520   6.1720   6.6706   7.2537   7.4780   7.5355
     7.8012   8.1856

          k = 0.3364-0.1942 0.0000 ( 49704 PWs)   bands (ev):

   -68.3114 -68.2849 -35.2603 -35.0987 -34.8551 -34.7593 -34.6504 -34.5011
   -20.0090 -19.9960 -19.9952 -19.9876 -19.9828 -19.9706 -19.9623 -19.9468
   -19.9449 -19.9344 -19.8978 -19.8972 -19.8950 -19.8949 -12.1204  -6.9500
    -5.1683  -4.4103  -3.2319  -1.1719  -0.6818   1.3438   1.8652   2.0408
     2.8824   3.3565   3.6450   6.1572   6.4652   7.0255   7.2879   7.5635
     7.5731   8.0894

          k = 0.3204-0.1850 0.0000 ( 49688 PWs)   bands (ev):

   -68.3142 -68.2860 -35.2629 -35.0707 -34.8383 -34.7533 -34.6418 -34.4958
   -20.0090 -19.9967 -19.9950 -19.9873 -19.9823 -19.9707 -19.9621 -19.9466
   -19.9453 -19.9350 -19.8997 -19.8966 -19.8956 -19.8935 -12.1735  -6.8740
    -5.2424  -4.3952  -3.1315  -1.3018  -0.7757   1.2204   1.7683   1.8680
     2.9210   3.1624   3.6038   6.1377   6.2700   6.8095   7.0528   7.3275
     7.6529   7.8608

          k = 0.3043-0.1757 0.0000 ( 49732 PWs)   bands (ev):

   -68.3172 -68.2873 -35.2668 -35.0411 -34.8187 -34.7469 -34.6327 -34.4902
   -20.0092 -19.9975 -19.9946 -19.9870 -19.9818 -19.9708 -19.9617 -19.9465
   -19.9458 -19.9357 -19.9017 -19.8985 -19.8938 -19.8920 -12.2319  -6.7926
    -5.3309  -4.3808  -3.0212  -1.4106  -0.8626   1.0917   1.6712   1.6957
     2.9506   2.9550   3.5848   6.0718   6.1196   6.6134   6.8322   7.0999
     7.6404   7.7155

          k = 0.2883-0.1665 0.0000 ( 49712 PWs)   bands (ev):

   -68.3202 -68.2886 -35.2721 -35.0105 -34.7969 -34.7398 -34.6231 -34.4843
   -20.0094 -19.9984 -19.9941 -19.9867 -19.9813 -19.9710 -19.9613 -19.9463
   -19.9463 -19.9363 -19.9038 -19.9003 -19.8920 -19.8904 -12.2950  -6.7083
    -5.4316  -4.3678  -2.9016  -1.4965  -0.9409   0.9591   1.5264   1.5775
     2.7391   2.9817   3.5720   5.9018   6.0545   6.4485   6.6317   6.8820
     7.4298   7.7603

          k = 0.2723-0.1572 0.0000 ( 49704 PWs)   bands (ev):

   -68.3233 -68.2900 -35.2784 -34.9794 -34.7734 -34.7314 -34.6130 -34.4783
   -20.0098 -19.9992 -19.9936 -19.9864 -19.9809 -19.9712 -19.9609 -19.9467
   -19.9462 -19.9370 -19.9059 -19.9023 -19.8901 -19.8886 -12.3624  -6.6252
    -5.5389  -4.3566  -2.7733  -1.5593  -1.0091   0.8239   1.3619   1.4898
     2.5352   2.9993   3.5600   5.7359   5.9483   6.3099   6.4727   6.6747
     7.2294   7.5542

          k = 0.2563-0.1480 0.0000 ( 49692 PWs)   bands (ev):

   -68.3264 -68.2915 -35.2857 -34.9485 -34.7497 -34.7206 -34.6026 -34.4722
   -20.0103 -20.0000 -19.9929 -19.9861 -19.9805 -19.9715 -19.9603 -19.9472
   -19.9460 -19.9376 -19.9081 -19.9043 -19.8881 -19.8868 -12.4335  -6.5514
    -5.6427  -4.3478  -2.6376  -1.6007  -1.0659   0.6875   1.2031   1.4099
     2.3434   3.0073   3.5462   5.5788   5.8031   6.1564   6.3823   6.4807
     7.0393   7.3473

          k = 0.2403-0.1387 0.0000 ( 49637 PWs)   bands (ev):

   -68.3295 -68.2931 -35.2936 -34.9187 -34.7288 -34.7041 -34.5921 -34.4661
   -20.0109 -20.0008 -19.9922 -19.9858 -19.9801 -19.9718 -19.9596 -19.9476
   -19.9458 -19.9383 -19.9103 -19.9063 -19.8861 -19.8850 -12.5074  -6.5020
    -5.7253  -4.3419  -2.4959  -1.6237  -1.1098   0.5512   1.0504   1.3395
     2.1672   3.0057   3.5288   5.4302   5.6418   5.9888   6.2729   6.3566
     6.8601   7.1558

          k = 0.2242-0.1295 0.0000 ( 49701 PWs)   bands (ev):

   -68.3326 -68.2947 -35.3020 -34.8908 -34.7121 -34.6806 -34.5814 -34.4601
   -20.0117 -20.0015 -19.9915 -19.9856 -19.9798 -19.9723 -19.9589 -19.9480
   -19.9457 -19.9389 -19.9124 -19.9084 -19.8841 -19.8831 -12.5832  -6.4988
    -5.7619  -4.3390  -2.3507  -1.6319  -1.1388   0.4159   0.9039   1.2799
     2.0097   2.9952   3.5066   5.2896   5.4785   5.8237   6.0982   6.3047
     6.6919   6.9909

          k = 0.2082-0.1202 0.0000 ( 49747 PWs)   bands (ev):

   -68.3356 -68.2963 -35.3107 -34.8660 -34.6961 -34.6534 -34.5707 -34.4543
   -20.0125 -20.0022 -19.9907 -19.9853 -19.9795 -19.9727 -19.9582 -19.9483
   -19.9455 -19.9395 -19.9146 -19.9103 -19.8822 -19.8811 -12.6600  -6.5536
    -5.7379  -4.3395  -2.2056  -1.6294  -1.1503   0.2827   0.7634   1.2322
     1.8733   2.9773   3.4784   5.1563   5.3194   5.6664   5.9247   6.2287
     6.5336   6.8691

          k = 0.1922-0.1110 0.0000 ( 49745 PWs)   bands (ev):

   -68.3385 -68.2979 -35.3195 -34.8449 -34.6783 -34.6251 -34.5602 -34.4486
   -20.0134 -20.0028 -19.9899 -19.9850 -19.9792 -19.9732 -19.9573 -19.9487
   -19.9453 -19.9401 -19.9166 -19.9123 -19.8802 -19.8792 -12.7368  -6.6538
    -5.6633  -4.3431  -2.0663  -1.6192  -1.1411   0.1523   0.6286   1.1973
     1.7595   2.9537   3.4436   5.0296   5.1673   5.5186   5.7539   6.1134
     6.3826   6.7988

          k = 0.1762-0.1017 0.0000 ( 49745 PWs)   bands (ev):

   -68.3413 -68.2994 -35.3281 -34.8278 -34.6582 -34.5968 -34.5498 -34.4433
   -20.0143 -20.0034 -19.9891 -19.9848 -19.9790 -19.9737 -19.9565 -19.9490
   -19.9451 -19.9406 -19.9186 -19.9142 -19.8783 -19.8773 -12.8125  -6.7783
    -5.5576  -4.3499  -1.9427  -1.5998  -1.1081   0.0257   0.4998   1.1757
     1.6692   2.9266   3.4017   4.9088   5.0234   5.3811   5.5821   5.9702
     6.2387   6.7666

          k = 0.1602-0.0925 0.0000 ( 49771 PWs)   bands (ev):

   -68.3440 -68.3009 -35.3365 -34.8145 -34.6360 -34.5692 -34.5398 -34.4383
   -20.0152 -20.0040 -19.9882 -19.9846 -19.9788 -19.9743 -19.9557 -19.9492
   -19.9449 -19.9411 -19.9205 -19.9160 -19.8765 -19.8754 -12.8860  -6.9117
    -5.4347  -4.3594  -1.8510  -1.5626  -1.0502  -0.0962   0.3773   1.1679
     1.6023   2.8984   3.3526   4.7930   4.8882   5.2542   5.4046   5.8195
     6.1035   6.7487

          k = 0.1442-0.0832 0.0000 ( 49759 PWs)   bands (ev):

   -68.3465 -68.3024 -35.3444 -34.8045 -34.6128 -34.5428 -34.5303 -34.4337
   -20.0161 -20.0045 -19.9874 -19.9843 -19.9786 -19.9748 -19.9548 -19.9495
   -19.9447 -19.9416 -19.9223 -19.9177 -19.8748 -19.8736 -12.9563  -7.0448
    -5.3029  -4.3710  -1.8043  -1.4993  -0.9687  -0.2123   0.2622   1.1741
     1.5575   2.8716   3.2964   4.6807   4.7613   5.1375   5.2201   5.6770
     5.9783   6.7234

          k = 0.1281-0.0740 0.0000 ( 49765 PWs)   bands (ev):

   -68.3488 -68.3037 -35.3519 -34.7969 -34.5896 -34.5213 -34.5180 -34.4295
   -20.0169 -20.0050 -19.9867 -19.9841 -19.9785 -19.9753 -19.9540 -19.9497
   -19.9445 -19.9420 -19.9239 -19.9192 -19.8732 -19.8720 -13.0223  -7.1723
    -5.1679  -4.3843  -1.7945  -1.4196  -0.8686  -0.3213   0.1554   1.1944
     1.5330   2.8486   3.2341   4.5678   4.6423   5.0183   5.0466   5.5509
     5.8636   6.6763

          k = 0.1121-0.0647 0.0000 ( 49795 PWs)   bands (ev):

   -68.3508 -68.3049 -35.3587 -34.7912 -34.5672 -34.5131 -34.4952 -34.4259
   -20.0177 -20.0055 -19.9859 -19.9840 -19.9783 -19.9759 -19.9533 -19.9499
   -19.9443 -19.9424 -19.9254 -19.9206 -19.8718 -19.8704 -13.0831  -7.2904
    -5.0338  -4.3984  -1.8054  -1.3382  -0.7590  -0.4209   0.0581   1.2293
     1.5264   2.8310   3.1669   4.4434   4.5336   4.8497   4.9449   5.4430
     5.7595   6.6101

          k = 0.0961-0.0555 0.0000 ( 49791 PWs)   bands (ev):

   -68.3527 -68.3060 -35.3648 -34.7870 -34.5465 -34.5056 -34.4747 -34.4227
   -20.0184 -20.0059 -19.9853 -19.9838 -19.9782 -19.9764 -19.9526 -19.9500
   -19.9441 -19.9427 -19.9268 -19.9219 -19.8705 -19.8691 -13.1378  -7.3967
    -4.9046  -4.4126  -1.8271  -1.2620  -0.6545  -0.5048  -0.0285   1.2789
     1.5346   2.8198   3.0968   4.2931   4.4392   4.7018   4.8630   5.3524
     5.6664   6.5388

          k = 0.0801-0.0462 0.0000 ( 49809 PWs)   bands (ev):

   -68.3543 -68.3070 -35.3700 -34.7838 -34.5280 -34.4990 -34.4568 -34.4201
   -20.0190 -20.0063 -19.9847 -19.9836 -19.9781 -19.9768 -19.9520 -19.9501
   -19.9440 -19.9430 -19.9279 -19.9230 -19.8693 -19.8679 -13.1855  -7.4891
    -4.7844  -4.4261  -1.8544  -1.1935  -0.6230  -0.5123  -0.1034   1.3428
     1.5540   2.8146   3.0263   4.1176   4.3594   4.5901   4.7936   5.2775
     5.5849   6.4728

          k = 0.0641-0.0370 0.0000 ( 49817 PWs)   bands (ev):

   -68.3556 -68.3078 -35.3744 -34.7814 -34.5123 -34.4934 -34.4418 -34.4180
   -20.0196 -20.0066 -19.9842 -19.9835 -19.9781 -19.9772 -19.9514 -19.9502
   -19.9439 -19.9433 -19.9289 -19.9239 -19.8684 -19.8669 -13.2255  -7.5665
    -4.6772  -4.4383  -1.8835  -1.1340  -0.6781  -0.4354  -0.1659   1.4190
     1.5805   2.8137   2.9588   3.9339   4.2929   4.5094   4.7364   5.2173
     5.5157   6.4167

          k = 0.0481-0.0277 0.0000 ( 49835 PWs)   bands (ev):

   -68.3566 -68.3084 -35.3779 -34.7798 -34.4997 -34.4889 -34.4300 -34.4164
   -20.0200 -20.0068 -19.9838 -19.9834 -19.9780 -19.9775 -19.9510 -19.9503
   -19.9438 -19.9434 -19.9297 -19.9246 -19.8676 -19.8661 -13.2573  -7.6277
    -4.5875  -4.4484  -1.9111  -1.0849  -0.7303  -0.3670  -0.2151   1.5016
     1.6094   2.8141   2.8986   3.7621   4.2397   4.4521   4.6916   5.1711
     5.4600   6.3722

          k = 0.0320-0.0185 0.0000 ( 49831 PWs)   bands (ev):

   -68.3574 -68.3089 -35.3804 -34.7786 -34.4905 -34.4857 -34.4214 -34.4153
   -20.0203 -20.0070 -19.9835 -19.9833 -19.9780 -19.9777 -19.9507 -19.9504
   -19.9437 -19.9436 -19.9302 -19.9251 -19.8671 -19.8655 -13.2803  -7.6719
    -4.5195  -4.4561  -1.9339  -1.0478  -0.7695  -0.3178  -0.2506   1.5801
     1.6355   2.8129   2.8502   3.6214   4.2006   4.4132   4.6594   5.1383
     5.4189   6.3401

          k = 0.0160-0.0092 0.0000 ( 49813 PWs)   bands (ev):

   -68.3578 -68.3091 -35.3819 -34.7780 -34.4849 -34.4837 -34.4161 -34.4146
   -20.0205 -20.0071 -19.9833 -19.9832 -19.9779 -19.9779 -19.9505 -19.9504
   -19.9437 -19.9436 -19.9306 -19.9254 -19.8667 -19.8652 -13.2943  -7.6986
    -4.4769  -4.4608  -1.9491  -1.0246  -0.7936  -0.2888  -0.2721   1.6384
     1.6538   2.8096   2.8187   3.5288   4.1766   4.3906   4.6399   5.1187
     5.3936   6.3207

          k = 0.0000 0.0000 0.0000 ( 49825 PWs)   bands (ev):

   -68.3580 -68.3092 -35.3825 -34.7778 -34.4830 -34.4830 -34.4144 -34.4144
   -20.0205 -20.0072 -19.9832 -19.9832 -19.9779 -19.9779 -19.9504 -19.9504
   -19.9437 -19.9437 -19.9307 -19.9255 -19.8666 -19.8651 -13.2990  -7.7075
    -4.4624  -4.4624  -1.9544  -1.0167  -0.8017  -0.2793  -0.2793   1.6604
     1.6604   2.8077   2.8077   3.4965   4.1685   4.3832   4.6334   5.1121
     5.3851   6.3143

     Writing output data file /scratch/as3359/Ta2C_bandsdos/Ta.save/
 
     init_run     :      9.03s CPU      6.57s WALL (       1 calls)
     electrons    :   1371.82s CPU    693.45s WALL (       1 calls)

     Called by init_run:
     wfcinit      :      0.00s CPU      0.00s WALL (       1 calls)
     potinit      :      0.36s CPU      0.22s WALL (       1 calls)
     hinit0       :      6.65s CPU      4.99s WALL (       1 calls)

     Called by electrons:
     c_bands      :   1371.82s CPU    693.44s WALL (       1 calls)
     v_of_rho     :      0.27s CPU      0.15s WALL (       1 calls)
     newd         :      1.62s CPU      0.96s WALL (       1 calls)

     Called by c_bands:
     init_us_2    :      0.90s CPU      0.46s WALL (      91 calls)
     cegterg      :   1325.06s CPU    669.08s WALL (     380 calls)

     Called by *egterg:
     cdiaghg      :     22.63s CPU     11.59s WALL (    6865 calls)
     h_psi        :   1014.56s CPU    512.98s WALL (    7245 calls)
     s_psi        :     43.33s CPU     21.69s WALL (    7245 calls)
     g_psi        :      9.19s CPU      4.61s WALL (    6774 calls)

     Called by h_psi:
     h_psi:calbec :     35.41s CPU     17.74s WALL (    7245 calls)
     vloc_psi     :    926.62s CPU    468.65s WALL (    7245 calls)
     add_vuspsi   :     45.62s CPU     22.84s WALL (    7245 calls)

     General routines
     calbec       :     35.35s CPU     17.72s WALL (    7245 calls)
     fft          :      1.20s CPU      0.98s WALL (      13 calls)
     ffts         :      0.01s CPU      0.00s WALL (       1 calls)
     fftw         :    829.52s CPU    419.79s WALL (  225046 calls)
     interpolate  :      0.02s CPU      0.01s WALL (       1 calls)
     davcio       :      0.97s CPU      1.02s WALL (     182 calls)
 
     Parallel routines
 
     PWSCF        :  23m 9.15s CPU  11m47.91s WALL

 
   This run was terminated on:  13:15:43  16Apr2022            

=------------------------------------------------------------------------------=
   JOB DONE.
=------------------------------------------------------------------------------=
