
     Program BANDS v.6.8 starts on 16Apr2022 at 13:15:45 

     This program is part of the open-source Quantum ESPRESSO suite
     for quantum simulation of materials; please cite
         "P. Giannozzi et al., J. Phys.:Condens. Matter 21 395502 (2009);
         "P. Giannozzi et al., J. Phys.:Condens. Matter 29 465901 (2017);
         "P. Giannozzi et al., J. Chem. Phys. 152 154105 (2020);
          URL http://www.quantum-espresso.org", 
     in publications or presentations arising from this work. More details at
     http://www.quantum-espresso.org/quote

     Parallel version (MPI & OpenMP), running on       4 processor cores
     Number of MPI processes:                 2
     Threads/MPI process:                     2

     MPI processes distributed on     1 nodes
     R & G space division:  proc/nbgrp/npool/nimage =       2
     119299 MiB available memory on the printing compute node when the environment starts
 

     Reading xml data from directory:

     /scratch/as3359/Ta2C_bandsdos/Ta.save/
     file Ta.pbesol-spfn-rrkjus_psl.1.0.0.UPF: wavefunction(s)  5S 5P renormalized

     IMPORTANT: XC functional enforced from input :
     Exchange-correlation= PBESOL
                           (   1   4  10   8   0   0   0)
     Any further DFT definition will be discarded
     Please, verify this is what you really want

 
     Parallelization info
     --------------------
     sticks:   dense  smooth     PW     G-vecs:    dense   smooth      PW
     Min         807     690    189               250723   198905   29465
     Max         808     691    190               250750   198908   29498
     Sum        1615    1381    379               501473   397813   58963
 
     Using Slab Decomposition
 

     negative rho (up, down):  6.521E-05 0.000E+00
     Reading collected, re-writing distributed wavefunctions
     high-symmetry point:  0.0000 0.0000 0.0000   x coordinate   0.0000
     high-symmetry point:  0.6407-0.0000 0.0000   x coordinate   0.6407
     high-symmetry point:  0.4805-0.2774 0.0000   x coordinate   0.9611
     high-symmetry point:  0.0000 0.0000 0.0000   x coordinate   1.5159

     Plottable bands (eV) written to file Ta2C.Bandx.dat.gnu
     Bands written to file Ta2C.Bandx.dat

 **************************************************************************

                    xk=(   0.00000,   0.00000,   0.00000  )

     point group D_3d (-3m) 
     there are  6 classes
     the character table:

       E     2C3   3C2'  i     2S6   3s_d 
A_1g   1.00  1.00  1.00  1.00  1.00  1.00
A_2g   1.00  1.00 -1.00  1.00  1.00 -1.00
E_g    2.00 -1.00  0.00  2.00 -1.00  0.00
A_1u   1.00  1.00  1.00 -1.00 -1.00 -1.00
A_2u   1.00  1.00 -1.00 -1.00 -1.00  1.00
E_u    2.00 -1.00  0.00 -2.00  1.00  0.00

     the symmetry operations in each class and the name of the first element:

     E        1
                                                                 
     2C3      3    4
                                                                 
     3C2'     2    5    6
                                                                 
     i        7
                                                                 
     2S6      9   10
                                                                 
     3s_d     8   11   12
                                                                 

     Band symmetry, D_3d (-3m)  point group:

     e(  1 -  1) =    -68.35797  eV     1   --> A_1g L_1       
     e(  2 -  2) =    -68.30922  eV     1   --> A_2u L_2'      
     e(  3 -  3) =    -35.38246  eV     1   --> A_1g L_1       
     e(  4 -  4) =    -34.77775  eV     1   --> A_2u L_2'      
     e(  5 -  6) =    -34.48302  eV     2   --> E_g  L_3       
     e(  7 -  8) =    -34.41440  eV     2   --> E_u  L_3'      
     e(  9 -  9) =    -20.02051  eV     1   --> A_2u L_2'      
     e( 10 - 10) =    -20.00718  eV     1   --> A_1g L_1       
     e( 11 - 12) =    -19.98322  eV     2   --> E_g  L_3       
     e( 13 - 14) =    -19.97792  eV     2   --> E_u  L_3'      
     e( 15 - 16) =    -19.95043  eV     2   --> E_u  L_3'      
     e( 17 - 18) =    -19.94367  eV     2   --> E_g  L_3       
     e( 19 - 19) =    -19.93070  eV     1   --> A_1g L_1       
     e( 20 - 20) =    -19.92553  eV     1   --> A_2u L_2'      
     e( 21 - 21) =    -19.86664  eV     1   --> A_1u L_1'      
     e( 22 - 22) =    -19.86505  eV     1   --> A_2g L_2       
     e( 23 - 23) =    -13.29896  eV     1   --> A_1g L_1       
     e( 24 - 24) =     -7.70752  eV     1   --> A_2u L_2'      
     e( 25 - 26) =     -4.46243  eV     2   --> E_u  L_3'      
     e( 27 - 27) =     -1.95445  eV     1   --> A_1g L_1       
     e( 28 - 28) =     -1.01669  eV     1   --> A_2u L_2'      
     e( 29 - 29) =     -0.80171  eV     1   --> A_1g L_1       
     e( 30 - 31) =     -0.27926  eV     2   --> E_g  L_3       
     e( 32 - 33) =      1.66038  eV     2   --> E_g  L_3       
     e( 34 - 35) =      2.80770  eV     2   --> E_u  L_3'      
     e( 36 - 36) =      3.49648  eV     1   --> A_2u L_2'      
     e( 37 - 37) =      4.16847  eV     1   --> A_1g L_1       
     e( 38 - 38) =      4.38316  eV     1   --> A_2u L_2'      
     e( 39 - 39) =      4.63345  eV     1   --> A_1g L_1       
     e( 40 - 40) =      5.11215  eV     1   --> A_2u L_2'      
     e( 41 - 41) =      5.38512  eV     1   --> A_1g L_1       
     e( 42 - 42) =      6.31427  eV     1   --> A_2u L_2'      

 **************************************************************************

 **************************************************************************

                    xk=(   0.02136,  -0.00000,   0.00000  )

     point group C_2  (2)   
     there are  2 classes
     the character table:

       E     C2   
A      1.00  1.00
B      1.00 -1.00

     the symmetry operations in each class and the name of the first element:

     E        1
                                                                 
     C2       2
                                                                 

     Band symmetry, C_2  (2)    point group:

     e(  1 -  1) =    -68.35777  eV     1   --> A              
     e(  2 -  2) =    -68.30910  eV     1   --> B              
     e(  3 -  3) =    -35.38178  eV     1   --> A              
     e(  4 -  4) =    -34.77804  eV     1   --> B              
     e(  5 -  5) =    -34.48551  eV     1   --> B              
     e(  6 -  6) =    -34.48392  eV     1   --> A              
     e(  7 -  7) =    -34.41672  eV     1   --> A              
     e(  8 -  8) =    -34.41470  eV     1   --> B              
     e(  9 -  9) =    -20.02043  eV     1   --> B              
     e( 10 - 10) =    -20.00713  eV     1   --> A              
     e( 11 - 12) =    -19.98330  eV     2   --> A              
     e( 11 - 12) =    -19.98330  eV     2   --> B              
     e( 13 - 14) =    -19.97793  eV     2   --> A              
     e( 13 - 14) =    -19.97793  eV     2   --> B              
     e( 15 - 15) =    -19.95051  eV     1   --> A              
     e( 16 - 16) =    -19.95041  eV     1   --> B              
     e( 17 - 18) =    -19.94369  eV     2   --> A              
     e( 17 - 18) =    -19.94369  eV     2   --> B              
     e( 19 - 19) =    -19.93055  eV     1   --> A              
     e( 20 - 20) =    -19.92539  eV     1   --> B              
     e( 21 - 21) =    -19.86678  eV     1   --> A              
     e( 22 - 22) =    -19.86521  eV     1   --> B              
     e( 23 - 23) =    -13.29273  eV     1   --> A              
     e( 24 - 24) =     -7.69560  eV     1   --> B              
     e( 25 - 25) =     -4.48172  eV     1   --> A              
     e( 26 - 26) =     -4.46030  eV     1   --> B              
     e( 27 - 27) =     -1.94738  eV     1   --> A              
     e( 28 - 28) =     -1.02724  eV     1   --> B              
     e( 29 - 29) =     -0.79088  eV     1   --> A              
     e( 30 - 30) =     -0.29201  eV     1   --> B              
     e( 31 - 31) =     -0.26968  eV     1   --> A              
     e( 32 - 32) =      1.63169  eV     1   --> B              
     e( 33 - 33) =      1.65137  eV     1   --> A              
     e( 34 - 34) =      2.81089  eV     1   --> A              
     e( 35 - 35) =      2.82161  eV     1   --> B              
     e( 36 - 36) =      3.53938  eV     1   --> B              
     e( 37 - 37) =      4.17928  eV     1   --> A              
     e( 38 - 38) =      4.39310  eV     1   --> B              
     e( 39 - 39) =      4.64211  eV     1   --> A              
     e( 40 - 40) =      5.12084  eV     1   --> B              
     e( 41 - 41) =      5.39647  eV     1   --> A              
     e( 42 - 42) =      6.32288  eV     1   --> B              

 **************************************************************************

 **************************************************************************

                    xk=(   0.04271,  -0.00000,   0.00000  )

     Band symmetry, C_2  (2)    point group:

     e(  1 -  1) =    -68.35716  eV     1   --> A              
     e(  2 -  2) =    -68.30873  eV     1   --> B              
     e(  3 -  3) =    -35.37975  eV     1   --> A              
     e(  4 -  4) =    -34.77892  eV     1   --> B              
     e(  5 -  5) =    -34.49282  eV     1   --> B              
     e(  6 -  6) =    -34.48671  eV     1   --> A              
     e(  7 -  7) =    -34.42353  eV     1   --> A              
     e(  8 -  8) =    -34.41570  eV     1   --> B              
     e(  9 -  9) =    -20.02019  eV     1   --> B              
     e( 10 - 10) =    -20.00698  eV     1   --> A              
     e( 11 - 11) =    -19.98354  eV     1   --> B              
     e( 12 - 12) =    -19.98332  eV     1   --> A              
     e( 13 - 13) =    -19.97796  eV     1   --> A              
     e( 14 - 14) =    -19.97767  eV     1   --> B              
     e( 15 - 15) =    -19.95077  eV     1   --> A              
     e( 16 - 16) =    -19.95037  eV     1   --> B              
     e( 17 - 17) =    -19.94374  eV     1   --> B              
     e( 18 - 18) =    -19.94353  eV     1   --> A              
     e( 19 - 19) =    -19.93010  eV     1   --> A              
     e( 20 - 20) =    -19.92497  eV     1   --> B              
     e( 21 - 21) =    -19.86723  eV     1   --> A              
     e( 22 - 22) =    -19.86567  eV     1   --> B              
     e( 23 - 23) =    -13.27415  eV     1   --> A              
     e( 24 - 24) =     -7.66002  eV     1   --> B              
     e( 25 - 25) =     -4.53779  eV     1   --> A              
     e( 26 - 26) =     -4.45421  eV     1   --> B              
     e( 27 - 27) =     -1.92755  eV     1   --> A              
     e( 28 - 28) =     -1.05775  eV     1   --> B              
     e( 29 - 29) =     -0.75900  eV     1   --> A              
     e( 30 - 30) =     -0.33115  eV     1   --> B              
     e( 31 - 31) =     -0.24097  eV     1   --> A              
     e( 32 - 32) =      1.56061  eV     1   --> B              
     e( 33 - 33) =      1.62412  eV     1   --> A              
     e( 34 - 34) =      2.82253  eV     1   --> A              
     e( 35 - 35) =      2.85498  eV     1   --> B              
     e( 36 - 36) =      3.66060  eV     1   --> B              
     e( 37 - 37) =      4.21114  eV     1   --> A              
     e( 38 - 38) =      4.42344  eV     1   --> B              
     e( 39 - 39) =      4.66800  eV     1   --> A              
     e( 40 - 40) =      5.14699  eV     1   --> B              
     e( 41 - 41) =      5.42996  eV     1   --> A              
     e( 42 - 42) =      6.34867  eV     1   --> B              

 **************************************************************************

 **************************************************************************

                    xk=(   0.06407,  -0.00000,   0.00000  )

     Band symmetry, C_2  (2)    point group:

     e(  1 -  1) =    -68.35617  eV     1   --> A              
     e(  2 -  2) =    -68.30813  eV     1   --> B              
     e(  3 -  3) =    -35.37641  eV     1   --> A              
     e(  4 -  4) =    -34.78046  eV     1   --> B              
     e(  5 -  5) =    -34.50452  eV     1   --> B              
     e(  6 -  6) =    -34.49172  eV     1   --> A              
     e(  7 -  7) =    -34.43432  eV     1   --> A              
     e(  8 -  8) =    -34.41759  eV     1   --> B              
     e(  9 -  9) =    -20.01979  eV     1   --> B              
     e( 10 - 10) =    -20.00674  eV     1   --> A              
     e( 11 - 11) =    -19.98392  eV     1   --> B              
     e( 12 - 12) =    -19.98345  eV     1   --> A              
     e( 13 - 13) =    -19.97800  eV     1   --> A              
     e( 14 - 14) =    -19.97737  eV     1   --> B              
     e( 15 - 15) =    -19.95118  eV     1   --> A              
     e( 16 - 16) =    -19.95029  eV     1   --> B              
     e( 17 - 17) =    -19.94382  eV     1   --> B              
     e( 18 - 18) =    -19.94337  eV     1   --> A              
     e( 19 - 19) =    -19.92935  eV     1   --> A              
     e( 20 - 20) =    -19.92429  eV     1   --> B              
     e( 21 - 21) =    -19.86796  eV     1   --> A              
     e( 22 - 22) =    -19.86643  eV     1   --> B              
     e( 23 - 23) =    -13.24360  eV     1   --> A              
     e( 24 - 24) =     -7.60132  eV     1   --> B              
     e( 25 - 25) =     -4.62583  eV     1   --> A              
     e( 26 - 26) =     -4.44507  eV     1   --> B              
     e( 27 - 27) =     -1.89851  eV     1   --> A              
     e( 28 - 28) =     -1.10499  eV     1   --> B              
     e( 29 - 29) =     -0.70780  eV     1   --> A              
     e( 30 - 30) =     -0.39854  eV     1   --> B              
     e( 31 - 31) =     -0.19331  eV     1   --> A              
     e( 32 - 32) =      1.47759  eV     1   --> B              
     e( 33 - 33) =      1.57863  eV     1   --> A              
     e( 34 - 34) =      2.84766  eV     1   --> A              
     e( 35 - 35) =      2.89461  eV     1   --> B              
     e( 36 - 36) =      3.83926  eV     1   --> B              
     e( 37 - 37) =      4.26267  eV     1   --> A              
     e( 38 - 38) =      4.47617  eV     1   --> B              
     e( 39 - 39) =      4.71085  eV     1   --> A              
     e( 40 - 40) =      5.19086  eV     1   --> B              
     e( 41 - 41) =      5.48410  eV     1   --> A              
     e( 42 - 42) =      6.39153  eV     1   --> B              

 **************************************************************************

 **************************************************************************

                    xk=(   0.08543,  -0.00000,   0.00000  )

     Band symmetry, C_2  (2)    point group:

     e(  1 -  1) =    -68.35479  eV     1   --> A              
     e(  2 -  2) =    -68.30729  eV     1   --> B              
     e(  3 -  3) =    -35.37181  eV     1   --> A              
     e(  4 -  4) =    -34.78280  eV     1   --> B              
     e(  5 -  5) =    -34.52007  eV     1   --> B              
     e(  6 -  6) =    -34.49968  eV     1   --> A              
     e(  7 -  7) =    -34.44808  eV     1   --> A              
     e(  8 -  8) =    -34.42058  eV     1   --> B              
     e(  9 -  9) =    -20.01924  eV     1   --> B              
     e( 10 - 10) =    -20.00640  eV     1   --> A              
     e( 11 - 11) =    -19.98442  eV     1   --> B              
     e( 12 - 12) =    -19.98364  eV     1   --> A              
     e( 13 - 13) =    -19.97805  eV     1   --> A              
     e( 14 - 14) =    -19.97698  eV     1   --> B              
     e( 15 - 15) =    -19.95174  eV     1   --> A              
     e( 16 - 16) =    -19.95020  eV     1   --> B              
     e( 17 - 17) =    -19.94393  eV     1   --> B              
     e( 18 - 18) =    -19.94314  eV     1   --> A              
     e( 19 - 19) =    -19.92834  eV     1   --> A              
     e( 20 - 20) =    -19.92334  eV     1   --> B              
     e( 21 - 21) =    -19.86895  eV     1   --> A              
     e( 22 - 22) =    -19.86748  eV     1   --> B              
     e( 23 - 23) =    -13.20167  eV     1   --> A              
     e( 24 - 24) =     -7.52036  eV     1   --> B              
     e( 25 - 25) =     -4.73927  eV     1   --> A              
     e( 26 - 26) =     -4.43439  eV     1   --> B              
     e( 27 - 27) =     -1.86466  eV     1   --> A              
     e( 28 - 28) =     -1.16418  eV     1   --> B              
     e( 29 - 29) =     -0.63990  eV     1   --> A              
     e( 30 - 30) =     -0.49496  eV     1   --> B              
     e( 31 - 31) =     -0.12740  eV     1   --> A              
     e( 32 - 32) =      1.40860  eV     1   --> B              
     e( 33 - 33) =      1.51668  eV     1   --> A              
     e( 34 - 34) =      2.89157  eV     1   --> A              
     e( 35 - 35) =      2.93334  eV     1   --> B              
     e( 36 - 36) =      4.04719  eV     1   --> B              
     e( 37 - 37) =      4.33236  eV     1   --> A              
     e( 38 - 38) =      4.55605  eV     1   --> B              
     e( 39 - 39) =      4.77033  eV     1   --> A              
     e( 40 - 40) =      5.25296  eV     1   --> B              
     e( 41 - 41) =      5.55701  eV     1   --> A              
     e( 42 - 42) =      6.45127  eV     1   --> B              

 **************************************************************************

 **************************************************************************

                    xk=(   0.10678,  -0.00000,   0.00000  )

     Band symmetry, C_2  (2)    point group:

     e(  1 -  1) =    -68.35305  eV     1   --> A              
     e(  2 -  2) =    -68.30625  eV     1   --> B              
     e(  3 -  3) =    -35.36602  eV     1   --> A              
     e(  4 -  4) =    -34.78613  eV     1   --> B              
     e(  5 -  5) =    -34.53883  eV     1   --> B              
     e(  6 -  6) =    -34.51191  eV     1   --> A              
     e(  7 -  7) =    -34.46311  eV     1   --> A              
     e(  8 -  8) =    -34.42479  eV     1   --> B              
     e(  9 -  9) =    -20.01856  eV     1   --> B              
     e( 10 - 10) =    -20.00599  eV     1   --> A              
     e( 11 - 11) =    -19.98501  eV     1   --> B              
     e( 12 - 12) =    -19.98390  eV     1   --> A              
     e( 13 - 13) =    -19.97810  eV     1   --> A              
     e( 14 - 14) =    -19.97652  eV     1   --> B              
     e( 15 - 15) =    -19.95242  eV     1   --> A              
     e( 16 - 16) =    -19.95007  eV     1   --> B              
     e( 17 - 17) =    -19.94405  eV     1   --> B              
     e( 18 - 18) =    -19.94286  eV     1   --> A              
     e( 19 - 19) =    -19.92706  eV     1   --> A              
     e( 20 - 20) =    -19.92215  eV     1   --> B              
     e( 21 - 21) =    -19.87021  eV     1   --> A              
     e( 22 - 22) =    -19.86880  eV     1   --> B              
     e( 23 - 23) =    -13.14918  eV     1   --> A              
     e( 24 - 24) =     -7.41836  eV     1   --> B              
     e( 25 - 25) =     -4.87120  eV     1   --> A              
     e( 26 - 26) =     -4.42427  eV     1   --> B              
     e( 27 - 27) =     -1.83011  eV     1   --> A              
     e( 28 - 28) =     -1.22971  eV     1   --> B              
     e( 29 - 29) =     -0.61775  eV     1   --> B              
     e( 30 - 30) =     -0.55840  eV     1   --> A              
     e( 31 - 31) =     -0.04525  eV     1   --> A              
     e( 32 - 32) =      1.36863  eV     1   --> B              
     e( 33 - 33) =      1.44317  eV     1   --> A              
     e( 34 - 34) =      2.95760  eV     1   --> A              
     e( 35 - 35) =      2.96806  eV     1   --> B              
     e( 36 - 36) =      4.25415  eV     1   --> B              
     e( 37 - 37) =      4.41903  eV     1   --> A              
     e( 38 - 38) =      4.67235  eV     1   --> B              
     e( 39 - 39) =      4.84616  eV     1   --> A              
     e( 40 - 40) =      5.33424  eV     1   --> B              
     e( 41 - 41) =      5.64690  eV     1   --> A              
     e( 42 - 42) =      6.52754  eV     1   --> B              

 **************************************************************************

 **************************************************************************

                    xk=(   0.12814,  -0.00000,   0.00000  )

     Band symmetry, C_2  (2)    point group:

     e(  1 -  1) =    -68.35097  eV     1   --> A              
     e(  2 -  2) =    -68.30501  eV     1   --> B              
     e(  3 -  3) =    -35.35912  eV     1   --> A              
     e(  4 -  4) =    -34.79072  eV     1   --> B              
     e(  5 -  5) =    -34.56007  eV     1   --> B              
     e(  6 -  6) =    -34.52989  eV     1   --> A              
     e(  7 -  7) =    -34.47742  eV     1   --> A              
     e(  8 -  8) =    -34.43027  eV     1   --> B              
     e(  9 -  9) =    -20.01774  eV     1   --> B              
     e( 10 - 10) =    -20.00552  eV     1   --> A              
     e( 11 - 11) =    -19.98568  eV     1   --> B              
     e( 12 - 12) =    -19.98424  eV     1   --> A              
     e( 13 - 13) =    -19.97814  eV     1   --> A              
     e( 14 - 14) =    -19.97601  eV     1   --> B              
     e( 15 - 15) =    -19.95319  eV     1   --> A              
     e( 16 - 16) =    -19.94993  eV     1   --> B              
     e( 17 - 17) =    -19.94417  eV     1   --> B              
     e( 18 - 18) =    -19.94254  eV     1   --> A              
     e( 19 - 19) =    -19.92554  eV     1   --> A              
     e( 20 - 20) =    -19.92072  eV     1   --> B              
     e( 21 - 21) =    -19.87169  eV     1   --> A              
     e( 22 - 22) =    -19.87035  eV     1   --> B              
     e( 23 - 23) =    -13.08715  eV     1   --> A              
     e( 24 - 24) =     -7.29688  eV     1   --> B              
     e( 25 - 25) =     -5.01514  eV     1   --> A              
     e( 26 - 26) =     -4.41734  eV     1   --> B              
     e( 27 - 27) =     -1.79796  eV     1   --> A              
     e( 28 - 28) =     -1.29641  eV     1   --> B              
     e( 29 - 29) =     -0.75958  eV     1   --> B              
     e( 30 - 30) =     -0.46640  eV     1   --> A              
     e( 31 - 31) =      0.04863  eV     1   --> A              
     e( 32 - 32) =      1.36304  eV     1   --> B              
     e( 33 - 33) =      1.36694  eV     1   --> A              
     e( 34 - 34) =      2.99663  eV     1   --> B              
     e( 35 - 35) =      3.04657  eV     1   --> A              
     e( 36 - 36) =      4.43498  eV     1   --> B              
     e( 37 - 37) =      4.52199  eV     1   --> A              
     e( 38 - 38) =      4.83319  eV     1   --> B              
     e( 39 - 39) =      4.93813  eV     1   --> A              
     e( 40 - 40) =      5.43622  eV     1   --> B              
     e( 41 - 41) =      5.75243  eV     1   --> A              
     e( 42 - 42) =      6.61966  eV     1   --> B              

 **************************************************************************

 **************************************************************************

                    xk=(   0.14950,  -0.00000,   0.00000  )

     Band symmetry, C_2  (2)    point group:

     e(  1 -  1) =    -68.34857  eV     1   --> A              
     e(  2 -  2) =    -68.30360  eV     1   --> B              
     e(  3 -  3) =    -35.35124  eV     1   --> A              
     e(  4 -  4) =    -34.79696  eV     1   --> B              
     e(  5 -  5) =    -34.58294  eV     1   --> B              
     e(  6 -  6) =    -34.55385  eV     1   --> A              
     e(  7 -  7) =    -34.49024  eV     1   --> A              
     e(  8 -  8) =    -34.43702  eV     1   --> B              
     e(  9 -  9) =    -20.01681  eV     1   --> B              
     e( 10 - 10) =    -20.00499  eV     1   --> A              
     e( 11 - 11) =    -19.98640  eV     1   --> B              
     e( 12 - 12) =    -19.98466  eV     1   --> A              
     e( 13 - 13) =    -19.97817  eV     1   --> A              
     e( 14 - 14) =    -19.97546  eV     1   --> B              
     e( 15 - 15) =    -19.95404  eV     1   --> A              
     e( 16 - 16) =    -19.94977  eV     1   --> B              
     e( 17 - 17) =    -19.94427  eV     1   --> B              
     e( 18 - 18) =    -19.94217  eV     1   --> A              
     e( 19 - 19) =    -19.92381  eV     1   --> A              
     e( 20 - 20) =    -19.91908  eV     1   --> B              
     e( 21 - 21) =    -19.87338  eV     1   --> A              
     e( 22 - 22) =    -19.87213  eV     1   --> B              
     e( 23 - 23) =    -13.01676  eV     1   --> A              
     e( 24 - 24) =     -7.15779  eV     1   --> B              
     e( 25 - 25) =     -5.16547  eV     1   --> A              
     e( 26 - 26) =     -4.41657  eV     1   --> B              
     e( 27 - 27) =     -1.77018  eV     1   --> A              
     e( 28 - 28) =     -1.36160  eV     1   --> B              
     e( 29 - 29) =     -0.90813  eV     1   --> B              
     e( 30 - 30) =     -0.36671  eV     1   --> A              
     e( 31 - 31) =      0.14535  eV     1   --> A              
     e( 32 - 32) =      1.30174  eV     1   --> A              
     e( 33 - 33) =      1.39109  eV     1   --> B              
     e( 34 - 34) =      3.01711  eV     1   --> B              
     e( 35 - 35) =      3.15734  eV     1   --> A              
     e( 36 - 36) =      4.58672  eV     1   --> B              
     e( 37 - 37) =      4.64093  eV     1   --> A              
     e( 38 - 38) =      5.02774  eV     1   --> B              
     e( 39 - 39) =      5.04614  eV     1   --> A              
     e( 40 - 40) =      5.56075  eV     1   --> B              
     e( 41 - 41) =      5.87271  eV     1   --> A              
     e( 42 - 42) =      6.72636  eV     1   --> B              

 **************************************************************************

 **************************************************************************

                    xk=(   0.17085,  -0.00000,   0.00000  )

     Band symmetry, C_2  (2)    point group:

     e(  1 -  1) =    -68.34588  eV     1   --> A              
     e(  2 -  2) =    -68.30204  eV     1   --> B              
     e(  3 -  3) =    -35.34251  eV     1   --> A              
     e(  4 -  4) =    -34.80536  eV     1   --> B              
     e(  5 -  5) =    -34.60647  eV     1   --> B              
     e(  6 -  6) =    -34.58256  eV     1   --> A              
     e(  7 -  7) =    -34.50217  eV     1   --> A              
     e(  8 -  8) =    -34.44503  eV     1   --> B              
     e(  9 -  9) =    -20.01578  eV     1   --> B              
     e( 10 - 10) =    -20.00443  eV     1   --> A              
     e( 11 - 11) =    -19.98716  eV     1   --> B              
     e( 12 - 12) =    -19.98515  eV     1   --> A              
     e( 13 - 13) =    -19.97819  eV     1   --> A              
     e( 14 - 14) =    -19.97490  eV     1   --> B              
     e( 15 - 15) =    -19.95495  eV     1   --> A              
     e( 16 - 16) =    -19.94960  eV     1   --> B              
     e( 17 - 17) =    -19.94433  eV     1   --> B              
     e( 18 - 18) =    -19.94177  eV     1   --> A              
     e( 19 - 19) =    -19.92188  eV     1   --> A              
     e( 20 - 20) =    -19.91726  eV     1   --> B              
     e( 21 - 21) =    -19.87525  eV     1   --> A              
     e( 22 - 22) =    -19.87409  eV     1   --> B              
     e( 23 - 23) =    -12.93933  eV     1   --> A              
     e( 24 - 24) =     -7.00327  eV     1   --> B              
     e( 25 - 25) =     -5.31751  eV     1   --> A              
     e( 26 - 26) =     -4.42494  eV     1   --> B              
     e( 27 - 27) =     -1.74770  eV     1   --> A              
     e( 28 - 28) =     -1.42943  eV     1   --> B              
     e( 29 - 29) =     -1.04423  eV     1   --> B              
     e( 30 - 30) =     -0.26216  eV     1   --> A              
     e( 31 - 31) =      0.22978  eV     1   --> A              
     e( 32 - 32) =      1.26762  eV     1   --> A              
     e( 33 - 33) =      1.44921  eV     1   --> B              
     e( 34 - 34) =      3.02799  eV     1   --> B              
     e( 35 - 35) =      3.28776  eV     1   --> A              
     e( 36 - 36) =      4.72438  eV     1   --> B              
     e( 37 - 37) =      4.77568  eV     1   --> A              
     e( 38 - 38) =      5.17013  eV     1   --> A              
     e( 39 - 39) =      5.23085  eV     1   --> B              
     e( 40 - 40) =      5.70854  eV     1   --> B              
     e( 41 - 41) =      6.00724  eV     1   --> A              
     e( 42 - 42) =      6.84239  eV     1   --> A              

 **************************************************************************

 **************************************************************************

                    xk=(   0.19221,  -0.00000,   0.00000  )

     Band symmetry, C_2  (2)    point group:

     e(  1 -  1) =    -68.34294  eV     1   --> A              
     e(  2 -  2) =    -68.30035  eV     1   --> B              
     e(  3 -  3) =    -35.33308  eV     1   --> A              
     e(  4 -  4) =    -34.81648  eV     1   --> B              
     e(  5 -  5) =    -34.62956  eV     1   --> B              
     e(  6 -  6) =    -34.61450  eV     1   --> A              
     e(  7 -  7) =    -34.51400  eV     1   --> A              
     e(  8 -  8) =    -34.45425  eV     1   --> B              
     e(  9 -  9) =    -20.01467  eV     1   --> B              
     e( 10 - 10) =    -20.00383  eV     1   --> A              
     e( 11 - 11) =    -19.98792  eV     1   --> B              
     e( 12 - 12) =    -19.98573  eV     1   --> A              
     e( 13 - 13) =    -19.97821  eV     1   --> A              
     e( 14 - 14) =    -19.97434  eV     1   --> B              
     e( 15 - 15) =    -19.95590  eV     1   --> A              
     e( 16 - 16) =    -19.94944  eV     1   --> B              
     e( 17 - 17) =    -19.94434  eV     1   --> B              
     e( 18 - 18) =    -19.94136  eV     1   --> A              
     e( 19 - 19) =    -19.91978  eV     1   --> A              
     e( 20 - 20) =    -19.91526  eV     1   --> B              
     e( 21 - 21) =    -19.87727  eV     1   --> A              
     e( 22 - 22) =    -19.87621  eV     1   --> B              
     e( 23 - 23) =    -12.85628  eV     1   --> A              
     e( 24 - 24) =     -6.83580  eV     1   --> B              
     e( 25 - 25) =     -5.46745  eV     1   --> A              
     e( 26 - 26) =     -4.44501  eV     1   --> B              
     e( 27 - 27) =     -1.73059  eV     1   --> A              
     e( 28 - 28) =     -1.51492  eV     1   --> B              
     e( 29 - 29) =     -1.13968  eV     1   --> B              
     e( 30 - 30) =     -0.15678  eV     1   --> A              
     e( 31 - 31) =      0.28348  eV     1   --> A              
     e( 32 - 32) =      1.28871  eV     1   --> A              
     e( 33 - 33) =      1.53302  eV     1   --> B              
     e( 34 - 34) =      3.02840  eV     1   --> B              
     e( 35 - 35) =      3.43536  eV     1   --> A              
     e( 36 - 36) =      4.86023  eV     1   --> B              
     e( 37 - 37) =      4.92608  eV     1   --> A              
     e( 38 - 38) =      5.31008  eV     1   --> A              
     e( 39 - 39) =      5.42619  eV     1   --> B              
     e( 40 - 40) =      5.87622  eV     1   --> B              
     e( 41 - 41) =      6.15569  eV     1   --> A              
     e( 42 - 42) =      6.85104  eV     1   --> A              

 **************************************************************************

 **************************************************************************

                    xk=(   0.21357,  -0.00000,   0.00000  )

     Band symmetry, C_2  (2)    point group:

     e(  1 -  1) =    -68.33978  eV     1   --> A              
     e(  2 -  2) =    -68.29858  eV     1   --> B              
     e(  3 -  3) =    -35.32313  eV     1   --> A              
     e(  4 -  4) =    -34.83085  eV     1   --> B              
     e(  5 -  5) =    -34.65113  eV     1   --> B              
     e(  6 -  6) =    -34.64844  eV     1   --> A              
     e(  7 -  7) =    -34.52623  eV     1   --> A              
     e(  8 -  8) =    -34.46465  eV     1   --> B              
     e(  9 -  9) =    -20.01349  eV     1   --> B              
     e( 10 - 10) =    -20.00323  eV     1   --> A              
     e( 11 - 11) =    -19.98868  eV     1   --> B              
     e( 12 - 12) =    -19.98637  eV     1   --> A              
     e( 13 - 13) =    -19.97822  eV     1   --> A              
     e( 14 - 14) =    -19.97380  eV     1   --> B              
     e( 15 - 15) =    -19.95686  eV     1   --> A              
     e( 16 - 16) =    -19.94928  eV     1   --> B              
     e( 17 - 17) =    -19.94426  eV     1   --> B              
     e( 18 - 18) =    -19.94093  eV     1   --> A              
     e( 19 - 19) =    -19.91753  eV     1   --> A              
     e( 20 - 20) =    -19.91313  eV     1   --> B              
     e( 21 - 21) =    -19.87940  eV     1   --> A              
     e( 22 - 22) =    -19.87846  eV     1   --> B              
     e( 23 - 23) =    -12.76908  eV     1   --> A              
     e( 24 - 24) =     -6.65813  eV     1   --> B              
     e( 25 - 25) =     -5.61220  eV     1   --> A              
     e( 26 - 26) =     -4.47842  eV     1   --> B              
     e( 27 - 27) =     -1.71826  eV     1   --> A              
     e( 28 - 28) =     -1.62952  eV     1   --> B              
     e( 29 - 29) =     -1.17266  eV     1   --> B              
     e( 30 - 30) =     -0.05988  eV     1   --> A              
     e( 31 - 31) =      0.30134  eV     1   --> A              
     e( 32 - 32) =      1.38046  eV     1   --> A              
     e( 33 - 33) =      1.63809  eV     1   --> B              
     e( 34 - 34) =      3.01844  eV     1   --> B              
     e( 35 - 35) =      3.59780  eV     1   --> A              
     e( 36 - 36) =      5.00001  eV     1   --> B              
     e( 37 - 37) =      5.09189  eV     1   --> A              
     e( 38 - 38) =      5.46593  eV     1   --> A              
     e( 39 - 39) =      5.61103  eV     1   --> B              
     e( 40 - 40) =      6.05510  eV     1   --> B              
     e( 41 - 41) =      6.31768  eV     1   --> A              
     e( 42 - 42) =      6.84404  eV     1   --> A              

 **************************************************************************

 **************************************************************************

                    xk=(   0.23492,  -0.00000,   0.00000  )

     Band symmetry, C_2  (2)    point group:

     e(  1 -  1) =    -68.33644  eV     1   --> A              
     e(  2 -  2) =    -68.29675  eV     1   --> B              
     e(  3 -  3) =    -35.31284  eV     1   --> A              
     e(  4 -  4) =    -34.84874  eV     1   --> B              
     e(  5 -  5) =    -34.68336  eV     1   --> A              
     e(  6 -  6) =    -34.67037  eV     1   --> B              
     e(  7 -  7) =    -34.53912  eV     1   --> A              
     e(  8 -  8) =    -34.47616  eV     1   --> B              
     e(  9 -  9) =    -20.01226  eV     1   --> B              
     e( 10 - 10) =    -20.00262  eV     1   --> A              
     e( 11 - 11) =    -19.98941  eV     1   --> B              
     e( 12 - 12) =    -19.98707  eV     1   --> A              
     e( 13 - 13) =    -19.97825  eV     1   --> A              
     e( 14 - 14) =    -19.97331  eV     1   --> B              
     e( 15 - 15) =    -19.95781  eV     1   --> A              
     e( 16 - 16) =    -19.94914  eV     1   --> B              
     e( 17 - 17) =    -19.94408  eV     1   --> B              
     e( 18 - 18) =    -19.94050  eV     1   --> A              
     e( 19 - 19) =    -19.91517  eV     1   --> A              
     e( 20 - 20) =    -19.91090  eV     1   --> B              
     e( 21 - 21) =    -19.88163  eV     1   --> A              
     e( 22 - 22) =    -19.88081  eV     1   --> B              
     e( 23 - 23) =    -12.67923  eV     1   --> A              
     e( 24 - 24) =     -6.47329  eV     1   --> B              
     e( 25 - 25) =     -5.74932  eV     1   --> A              
     e( 26 - 26) =     -4.52558  eV     1   --> B              
     e( 27 - 27) =     -1.76161  eV     1   --> B              
     e( 28 - 28) =     -1.70959  eV     1   --> A              
     e( 29 - 29) =     -1.14763  eV     1   --> B              
     e( 30 - 30) =      0.00263  eV     1   --> A              
     e( 31 - 31) =      0.31424  eV     1   --> A              
     e( 32 - 32) =      1.53811  eV     1   --> A              
     e( 33 - 33) =      1.75985  eV     1   --> B              
     e( 34 - 34) =      2.99953  eV     1   --> B              
     e( 35 - 35) =      3.77310  eV     1   --> A              
     e( 36 - 36) =      5.14580  eV     1   --> B              
     e( 37 - 37) =      5.27272  eV     1   --> A              
     e( 38 - 38) =      5.63756  eV     1   --> A              
     e( 39 - 39) =      5.78932  eV     1   --> B              
     e( 40 - 40) =      6.23458  eV     1   --> B              
     e( 41 - 41) =      6.49218  eV     1   --> A              
     e( 42 - 42) =      6.83283  eV     1   --> A              

 **************************************************************************

 **************************************************************************

                    xk=(   0.25628,  -0.00000,   0.00000  )

     Band symmetry, C_2  (2)    point group:

     e(  1 -  1) =    -68.33295  eV     1   --> A              
     e(  2 -  2) =    -68.29488  eV     1   --> B              
     e(  3 -  3) =    -35.30242  eV     1   --> A              
     e(  4 -  4) =    -34.86994  eV     1   --> B              
     e(  5 -  5) =    -34.71838  eV     1   --> A              
     e(  6 -  6) =    -34.68694  eV     1   --> B              
     e(  7 -  7) =    -34.55275  eV     1   --> A              
     e(  8 -  8) =    -34.48872  eV     1   --> B              
     e(  9 -  9) =    -20.01099  eV     1   --> B              
     e( 10 - 10) =    -20.00201  eV     1   --> A              
     e( 11 - 11) =    -19.99009  eV     1   --> B              
     e( 12 - 12) =    -19.98781  eV     1   --> A              
     e( 13 - 13) =    -19.97829  eV     1   --> A              
     e( 14 - 14) =    -19.97288  eV     1   --> B              
     e( 15 - 15) =    -19.95874  eV     1   --> A              
     e( 16 - 16) =    -19.94902  eV     1   --> B              
     e( 17 - 17) =    -19.94378  eV     1   --> B              
     e( 18 - 18) =    -19.94009  eV     1   --> A              
     e( 19 - 19) =    -19.91271  eV     1   --> A              
     e( 20 - 20) =    -19.90859  eV     1   --> B              
     e( 21 - 21) =    -19.88391  eV     1   --> A              
     e( 22 - 22) =    -19.88322  eV     1   --> B              
     e( 23 - 23) =    -12.58821  eV     1   --> A              
     e( 24 - 24) =     -6.28458  eV     1   --> B              
     e( 25 - 25) =     -5.87690  eV     1   --> A              
     e( 26 - 26) =     -4.58557  eV     1   --> B              
     e( 27 - 27) =     -1.89375  eV     1   --> B              
     e( 28 - 28) =     -1.70315  eV     1   --> A              
     e( 29 - 29) =     -1.07783  eV     1   --> B              
     e( 30 - 30) =     -0.00576  eV     1   --> A              
     e( 31 - 31) =      0.37430  eV     1   --> A              
     e( 32 - 32) =      1.74541  eV     1   --> A              
     e( 33 - 33) =      1.89289  eV     1   --> B              
     e( 34 - 34) =      2.97494  eV     1   --> B              
     e( 35 - 35) =      3.95970  eV     1   --> A              
     e( 36 - 36) =      5.29790  eV     1   --> B              
     e( 37 - 37) =      5.46805  eV     1   --> A              
     e( 38 - 38) =      5.82479  eV     1   --> A              
     e( 39 - 39) =      5.96478  eV     1   --> B              
     e( 40 - 40) =      6.40642  eV     1   --> B              
     e( 41 - 41) =      6.67282  eV     1   --> A              
     e( 42 - 42) =      6.82848  eV     1   --> A              

 **************************************************************************

 **************************************************************************

                    xk=(   0.27764,  -0.00000,   0.00000  )

     Band symmetry, C_2  (2)    point group:

     e(  1 -  1) =    -68.32935  eV     1   --> A              
     e(  2 -  2) =    -68.29302  eV     1   --> B              
     e(  3 -  3) =    -35.29209  eV     1   --> A              
     e(  4 -  4) =    -34.89375  eV     1   --> B              
     e(  5 -  5) =    -34.75271  eV     1   --> A              
     e(  6 -  6) =    -34.70100  eV     1   --> B              
     e(  7 -  7) =    -34.56714  eV     1   --> A              
     e(  8 -  8) =    -34.50226  eV     1   --> B              
     e(  9 -  9) =    -20.00970  eV     1   --> B              
     e( 10 - 10) =    -20.00143  eV     1   --> A              
     e( 11 - 11) =    -19.99070  eV     1   --> B              
     e( 12 - 12) =    -19.98858  eV     1   --> A              
     e( 13 - 13) =    -19.97837  eV     1   --> A              
     e( 14 - 14) =    -19.97253  eV     1   --> B              
     e( 15 - 15) =    -19.95963  eV     1   --> A              
     e( 16 - 16) =    -19.94892  eV     1   --> B              
     e( 17 - 17) =    -19.94338  eV     1   --> B              
     e( 18 - 18) =    -19.93971  eV     1   --> A              
     e( 19 - 19) =    -19.91020  eV     1   --> A              
     e( 20 - 20) =    -19.90624  eV     1   --> B              
     e( 21 - 21) =    -19.88622  eV     1   --> A              
     e( 22 - 22) =    -19.88566  eV     1   --> B              
     e( 23 - 23) =    -12.49742  eV     1   --> A              
     e( 24 - 24) =     -6.09559  eV     1   --> B              
     e( 25 - 25) =     -5.99349  eV     1   --> A              
     e( 26 - 26) =     -4.65634  eV     1   --> B              
     e( 27 - 27) =     -2.01481  eV     1   --> B              
     e( 28 - 28) =     -1.69730  eV     1   --> A              
     e( 29 - 29) =     -0.97284  eV     1   --> B              
     e( 30 - 30) =     -0.07202  eV     1   --> A              
     e( 31 - 31) =      0.48214  eV     1   --> A              
     e( 32 - 32) =      1.98718  eV     1   --> A              
     e( 33 - 33) =      2.02960  eV     1   --> B              
     e( 34 - 34) =      2.95096  eV     1   --> B              
     e( 35 - 35) =      4.15646  eV     1   --> A              
     e( 36 - 36) =      5.45554  eV     1   --> B              
     e( 37 - 37) =      5.67709  eV     1   --> A              
     e( 38 - 38) =      6.02721  eV     1   --> A              
     e( 39 - 39) =      6.13745  eV     1   --> B              
     e( 40 - 40) =      6.56646  eV     1   --> B              
     e( 41 - 41) =      6.77602  eV     1   --> A              
     e( 42 - 42) =      6.91589  eV     1   --> A              

 **************************************************************************

 **************************************************************************

                    xk=(   0.29899,  -0.00000,   0.00000  )

     Band symmetry, C_2  (2)    point group:

     e(  1 -  1) =    -68.32569  eV     1   --> A              
     e(  2 -  2) =    -68.29119  eV     1   --> B              
     e(  3 -  3) =    -35.28205  eV     1   --> A              
     e(  4 -  4) =    -34.91913  eV     1   --> B              
     e(  5 -  5) =    -34.78561  eV     1   --> A              
     e(  6 -  6) =    -34.71306  eV     1   --> B              
     e(  7 -  7) =    -34.58225  eV     1   --> A              
     e(  8 -  8) =    -34.51669  eV     1   --> B              
     e(  9 -  9) =    -20.00840  eV     1   --> B              
     e( 10 - 10) =    -20.00088  eV     1   --> A              
     e( 11 - 11) =    -19.99122  eV     1   --> B              
     e( 12 - 12) =    -19.98935  eV     1   --> A              
     e( 13 - 13) =    -19.97849  eV     1   --> A              
     e( 14 - 14) =    -19.97226  eV     1   --> B              
     e( 15 - 15) =    -19.96046  eV     1   --> A              
     e( 16 - 16) =    -19.94883  eV     1   --> B              
     e( 17 - 17) =    -19.94287  eV     1   --> B              
     e( 18 - 18) =    -19.93937  eV     1   --> A              
     e( 19 - 19) =    -19.90767  eV     1   --> A              
     e( 20 - 20) =    -19.90388  eV     1   --> B              
     e( 21 - 21) =    -19.88854  eV     1   --> A              
     e( 22 - 22) =    -19.88811  eV     1   --> B              
     e( 23 - 23) =    -12.40814  eV     1   --> A              
     e( 24 - 24) =     -6.09805  eV     1   --> A              
     e( 25 - 25) =     -5.91024  eV     1   --> B              
     e( 26 - 26) =     -4.73501  eV     1   --> B              
     e( 27 - 27) =     -2.11806  eV     1   --> B              
     e( 28 - 28) =     -1.69040  eV     1   --> A              
     e( 29 - 29) =     -0.83990  eV     1   --> B              
     e( 30 - 30) =     -0.16294  eV     1   --> A              
     e( 31 - 31) =      0.61336  eV     1   --> A              
     e( 32 - 32) =      2.15797  eV     1   --> B              
     e( 33 - 33) =      2.25210  eV     1   --> A              
     e( 34 - 34) =      2.93880  eV     1   --> B              
     e( 35 - 35) =      4.36249  eV     1   --> A              
     e( 36 - 36) =      5.61701  eV     1   --> B              
     e( 37 - 37) =      5.89843  eV     1   --> A              
     e( 38 - 38) =      6.24389  eV     1   --> A              
     e( 39 - 39) =      6.30160  eV     1   --> B              
     e( 40 - 40) =      6.71664  eV     1   --> B              
     e( 41 - 41) =      6.77596  eV     1   --> A              
     e( 42 - 42) =      7.12102  eV     1   --> A              

 **************************************************************************

 **************************************************************************

                    xk=(   0.32035,  -0.00000,   0.00000  )

     Band symmetry, C_2  (2)    point group:

     e(  1 -  1) =    -68.32201  eV     1   --> A              
     e(  2 -  2) =    -68.28943  eV     1   --> B              
     e(  3 -  3) =    -35.27251  eV     1   --> A              
     e(  4 -  4) =    -34.94501  eV     1   --> B              
     e(  5 -  5) =    -34.81646  eV     1   --> A              
     e(  6 -  6) =    -34.72374  eV     1   --> B              
     e(  7 -  7) =    -34.59800  eV     1   --> A              
     e(  8 -  8) =    -34.53192  eV     1   --> B              
     e(  9 -  9) =    -20.00711  eV     1   --> B              
     e( 10 - 10) =    -20.00036  eV     1   --> A              
     e( 11 - 11) =    -19.99163  eV     1   --> B              
     e( 12 - 12) =    -19.99010  eV     1   --> A              
     e( 13 - 13) =    -19.97865  eV     1   --> A              
     e( 14 - 14) =    -19.97209  eV     1   --> B              
     e( 15 - 15) =    -19.96123  eV     1   --> A              
     e( 16 - 16) =    -19.94874  eV     1   --> B              
     e( 17 - 17) =    -19.94228  eV     1   --> B              
     e( 18 - 18) =    -19.93910  eV     1   --> A              
     e( 19 - 19) =    -19.90514  eV     1   --> A              
     e( 20 - 20) =    -19.90155  eV     1   --> B              
     e( 21 - 21) =    -19.89082  eV     1   --> A              
     e( 22 - 22) =    -19.89052  eV     1   --> B              
     e( 23 - 23) =    -12.32155  eV     1   --> A              
     e( 24 - 24) =     -6.18990  eV     1   --> A              
     e( 25 - 25) =     -5.73298  eV     1   --> B              
     e( 26 - 26) =     -4.81803  eV     1   --> B              
     e( 27 - 27) =     -2.19888  eV     1   --> B              
     e( 28 - 28) =     -1.68092  eV     1   --> A              
     e( 29 - 29) =     -0.68584  eV     1   --> B              
     e( 30 - 30) =     -0.26172  eV     1   --> A              
     e( 31 - 31) =      0.75646  eV     1   --> A              
     e( 32 - 32) =      2.25991  eV     1   --> B              
     e( 33 - 33) =      2.53128  eV     1   --> A              
     e( 34 - 34) =      2.95586  eV     1   --> B              
     e( 35 - 35) =      4.57705  eV     1   --> A              
     e( 36 - 36) =      5.77953  eV     1   --> B              
     e( 37 - 37) =      6.12857  eV     1   --> A              
     e( 38 - 38) =      6.44387  eV     1   --> B              
     e( 39 - 39) =      6.47127  eV     1   --> A              
     e( 40 - 40) =      6.76986  eV     1   --> A              
     e( 41 - 41) =      6.86831  eV     1   --> B              
     e( 42 - 42) =      7.34988  eV     1   --> A              

 **************************************************************************

 **************************************************************************

                    xk=(   0.34171,  -0.00000,   0.00000  )

     Band symmetry, C_2  (2)    point group:

     e(  1 -  1) =    -68.31834  eV     1   --> A              
     e(  2 -  2) =    -68.28776  eV     1   --> B              
     e(  3 -  3) =    -35.26362  eV     1   --> A              
     e(  4 -  4) =    -34.97038  eV     1   --> B              
     e(  5 -  5) =    -34.84476  eV     1   --> A              
     e(  6 -  6) =    -34.73358  eV     1   --> B              
     e(  7 -  7) =    -34.61424  eV     1   --> A              
     e(  8 -  8) =    -34.54783  eV     1   --> B              
     e(  9 -  9) =    -20.00583  eV     1   --> B              
     e( 10 - 10) =    -19.99991  eV     1   --> A              
     e( 11 - 11) =    -19.99192  eV     1   --> B              
     e( 12 - 12) =    -19.99080  eV     1   --> A              
     e( 13 - 13) =    -19.97887  eV     1   --> A              
     e( 14 - 14) =    -19.97202  eV     1   --> B              
     e( 15 - 15) =    -19.96193  eV     1   --> A              
     e( 16 - 16) =    -19.94863  eV     1   --> B              
     e( 17 - 17) =    -19.94164  eV     1   --> B              
     e( 18 - 18) =    -19.93890  eV     1   --> A              
     e( 19 - 19) =    -19.90267  eV     1   --> A              
     e( 20 - 20) =    -19.89931  eV     1   --> B              
     e( 21 - 21) =    -19.89304  eV     1   --> A              
     e( 22 - 22) =    -19.89286  eV     1   --> B              
     e( 23 - 23) =    -12.23863  eV     1   --> A              
     e( 24 - 24) =     -6.26866  eV     1   --> A              
     e( 25 - 25) =     -5.56937  eV     1   --> B              
     e( 26 - 26) =     -4.90083  eV     1   --> B              
     e( 27 - 27) =     -2.25378  eV     1   --> B              
     e( 28 - 28) =     -1.66765  eV     1   --> A              
     e( 29 - 29) =     -0.51786  eV     1   --> B              
     e( 30 - 30) =     -0.36045  eV     1   --> A              
     e( 31 - 31) =      0.90682  eV     1   --> A              
     e( 32 - 32) =      2.31808  eV     1   --> B              
     e( 33 - 33) =      2.81664  eV     1   --> A              
     e( 34 - 34) =      3.01860  eV     1   --> B              
     e( 35 - 35) =      4.79922  eV     1   --> A              
     e( 36 - 36) =      5.93839  eV     1   --> B              
     e( 37 - 37) =      6.35358  eV     1   --> A              
     e( 38 - 38) =      6.54896  eV     1   --> B              
     e( 39 - 39) =      6.67601  eV     1   --> A              
     e( 40 - 40) =      6.80889  eV     1   --> A              
     e( 41 - 41) =      7.03923  eV     1   --> B              
     e( 42 - 42) =      7.59392  eV     1   --> A              

 **************************************************************************

 **************************************************************************

                    xk=(   0.36306,  -0.00000,   0.00000  )

     Band symmetry, C_2  (2)    point group:

     e(  1 -  1) =    -68.31471  eV     1   --> A              
     e(  2 -  2) =    -68.28621  eV     1   --> B              
     e(  3 -  3) =    -35.25545  eV     1   --> A              
     e(  4 -  4) =    -34.99442  eV     1   --> B              
     e(  5 -  5) =    -34.87015  eV     1   --> A              
     e(  6 -  6) =    -34.74300  eV     1   --> B              
     e(  7 -  7) =    -34.63081  eV     1   --> A              
     e(  8 -  8) =    -34.56430  eV     1   --> B              
     e(  9 -  9) =    -20.00458  eV     1   --> B              
     e( 10 - 10) =    -19.99953  eV     1   --> A              
     e( 11 - 11) =    -19.99208  eV     1   --> B              
     e( 12 - 12) =    -19.99141  eV     1   --> A              
     e( 13 - 13) =    -19.97915  eV     1   --> A              
     e( 14 - 14) =    -19.97204  eV     1   --> B              
     e( 15 - 15) =    -19.96256  eV     1   --> A              
     e( 16 - 16) =    -19.94848  eV     1   --> B              
     e( 17 - 17) =    -19.94098  eV     1   --> B              
     e( 18 - 18) =    -19.93878  eV     1   --> A              
     e( 19 - 19) =    -19.90034  eV     1   --> A              
     e( 20 - 20) =    -19.89738  eV     1   --> B              
     e( 21 - 21) =    -19.89513  eV     1   --> A              
     e( 22 - 22) =    -19.89489  eV     1   --> B              
     e( 23 - 23) =    -12.16019  eV     1   --> A              
     e( 24 - 24) =     -6.33423  eV     1   --> A              
     e( 25 - 25) =     -5.42837  eV     1   --> B              
     e( 26 - 26) =     -4.97538  eV     1   --> B              
     e( 27 - 27) =     -2.28017  eV     1   --> B              
     e( 28 - 28) =     -1.64973  eV     1   --> A              
     e( 29 - 29) =     -0.45451  eV     1   --> A              
     e( 30 - 30) =     -0.34383  eV     1   --> B              
     e( 31 - 31) =      1.06196  eV     1   --> A              
     e( 32 - 32) =      2.33296  eV     1   --> B              
     e( 33 - 33) =      3.09982  eV     1   --> A              
     e( 34 - 34) =      3.12504  eV     1   --> B              
     e( 35 - 35) =      5.02750  eV     1   --> A              
     e( 36 - 36) =      6.08462  eV     1   --> B              
     e( 37 - 37) =      6.50304  eV     1   --> A              
     e( 38 - 38) =      6.61737  eV     1   --> B              
     e( 39 - 39) =      6.79783  eV     1   --> A              
     e( 40 - 40) =      7.02041  eV     1   --> A              
     e( 41 - 41) =      7.23858  eV     1   --> B              
     e( 42 - 42) =      7.85209  eV     1   --> A              

 **************************************************************************

 **************************************************************************

                    xk=(   0.38442,  -0.00000,   0.00000  )

     Band symmetry, C_2  (2)    point group:

     e(  1 -  1) =    -68.31118  eV     1   --> A              
     e(  2 -  2) =    -68.28480  eV     1   --> B              
     e(  3 -  3) =    -35.24799  eV     1   --> A              
     e(  4 -  4) =    -35.01649  eV     1   --> B              
     e(  5 -  5) =    -34.89248  eV     1   --> A              
     e(  6 -  6) =    -34.75233  eV     1   --> B              
     e(  7 -  7) =    -34.64748  eV     1   --> A              
     e(  8 -  8) =    -34.58118  eV     1   --> B              
     e(  9 -  9) =    -20.00336  eV     1   --> B              
     e( 10 - 10) =    -19.99926  eV     1   --> A              
     e( 11 - 11) =    -19.99210  eV     1   --> B              
     e( 12 - 12) =    -19.99190  eV     1   --> A              
     e( 13 - 13) =    -19.97948  eV     1   --> A              
     e( 14 - 14) =    -19.97216  eV     1   --> B              
     e( 15 - 15) =    -19.96312  eV     1   --> A              
     e( 16 - 16) =    -19.94830  eV     1   --> B              
     e( 17 - 17) =    -19.94033  eV     1   --> B              
     e( 18 - 18) =    -19.93876  eV     1   --> A              
     e( 19 - 19) =    -19.89871  eV     1   --> A              
     e( 20 - 20) =    -19.89786  eV     1   --> B              
     e( 21 - 21) =    -19.89652  eV     1   --> A              
     e( 22 - 22) =    -19.89453  eV     1   --> B              
     e( 23 - 23) =    -12.08686  eV     1   --> A              
     e( 24 - 24) =     -6.38673  eV     1   --> A              
     e( 25 - 25) =     -5.33108  eV     1   --> B              
     e( 26 - 26) =     -5.02137  eV     1   --> B              
     e( 27 - 27) =     -2.27654  eV     1   --> B              
     e( 28 - 28) =     -1.62688  eV     1   --> A              
     e( 29 - 29) =     -0.54064  eV     1   --> A              
     e( 30 - 30) =     -0.17234  eV     1   --> B              
     e( 31 - 31) =      1.22001  eV     1   --> A              
     e( 32 - 32) =      2.32268  eV     1   --> B              
     e( 33 - 33) =      3.25468  eV     1   --> B              
     e( 34 - 34) =      3.37132  eV     1   --> A              
     e( 35 - 35) =      5.25902  eV     1   --> A              
     e( 36 - 36) =      6.19997  eV     1   --> B              
     e( 37 - 37) =      6.50305  eV     1   --> A              
     e( 38 - 38) =      6.67402  eV     1   --> B              
     e( 39 - 39) =      7.01988  eV     1   --> A              
     e( 40 - 40) =      7.29330  eV     1   --> A              
     e( 41 - 41) =      7.46228  eV     1   --> B              
     e( 42 - 42) =      8.12432  eV     1   --> A              

 **************************************************************************

 **************************************************************************

                    xk=(   0.40578,  -0.00000,   0.00000  )

     Band symmetry, C_2  (2)    point group:

     e(  1 -  1) =    -68.30775  eV     1   --> A              
     e(  2 -  2) =    -68.28357  eV     1   --> B              
     e(  3 -  3) =    -35.24109  eV     1   --> A              
     e(  4 -  4) =    -35.03610  eV     1   --> B              
     e(  5 -  5) =    -34.91183  eV     1   --> A              
     e(  6 -  6) =    -34.76177  eV     1   --> B              
     e(  7 -  7) =    -34.66397  eV     1   --> A              
     e(  8 -  8) =    -34.59832  eV     1   --> B              
     e(  9 -  9) =    -20.00219  eV     1   --> B              
     e( 10 - 10) =    -19.99910  eV     1   --> A              
     e( 11 - 11) =    -19.99223  eV     1   --> A              
     e( 12 - 12) =    -19.99198  eV     1   --> B              
     e( 13 - 13) =    -19.97987  eV     1   --> A              
     e( 14 - 14) =    -19.97235  eV     1   --> B              
     e( 15 - 15) =    -19.96363  eV     1   --> A              
     e( 16 - 16) =    -19.94806  eV     1   --> B              
     e( 17 - 17) =    -19.93971  eV     1   --> B              
     e( 18 - 18) =    -19.93883  eV     1   --> A              
     e( 19 - 20) =    -19.89981  eV     2   --> A              
     e( 19 - 20) =    -19.89981  eV     2   --> B              
     e( 21 - 21) =    -19.89524  eV     1   --> A              
     e( 22 - 22) =    -19.89271  eV     1   --> B              
     e( 23 - 23) =    -12.01907  eV     1   --> A              
     e( 24 - 24) =     -6.42644  eV     1   --> A              
     e( 25 - 25) =     -5.31357  eV     1   --> B              
     e( 26 - 26) =     -5.00290  eV     1   --> B              
     e( 27 - 27) =     -2.24276  eV     1   --> B              
     e( 28 - 28) =     -1.59942  eV     1   --> A              
     e( 29 - 29) =     -0.61617  eV     1   --> A              
     e( 30 - 30) =     -0.01249  eV     1   --> B              
     e( 31 - 31) =      1.37919  eV     1   --> A              
     e( 32 - 32) =      2.30626  eV     1   --> B              
     e( 33 - 33) =      3.38485  eV     1   --> B              
     e( 34 - 34) =      3.61970  eV     1   --> A              
     e( 35 - 35) =      5.48781  eV     1   --> A              
     e( 36 - 36) =      6.25781  eV     1   --> B              
     e( 37 - 37) =      6.43993  eV     1   --> A              
     e( 38 - 38) =      6.75761  eV     1   --> B              
     e( 39 - 39) =      7.30056  eV     1   --> A              
     e( 40 - 40) =      7.58690  eV     1   --> A              
     e( 41 - 41) =      7.70124  eV     1   --> B              
     e( 42 - 42) =      8.32805  eV     1   --> B              

 **************************************************************************

 **************************************************************************

                    xk=(   0.42714,  -0.00000,   0.00000  )

     Band symmetry, C_2  (2)    point group:

     e(  1 -  1) =    -68.30448  eV     1   --> A              
     e(  2 -  2) =    -68.28251  eV     1   --> B              
     e(  3 -  3) =    -35.23445  eV     1   --> A              
     e(  4 -  4) =    -35.05292  eV     1   --> B              
     e(  5 -  5) =    -34.92853  eV     1   --> A              
     e(  6 -  6) =    -34.77143  eV     1   --> B              
     e(  7 -  7) =    -34.67994  eV     1   --> A              
     e(  8 -  8) =    -34.61554  eV     1   --> B              
     e(  9 -  9) =    -20.00106  eV     1   --> B              
     e( 10 - 10) =    -19.99908  eV     1   --> A              
     e( 11 - 11) =    -19.99239  eV     1   --> A              
     e( 12 - 12) =    -19.99171  eV     1   --> B              
     e( 13 - 13) =    -19.98030  eV     1   --> A              
     e( 14 - 14) =    -19.97262  eV     1   --> B              
     e( 15 - 15) =    -19.96409  eV     1   --> A              
     e( 16 - 16) =    -19.94778  eV     1   --> B              
     e( 17 - 17) =    -19.93915  eV     1   --> B              
     e( 18 - 18) =    -19.93900  eV     1   --> A              
     e( 19 - 19) =    -19.90176  eV     1   --> B              
     e( 20 - 20) =    -19.90153  eV     1   --> A              
     e( 21 - 21) =    -19.89329  eV     1   --> A              
     e( 22 - 22) =    -19.89093  eV     1   --> B              
     e( 23 - 23) =    -11.95712  eV     1   --> A              
     e( 24 - 24) =     -6.45377  eV     1   --> A              
     e( 25 - 25) =     -5.36108  eV     1   --> B              
     e( 26 - 26) =     -4.93416  eV     1   --> B              
     e( 27 - 27) =     -2.18036  eV     1   --> B              
     e( 28 - 28) =     -1.56829  eV     1   --> A              
     e( 29 - 29) =     -0.67883  eV     1   --> A              
     e( 30 - 30) =      0.12679  eV     1   --> B              
     e( 31 - 31) =      1.53754  eV     1   --> A              
     e( 32 - 32) =      2.29660  eV     1   --> B              
     e( 33 - 33) =      3.49769  eV     1   --> B              
     e( 34 - 34) =      3.83044  eV     1   --> A              
     e( 35 - 35) =      5.69953  eV     1   --> A              
     e( 36 - 36) =      6.25232  eV     1   --> B              
     e( 37 - 37) =      6.36954  eV     1   --> A              
     e( 38 - 38) =      6.88725  eV     1   --> B              
     e( 39 - 39) =      7.60588  eV     1   --> A              
     e( 40 - 40) =      7.89701  eV     1   --> A              
     e( 41 - 41) =      7.94339  eV     1   --> B              
     e( 42 - 42) =      8.48936  eV     1   --> B              

 **************************************************************************

 **************************************************************************

                    xk=(   0.44849,  -0.00000,   0.00000  )

     Band symmetry, C_2  (2)    point group:

     e(  1 -  1) =    -68.30137  eV     1   --> A              
     e(  2 -  2) =    -68.28166  eV     1   --> B              
     e(  3 -  3) =    -35.22765  eV     1   --> A              
     e(  4 -  4) =    -35.06677  eV     1   --> B              
     e(  5 -  5) =    -34.94314  eV     1   --> A              
     e(  6 -  6) =    -34.78134  eV     1   --> B              
     e(  7 -  7) =    -34.69503  eV     1   --> A              
     e(  8 -  8) =    -34.63267  eV     1   --> B              
     e(  9 -  9) =    -19.99998  eV     1   --> B              
     e( 10 - 10) =    -19.99916  eV     1   --> A              
     e( 11 - 11) =    -19.99239  eV     1   --> A              
     e( 12 - 12) =    -19.99131  eV     1   --> B              
     e( 13 - 13) =    -19.98076  eV     1   --> A              
     e( 14 - 14) =    -19.97295  eV     1   --> B              
     e( 15 - 15) =    -19.96452  eV     1   --> A              
     e( 16 - 16) =    -19.94744  eV     1   --> B              
     e( 17 - 17) =    -19.93926  eV     1   --> A              
     e( 18 - 18) =    -19.93868  eV     1   --> B              
     e( 19 - 19) =    -19.90358  eV     1   --> B              
     e( 20 - 20) =    -19.90325  eV     1   --> A              
     e( 21 - 21) =    -19.89141  eV     1   --> A              
     e( 22 - 22) =    -19.88928  eV     1   --> B              
     e( 23 - 23) =    -11.90118  eV     1   --> A              
     e( 24 - 24) =     -6.46917  eV     1   --> A              
     e( 25 - 25) =     -5.43104  eV     1   --> B              
     e( 26 - 26) =     -4.85628  eV     1   --> B              
     e( 27 - 27) =     -2.09260  eV     1   --> B              
     e( 28 - 28) =     -1.53495  eV     1   --> A              
     e( 29 - 29) =     -0.72691  eV     1   --> A              
     e( 30 - 30) =      0.23819  eV     1   --> B              
     e( 31 - 31) =      1.69278  eV     1   --> A              
     e( 32 - 32) =      2.30032  eV     1   --> B              
     e( 33 - 33) =      3.58029  eV     1   --> B              
     e( 34 - 34) =      3.98516  eV     1   --> A              
     e( 35 - 35) =      5.85759  eV     1   --> A              
     e( 36 - 36) =      6.20912  eV     1   --> B              
     e( 37 - 37) =      6.34871  eV     1   --> A              
     e( 38 - 38) =      7.05130  eV     1   --> B              
     e( 39 - 39) =      7.92716  eV     1   --> A              
     e( 40 - 40) =      8.17135  eV     1   --> B              
     e( 41 - 41) =      8.22157  eV     1   --> A              
     e( 42 - 42) =      8.67242  eV     1   --> B              

 **************************************************************************

 **************************************************************************

                    xk=(   0.46985,  -0.00000,   0.00000  )

     Band symmetry, C_2  (2)    point group:

     e(  1 -  1) =    -68.29846  eV     1   --> A              
     e(  2 -  2) =    -68.28102  eV     1   --> B              
     e(  3 -  3) =    -35.22020  eV     1   --> A              
     e(  4 -  4) =    -35.07762  eV     1   --> B              
     e(  5 -  5) =    -34.95638  eV     1   --> A              
     e(  6 -  6) =    -34.79140  eV     1   --> B              
     e(  7 -  7) =    -34.70881  eV     1   --> A              
     e(  8 -  8) =    -34.64952  eV     1   --> B              
     e(  9 -  9) =    -19.99931  eV     1   --> A              
     e( 10 - 10) =    -19.99895  eV     1   --> B              
     e( 11 - 11) =    -19.99227  eV     1   --> A              
     e( 12 - 12) =    -19.99078  eV     1   --> B              
     e( 13 - 13) =    -19.98125  eV     1   --> A              
     e( 14 - 14) =    -19.97332  eV     1   --> B              
     e( 15 - 15) =    -19.96493  eV     1   --> A              
     e( 16 - 16) =    -19.94704  eV     1   --> B              
     e( 17 - 17) =    -19.93960  eV     1   --> A              
     e( 18 - 18) =    -19.93829  eV     1   --> B              
     e( 19 - 19) =    -19.90525  eV     1   --> B              
     e( 20 - 20) =    -19.90484  eV     1   --> A              
     e( 21 - 21) =    -19.88970  eV     1   --> A              
     e( 22 - 22) =    -19.88782  eV     1   --> B              
     e( 23 - 23) =    -11.85130  eV     1   --> A              
     e( 24 - 24) =     -6.47311  eV     1   --> A              
     e( 25 - 25) =     -5.50675  eV     1   --> B              
     e( 26 - 26) =     -4.78392  eV     1   --> B              
     e( 27 - 27) =     -1.98425  eV     1   --> B              
     e( 28 - 28) =     -1.50103  eV     1   --> A              
     e( 29 - 29) =     -0.75968  eV     1   --> A              
     e( 30 - 30) =      0.31781  eV     1   --> B              
     e( 31 - 31) =      1.84211  eV     1   --> A              
     e( 32 - 32) =      2.31785  eV     1   --> B              
     e( 33 - 33) =      3.62541  eV     1   --> B              
     e( 34 - 34) =      4.06356  eV     1   --> A              
     e( 35 - 35) =      5.92183  eV     1   --> A              
     e( 36 - 36) =      6.15684  eV     1   --> B              
     e( 37 - 37) =      6.43840  eV     1   --> A              
     e( 38 - 38) =      7.23356  eV     1   --> B              
     e( 39 - 39) =      8.25794  eV     1   --> A              
     e( 40 - 40) =      8.37057  eV     1   --> B              
     e( 41 - 41) =      8.55705  eV     1   --> A              
     e( 42 - 42) =      8.90307  eV     1   --> B              

 **************************************************************************

 **************************************************************************

                    xk=(   0.49121,  -0.00000,   0.00000  )

     Band symmetry, C_2  (2)    point group:

     e(  1 -  1) =    -68.29575  eV     1   --> A              
     e(  2 -  2) =    -68.28059  eV     1   --> B              
     e(  3 -  3) =    -35.21160  eV     1   --> A              
     e(  4 -  4) =    -35.08562  eV     1   --> B              
     e(  5 -  5) =    -34.96903  eV     1   --> A              
     e(  6 -  6) =    -34.80144  eV     1   --> B              
     e(  7 -  7) =    -34.72089  eV     1   --> A              
     e(  8 -  8) =    -34.66593  eV     1   --> B              
     e(  9 -  9) =    -19.99950  eV     1   --> A              
     e( 10 - 10) =    -19.99797  eV     1   --> B              
     e( 11 - 11) =    -19.99208  eV     1   --> A              
     e( 12 - 12) =    -19.99015  eV     1   --> B              
     e( 13 - 13) =    -19.98175  eV     1   --> A              
     e( 14 - 14) =    -19.97373  eV     1   --> B              
     e( 15 - 15) =    -19.96534  eV     1   --> A              
     e( 16 - 16) =    -19.94659  eV     1   --> B              
     e( 17 - 17) =    -19.94001  eV     1   --> A              
     e( 18 - 18) =    -19.93802  eV     1   --> B              
     e( 19 - 19) =    -19.90675  eV     1   --> B              
     e( 20 - 20) =    -19.90628  eV     1   --> A              
     e( 21 - 21) =    -19.88817  eV     1   --> A              
     e( 22 - 22) =    -19.88655  eV     1   --> B              
     e( 23 - 23) =    -11.80749  eV     1   --> A              
     e( 24 - 24) =     -6.46600  eV     1   --> A              
     e( 25 - 25) =     -5.58338  eV     1   --> B              
     e( 26 - 26) =     -4.71985  eV     1   --> B              
     e( 27 - 27) =     -1.86115  eV     1   --> B              
     e( 28 - 28) =     -1.46773  eV     1   --> A              
     e( 29 - 29) =     -0.77817  eV     1   --> A              
     e( 30 - 30) =      0.36631  eV     1   --> B              
     e( 31 - 31) =      1.98207  eV     1   --> A              
     e( 32 - 32) =      2.34362  eV     1   --> B              
     e( 33 - 33) =      3.63289  eV     1   --> B              
     e( 34 - 34) =      4.05293  eV     1   --> A              
     e( 35 - 35) =      5.94486  eV     1   --> A              
     e( 36 - 36) =      6.11676  eV     1   --> B              
     e( 37 - 37) =      6.60048  eV     1   --> A              
     e( 38 - 38) =      7.41914  eV     1   --> B              
     e( 39 - 39) =      8.55100  eV     1   --> B              
     e( 40 - 40) =      8.58411  eV     1   --> A              
     e( 41 - 41) =      8.89539  eV     1   --> A              
     e( 42 - 42) =      9.18692  eV     1   --> B              

 **************************************************************************

 **************************************************************************

                    xk=(   0.51256,  -0.00000,   0.00000  )

     Band symmetry, C_2  (2)    point group:

     e(  1 -  1) =    -68.29328  eV     1   --> A              
     e(  2 -  2) =    -68.28038  eV     1   --> B              
     e(  3 -  3) =    -35.20140  eV     1   --> A              
     e(  4 -  4) =    -35.09107  eV     1   --> B              
     e(  5 -  5) =    -34.98182  eV     1   --> A              
     e(  6 -  6) =    -34.81114  eV     1   --> B              
     e(  7 -  7) =    -34.73093  eV     1   --> A              
     e(  8 -  8) =    -34.68171  eV     1   --> B              
     e(  9 -  9) =    -19.99968  eV     1   --> A              
     e( 10 - 10) =    -19.99704  eV     1   --> B              
     e( 11 - 11) =    -19.99188  eV     1   --> A              
     e( 12 - 12) =    -19.98944  eV     1   --> B              
     e( 13 - 13) =    -19.98226  eV     1   --> A              
     e( 14 - 14) =    -19.97415  eV     1   --> B              
     e( 15 - 15) =    -19.96573  eV     1   --> A              
     e( 16 - 16) =    -19.94609  eV     1   --> B              
     e( 17 - 17) =    -19.94046  eV     1   --> A              
     e( 18 - 18) =    -19.93785  eV     1   --> B              
     e( 19 - 19) =    -19.90806  eV     1   --> B              
     e( 20 - 20) =    -19.90755  eV     1   --> A              
     e( 21 - 21) =    -19.88684  eV     1   --> A              
     e( 22 - 22) =    -19.88547  eV     1   --> B              
     e( 23 - 23) =    -11.76972  eV     1   --> A              
     e( 24 - 24) =     -6.44820  eV     1   --> A              
     e( 25 - 25) =     -5.65953  eV     1   --> B              
     e( 26 - 26) =     -4.66378  eV     1   --> B              
     e( 27 - 27) =     -1.72972  eV     1   --> B              
     e( 28 - 28) =     -1.43522  eV     1   --> A              
     e( 29 - 29) =     -0.78602  eV     1   --> A              
     e( 30 - 30) =      0.38840  eV     1   --> B              
     e( 31 - 31) =      2.10820  eV     1   --> A              
     e( 32 - 32) =      2.36816  eV     1   --> B              
     e( 33 - 33) =      3.60988  eV     1   --> B              
     e( 34 - 34) =      3.96152  eV     1   --> A              
     e( 35 - 35) =      5.98861  eV     1   --> A              
     e( 36 - 36) =      6.10311  eV     1   --> B              
     e( 37 - 37) =      6.76605  eV     1   --> A              
     e( 38 - 38) =      7.59104  eV     1   --> B              
     e( 39 - 39) =      8.74106  eV     1   --> B              
     e( 40 - 40) =      8.85777  eV     1   --> A              
     e( 41 - 41) =      9.22236  eV     1   --> A              
     e( 42 - 42) =      9.51063  eV     1   --> B              

 **************************************************************************

 **************************************************************************

                    xk=(   0.53392,  -0.00000,   0.00000  )

     Band symmetry, C_2  (2)    point group:

     e(  1 -  1) =    -68.29103  eV     1   --> A              
     e(  2 -  2) =    -68.28039  eV     1   --> B              
     e(  3 -  3) =    -35.18924  eV     1   --> A              
     e(  4 -  4) =    -35.09448  eV     1   --> B              
     e(  5 -  5) =    -34.99528  eV     1   --> A              
     e(  6 -  6) =    -34.82007  eV     1   --> B              
     e(  7 -  7) =    -34.73871  eV     1   --> A              
     e(  8 -  8) =    -34.69669  eV     1   --> B              
     e(  9 -  9) =    -19.99983  eV     1   --> A              
     e( 10 - 10) =    -19.99614  eV     1   --> B              
     e( 11 - 11) =    -19.99171  eV     1   --> A              
     e( 12 - 12) =    -19.98867  eV     1   --> B              
     e( 13 - 13) =    -19.98275  eV     1   --> A              
     e( 14 - 14) =    -19.97458  eV     1   --> B              
     e( 15 - 15) =    -19.96612  eV     1   --> A              
     e( 16 - 16) =    -19.94555  eV     1   --> B              
     e( 17 - 17) =    -19.94094  eV     1   --> A              
     e( 18 - 18) =    -19.93779  eV     1   --> B              
     e( 19 - 19) =    -19.90916  eV     1   --> B              
     e( 20 - 20) =    -19.90866  eV     1   --> A              
     e( 21 - 21) =    -19.88571  eV     1   --> A              
     e( 22 - 22) =    -19.88460  eV     1   --> B              
     e( 23 - 23) =    -11.73795  eV     1   --> A              
     e( 24 - 24) =     -6.41995  eV     1   --> A              
     e( 25 - 25) =     -5.73503  eV     1   --> B              
     e( 26 - 26) =     -4.61496  eV     1   --> B              
     e( 27 - 27) =     -1.59650  eV     1   --> B              
     e( 28 - 28) =     -1.40240  eV     1   --> A              
     e( 29 - 29) =     -0.78987  eV     1   --> A              
     e( 30 - 30) =      0.39112  eV     1   --> B              
     e( 31 - 31) =      2.21480  eV     1   --> A              
     e( 32 - 32) =      2.38221  eV     1   --> B              
     e( 33 - 33) =      3.56841  eV     1   --> B              
     e( 34 - 34) =      3.81929  eV     1   --> A              
     e( 35 - 35) =      6.06229  eV     1   --> A              
     e( 36 - 36) =      6.12332  eV     1   --> B              
     e( 37 - 37) =      6.89501  eV     1   --> A              
     e( 38 - 38) =      7.73294  eV     1   --> B              
     e( 39 - 39) =      8.96305  eV     1   --> B              
     e( 40 - 40) =      8.98376  eV     1   --> A              
     e( 41 - 41) =      9.54449  eV     1   --> A              
     e( 42 - 42) =      9.73580  eV     1   --> A              

 **************************************************************************

 **************************************************************************

                    xk=(   0.55528,  -0.00000,   0.00000  )

     Band symmetry, C_2  (2)    point group:

     e(  1 -  1) =    -68.28902  eV     1   --> A              
     e(  2 -  2) =    -68.28061  eV     1   --> B              
[...]
     e( 19 - 19) =    -19.92678  eV     1   --> A'             
     e( 20 - 20) =    -19.92189  eV     1   --> A'             
     e( 21 - 21) =    -19.87048  eV     1   --> A''            
     e( 22 - 22) =    -19.86908  eV     1   --> A''            
     e( 23 - 23) =    -13.13778  eV     1   --> A'             
     e( 24 - 24) =     -7.39665  eV     1   --> A'             
     e( 25 - 25) =     -4.90464  eV     1   --> A'             
     e( 26 - 26) =     -4.41257  eV     1   --> A''            
     e( 27 - 27) =     -1.82711  eV     1   --> A'             
     e( 28 - 28) =     -1.26203  eV     1   --> A'             
     e( 29 - 29) =     -0.65445  eV     1   --> A'             
     e( 30 - 30) =     -0.50480  eV     1   --> A'             
     e( 31 - 31) =     -0.02848  eV     1   --> A''            
     e( 32 - 32) =      1.27889  eV     1   --> A'             
     e( 33 - 33) =      1.53462  eV     1   --> A''            
     e( 34 - 34) =      2.81980  eV     1   --> A'             
     e( 35 - 35) =      3.09679  eV     1   --> A''            
     e( 36 - 36) =      4.29312  eV     1   --> A'             
     e( 37 - 37) =      4.43923  eV     1   --> A'             
     e( 38 - 38) =      4.70181  eV     1   --> A'             
     e( 39 - 39) =      4.86299  eV     1   --> A'             
     e( 40 - 40) =      5.35239  eV     1   --> A'             
     e( 41 - 41) =      5.66645  eV     1   --> A'             
     e( 42 - 42) =      6.53883  eV     1   --> A'             

 **************************************************************************

 **************************************************************************

                    xk=(   0.08009,  -0.04624,   0.00000  )

     Band symmetry, C_s (m)     point group:

     e(  1 -  1) =    -68.35426  eV     1   --> A'             
     e(  2 -  2) =    -68.30697  eV     1   --> A'             
     e(  3 -  3) =    -35.37003  eV     1   --> A'             
     e(  4 -  4) =    -34.78380  eV     1   --> A'             
     e(  5 -  5) =    -34.52799  eV     1   --> A'             
     e(  6 -  6) =    -34.49898  eV     1   --> A''            
     e(  7 -  7) =    -34.45681  eV     1   --> A'             
     e(  8 -  8) =    -34.42012  eV     1   --> A''            
     e(  9 -  9) =    -20.01903  eV     1   --> A'             
     e( 10 - 10) =    -20.00628  eV     1   --> A'             
     e( 11 - 11) =    -19.98468  eV     1   --> A'             
     e( 12 - 12) =    -19.98362  eV     1   --> A''            
     e( 13 - 13) =    -19.97813  eV     1   --> A'             
     e( 14 - 14) =    -19.97679  eV     1   --> A''            
     e( 15 - 15) =    -19.95196  eV     1   --> A'             
     e( 16 - 16) =    -19.95014  eV     1   --> A''            
     e( 17 - 17) =    -19.94400  eV     1   --> A'             
     e( 18 - 18) =    -19.94302  eV     1   --> A''            
     e( 19 - 19) =    -19.92794  eV     1   --> A'             
     e( 20 - 20) =    -19.92298  eV     1   --> A'             
     e( 21 - 21) =    -19.86934  eV     1   --> A''            
     e( 22 - 22) =    -19.86789  eV     1   --> A''            
     e( 23 - 23) =    -13.18548  eV     1   --> A'             
     e( 24 - 24) =     -7.48915  eV     1   --> A'             
     e( 25 - 25) =     -4.78440  eV     1   --> A'             
     e( 26 - 26) =     -4.42610  eV     1   --> A''            
     e( 27 - 27) =     -1.85436  eV     1   --> A'             
     e( 28 - 28) =     -1.19354  eV     1   --> A'             
     e( 29 - 29) =     -0.62297  eV     1   --> A'             
     e( 30 - 30) =     -0.51225  eV     1   --> A'             
     e( 31 - 31) =     -0.10343  eV     1   --> A''            
     e( 32 - 32) =      1.34283  eV     1   --> A'             
     e( 33 - 33) =      1.55401  eV     1   --> A''            
     e( 34 - 34) =      2.81459  eV     1   --> A'             
     e( 35 - 35) =      3.02630  eV     1   --> A''            
     e( 36 - 36) =      4.11762  eV     1   --> A'             
     e( 37 - 37) =      4.35939  eV     1   --> A'             
     e( 38 - 38) =      4.59009  eV     1   --> A'             
     e( 39 - 39) =      4.79357  eV     1   --> A'             
     e( 40 - 40) =      5.27754  eV     1   --> A'             
     e( 41 - 41) =      5.58491  eV     1   --> A'             
     e( 42 - 42) =      6.47284  eV     1   --> A'             

 **************************************************************************

 **************************************************************************

                    xk=(   0.06407,  -0.03699,   0.00000  )

     Band symmetry, C_s (m)     point group:

     e(  1 -  1) =    -68.35558  eV     1   --> A'             
     e(  2 -  2) =    -68.30777  eV     1   --> A'             
     e(  3 -  3) =    -35.37443  eV     1   --> A'             
     e(  4 -  4) =    -34.78144  eV     1   --> A'             
     e(  5 -  5) =    -34.51227  eV     1   --> A'             
     e(  6 -  6) =    -34.49340  eV     1   --> A''            
     e(  7 -  7) =    -34.44184  eV     1   --> A'             
     e(  8 -  8) =    -34.41802  eV     1   --> A''            
     e(  9 -  9) =    -20.01956  eV     1   --> A'             
     e( 10 - 10) =    -20.00659  eV     1   --> A'             
     e( 11 - 11) =    -19.98417  eV     1   --> A'             
     e( 12 - 12) =    -19.98349  eV     1   --> A''            
     e( 13 - 13) =    -19.97805  eV     1   --> A'             
     e( 14 - 14) =    -19.97718  eV     1   --> A''            
     e( 15 - 15) =    -19.95143  eV     1   --> A'             
     e( 16 - 16) =    -19.95025  eV     1   --> A''            
     e( 17 - 17) =    -19.94389  eV     1   --> A'             
     e( 18 - 18) =    -19.94326  eV     1   --> A''            
     e( 19 - 19) =    -19.92891  eV     1   --> A'             
     e( 20 - 20) =    -19.92388  eV     1   --> A'             
     e( 21 - 21) =    -19.86839  eV     1   --> A''            
     e( 22 - 22) =    -19.86688  eV     1   --> A''            
     e( 23 - 23) =    -13.22551  eV     1   --> A'             
     e( 24 - 24) =     -7.56650  eV     1   --> A'             
     e( 25 - 25) =     -4.67725  eV     1   --> A'             
     e( 26 - 26) =     -4.43826  eV     1   --> A''            
     e( 27 - 27) =     -1.88346  eV     1   --> A'             
     e( 28 - 28) =     -1.13402  eV     1   --> A'             
     e( 29 - 29) =     -0.67812  eV     1   --> A'             
     e( 30 - 30) =     -0.43543  eV     1   --> A'             
     e( 31 - 31) =     -0.16586  eV     1   --> A''            
     e( 32 - 32) =      1.41897  eV     1   --> A'             
     e( 33 - 33) =      1.58048  eV     1   --> A''            
     e( 34 - 34) =      2.81366  eV     1   --> A'             
     e( 35 - 35) =      2.95884  eV     1   --> A''            
     e( 36 - 36) =      3.93387  eV     1   --> A'             
     e( 37 - 37) =      4.29287  eV     1   --> A'             
     e( 38 - 38) =      4.50943  eV     1   --> A'             
     e( 39 - 39) =      4.73641  eV     1   --> A'             
     e( 40 - 40) =      5.21734  eV     1   --> A'             
     e( 41 - 41) =      5.51573  eV     1   --> A'             
     e( 42 - 42) =      6.41667  eV     1   --> A'             

 **************************************************************************

 **************************************************************************

                    xk=(   0.04805,  -0.02774,   0.00000  )

     Band symmetry, C_s (m)     point group:

     e(  1 -  1) =    -68.35661  eV     1   --> A'             
     e(  2 -  2) =    -68.30840  eV     1   --> A'             
     e(  3 -  3) =    -35.37791  eV     1   --> A'             
     e(  4 -  4) =    -34.77976  eV     1   --> A'             
     e(  5 -  5) =    -34.49967  eV     1   --> A'             
     e(  6 -  6) =    -34.48894  eV     1   --> A''            
     e(  7 -  7) =    -34.42996  eV     1   --> A'             
     e(  8 -  8) =    -34.41641  eV     1   --> A''            
     e(  9 -  9) =    -20.01997  eV     1   --> A'             
     e( 10 - 10) =    -20.00684  eV     1   --> A'             
     e( 11 - 11) =    -19.98376  eV     1   --> A'             
     e( 12 - 12) =    -19.98338  eV     1   --> A''            
     e( 13 - 13) =    -19.97799  eV     1   --> A'             
     e( 14 - 14) =    -19.97749  eV     1   --> A''            
     e( 15 - 15) =    -19.95100  eV     1   --> A'             
     e( 16 - 16) =    -19.95033  eV     1   --> A''            
     e( 17 - 17) =    -19.94379  eV     1   --> A'             
     e( 18 - 18) =    -19.94344  eV     1   --> A''            
     e( 19 - 19) =    -19.92969  eV     1   --> A'             
     e( 20 - 20) =    -19.92460  eV     1   --> A'             
     e( 21 - 21) =    -19.86763  eV     1   --> A''            
     e( 22 - 22) =    -19.86609  eV     1   --> A''            
     e( 23 - 23) =    -13.25728  eV     1   --> A'             
     e( 24 - 24) =     -7.62765  eV     1   --> A'             
     e( 25 - 25) =     -4.58752  eV     1   --> A'             
     e( 26 - 26) =     -4.44842  eV     1   --> A''            
     e( 27 - 27) =     -1.91107  eV     1   --> A'             
     e( 28 - 28) =     -1.08488  eV     1   --> A'             
     e( 29 - 29) =     -0.73035  eV     1   --> A'             
     e( 30 - 30) =     -0.36702  eV     1   --> A'             
     e( 31 - 31) =     -0.21510  eV     1   --> A''            
     e( 32 - 32) =      1.50164  eV     1   --> A'             
     e( 33 - 33) =      1.60935  eV     1   --> A''            
     e( 34 - 34) =      2.81406  eV     1   --> A'             
     e( 35 - 35) =      2.89857  eV     1   --> A''            
     e( 36 - 36) =      3.76213  eV     1   --> A'             
     e( 37 - 37) =      4.23970  eV     1   --> A'             
     e( 38 - 38) =      4.45206  eV     1   --> A'             
     e( 39 - 39) =      4.69161  eV     1   --> A'             
     e( 40 - 40) =      5.17107  eV     1   --> A'             
     e( 41 - 41) =      5.45998  eV     1   --> A'             
     e( 42 - 42) =      6.37216  eV     1   --> A'             

 **************************************************************************

 **************************************************************************

                    xk=(   0.03204,  -0.01850,   0.00000  )

     Band symmetry, C_s (m)     point group:

     e(  1 -  1) =    -68.35736  eV     1   --> A'             
     e(  2 -  2) =    -68.30885  eV     1   --> A'             
     e(  3 -  3) =    -35.38043  eV     1   --> A'             
     e(  4 -  4) =    -34.77862  eV     1   --> A'             
     e(  5 -  5) =    -34.49048  eV     1   --> A'             
     e(  6 -  6) =    -34.48568  eV     1   --> A''            
     e(  7 -  7) =    -34.42136  eV     1   --> A'             
     e(  8 -  8) =    -34.41529  eV     1   --> A''            
     e(  9 -  9) =    -20.02027  eV     1   --> A'             
     e( 10 - 10) =    -20.00703  eV     1   --> A'             
     e( 11 - 11) =    -19.98346  eV     1   --> A'             
     e( 12 - 12) =    -19.98329  eV     1   --> A''            
     e( 13 - 13) =    -19.97795  eV     1   --> A'             
     e( 14 - 14) =    -19.97773  eV     1   --> A''            
     e( 15 - 15) =    -19.95069  eV     1   --> A'             
     e( 16 - 16) =    -19.95038  eV     1   --> A''            
     e( 17 - 17) =    -19.94372  eV     1   --> A'             
     e( 18 - 18) =    -19.94357  eV     1   --> A''            
     e( 19 - 19) =    -19.93025  eV     1   --> A'             
     e( 20 - 20) =    -19.92511  eV     1   --> A'             
     e( 21 - 21) =    -19.86708  eV     1   --> A''            
     e( 22 - 22) =    -19.86552  eV     1   --> A''            
     e( 23 - 23) =    -13.28032  eV     1   --> A'             
     e( 24 - 24) =     -7.67185  eV     1   --> A'             
     e( 25 - 25) =     -4.51950  eV     1   --> A'             
     e( 26 - 26) =     -4.45607  eV     1   --> A''            
     e( 27 - 27) =     -1.93395  eV     1   --> A'             
     e( 28 - 28) =     -1.04783  eV     1   --> A'             
     e( 29 - 29) =     -0.76950  eV     1   --> A'             
     e( 30 - 30) =     -0.31784  eV     1   --> A'             
     e( 31 - 31) =     -0.25062  eV     1   --> A''            
     e( 32 - 32) =      1.58007  eV     1   --> A'             
     e( 33 - 33) =      1.63546  eV     1   --> A''            
     e( 34 - 34) =      2.81287  eV     1   --> A'             
     e( 35 - 35) =      2.85025  eV     1   --> A''            
     e( 36 - 36) =      3.62139  eV     1   --> A'             
     e( 37 - 37) =      4.20061  eV     1   --> A'             
     e( 38 - 38) =      4.41323  eV     1   --> A'             
     e( 39 - 39) =      4.65939  eV     1   --> A'             
     e( 40 - 40) =      5.13826  eV     1   --> A'             
     e( 41 - 41) =      5.41889  eV     1   --> A'             
     e( 42 - 42) =      6.34007  eV     1   --> A'             

 **************************************************************************

 **************************************************************************

                    xk=(   0.01602,  -0.00925,   0.00000  )

     Band symmetry, C_s (m)     point group:

     e(  1 -  1) =    -68.35782  eV     1   --> A'             
     e(  2 -  2) =    -68.30913  eV     1   --> A'             
     e(  3 -  3) =    -35.38195  eV     1   --> A'             
     e(  4 -  4) =    -34.77797  eV     1   --> A'             
     e(  5 -  5) =    -34.48489  eV     1   --> A'             
     e(  6 -  6) =    -34.48369  eV     1   --> A''            
     e(  7 -  7) =    -34.41615  eV     1   --> A'             
     e(  8 -  8) =    -34.41462  eV     1   --> A''            
     e(  9 -  9) =    -20.02045  eV     1   --> A'             
     e( 10 - 10) =    -20.00714  eV     1   --> A'             
     e( 11 - 12) =    -19.98328  eV     2   --> A'             
     e( 11 - 12) =    -19.98328  eV     2   --> A''            
     e( 13 - 14) =    -19.97793  eV     2   --> A'             
     e( 13 - 14) =    -19.97793  eV     2   --> A''            
     e( 15 - 16) =    -19.95049  eV     2   --> A'             
     e( 15 - 16) =    -19.95049  eV     2   --> A''            
     e( 17 - 18) =    -19.94368  eV     2   --> A'             
     e( 17 - 18) =    -19.94368  eV     2   --> A''            
     e( 19 - 19) =    -19.93058  eV     1   --> A'             
     e( 20 - 20) =    -19.92542  eV     1   --> A'             
     e( 21 - 21) =    -19.86675  eV     1   --> A''            
     e( 22 - 22) =    -19.86517  eV     1   --> A''            
     e( 23 - 23) =    -13.29428  eV     1   --> A'             
     e( 24 - 24) =     -7.69858  eV     1   --> A'             
     e( 25 - 25) =     -4.47693  eV     1   --> A'             
     e( 26 - 26) =     -4.46082  eV     1   --> A''            
     e( 27 - 27) =     -1.94912  eV     1   --> A'             
     e( 28 - 28) =     -1.02462  eV     1   --> A'             
     e( 29 - 29) =     -0.79358  eV     1   --> A'             
     e( 30 - 30) =     -0.28880  eV     1   --> A'             
     e( 31 - 31) =     -0.27208  eV     1   --> A''            
     e( 32 - 32) =      1.63845  eV     1   --> A'             
     e( 33 - 33) =      1.65377  eV     1   --> A''            
     e( 34 - 34) =      2.80965  eV     1   --> A'             
     e( 35 - 35) =      2.81870  eV     1   --> A''            
     e( 36 - 36) =      3.52877  eV     1   --> A'             
     e( 37 - 37) =      4.17658  eV     1   --> A'             
     e( 38 - 38) =      4.39060  eV     1   --> A'             
     e( 39 - 39) =      4.63995  eV     1   --> A'             
     e( 40 - 40) =      5.11867  eV     1   --> A'             
     e( 41 - 41) =      5.39365  eV     1   --> A'             
     e( 42 - 42) =      6.32073  eV     1   --> A'             

 **************************************************************************

 **************************************************************************

                    xk=(   0.00000,   0.00000,   0.00000  )

     point group D_3d (-3m) 
     there are  6 classes
     the character table:

       E     2C3   3C2'  i     2S6   3s_d 
A_1g   1.00  1.00  1.00  1.00  1.00  1.00
A_2g   1.00  1.00 -1.00  1.00  1.00 -1.00
E_g    2.00 -1.00  0.00  2.00 -1.00  0.00
A_1u   1.00  1.00  1.00 -1.00 -1.00 -1.00
A_2u   1.00  1.00 -1.00 -1.00 -1.00  1.00
E_u    2.00 -1.00  0.00 -2.00  1.00  0.00

     the symmetry operations in each class and the name of the first element:

     E        1
                                                                 
     2C3      3    4
                                                                 
     3C2'     2    5    6
                                                                 
     i        7
                                                                 
     2S6      9   10
                                                                 
     3s_d     8   11   12
                                                                 

     Band symmetry, D_3d (-3m)  point group:

     e(  1 -  1) =    -68.35797  eV     1   --> A_1g L_1       
     e(  2 -  2) =    -68.30922  eV     1   --> A_2u L_2'      
     e(  3 -  3) =    -35.38246  eV     1   --> A_1g L_1       
     e(  4 -  4) =    -34.77775  eV     1   --> A_2u L_2'      
     e(  5 -  6) =    -34.48302  eV     2   --> E_g  L_3       
     e(  7 -  8) =    -34.41440  eV     2   --> E_u  L_3'      
     e(  9 -  9) =    -20.02051  eV     1   --> A_2u L_2'      
     e( 10 - 10) =    -20.00718  eV     1   --> A_1g L_1       
     e( 11 - 12) =    -19.98322  eV     2   --> E_g  L_3       
     e( 13 - 14) =    -19.97792  eV     2   --> E_u  L_3'      
     e( 15 - 16) =    -19.95043  eV     2   --> E_u  L_3'      
     e( 17 - 18) =    -19.94367  eV     2   --> E_g  L_3       
     e( 19 - 19) =    -19.93070  eV     1   --> A_1g L_1       
     e( 20 - 20) =    -19.92553  eV     1   --> A_2u L_2'      
     e( 21 - 21) =    -19.86664  eV     1   --> A_1u L_1'      
     e( 22 - 22) =    -19.86505  eV     1   --> A_2g L_2       
     e( 23 - 23) =    -13.29896  eV     1   --> A_1g L_1       
     e( 24 - 24) =     -7.70752  eV     1   --> A_2u L_2'      
     e( 25 - 26) =     -4.46243  eV     2   --> E_u  L_3'      
     e( 27 - 27) =     -1.95445  eV     1   --> A_1g L_1       
     e( 28 - 28) =     -1.01669  eV     1   --> A_2u L_2'      
     e( 29 - 29) =     -0.80171  eV     1   --> A_1g L_1       
     e( 30 - 31) =     -0.27926  eV     2   --> E_g  L_3       
     e( 32 - 33) =      1.66038  eV     2   --> E_g  L_3       
     e( 34 - 35) =      2.80770  eV     2   --> E_u  L_3'      
     e( 36 - 36) =      3.49648  eV     1   --> A_2u L_2'      
     e( 37 - 37) =      4.16847  eV     1   --> A_1g L_1       
     e( 38 - 38) =      4.38316  eV     1   --> A_2u L_2'      
     e( 39 - 39) =      4.63345  eV     1   --> A_1g L_1       
     e( 40 - 40) =      5.11215  eV     1   --> A_2u L_2'      
     e( 41 - 41) =      5.38512  eV     1   --> A_1g L_1       
     e( 42 - 42) =      6.31427  eV     1   --> A_2u L_2'      

 **************************************************************************
 
     BANDS        :   4m 5.92s CPU   3m 2.77s WALL

 
   This run was terminated on:  13:18:47  16Apr2022            

=------------------------------------------------------------------------------=
   JOB DONE.
=------------------------------------------------------------------------------=
