
     Program PWSCF v.6.8 starts on  6Apr2022 at 23:23:33 

     This program is part of the open-source Quantum ESPRESSO suite
     for quantum simulation of materials; please cite
         "P. Giannozzi et al., J. Phys.:Condens. Matter 21 395502 (2009);
         "P. Giannozzi et al., J. Phys.:Condens. Matter 29 465901 (2017);
         "P. Giannozzi et al., J. Chem. Phys. 152 154105 (2020);
          URL http://www.quantum-espresso.org", 
     in publications or presentations arising from this work. More details at
     http://www.quantum-espresso.org/quote

     Parallel version (MPI & OpenMP), running on       4 processor cores
     Number of MPI processes:                 2
     Threads/MPI process:                     2

     MPI processes distributed on     1 nodes
     R & G space division:  proc/nbgrp/npool/nimage =       2
     124319 MiB available memory on the printing compute node when the environment starts
 
     Reading input from Ta4C3.scf.vcrelax1.in
Warning: card  O   15.9994  O.PBESOL-N-RRKJUS_PSL.1.0.0.UPF ignored

     Current dimensions of program PWSCF are:
     Max number of different atomic species (ntypx) = 10
     Max number of k-points (npk) =  40000
     Max angular momentum in pseudopotentials (lmaxx) =  4
     file Ta.pbesol-spfn-rrkjus_psl.1.0.0.UPF: wavefunction(s)  5S 5P renormalized

     Subspace diagonalization in iterative solution of the eigenvalue problem:
     a serial algorithm will be used

 
     Parallelization info
     --------------------
     sticks:   dense  smooth     PW     G-vecs:    dense   smooth      PW
     Min         476     279     93                66401    30795    5701
     Max         479     280     94                66404    30816    5714
     Sum         955     559    187               132805    61611   11415
 
     Using Slab Decomposition
 


     bravais-lattice index     =            0
     lattice parameter (alat)  =       5.5500  a.u.
     unit-cell volume          =     983.1817 (a.u.)^3
     number of atoms/cell      =            7
     number of atomic types    =            2
     number of electrons       =       120.00
     number of Kohn-Sham states=           72
     kinetic-energy cutoff     =      60.0000  Ry
     charge density cutoff     =     400.0000  Ry
     scf convergence threshold =      1.0E-12
     mixing beta               =       0.7000
     number of iterations used =            8  plain     mixing
     energy convergence thresh.=      1.0E-04
     force convergence thresh. =      1.0E-03
     press convergence thresh. =      5.0E-01
     Exchange-correlation= PBESOL
                           (   1   4  10   8   0   0   0)
     nstep                     =           50


     celldm(1)=   5.550000  celldm(2)=   0.000000  celldm(3)=   0.000000
     celldm(4)=   0.000000  celldm(5)=   0.000000  celldm(6)=   0.000000

     crystal axes: (cart. coord. in units of alat)
               a(1) = (   1.052048  -0.000001   0.000000 )  
               a(2) = (  -0.526025   0.911105   0.000000 )  
               a(3) = (   0.000000   0.000000   6.000000 )  

     reciprocal axes: (cart. coord. in units 2 pi/alat)
               b(1) = (  0.950527  0.548786  0.000000 )  
               b(2) = (  0.000001  1.097569  0.000000 )  
               b(3) = (  0.000000  0.000000  0.166667 )  


     PseudoPot. # 1 for Ta read from file:
     /shared/home/as3359/pseudo/Ta.pbesol-spfn-rrkjus_psl.1.0.0.UPF
     MD5 check sum: f099565ffaca9b150a52e9412a28e20b
     Pseudo is Ultrasoft + core correction, Zval = 27.0
     Generated using &quot;atomic&quot; code by A. Dal Corso  v.6.3
     Using radial grid of 1273 points,  8 beta functions with: 
                l(1) =   0
                l(2) =   0
                l(3) =   1
                l(4) =   1
                l(5) =   2
                l(6) =   2
                l(7) =   3
                l(8) =   3
     Q(r) pseudized with 0 coefficients 


     PseudoPot. # 2 for C  read from file:
     /shared/home/as3359/pseudo/C.pbesol-n-rrkjus_psl.1.0.0.UPF
     MD5 check sum: 05995be603a8a7c99da3dc4413f31573
     Pseudo is Ultrasoft + core correction, Zval =  4.0
     Generated using &quot;atomic&quot; code by A. Dal Corso  v.6.3MaX
     Using radial grid of 1073 points,  4 beta functions with: 
                l(1) =   0
                l(2) =   0
                l(3) =   1
                l(4) =   1
     Q(r) pseudized with 0 coefficients 


     atomic species   valence    mass     pseudopotential
        Ta            27.00   180.94788     Ta( 1.00)
        C              4.00    12.01070     C ( 1.00)

     No symmetry found



   Cartesian axes

     site n.     atom                  positions (alat units)
         1           Ta  tau(   1) = (  -0.0000016   0.6074003  -0.1614180  )
         2           C   tau(   2) = (  -0.0000003  -0.0000007   0.2347305  )
         3           Ta  tau(   3) = (   0.5260242   0.3037019   0.6774684  )
         4           C   tau(   4) = (  -0.0000008   0.6074021   1.1309545  )
         5           Ta  tau(   5) = (  -0.0000003  -0.0000008   1.5838175  )
         6           C   tau(   6) = (   0.5260243   0.3037021   2.0264468  )
         7           Ta  tau(   7) = (   0.0000005   0.6074051   2.4225670  )

     number of k points=    74  Marzari-Vanderbilt smearing, width (Ry)=  0.0010
                       cart. coord. in units 2pi/alat
        k(    1) = (   0.0000000   0.0000000   0.0000000), wk =   0.0138889
        k(    2) = (   0.0000001   0.0914641   0.0000000), wk =   0.0277778
        k(    3) = (   0.0000002   0.1829282   0.0000000), wk =   0.0277778
        k(    4) = (   0.0000002   0.2743924   0.0000000), wk =   0.0277778
        k(    5) = (   0.0000003   0.3658565   0.0000000), wk =   0.0277778
        k(    6) = (   0.0000004   0.4573206   0.0000000), wk =   0.0277778
        k(    7) = (  -0.0000005  -0.5487847   0.0000000), wk =   0.0138889
        k(    8) = (   0.0792106   0.0457321   0.0000000), wk =   0.0277778
        k(    9) = (   0.0792107   0.1371963   0.0000000), wk =   0.0277778
        k(   10) = (   0.0792108   0.2286604   0.0000000), wk =   0.0277778
        k(   11) = (   0.0792109   0.3201245   0.0000000), wk =   0.0277778
        k(   12) = (   0.0792109   0.4115886   0.0000000), wk =   0.0277778
        k(   13) = (   0.0792110   0.5030527   0.0000000), wk =   0.0277778
        k(   14) = (   0.0792101  -0.5030526   0.0000000), wk =   0.0277778
        k(   15) = (   0.0792102  -0.4115885   0.0000000), wk =   0.0277778
        k(   16) = (   0.0792103  -0.3201244   0.0000000), wk =   0.0277778
        k(   17) = (   0.0792104  -0.2286602   0.0000000), wk =   0.0277778
        k(   18) = (   0.0792105  -0.1371961   0.0000000), wk =   0.0277778
        k(   19) = (   0.0792105  -0.0457320   0.0000000), wk =   0.0277778
        k(   20) = (   0.1584212   0.0914643   0.0000000), wk =   0.0277778
        k(   21) = (   0.1584213   0.1829284   0.0000000), wk =   0.0277778
        k(   22) = (   0.1584214   0.2743925   0.0000000), wk =   0.0277778
        k(   23) = (   0.1584215   0.3658566   0.0000000), wk =   0.0277778
        k(   24) = (   0.1584216   0.4573207   0.0000000), wk =   0.0277778
        k(   25) = (   0.1584216   0.5487849   0.0000000), wk =   0.0277778
        k(   26) = (   0.1584207  -0.4573205   0.0000000), wk =   0.0277778
        k(   27) = (   0.1584208  -0.3658563   0.0000000), wk =   0.0277778
        k(   28) = (   0.1584209  -0.2743922   0.0000000), wk =   0.0277778
        k(   29) = (   0.1584210  -0.1829281   0.0000000), wk =   0.0277778
        k(   30) = (   0.1584211  -0.0914640   0.0000000), wk =   0.0277778
        k(   31) = (   0.1584211   0.0000001   0.0000000), wk =   0.0277778
        k(   32) = (   0.2376318   0.1371964   0.0000000), wk =   0.0277778
        k(   33) = (   0.2376319   0.2286605   0.0000000), wk =   0.0277778
        k(   34) = (   0.2376320   0.3201246   0.0000000), wk =   0.0277778
        k(   35) = (   0.2376321   0.4115888   0.0000000), wk =   0.0277778
        k(   36) = (   0.2376322   0.5030529   0.0000000), wk =   0.0277778
        k(   37) = (   0.2376322   0.5945170   0.0000000), wk =   0.0277778
        k(   38) = (   0.2376314  -0.4115883   0.0000000), wk =   0.0277778
        k(   39) = (   0.2376314  -0.3201242   0.0000000), wk =   0.0277778
        k(   40) = (   0.2376315  -0.2286601   0.0000000), wk =   0.0277778
        k(   41) = (   0.2376316  -0.1371960   0.0000000), wk =   0.0277778
        k(   42) = (   0.2376317  -0.0457319   0.0000000), wk =   0.0277778
        k(   43) = (   0.2376318   0.0457323   0.0000000), wk =   0.0277778
        k(   44) = (   0.3168425   0.1829285   0.0000000), wk =   0.0277778
        k(   45) = (   0.3168425   0.2743926   0.0000000), wk =   0.0277778
        k(   46) = (   0.3168426   0.3658568   0.0000000), wk =   0.0277778
        k(   47) = (   0.3168427   0.4573209   0.0000000), wk =   0.0277778
        k(   48) = (   0.3168428   0.5487850   0.0000000), wk =   0.0277778
        k(   49) = (   0.3168429   0.6402491   0.0000000), wk =   0.0277778
        k(   50) = (   0.3168420  -0.3658562   0.0000000), wk =   0.0277778
        k(   51) = (   0.3168421  -0.2743921   0.0000000), wk =   0.0277778
        k(   52) = (   0.3168421  -0.1829280   0.0000000), wk =   0.0277778
        k(   53) = (   0.3168422  -0.0914638   0.0000000), wk =   0.0277778
        k(   54) = (   0.3168423   0.0000003   0.0000000), wk =   0.0277778
        k(   55) = (   0.3168424   0.0914644   0.0000000), wk =   0.0277778
        k(   56) = (   0.3960531   0.2286607   0.0000000), wk =   0.0277778
        k(   57) = (   0.3960532   0.3201248   0.0000000), wk =   0.0277778
        k(   58) = (   0.3960532   0.4115889   0.0000000), wk =   0.0277778
        k(   59) = (   0.3960533   0.5030530   0.0000000), wk =   0.0277778
        k(   60) = (   0.3960534   0.5945171   0.0000000), wk =   0.0277778
        k(   61) = (   0.3960535   0.6859813   0.0000000), wk =   0.0277778
        k(   62) = (   0.3960526  -0.3201241   0.0000000), wk =   0.0277778
        k(   63) = (   0.3960527  -0.2286600   0.0000000), wk =   0.0277778
        k(   64) = (   0.3960527  -0.1371958   0.0000000), wk =   0.0277778
        k(   65) = (   0.3960528  -0.0457317   0.0000000), wk =   0.0277778
        k(   66) = (   0.3960529   0.0457324   0.0000000), wk =   0.0277778
        k(   67) = (   0.3960530   0.1371965   0.0000000), wk =   0.0277778
        k(   68) = (  -0.4752637  -0.2743928   0.0000000), wk =   0.0138889
        k(   69) = (  -0.4752636  -0.1829287   0.0000000), wk =   0.0277778
        k(   70) = (  -0.4752635  -0.0914645   0.0000000), wk =   0.0277778
        k(   71) = (  -0.4752634  -0.0000004   0.0000000), wk =   0.0277778
        k(   72) = (  -0.4752634   0.0914637   0.0000000), wk =   0.0277778
        k(   73) = (  -0.4752633   0.1829278   0.0000000), wk =   0.0277778
        k(   74) = (  -0.4752642  -0.8231775   0.0000000), wk =   0.0138889

     Dense  grid:   132805 G-vectors     FFT dimensions: (  40,  40, 216)

     Smooth grid:    61611 G-vectors     FFT dimensions: (  30,  30, 180)

     Estimated max dynamical RAM per process >     973.16 MB

     Estimated total dynamical RAM >       1.90 GB

     Check: negative core charge=   -0.000002

     Initial potential from superposition of free atoms

     starting charge  119.99679, renormalised to  120.00000

     negative rho (up, down):  1.014E-08 0.000E+00
     Starting wfcs are   80 randomized atomic wfcs

     total cpu time spent up to now is       11.1 secs

     Self-consistent Calculation

     iteration #  1     ecut=    60.00 Ry     beta= 0.70
     Davidson diagonalization with overlap
     ethr =  1.00E-02,  avg # of iterations =  2.2

     negative rho (up, down):  3.250E-08 0.000E+00

     total cpu time spent up to now is       27.9 secs

     total energy              =   -2756.60779646 Ry
     estimated scf accuracy    <       3.73923627 Ry

     iteration #  2     ecut=    60.00 Ry     beta= 0.70
     Davidson diagonalization with overlap
     ethr =  3.12E-03,  avg # of iterations =  7.3

     total cpu time spent up to now is       57.8 secs

     total energy              =   -2737.28568242 Ry
     estimated scf accuracy    <     489.93506925 Ry

     iteration #  3     ecut=    60.00 Ry     beta= 0.70
     Davidson diagonalization with overlap
     ethr =  3.12E-03,  avg # of iterations =  8.1

     total cpu time spent up to now is       87.6 secs

     total energy              =   -2758.38849571 Ry
     estimated scf accuracy    <       6.54009688 Ry

     iteration #  4     ecut=    60.00 Ry     beta= 0.70
     Davidson diagonalization with overlap
     ethr =  3.12E-03,  avg # of iterations =  2.0

     total cpu time spent up to now is      104.8 secs

     total energy              =   -2759.06542816 Ry
     estimated scf accuracy    <       2.59676929 Ry

     iteration #  5     ecut=    60.00 Ry     beta= 0.70
     Davidson diagonalization with overlap
     ethr =  2.16E-03,  avg # of iterations =  1.2

     total cpu time spent up to now is      120.0 secs

     total energy              =   -2759.14527907 Ry
     estimated scf accuracy    <       1.65862268 Ry

     iteration #  6     ecut=    60.00 Ry     beta= 0.70
     Davidson diagonalization with overlap
     ethr =  1.38E-03,  avg # of iterations =  1.0

     total cpu time spent up to now is      134.4 secs

     total energy              =   -2759.18919008 Ry
     estimated scf accuracy    <       0.38125187 Ry

     iteration #  7     ecut=    60.00 Ry     beta= 0.70
     Davidson diagonalization with overlap
     ethr =  3.18E-04,  avg # of iterations =  1.2

     total cpu time spent up to now is      149.3 secs

     total energy              =   -2759.18174842 Ry
     estimated scf accuracy    <       0.10207659 Ry

     iteration #  8     ecut=    60.00 Ry     beta= 0.70
     Davidson diagonalization with overlap
     ethr =  8.51E-05,  avg # of iterations =  3.4

     total cpu time spent up to now is      166.2 secs

     total energy              =   -2759.17047712 Ry
     estimated scf accuracy    <       0.10309540 Ry

     iteration #  9     ecut=    60.00 Ry     beta= 0.70
     Davidson diagonalization with overlap
     ethr =  8.51E-05,  avg # of iterations =  1.8

     total cpu time spent up to now is      182.0 secs

     total energy              =   -2759.16508415 Ry
     estimated scf accuracy    <       0.07867680 Ry

     iteration # 10     ecut=    60.00 Ry     beta= 0.70
     Davidson diagonalization with overlap
     ethr =  6.56E-05,  avg # of iterations =  1.8

     total cpu time spent up to now is      197.8 secs

     total energy              =   -2759.16368261 Ry
     estimated scf accuracy    <       0.02466595 Ry

     iteration # 11     ecut=    60.00 Ry     beta= 0.70
     Davidson diagonalization with overlap
     ethr =  2.06E-05,  avg # of iterations =  3.1

     total cpu time spent up to now is      214.3 secs

     total energy              =   -2759.16080851 Ry
     estimated scf accuracy    <       0.02733535 Ry

     iteration # 12     ecut=    60.00 Ry     beta= 0.70
     Davidson diagonalization with overlap
     ethr =  2.06E-05,  avg # of iterations =  3.1

     total cpu time spent up to now is      231.1 secs

     total energy              =   -2759.16330115 Ry
     estimated scf accuracy    <       0.02534502 Ry

     iteration # 13     ecut=    60.00 Ry     beta= 0.70
     Davidson diagonalization with overlap
     ethr =  2.06E-05,  avg # of iterations =  1.1

     total cpu time spent up to now is      245.6 secs

     total energy              =   -2759.16309835 Ry
     estimated scf accuracy    <       0.02692434 Ry

     iteration # 14     ecut=    60.00 Ry     beta= 0.70
     Davidson diagonalization with overlap
     ethr =  2.06E-05,  avg # of iterations =  1.0

     total cpu time spent up to now is      260.3 secs

     total energy              =   -2759.16311859 Ry
     estimated scf accuracy    <       0.00681566 Ry

     iteration # 15     ecut=    60.00 Ry     beta= 0.70
     Davidson diagonalization with overlap
     c_bands:  1 eigenvalues not converged
     ethr =  5.68E-06,  avg # of iterations =  2.3

     total cpu time spent up to now is      275.8 secs

     total energy              =   -2759.16316878 Ry
     estimated scf accuracy    <       0.00867829 Ry

     iteration # 16     ecut=    60.00 Ry     beta= 0.70
     Davidson diagonalization with overlap
     c_bands:  1 eigenvalues not converged
     ethr =  5.68E-06,  avg # of iterations =  1.3

     total cpu time spent up to now is      290.4 secs

     total energy              =   -2759.16322259 Ry
     estimated scf accuracy    <       0.00533981 Ry

     iteration # 17     ecut=    60.00 Ry     beta= 0.70
     Davidson diagonalization with overlap
     ethr =  4.45E-06,  avg # of iterations =  1.1

     total cpu time spent up to now is      305.2 secs

     total energy              =   -2759.16326084 Ry
     estimated scf accuracy    <       0.00073085 Ry

     iteration # 18     ecut=    60.00 Ry     beta= 0.70
     Davidson diagonalization with overlap
     ethr =  6.09E-07,  avg # of iterations =  2.3

     total cpu time spent up to now is      320.8 secs

     total energy              =   -2759.16326478 Ry
     estimated scf accuracy    <       0.00004595 Ry

     iteration # 19     ecut=    60.00 Ry     beta= 0.70
     Davidson diagonalization with overlap
     ethr =  3.83E-08,  avg # of iterations =  1.1

     total cpu time spent up to now is      335.7 secs

     total energy              =   -2759.16326520 Ry
     estimated scf accuracy    <       0.00000283 Ry

     iteration # 20     ecut=    60.00 Ry     beta= 0.70
     Davidson diagonalization with overlap
     ethr =  2.36E-09,  avg # of iterations =  2.3

     total cpu time spent up to now is      351.8 secs

     total energy              =   -2759.16326516 Ry
     estimated scf accuracy    <       0.00002002 Ry

     iteration # 21     ecut=    60.00 Ry     beta= 0.70
     Davidson diagonalization with overlap
     ethr =  2.36E-09,  avg # of iterations =  1.0

     total cpu time spent up to now is      366.3 secs

     total energy              =   -2759.16326531 Ry
     estimated scf accuracy    <       0.00000397 Ry

     iteration # 22     ecut=    60.00 Ry     beta= 0.70
     Davidson diagonalization with overlap
     ethr =  2.36E-09,  avg # of iterations =  1.0

     total cpu time spent up to now is      380.8 secs

     total energy              =   -2759.16326530 Ry
     estimated scf accuracy    <       0.00000240 Ry

     iteration # 23     ecut=    60.00 Ry     beta= 0.70
     Davidson diagonalization with overlap
     ethr =  2.00E-09,  avg # of iterations =  1.0

     total cpu time spent up to now is      395.2 secs

     total energy              =   -2759.16326531 Ry
     estimated scf accuracy    <       0.00000005 Ry

     iteration # 24     ecut=    60.00 Ry     beta= 0.70
     Davidson diagonalization with overlap
     ethr =  3.78E-11,  avg # of iterations =  1.9

     total cpu time spent up to now is      410.5 secs

     total energy              =   -2759.16326531 Ry
     estimated scf accuracy    <       0.00000002 Ry

     iteration # 25     ecut=    60.00 Ry     beta= 0.70
     Davidson diagonalization with overlap
     ethr =  1.50E-11,  avg # of iterations =  1.2

     total cpu time spent up to now is      425.2 secs

     total energy              =   -2759.16326531 Ry
     estimated scf accuracy    <          1.8E-10 Ry

     iteration # 26     ecut=    60.00 Ry     beta= 0.70
     Davidson diagonalization with overlap
     ethr =  1.47E-13,  avg # of iterations =  5.7

     total cpu time spent up to now is      444.5 secs

     total energy              =   -2759.16326531 Ry
     estimated scf accuracy    <          3.1E-11 Ry

     iteration # 27     ecut=    60.00 Ry     beta= 0.70
     Davidson diagonalization with overlap
     ethr =  1.00E-13,  avg # of iterations =  1.0

     total cpu time spent up to now is      458.9 secs

     total energy              =   -2759.16326531 Ry
     estimated scf accuracy    <          1.4E-11 Ry

     iteration # 28     ecut=    60.00 Ry     beta= 0.70
     Davidson diagonalization with overlap
     ethr =  1.00E-13,  avg # of iterations =  1.0

     total cpu time spent up to now is      473.3 secs

     total energy              =   -2759.16326531 Ry
     estimated scf accuracy    <          1.4E-12 Ry

     iteration # 29     ecut=    60.00 Ry     beta= 0.70
     Davidson diagonalization with overlap
     ethr =  1.00E-13,  avg # of iterations =  1.0

     total cpu time spent up to now is      487.7 secs

     End of self-consistent calculation

          k = 0.0000 0.0000 0.0000 (  7661 PWs)   bands (ev):

   -57.5423 -57.5235 -57.0319 -57.0312 -24.4358 -24.1771 -23.8049 -23.8049
   -23.7772 -23.7772 -23.6647 -23.5988 -23.1826 -23.1826 -23.1819 -23.1819
    -9.2216  -9.2156  -9.2014  -9.2008  -9.2008  -9.1912  -9.1912  -9.1891
    -9.1771  -9.1771  -9.1680  -9.1680  -9.1555  -9.1531  -8.7746  -8.7738
    -8.7335  -8.7335  -8.7327  -8.7327  -8.7147  -8.7147  -8.7139  -8.7139
    -8.7000  -8.6993  -8.6420  -8.6412  -3.2840  -2.1301  -0.3713   2.7735
     4.6454   6.0485   6.0486   6.8010   6.8010   7.4244   8.7889   8.7889
     9.4662  10.2452  10.2453  10.2930  10.3582  11.4196  11.4197  12.0922
    12.2145  12.2146  13.2670  13.2671  13.6357  13.9588  13.9589  14.5444

          k = 0.0000 0.0915 0.0000 (  7723 PWs)   bands (ev):

   -57.5393 -57.5211 -57.0294 -57.0286 -24.4204 -24.1726 -23.8506 -23.8324
   -23.8179 -23.7856 -23.6503 -23.5983 -23.2245 -23.2235 -23.1921 -23.1915
    -9.2191  -9.2133  -9.2018  -9.1999  -9.1995  -9.1915  -9.1902  -9.1880
    -9.1786  -9.1777  -9.1695  -9.1684  -9.1583  -9.1560  -8.7733  -8.7725
    -8.7350  -8.7342  -8.7340  -8.7332  -8.7151  -8.7144  -8.7136  -8.7129
    -8.6977  -8.6969  -8.6448  -8.6441  -3.1167  -2.0139  -0.3698   2.9813
     4.6228   6.0844   6.1302   6.3433   6.8383   7.5945   8.1646   8.6272
     9.4772   9.9586  10.2570  10.4620  10.4704  11.2419  11.4405  11.7165
    12.3666  12.8843  13.3144  13.3902  13.5777  14.1018  14.1520  14.8551

          k = 0.0000 0.1829 0.0000 (  7719 PWs)   bands (ev):

   -57.5310 -57.5144 -57.0224 -57.0217 -24.3775 -24.1702 -23.9801 -23.9431
   -23.8519 -23.8096 -23.6330 -23.5991 -23.3371 -23.3337 -23.2179 -23.2172
    -9.2121  -9.2073  -9.2032  -9.1963  -9.1959  -9.1921  -9.1876  -9.1853
    -9.1819  -9.1790  -9.1731  -9.1703  -9.1646  -9.1620  -8.7700  -8.7692
    -8.7388  -8.7380  -8.7349  -8.7342  -8.7160  -8.7153  -8.7107  -8.7099
    -8.6908  -8.6901  -8.6514  -8.6507  -2.6468  -1.7094  -0.4019   3.5334
     4.6864   5.6040   6.1331   6.3131   6.8957   7.0424   7.5731   8.3162
     8.9640   9.8012  10.0194  10.4509  11.0560  11.2062  11.7790  11.8216
    12.5070  13.1827  13.4895  13.6232  13.8189  14.2660  14.4540  15.5261

          k = 0.0000 0.2744 0.0000 (  7712 PWs)   bands (ev):

   -57.5195 -57.5054 -57.0129 -57.0121 -24.3191 -24.2259 -24.1421 -24.0316
   -23.8965 -23.8436 -23.6231 -23.6031 -23.4852 -23.4764 -23.2530 -23.2522
    -9.2091  -9.2019  -9.1969  -9.1928  -9.1910  -9.1893  -9.1869  -9.1854
    -9.1810  -9.1809  -9.1772  -9.1767  -9.1724  -9.1651  -8.7657  -8.7649
    -8.7438  -8.7430  -8.7364  -8.7356  -8.7167  -8.7159  -8.7066  -8.7059
    -8.6816  -8.6808  -8.6603  -8.6595  -1.9758  -1.3424  -0.4790   4.0541
     4.9812   5.1960   5.6104   6.3980   6.4122   6.8951   7.2198   8.1846
     8.2008   9.8607   9.9272  10.2842  11.6845  11.9148  12.0803  12.4737
    12.9794  13.1762  13.6080  13.7192  14.1520  14.5898  14.7496  16.0669

          k = 0.0000 0.3659 0.0000 (  7708 PWs)   bands (ev):

   -57.5077 -57.4967 -57.0034 -57.0026 -24.3598 -24.3224 -24.2255 -24.0531
   -23.9398 -23.8783 -23.6357 -23.6309 -23.6097 -23.5858 -23.2879 -23.2869
    -9.2120  -9.1987  -9.1921  -9.1902  -9.1892  -9.1883  -9.1861  -9.1843
    -9.1838  -9.1798  -9.1780  -9.1766  -9.1759  -9.1657  -8.7617  -8.7609
    -8.7487  -8.7479  -8.7380  -8.7372  -8.7169  -8.7161  -8.7025  -8.7017
    -8.6723  -8.6715  -8.6686  -8.6678  -1.3846  -1.0493  -0.3879   3.8606
     4.5791   5.3739   5.8031   6.1279   6.2502   6.8743   6.9038   7.5452
     8.3098   9.7978  10.2916  10.5021  12.0705  12.6337  12.8711  13.2462
    13.4341  13.7886  13.9170  13.9742  14.1035  14.8319  15.0642  16.4056

          k = 0.0000 0.4573 0.0000 (  7726 PWs)   bands (ev):

   -57.4986 -57.4907 -56.9964 -56.9956 -24.4721 -24.4207 -24.1831 -24.0670
   -23.9710 -23.9039 -23.7199 -23.7098 -23.6189 -23.5993 -23.3133 -23.3122
    -9.2144  -9.1986  -9.1961  -9.1950  -9.1937  -9.1898  -9.1825  -9.1798
    -9.1785  -9.1777  -9.1754  -9.1751  -9.1729  -9.1659  -8.7591  -8.7583
    -8.7522  -8.7514  -8.7394  -8.7386  -8.7167  -8.7159  -8.6994  -8.6986
    -8.6745  -8.6737  -8.6654  -8.6647  -1.3165  -0.7705   0.1016   3.1999
     4.2047   5.6541   5.8347   6.0653   6.2816   6.7835   6.8371   7.1102
     8.4840   9.8785  10.8644  10.9654  12.2099  13.2396  13.4519  13.7276
    13.8625  14.1078  14.4512  14.7414  14.8674  15.1526  15.2329  16.2246

          k =-0.0000-0.5488 0.0000 (  7696 PWs)   bands (ev):

   -57.4952 -57.4886 -56.9938 -56.9930 -24.5136 -24.4593 -24.1625 -24.0772
   -23.9823 -23.9133 -23.7453 -23.7441 -23.6195 -23.6018 -23.3225 -23.3214
    -9.2152  -9.1984  -9.1983  -9.1963  -9.1960  -9.1908  -9.1821  -9.1774
    -9.1768  -9.1758  -9.1744  -9.1738  -9.1712  -9.1658  -8.7582  -8.7574
    -8.7533  -8.7525  -8.7398  -8.7390  -8.7165  -8.7158  -8.6982  -8.6975
    -8.6765  -8.6757  -8.6628  -8.6621  -1.3488  -0.6847   0.4464   2.8051
     4.1304   5.6160   5.9710   5.9918   6.2195   6.8171   6.8548   6.9550
     8.5544   9.9505  11.1705  11.2150  12.2990  13.5132  13.5960  13.7591
    14.0290  14.3908  14.8055  15.2972  15.3308  15.3388  15.6619  15.7665

          k = 0.0792 0.0457 0.0000 (  7723 PWs)   bands (ev):

   -57.5393 -57.5211 -57.0294 -57.0286 -24.4204 -24.1726 -23.8506 -23.8324
   -23.8179 -23.7856 -23.6503 -23.5983 -23.2245 -23.2235 -23.1921 -23.1915
    -9.2191  -9.2133  -9.2018  -9.1999  -9.1995  -9.1915  -9.1902  -9.1880
    -9.1786  -9.1777  -9.1695  -9.1684  -9.1583  -9.1560  -8.7733  -8.7725
    -8.7350  -8.7343  -8.7340  -8.7332  -8.7151  -8.7144  -8.7136  -8.7129
    -8.6977  -8.6969  -8.6448  -8.6441  -3.1167  -2.0139  -0.3698   2.9813
     4.6228   6.0844   6.1302   6.3434   6.8382   7.5945   8.1646   8.6272
     9.4772   9.9587  10.2570  10.4619  10.4704  11.2419  11.4404  11.7165
    12.3666  12.8844  13.3143  13.3902  13.5777  14.1018  14.1520  14.8550

          k = 0.0792 0.1372 0.0000 (  7715 PWs)   bands (ev):

   -57.5336 -57.5165 -57.0246 -57.0239 -24.3912 -24.1685 -23.9328 -23.9166
   -23.8367 -23.8091 -23.6366 -23.5984 -23.2994 -23.2971 -23.2120 -23.2114
    -9.2142  -9.2089  -9.2023  -9.1996  -9.1956  -9.1917  -9.1889  -9.1858
    -9.1809  -9.1786  -9.1723  -9.1688  -9.1628  -9.1606  -8.7710  -8.7703
    -8.7376  -8.7368  -8.7346  -8.7338  -8.7157  -8.7149  -8.7117  -8.7109
    -8.6930  -8.6923  -8.6494  -8.6486  -2.7975  -1.8027  -0.3871   3.3688
     4.6469   5.7590   6.1501   6.3515   6.7632   7.4856   7.5873   8.1848
     9.5366   9.5744  10.3284  10.3638  10.6347  11.2230  11.5954  11.8342
    12.3454  13.2318  13.3837  13.8038  13.9477  14.1172  14.3742  14.8016

          k = 0.0792 0.2287 0.0000 (  7706 PWs)   bands (ev):

   -57.5237 -57.5087 -57.0164 -57.0156 -24.3397 -24.1896 -24.0799 -24.0045
   -23.8830 -23.8467 -23.6241 -23.6006 -23.4239 -23.4185 -23.2480 -23.2473
    -9.2072  -9.2039  -9.2007  -9.1963  -9.1920  -9.1898  -9.1866  -9.1847
    -9.1825  -9.1800  -9.1772  -9.1718  -9.1695  -9.1660  -8.7671  -8.7664
    -8.7419  -8.7411  -8.7359  -8.7351  -8.7164  -8.7157  -8.7083  -8.7075
    -8.6850  -8.6842  -8.6571  -8.6564  -2.2194  -1.4601  -0.4592   3.9919
     4.8301   5.2510   5.9006   6.4644   6.5956   6.8136   7.3165   7.7386
     9.0257   9.7571   9.9982  10.3355  11.1200  11.3099  12.1956  12.2920
    12.5464  13.3200  13.6761  13.9870  14.3299  14.4332  14.7050  15.2748

          k = 0.0792 0.3201 0.0000 (  7691 PWs)   bands (ev):

   -57.5120 -57.4998 -57.0069 -57.0061 -24.2921 -24.2894 -24.2161 -24.0439
   -23.9364 -23.8879 -23.6191 -23.6075 -23.5597 -23.5478 -23.2894 -23.2886
    -9.2089  -9.1981  -9.1940  -9.1903  -9.1899  -9.1883  -9.1863  -9.1847
    -9.1838  -9.1806  -9.1788  -9.1768  -9.1754  -9.1671  -8.7629  -8.7621
    -8.7465  -8.7457  -8.7376  -8.7368  -8.7167  -8.7159  -8.7044  -8.7036
    -8.6756  -8.6749  -8.6658  -8.6650  -1.5310  -1.1323  -0.5116   4.1910
     4.9205   5.2295   5.4658   6.2638   6.4651   6.6731   6.9887   7.3698
     8.6783   9.9967  10.0679  10.1613  11.7646  11.8954  12.4126  13.0903
    13.4160  13.5458  13.7124  14.1834  14.4645  14.6955  15.2118  16.0246

          k = 0.0792 0.4116 0.0000 (  7716 PWs)   bands (ev):

   -57.5016 -57.4925 -56.9986 -56.9978 -24.4138 -24.3697 -24.1989 -24.0604
   -23.9779 -23.9235 -23.6753 -23.6672 -23.6141 -23.5976 -23.3247 -23.3240
    -9.2118  -9.1977  -9.1940  -9.1928  -9.1920  -9.1877  -9.1852  -9.1822
    -9.1808  -9.1791  -9.1776  -9.1761  -9.1738  -9.1672  -8.7595  -8.7587
    -8.7505  -8.7497  -8.7393  -8.7385  -8.7166  -8.7158  -8.7011  -8.7003
    -8.6731  -8.6723  -8.6675  -8.6668  -1.2104  -0.8422  -0.2156   3.6704
     4.3724   5.5129   5.9612   6.1226   6.2313   6.6125   6.8150   7.0348
     8.5926   9.9610  10.5360  10.5991  12.1622  12.7263  12.8402  13.3516
    13.7874  14.1281  14.5461  14.7098  14.7323  14.9453  15.3536  16.2597

          k = 0.0792 0.5031 0.0000 (  7736 PWs)   bands (ev):

   -57.4952 -57.4886 -56.9938 -56.9930 -24.4890 -24.4365 -24.1604 -24.0796
   -23.9991 -23.9442 -23.7302 -23.7243 -23.6158 -23.6021 -23.3450 -23.3443
    -9.2134  -9.1985  -9.1970  -9.1962  -9.1947  -9.1899  -9.1836  -9.1790
    -9.1775  -9.1763  -9.1755  -9.1738  -9.1718  -9.1674  -8.7577  -8.7569
    -8.7527  -8.7519  -8.7404  -8.7396  -8.7163  -8.7155  -8.6992  -8.6984
    -8.6771  -8.6764  -8.6630  -8.6622  -1.2488  -0.6648   0.2957   3.0490
     4.2097   5.6899   5.8983   6.0199   6.2750   6.5762   6.8129   6.9058
     8.6329   9.9878  11.0346  11.0535  12.3485  13.1654  13.3535  13.5811
    14.0764  14.5929  14.9423  15.0931  15.1423  15.2015  15.6347  16.0815

          k = 0.0792-0.5031 0.0000 (  7736 PWs)   bands (ev):

   -57.4952 -57.4886 -56.9938 -56.9930 -24.4890 -24.4365 -24.1604 -24.0796
   -23.9991 -23.9442 -23.7302 -23.7243 -23.6158 -23.6021 -23.3450 -23.3443
    -9.2134  -9.1985  -9.1970  -9.1962  -9.1947  -9.1899  -9.1836  -9.1790
    -9.1775  -9.1763  -9.1755  -9.1738  -9.1718  -9.1674  -8.7577  -8.7569
    -8.7527  -8.7519  -8.7404  -8.7396  -8.7163  -8.7155  -8.6992  -8.6984
    -8.6771  -8.6764  -8.6630  -8.6622  -1.2488  -0.6648   0.2957   3.0490
     4.2097   5.6899   5.8983   6.0199   6.2750   6.5762   6.8129   6.9058
     8.6329   9.9878  11.0346  11.0535  12.3485  13.1654  13.3535  13.5811
    14.0764  14.5929  14.9423  15.0931  15.1423  15.2014  15.6347  16.0815

          k = 0.0792-0.4116 0.0000 (  7716 PWs)   bands (ev):

   -57.5016 -57.4925 -56.9986 -56.9978 -24.4138 -24.3697 -24.1989 -24.0604
   -23.9779 -23.9235 -23.6753 -23.6672 -23.6141 -23.5976 -23.3247 -23.3240
    -9.2118  -9.1977  -9.1940  -9.1928  -9.1920  -9.1877  -9.1852  -9.1822
    -9.1808  -9.1791  -9.1776  -9.1761  -9.1738  -9.1672  -8.7595  -8.7587
    -8.7505  -8.7497  -8.7393  -8.7385  -8.7166  -8.7158  -8.7011  -8.7003
    -8.6731  -8.6723  -8.6675  -8.6668  -1.2104  -0.8422  -0.2156   3.6704
     4.3724   5.5129   5.9612   6.1225   6.2313   6.6125   6.8150   7.0348
     8.5926   9.9610  10.5360  10.5991  12.1622  12.7263  12.8402  13.3516
    13.7874  14.1281  14.5461  14.7098  14.7323  14.9453  15.3536  16.2597

          k = 0.0792-0.3201 0.0000 (  7691 PWs)   bands (ev):

   -57.5120 -57.4998 -57.0069 -57.0061 -24.2921 -24.2894 -24.2161 -24.0439
   -23.9364 -23.8879 -23.6191 -23.6075 -23.5597 -23.5478 -23.2894 -23.2886
    -9.2089  -9.1981  -9.1940  -9.1903  -9.1899  -9.1883  -9.1863  -9.1847
    -9.1838  -9.1806  -9.1788  -9.1768  -9.1754  -9.1671  -8.7629  -8.7621
    -8.7465  -8.7457  -8.7376  -8.7368  -8.7167  -8.7159  -8.7044  -8.7036
    -8.6756  -8.6749  -8.6658  -8.6650  -1.5310  -1.1323  -0.5116   4.1910
     4.9205   5.2295   5.4658   6.2638   6.4651   6.6731   6.9887   7.3698
     8.6784   9.9967  10.0679  10.1613  11.7646  11.8954  12.4126  13.0903
    13.4160  13.5458  13.7124  14.1834  14.4645  14.6955  15.2118  16.0246

          k = 0.0792-0.2287 0.0000 (  7706 PWs)   bands (ev):

   -57.5237 -57.5087 -57.0164 -57.0156 -24.3397 -24.1896 -24.0799 -24.0045
   -23.8830 -23.8467 -23.6241 -23.6006 -23.4239 -23.4185 -23.2480 -23.2473
    -9.2072  -9.2039  -9.2007  -9.1963  -9.1920  -9.1898  -9.1866  -9.1847
    -9.1825  -9.1800  -9.1772  -9.1718  -9.1695  -9.1660  -8.7671  -8.7664
    -8.7419  -8.7411  -8.7359  -8.7351  -8.7164  -8.7157  -8.7083  -8.7075
    -8.6850  -8.6842  -8.6571  -8.6564  -2.2194  -1.4601  -0.4592   3.9919
     4.8301   5.2510   5.9006   6.4645   6.5956   6.8136   7.3165   7.7386
     9.0258   9.7571   9.9982  10.3355  11.1200  11.3099  12.1956  12.2920
    12.5464  13.3200  13.6761  13.9870  14.3299  14.4332  14.7050  15.2748

          k = 0.0792-0.1372 0.0000 (  7715 PWs)   bands (ev):

   -57.5336 -57.5165 -57.0246 -57.0239 -24.3912 -24.1685 -23.9328 -23.9166
   -23.8367 -23.8091 -23.6366 -23.5984 -23.2994 -23.2971 -23.2120 -23.2114
    -9.2142  -9.2089  -9.2023  -9.1996  -9.1956  -9.1917  -9.1889  -9.1858
    -9.1809  -9.1786  -9.1723  -9.1688  -9.1628  -9.1606  -8.7710  -8.7703
    -8.7376  -8.7368  -8.7346  -8.7338  -8.7157  -8.7149  -8.7117  -8.7109
    -8.6930  -8.6923  -8.6494  -8.6486  -2.7975  -1.8027  -0.3871   3.3688
     4.6469   5.7590   6.1501   6.3515   6.7632   7.4856   7.5873   8.1848
     9.5366   9.5744  10.3284  10.3638  10.6347  11.2230  11.5954  11.8342
    12.3454  13.2318  13.3837  13.8038  13.9478  14.1172  14.3742  14.8016

          k = 0.0792-0.0457 0.0000 (  7723 PWs)   bands (ev):

   -57.5393 -57.5211 -57.0294 -57.0286 -24.4204 -24.1726 -23.8506 -23.8324
   -23.8179 -23.7856 -23.6503 -23.5983 -23.2245 -23.2235 -23.1921 -23.1915
    -9.2191  -9.2133  -9.2018  -9.1999  -9.1995  -9.1915  -9.1902  -9.1880
    -9.1786  -9.1777  -9.1695  -9.1684  -9.1583  -9.1560  -8.7733  -8.7725
    -8.7350  -8.7342  -8.7340  -8.7332  -8.7151  -8.7144  -8.7136  -8.7129
    -8.6977  -8.6969  -8.6448  -8.6441  -3.1167  -2.0139  -0.3698   2.9813
     4.6228   6.0844   6.1302   6.3433   6.8382   7.5945   8.1646   8.6272
     9.4772   9.9587  10.2570  10.4619  10.4704  11.2419  11.4405  11.7165
    12.3666  12.8843  13.3143  13.3902  13.5777  14.1018  14.1520  14.8549

          k = 0.1584 0.0915 0.0000 (  7719 PWs)   bands (ev):

   -57.5310 -57.5144 -57.0224 -57.0217 -24.3775 -24.1702 -23.9801 -23.9431
   -23.8519 -23.8096 -23.6330 -23.5991 -23.3371 -23.3337 -23.2179 -23.2172
    -9.2121  -9.2073  -9.2032  -9.1963  -9.1959  -9.1921  -9.1876  -9.1853
    -9.1819  -9.1790  -9.1731  -9.1703  -9.1646  -9.1620  -8.7700  -8.7692
    -8.7388  -8.7380  -8.7349  -8.7341  -8.7160  -8.7153  -8.7107  -8.7099
    -8.6908  -8.6901  -8.6514  -8.6507  -2.6468  -1.7094  -0.4019   3.5334
     4.6864   5.6040   6.1331   6.3131   6.8957   7.0424   7.5731   8.3161
     8.9641   9.8012  10.0194  10.4509  11.0560  11.2063  11.7790  11.8216
    12.5070  13.1827  13.4895  13.6232  13.8189  14.2660  14.4540  15.5274

          k = 0.1584 0.1829 0.0000 (  7706 PWs)   bands (ev):

   -57.5237 -57.5087 -57.0164 -57.0156 -24.3397 -24.1896 -24.0799 -24.0045
   -23.8830 -23.8467 -23.6241 -23.6006 -23.4239 -23.4185 -23.2480 -23.2473
    -9.2072  -9.2039  -9.2007  -9.1963  -9.1920  -9.1898  -9.1866  -9.1847
    -9.1825  -9.1800  -9.1772  -9.1718  -9.1695  -9.1660  -8.7671  -8.7664
    -8.7419  -8.7411  -8.7359  -8.7351  -8.7164  -8.7157  -8.7083  -8.7075
    -8.6850  -8.6842  -8.6571  -8.6564  -2.2194  -1.4601  -0.4592   3.9919
     4.8301   5.2510   5.9006   6.4644   6.5956   6.8136   7.3165   7.7386
     9.0258   9.7571   9.9982  10.3355  11.1200  11.3099  12.1956  12.2920
    12.5464  13.3200  13.6761  13.9871  14.3299  14.4332  14.7050  15.2749

          k = 0.1584 0.2744 0.0000 (  7689 PWs)   bands (ev):

   -57.5136 -57.5010 -57.0081 -57.0074 -24.2910 -24.2519 -24.1994 -24.0333
   -23.9402 -23.9113 -23.6157 -23.6036 -23.5263 -23.5195 -23.3008 -23.2990
    -9.2054  -9.1994  -9.1964  -9.1917  -9.1906  -9.1874  -9.1860  -9.1842
    -9.1835  -9.1823  -9.1782  -9.1768  -9.1726  -9.1698  -8.7632  -8.7624
    -8.7455  -8.7447  -8.7376  -8.7368  -8.7166  -8.7158  -8.7053  -8.7045
    -8.6769  -8.6761  -8.6648  -8.6641  -1.5928  -1.1395  -0.5596   4.4880
     5.0145   5.1582   5.2808   6.4559   6.4604   6.6680   6.7718   7.2277
     9.3553   9.4495  10.0442  10.2944  11.4547  11.5345  12.1607  13.0953
    13.3811  13.5428  13.6957  14.5945  14.5990  14.8508  15.3722  15.6491

          k = 0.1584 0.3659 0.0000 (  7693 PWs)   bands (ev):

   -57.5032 -57.4936 -56.9999 -56.9991 -24.3449 -24.3248 -24.2112 -24.0506
   -24.0045 -23.9699 -23.6244 -23.6201 -23.6071 -23.5987 -23.3578 -23.3549
    -9.2067  -9.1970  -9.1932  -9.1915  -9.1900  -9.1882  -9.1861  -9.1834
    -9.1830  -9.1802  -9.1794  -9.1769  -9.1743  -9.1699  -8.7594  -8.7586
    -8.7488  -8.7480  -8.7397  -8.7389  -8.7162  -8.7154  -8.7027  -8.7019
    -8.6729  -8.6721  -8.6686  -8.6678  -0.9934  -0.8683  -0.5399   4.2905
     4.5846   5.3174   5.7696   6.1187   6.2851   6.5331   6.5972   6.8875
     9.1117   9.8671  10.1768  10.3571  11.9707  12.1863  12.3045  13.2171
    13.8457  13.9919  14.4988  14.8938  15.0100  15.0927  16.0118  16.2397

          k = 0.1584 0.4573 0.0000 (  7727 PWs)   bands (ev):

   -57.4952 -57.4886 -56.9938 -56.9930 -24.4264 -24.3839 -24.1638 -24.0965
   -24.0289 -24.0091 -23.6857 -23.6797 -23.6099 -23.6044 -23.4004 -23.3971
    -9.2083  -9.1982  -9.1952  -9.1938  -9.1923  -9.1884  -9.1855  -9.1839
    -9.1795  -9.1772  -9.1763  -9.1746  -9.1737  -9.1700  -8.7567  -8.7559
    -8.7510  -8.7502  -8.7415  -8.7407  -8.7155  -8.7147  -8.7012  -8.7004
    -8.6783  -8.6775  -8.6631  -8.6623  -0.9752  -0.6266  -0.0576   3.6362
     4.4189   5.5262   5.9381   6.1156   6.2620   6.3441   6.4352   6.8458
     9.0615   9.9775  10.6389  10.7245  12.3947  12.6226  13.0692  13.2091
    13.8864  14.3701  14.8541  15.1116  15.1571  15.3471  16.2038  16.4708

          k = 0.1584 0.5488 0.0000 (  7732 PWs)   bands (ev):

   -57.4920 -57.4870 -56.9916 -56.9908 -24.4566 -24.4054 -24.1342 -24.1282
   -24.0306 -24.0280 -23.7085 -23.7018 -23.6095 -23.6056 -23.4160 -23.4128
    -9.2089  -9.1996  -9.1971  -9.1938  -9.1927  -9.1888  -9.1870  -9.1815
    -9.1789  -9.1759  -9.1753  -9.1732  -9.1716  -9.1713  -8.7557  -8.7549
    -8.7518  -8.7510  -8.7423  -8.7415  -8.7151  -8.7143  -8.7007  -8.6999
    -8.6803  -8.6795  -8.6610  -8.6602  -1.0111  -0.5529   0.2236   3.3294
     4.3699   5.6877   5.9062   5.9712   6.1651   6.2780   6.5111   6.9412
     9.0711   9.9971  10.9123  10.9735  12.4855  13.1227  13.1342  13.6747
    13.9202  14.2216  14.6623  14.8692  15.2132  15.4141  16.3386  16.7421

          k = 0.1584-0.4573 0.0000 (  7727 PWs)   bands (ev):

   -57.4952 -57.4886 -56.9938 -56.9930 -24.4264 -24.3839 -24.1638 -24.0965
   -24.0289 -24.0091 -23.6857 -23.6797 -23.6099 -23.6044 -23.4004 -23.3971
    -9.2083  -9.1982  -9.1952  -9.1938  -9.1923  -9.1884  -9.1855  -9.1839
    -9.1795  -9.1772  -9.1763  -9.1746  -9.1737  -9.1700  -8.7567  -8.7559
    -8.7510  -8.7502  -8.7415  -8.7407  -8.7155  -8.7147  -8.7012  -8.7004
    -8.6783  -8.6775  -8.6631  -8.6623  -0.9752  -0.6266  -0.0576   3.6362
     4.4189   5.5262   5.9381   6.1156   6.2620   6.3441   6.4352   6.8458
     9.0615   9.9775  10.6390  10.7245  12.3947  12.6226  13.0692  13.2091
    13.8864  14.3701  14.8541  15.1116  15.1570  15.3471  16.2038  16.4709

          k = 0.1584-0.3659 0.0000 (  7693 PWs)   bands (ev):

   -57.5032 -57.4936 -56.9999 -56.9991 -24.3449 -24.3248 -24.2112 -24.0506
   -24.0045 -23.9699 -23.6244 -23.6201 -23.6071 -23.5987 -23.3578 -23.3549
    -9.2067  -9.1970  -9.1932  -9.1915  -9.1900  -9.1882  -9.1861  -9.1834
    -9.1830  -9.1802  -9.1794  -9.1769  -9.1743  -9.1699  -8.7594  -8.7586
    -8.7488  -8.7480  -8.7397  -8.7389  -8.7162  -8.7154  -8.7027  -8.7019
    -8.6729  -8.6721  -8.6686  -8.6679  -0.9934  -0.8683  -0.5399   4.2905
     4.5846   5.3174   5.7696   6.1187   6.2851   6.5331   6.5972   6.8875
     9.1118   9.8671  10.1768  10.3571  11.9707  12.1863  12.3045  13.2171
    13.8457  13.9919  14.4988  14.8938  15.0100  15.0927  16.0118  16.2397

          k = 0.1584-0.2744 0.0000 (  7689 PWs)   bands (ev):

   -57.5136 -57.5010 -57.0081 -57.0074 -24.2910 -24.2519 -24.1994 -24.0333
   -23.9402 -23.9113 -23.6157 -23.6036 -23.5263 -23.5195 -23.3008 -23.2990
    -9.2054  -9.1994  -9.1964  -9.1917  -9.1906  -9.1874  -9.1860  -9.1842
    -9.1835  -9.1823  -9.1782  -9.1768  -9.1726  -9.1698  -8.7632  -8.7624
    -8.7455  -8.7447  -8.7376  -8.7368  -8.7166  -8.7158  -8.7053  -8.7045
    -8.6769  -8.6761  -8.6648  -8.6641  -1.5928  -1.1395  -0.5596   4.4880
     5.0145   5.1582   5.2809   6.4559   6.4604   6.6680   6.7718   7.2277
     9.3553   9.4495  10.0442  10.2944  11.4547  11.5345  12.1607  13.0953
    13.3811  13.5428  13.6957  14.5945  14.5990  14.8508  15.3722  15.6491

          k = 0.1584-0.1829 0.0000 (  7706 PWs)   bands (ev):

   -57.5237 -57.5087 -57.0164 -57.0156 -24.3397 -24.1896 -24.0799 -24.0045
   -23.8830 -23.8467 -23.6241 -23.6006 -23.4239 -23.4185 -23.2480 -23.2473
    -9.2072  -9.2039  -9.2007  -9.1963  -9.1920  -9.1898  -9.1866  -9.1847
    -9.1825  -9.1800  -9.1772  -9.1718  -9.1695  -9.1660  -8.7671  -8.7664
    -8.7419  -8.7411  -8.7359  -8.7351  -8.7164  -8.7157  -8.7083  -8.7075
    -8.6850  -8.6842  -8.6571  -8.6564  -2.2194  -1.4601  -0.4592   3.9919
     4.8301   5.2510   5.9006   6.4644   6.5956   6.8136   7.3165   7.7386
     9.0258   9.7571   9.9982  10.3355  11.1200  11.3099  12.1956  12.2920
    12.5464  13.3200  13.6760  13.9870  14.3299  14.4332  14.7050  15.2748

          k = 0.1584-0.0915 0.0000 (  7719 PWs)   bands (ev):

   -57.5310 -57.5144 -57.0224 -57.0217 -24.3775 -24.1702 -23.9801 -23.9431
   -23.8519 -23.8096 -23.6330 -23.5991 -23.3371 -23.3337 -23.2179 -23.2172
    -9.2121  -9.2073  -9.2032  -9.1963  -9.1959  -9.1921  -9.1876  -9.1853
    -9.1819  -9.1790  -9.1731  -9.1703  -9.1646  -9.1620  -8.7700  -8.7692
    -8.7388  -8.7380  -8.7349  -8.7342  -8.7160  -8.7153  -8.7107  -8.7099
    -8.6908  -8.6901  -8.6514  -8.6507  -2.6468  -1.7094  -0.4019   3.5334
     4.6864   5.6040   6.1331   6.3131   6.8957   7.0424   7.5731   8.3161
     8.9640   9.8012  10.0194  10.4509  11.0560  11.2062  11.7790  11.8216
    12.5070  13.1827  13.4895  13.6232  13.8189  14.2660  14.4540  15.5265

          k = 0.1584 0.0000 0.0000 (  7715 PWs)   bands (ev):

   -57.5336 -57.5165 -57.0246 -57.0239 -24.3912 -24.1685 -23.9328 -23.9166
   -23.8367 -23.8091 -23.6366 -23.5984 -23.2994 -23.2971 -23.2120 -23.2114
    -9.2142  -9.2089  -9.2023  -9.1996  -9.1956  -9.1917  -9.1889  -9.1858
    -9.1809  -9.1786  -9.1723  -9.1688  -9.1628  -9.1606  -8.7710  -8.7703
    -8.7376  -8.7368  -8.7346  -8.7338  -8.7157  -8.7149  -8.7117  -8.7109
    -8.6930  -8.6923  -8.6494  -8.6486  -2.7975  -1.8027  -0.3871   3.3688
     4.6469   5.7591   6.1502   6.3515   6.7631   7.4856   7.5873   8.1848
     9.5366   9.5744  10.3284  10.3639  10.6346  11.2230  11.5954  11.8342
    12.3454  13.2318  13.3838  13.8037  13.9477  14.1172  14.3743  14.8016

          k = 0.2376 0.1372 0.0000 (  7712 PWs)   bands (ev):

   -57.5195 -57.5054 -57.0129 -57.0121 -24.3191 -24.2259 -24.1421 -24.0316
   -23.8965 -23.8436 -23.6231 -23.6031 -23.4852 -23.4764 -23.2530 -23.2522
    -9.2091  -9.2019  -9.1969  -9.1928  -9.1910  -9.1893  -9.1869  -9.1854
    -9.1810  -9.1809  -9.1772  -9.1767  -9.1724  -9.1651  -8.7657  -8.7649
    -8.7438  -8.7430  -8.7364  -8.7356  -8.7167  -8.7159  -8.7066  -8.7059
    -8.6816  -8.6808  -8.6603  -8.6595  -1.9758  -1.3424  -0.4790   4.0541
     4.9812   5.1960   5.6104   6.3979   6.4123   6.8951   7.2198   8.1846
     8.2008   9.8607   9.9272  10.2842  11.6845  11.9148  12.0803  12.4737
    12.9794  13.1763  13.6080  13.7191  14.1521  14.5898  14.7496  16.0666

          k = 0.2376 0.2287 0.0000 (  7691 PWs)   bands (ev):

   -57.5120 -57.4998 -57.0069 -57.0061 -24.2921 -24.2894 -24.2161 -24.0439
   -23.9364 -23.8879 -23.6191 -23.6075 -23.5597 -23.5478 -23.2894 -23.2886
    -9.2089  -9.1981  -9.1940  -9.1903  -9.1899  -9.1883  -9.1863  -9.1847
    -9.1838  -9.1806  -9.1788  -9.1768  -9.1754  -9.1670  -8.7629  -8.7621
    -8.7465  -8.7457  -8.7376  -8.7368  -8.7167  -8.7159  -8.7044  -8.7036
    -8.6756  -8.6749  -8.6658  -8.6650  -1.5310  -1.1322  -0.5116   4.1910
     4.9205   5.2295   5.4658   6.2638   6.4651   6.6731   6.9887   7.3698
     8.6783   9.9967  10.0679  10.1613  11.7646  11.8954  12.4126  13.0903
    13.4160  13.5458  13.7124  14.1834  14.4645  14.6954  15.2118  16.0246

          k = 0.2376 0.3201 0.0000 (  7693 PWs)   bands (ev):

   -57.5032 -57.4936 -56.9999 -56.9991 -24.3449 -24.3248 -24.2112 -24.0506
   -24.0045 -23.9699 -23.6244 -23.6201 -23.6071 -23.5987 -23.3578 -23.3549
    -9.2067  -9.1970  -9.1932  -9.1915  -9.1900  -9.1882  -9.1861  -9.1834
    -9.1830  -9.1802  -9.1794  -9.1769  -9.1743  -9.1699  -8.7594  -8.7586
    -8.7488  -8.7480  -8.7397  -8.7389  -8.7162  -8.7154  -8.7027  -8.7019
    -8.6729  -8.6721  -8.6686  -8.6678  -0.9934  -0.8683  -0.5399   4.2905
     4.5846   5.3174   5.7696   6.1187   6.2850   6.5331   6.5972   6.8875
     9.1117   9.8671  10.1768  10.3571  11.9707  12.1864  12.3045  13.2171
    13.8457  13.9919  14.4988  14.8938  15.0100  15.0927  16.0118  16.2397

          k = 0.2376 0.4116 0.0000 (  7725 PWs)   bands (ev):

   -57.4952 -57.4886 -56.9938 -56.9931 -24.3748 -24.3598 -24.1786 -24.0900
   -24.0858 -24.0193 -23.6500 -23.6490 -23.6107 -23.6080 -23.4368 -23.4308
    -9.2044  -9.1967  -9.1957  -9.1941  -9.1901  -9.1895  -9.1851  -9.1839
    -9.1814  -9.1790  -9.1771  -9.1764  -9.1741  -9.1706  -8.7562  -8.7554
    -8.7500  -8.7492  -8.7423  -8.7415  -8.7150  -8.7142  -8.7023  -8.7015
    -8.6789  -8.6782  -8.6632  -8.6624  -0.6722  -0.6448  -0.3561   4.0854
     4.5485   5.2932   5.7650   6.1379   6.1557   6.3084   6.5522   6.7104
     9.5607   9.9519  10.2321  10.5252  12.1280  12.5342  12.8184  13.1946
    13.9356  14.2783  14.7916  15.1546  15.1752  15.2857  16.6214  16.7568

          k = 0.2376 0.5031 0.0000 (  7741 PWs)   bands (ev):

   -57.4901 -57.4862 -56.9903 -56.9896 -24.3899 -24.3499 -24.2066 -24.1511
   -24.0881 -24.0351 -23.6647 -23.6568 -23.6103 -23.6067 -23.4928 -23.4860
    -9.2034  -9.1995  -9.1967  -9.1929  -9.1912  -9.1888  -9.1860  -9.1848
    -9.1814  -9.1779  -9.1758  -9.1747  -9.1729  -9.1712  -8.7542  -8.7534
    -8.7500  -8.7492  -8.7444  -8.7436  -8.7137  -8.7129  -8.7026  -8.7018
    -8.6826  -8.6818  -8.6599  -8.6592  -0.6738  -0.4905  -0.0572   3.8948
     4.5535   5.3023   5.4945   6.0958   6.1756   6.2855   6.5244   6.7801
     9.7913  10.0809  10.6097  10.7291  12.2191  12.9425  13.1689  13.3809
    13.8518  14.0189  14.3551  14.6991  15.1397  15.3262  16.7585  17.0614

          k = 0.2376 0.5945 0.0000 (  7741 PWs)   bands (ev):

   -57.4901 -57.4862 -56.9903 -56.9896 -24.3899 -24.3499 -24.2066 -24.1511
   -24.0881 -24.0351 -23.6647 -23.6568 -23.6103 -23.6067 -23.4928 -23.4860
    -9.2034  -9.1995  -9.1967  -9.1929  -9.1912  -9.1888  -9.1860  -9.1848
    -9.1814  -9.1779  -9.1758  -9.1747  -9.1729  -9.1712  -8.7542  -8.7534
    -8.7500  -8.7492  -8.7444  -8.7436  -8.7137  -8.7129  -8.7026  -8.7018
    -8.6826  -8.6818  -8.6599  -8.6592  -0.6738  -0.4905  -0.0572   3.8948
     4.5535   5.3023   5.4945   6.0958   6.1756   6.2855   6.5244   6.7801
     9.7913  10.0809  10.6097  10.7291  12.2191  12.9425  13.1689  13.3809
    13.8518  14.0189  14.3551  14.6991  15.1397  15.3262  16.7585  17.0614

          k = 0.2376-0.4116 0.0000 (  7725 PWs)   bands (ev):

   -57.4952 -57.4886 -56.9938 -56.9931 -24.3748 -24.3598 -24.1786 -24.0900
   -24.0858 -24.0194 -23.6500 -23.6490 -23.6107 -23.6080 -23.4368 -23.4308
    -9.2044  -9.1967  -9.1957  -9.1941  -9.1901  -9.1895  -9.1851  -9.1839
    -9.1814  -9.1790  -9.1771  -9.1764  -9.1741  -9.1706  -8.7562  -8.7554
    -8.7500  -8.7492  -8.7423  -8.7415  -8.7150  -8.7142  -8.7023  -8.7015
    -8.6789  -8.6782  -8.6632  -8.6624  -0.6722  -0.6448  -0.3562   4.0854
     4.5485   5.2932   5.7650   6.1379   6.1557   6.3084   6.5522   6.7104
     9.5608   9.9519  10.2321  10.5252  12.1280  12.5342  12.8184  13.1946
    13.9356  14.2783  14.7916  15.1546  15.1752  15.2857  16.6214  16.7567

          k = 0.2376-0.3201 0.0000 (  7693 PWs)   bands (ev):

   -57.5032 -57.4936 -56.9999 -56.9991 -24.3449 -24.3248 -24.2112 -24.0506
   -24.0045 -23.9699 -23.6244 -23.6201 -23.6071 -23.5987 -23.3578 -23.3549
    -9.2067  -9.1970  -9.1932  -9.1915  -9.1900  -9.1882  -9.1861  -9.1834
    -9.1830  -9.1802  -9.1794  -9.1769  -9.1743  -9.1699  -8.7594  -8.7586
    -8.7488  -8.7480  -8.7397  -8.7389  -8.7162  -8.7154  -8.7027  -8.7019
    -8.6729  -8.6721  -8.6686  -8.6678  -0.9934  -0.8683  -0.5399   4.2905
     4.5846   5.3174   5.7696   6.1187   6.2851   6.5331   6.5972   6.8875
     9.1118   9.8671  10.1768  10.3571  11.9707  12.1863  12.3045  13.2171
    13.8457  13.9919  14.4988  14.8938  15.0100  15.0927  16.0118  16.2396

          k = 0.2376-0.2287 0.0000 (  7691 PWs)   bands (ev):

   -57.5120 -57.4998 -57.0069 -57.0061 -24.2921 -24.2894 -24.2161 -24.0439
   -23.9364 -23.8879 -23.6191 -23.6075 -23.5597 -23.5478 -23.2894 -23.2886
    -9.2089  -9.1981  -9.1940  -9.1903  -9.1899  -9.1883  -9.1863  -9.1847
    -9.1838  -9.1806  -9.1788  -9.1768  -9.1754  -9.1670  -8.7629  -8.7621
    -8.7465  -8.7457  -8.7376  -8.7368  -8.7167  -8.7159  -8.7044  -8.7036
    -8.6756  -8.6749  -8.6658  -8.6650  -1.5310  -1.1323  -0.5116   4.1910
     4.9205   5.2295   5.4658   6.2638   6.4651   6.6731   6.9887   7.3698
     8.6784   9.9967  10.0679  10.1613  11.7646  11.8954  12.4126  13.0903
    13.4160  13.5458  13.7124  14.1834  14.4645  14.6954  15.2118  16.0246

          k = 0.2376-0.1372 0.0000 (  7712 PWs)   bands (ev):

   -57.5195 -57.5054 -57.0129 -57.0121 -24.3191 -24.2259 -24.1421 -24.0316
   -23.8965 -23.8436 -23.6231 -23.6031 -23.4852 -23.4764 -23.2530 -23.2522
    -9.2091  -9.2019  -9.1969  -9.1928  -9.1910  -9.1893  -9.1869  -9.1854
    -9.1810  -9.1809  -9.1772  -9.1767  -9.1724  -9.1651  -8.7657  -8.7649
    -8.7438  -8.7430  -8.7364  -8.7356  -8.7167  -8.7159  -8.7066  -8.7059
    -8.6816  -8.6808  -8.6603  -8.6595  -1.9758  -1.3424  -0.4790   4.0541
     4.9812   5.1960   5.6104   6.3979   6.4122   6.8951   7.2198   8.1846
     8.2008   9.8607   9.9272  10.2842  11.6845  11.9148  12.0803  12.4737
    12.9794  13.1762  13.6080  13.7191  14.1521  14.5898  14.7496  16.0666

          k = 0.2376-0.0457 0.0000 (  7706 PWs)   bands (ev):

   -57.5237 -57.5087 -57.0164 -57.0156 -24.3397 -24.1896 -24.0799 -24.0045
   -23.8830 -23.8467 -23.6241 -23.6006 -23.4239 -23.4185 -23.2480 -23.2473
    -9.2072  -9.2039  -9.2007  -9.1963  -9.1920  -9.1898  -9.1866  -9.1847
    -9.1825  -9.1800  -9.1772  -9.1718  -9.1695  -9.1660  -8.7671  -8.7664
    -8.7419  -8.7411  -8.7359  -8.7351  -8.7164  -8.7157  -8.7083  -8.7075
    -8.6850  -8.6842  -8.6571  -8.6564  -2.2194  -1.4601  -0.4592   3.9919
     4.8301   5.2510   5.9006   6.4644   6.5956   6.8136   7.3165   7.7386
     9.0257   9.7571   9.9982  10.3355  11.1200  11.3099  12.1956  12.2920
    12.5464  13.3200  13.6761  13.9871  14.3299  14.4332  14.7049  15.2748

          k = 0.2376 0.0457 0.0000 (  7706 PWs)   bands (ev):

   -57.5237 -57.5087 -57.0164 -57.0156 -24.3397 -24.1896 -24.0799 -24.0045
   -23.8830 -23.8467 -23.6241 -23.6006 -23.4239 -23.4185 -23.2480 -23.2473
    -9.2072  -9.2039  -9.2007  -9.1963  -9.1920  -9.1898  -9.1866  -9.1847
    -9.1825  -9.1800  -9.1772  -9.1718  -9.1695  -9.1660  -8.7671  -8.7664
    -8.7419  -8.7411  -8.7359  -8.7351  -8.7164  -8.7157  -8.7083  -8.7075
    -8.6850  -8.6842  -8.6571  -8.6564  -2.2194  -1.4601  -0.4592   3.9919
     4.8301   5.2510   5.9006   6.4644   6.5956   6.8136   7.3165   7.7386
     9.0257   9.7571   9.9982  10.3355  11.1200  11.3099  12.1956  12.2920
    12.5464  13.3200  13.6761  13.9871  14.3299  14.4332  14.7049  15.2748

          k = 0.3168 0.1829 0.0000 (  7708 PWs)   bands (ev):

   -57.5077 -57.4967 -57.0034 -57.0026 -24.3598 -24.3224 -24.2255 -24.0531
   -23.9399 -23.8783 -23.6357 -23.6309 -23.6097 -23.5858 -23.2879 -23.2869
    -9.2120  -9.1987  -9.1921  -9.1902  -9.1892  -9.1883  -9.1861  -9.1843
    -9.1838  -9.1798  -9.1779  -9.1766  -9.1759  -9.1657  -8.7617  -8.7609
    -8.7487  -8.7479  -8.7380  -8.7372  -8.7169  -8.7161  -8.7025  -8.7017
    -8.6723  -8.6715  -8.6686  -8.6678  -1.3846  -1.0493  -0.3879   3.8606
     4.5791   5.3739   5.8031   6.1279   6.2502   6.8743   6.9038   7.5452
     8.3098   9.7978  10.2916  10.5021  12.0706  12.6337  12.8711  13.2463
    13.4341  13.7886  13.9170  13.9742  14.1036  14.8319  15.0642  16.4056

          k = 0.3168 0.2744 0.0000 (  7716 PWs)   bands (ev):

   -57.5016 -57.4925 -56.9986 -56.9978 -24.4138 -24.3697 -24.1989 -24.0604
   -23.9779 -23.9236 -23.6753 -23.6672 -23.6141 -23.5977 -23.3247 -23.3240
    -9.2118  -9.1977  -9.1940  -9.1928  -9.1920  -9.1877  -9.1852  -9.1822
    -9.1808  -9.1791  -9.1776  -9.1761  -9.1738  -9.1672  -8.7595  -8.7587
    -8.7505  -8.7497  -8.7393  -8.7385  -8.7166  -8.7158  -8.7011  -8.7003
    -8.6731  -8.6723  -8.6675  -8.6668  -1.2104  -0.8422  -0.2156   3.6704
     4.3724   5.5129   5.9612   6.1226   6.2313   6.6125   6.8150   7.0348
     8.5925   9.9610  10.5360  10.5991  12.1623  12.7264  12.8402  13.3516
    13.7874  14.1281  14.5462  14.7098  14.7323  14.9453  15.3536  16.2597

          k = 0.3168 0.3659 0.0000 (  7727 PWs)   bands (ev):

   -57.4952 -57.4886 -56.9938 -56.9930 -24.4264 -24.3839 -24.1638 -24.0965
   -24.0289 -24.0091 -23.6857 -23.6797 -23.6099 -23.6044 -23.4004 -23.3971
    -9.2083  -9.1982  -9.1952  -9.1938  -9.1923  -9.1884  -9.1855  -9.1839
    -9.1795  -9.1772  -9.1763  -9.1746  -9.1737  -9.1700  -8.7567  -8.7559
    -8.7510  -8.7502  -8.7415  -8.7407  -8.7155  -8.7147  -8.7012  -8.7004
    -8.6783  -8.6775  -8.6631  -8.6623  -0.9752  -0.6266  -0.0576   3.6362
     4.4189   5.5262   5.9381   6.1156   6.2620   6.3441   6.4352   6.8458
     9.0615   9.9775  10.6390  10.7245  12.3947  12.6226  13.0692  13.2091
    13.8864  14.3701  14.8541  15.1116  15.1570  15.3471  16.2038  16.4709

          k = 0.3168 0.4573 0.0000 (  7741 PWs)   bands (ev):

   -57.4901 -57.4862 -56.9903 -56.9896 -24.3899 -24.3499 -24.2066 -24.1511
   -24.0881 -24.0351 -23.6647 -23.6568 -23.6103 -23.6067 -23.4928 -23.4860
    -9.2034  -9.1995  -9.1968  -9.1929  -9.1912  -9.1888  -9.1860  -9.1848
    -9.1814  -9.1779  -9.1758  -9.1747  -9.1729  -9.1712  -8.7542  -8.7534
    -8.7500  -8.7492  -8.7444  -8.7436  -8.7137  -8.7129  -8.7026  -8.7018
    -8.6826  -8.6818  -8.6599  -8.6592  -0.6738  -0.4905  -0.0572   3.8948
     4.5535   5.3023   5.4945   6.0958   6.1756   6.2854   6.5244   6.7801
     9.7913  10.0809  10.6097  10.7291  12.2191  12.9425  13.1689  13.3809
    13.8518  14.0189  14.3551  14.6991  15.1397  15.3262  16.7585  17.0614

          k = 0.3168 0.5488 0.0000 (  7767 PWs)   bands (ev):

   -57.4878 -57.4857 -56.9890 -56.9883 -24.3248 -24.2940 -24.2931 -24.2312
   -24.0585 -24.0575 -23.6296 -23.6290 -23.6122 -23.6065 -23.5479 -23.5471
    -9.2003  -9.1997  -9.1986  -9.1917  -9.1900  -9.1897  -9.1869  -9.1849
    -9.1818  -9.1798  -9.1763  -9.1744  -9.1731  -9.1708  -8.7533  -8.7525
    -8.7479  -8.7472  -8.7471  -8.7464  -8.7126  -8.7118  -8.7038  -8.7030
    -8.6842  -8.6835  -8.6588  -8.6581  -0.4468  -0.4467  -0.1807   4.3819
     4.3824   5.1204   5.1745   6.1454   6.1480   6.4176   6.6104   6.6107
    10.2410  10.2411  10.6761  10.6765  12.1032  13.0515  13.0559  13.1312
    13.6365  14.1274  14.1290  14.5060  15.1323  15.1338  16.8667  17.4434

          k = 0.3168 0.6402 0.0000 (  7741 PWs)   bands (ev):

   -57.4901 -57.4862 -56.9903 -56.9896 -24.3899 -24.3499 -24.2066 -24.1511
   -24.0881 -24.0351 -23.6647 -23.6568 -23.6103 -23.6067 -23.4928 -23.4860
    -9.2034  -9.1995  -9.1967  -9.1929  -9.1912  -9.1888  -9.1860  -9.1848
    -9.1814  -9.1779  -9.1758  -9.1747  -9.1729  -9.1712  -8.7542  -8.7534
    -8.7500  -8.7492  -8.7444  -8.7436  -8.7137  -8.7129  -8.7026  -8.7018
    -8.6826  -8.6818  -8.6599  -8.6592  -0.6738  -0.4905  -0.0572   3.8948
     4.5535   5.3023   5.4945   6.0958   6.1756   6.2855   6.5244   6.7801
     9.7913  10.0809  10.6097  10.7291  12.2191  12.9425  13.1689  13.3809
    13.8518  14.0189  14.3551  14.6991  15.1397  15.3262  16.7585  17.0614

          k = 0.3168-0.3659 0.0000 (  7727 PWs)   bands (ev):

   -57.4952 -57.4886 -56.9938 -56.9930 -24.4264 -24.3839 -24.1638 -24.0965
   -24.0289 -24.0091 -23.6857 -23.6797 -23.6099 -23.6044 -23.4004 -23.3971
    -9.2083  -9.1982  -9.1952  -9.1938  -9.1923  -9.1884  -9.1855  -9.1839
    -9.1795  -9.1772  -9.1763  -9.1746  -9.1737  -9.1700  -8.7567  -8.7559
    -8.7510  -8.7502  -8.7415  -8.7407  -8.7155  -8.7147  -8.7012  -8.7004
    -8.6783  -8.6775  -8.6631  -8.6623  -0.9752  -0.6266  -0.0576   3.6362
     4.4189   5.5262   5.9381   6.1156   6.2620   6.3441   6.4352   6.8458
     9.0615   9.9775  10.6390  10.7245  12.3947  12.6226  13.0692  13.2091
    13.8864  14.3701  14.8541  15.1116  15.1570  15.3471  16.2038  16.4708

          k = 0.3168-0.2744 0.0000 (  7716 PWs)   bands (ev):

   -57.5016 -57.4925 -56.9986 -56.9978 -24.4138 -24.3697 -24.1989 -24.0604
   -23.9779 -23.9236 -23.6753 -23.6672 -23.6141 -23.5977 -23.3247 -23.3240
    -9.2118  -9.1977  -9.1940  -9.1928  -9.1920  -9.1877  -9.1852  -9.1822
    -9.1808  -9.1791  -9.1776  -9.1761  -9.1738  -9.1672  -8.7595  -8.7587
    -8.7505  -8.7497  -8.7393  -8.7385  -8.7166  -8.7158  -8.7011  -8.7003
    -8.6731  -8.6723  -8.6675  -8.6668  -1.2104  -0.8422  -0.2156   3.6704
     4.3724   5.5129   5.9612   6.1226   6.2313   6.6125   6.8150   7.0348
     8.5926   9.9610  10.5360  10.5991  12.1622  12.7264  12.8402  13.3516
    13.7874  14.1281  14.5461  14.7098  14.7323  14.9453  15.3536  16.2597

          k = 0.3168-0.1829 0.0000 (  7708 PWs)   bands (ev):

   -57.5077 -57.4967 -57.0034 -57.0026 -24.3598 -24.3224 -24.2255 -24.0531
   -23.9399 -23.8783 -23.6357 -23.6309 -23.6097 -23.5858 -23.2879 -23.2869
    -9.2120  -9.1987  -9.1921  -9.1902  -9.1892  -9.1883  -9.1861  -9.1843
    -9.1838  -9.1798  -9.1780  -9.1766  -9.1759  -9.1657  -8.7617  -8.7609
    -8.7487  -8.7479  -8.7380  -8.7372  -8.7169  -8.7161  -8.7025  -8.7017
    -8.6723  -8.6715  -8.6686  -8.6678  -1.3846  -1.0493  -0.3879   3.8606
     4.5791   5.3739   5.8031   6.1279   6.2502   6.8743   6.9038   7.5452
     8.3098   9.7978  10.2916  10.5021  12.0705  12.6337  12.8711  13.2463
    13.4341  13.7886  13.9170  13.9742  14.1036  14.8319  15.0642  16.4056

          k = 0.3168-0.0915 0.0000 (  7691 PWs)   bands (ev):

   -57.5120 -57.4998 -57.0069 -57.0061 -24.2921 -24.2894 -24.2161 -24.0439
   -23.9364 -23.8879 -23.6191 -23.6075 -23.5597 -23.5478 -23.2894 -23.2886
    -9.2089  -9.1981  -9.1940  -9.1903  -9.1899  -9.1883  -9.1863  -9.1847
    -9.1838  -9.1806  -9.1788  -9.1768  -9.1754  -9.1670  -8.7629  -8.7621
    -8.7465  -8.7457  -8.7376  -8.7368  -8.7167  -8.7159  -8.7044  -8.7036
    -8.6756  -8.6749  -8.6658  -8.6650  -1.5310  -1.1322  -0.5116   4.1910
     4.9205   5.2295   5.4658   6.2638   6.4651   6.6731   6.9887   7.3698
     8.6783   9.9967  10.0679  10.1613  11.7646  11.8954  12.4126  13.0903
    13.4160  13.5459  13.7124  14.1834  14.4645  14.6955  15.2118  16.0246

          k = 0.3168 0.0000 0.0000 (  7689 PWs)   bands (ev):

   -57.5136 -57.5010 -57.0081 -57.0074 -24.2910 -24.2519 -24.1994 -24.0333
   -23.9403 -23.9113 -23.6157 -23.6036 -23.5263 -23.5195 -23.3008 -23.2990
    -9.2054  -9.1994  -9.1964  -9.1917  -9.1906  -9.1874  -9.1860  -9.1842
    -9.1835  -9.1823  -9.1782  -9.1768  -9.1726  -9.1698  -8.7632  -8.7624
    -8.7455  -8.7447  -8.7376  -8.7368  -8.7166  -8.7158  -8.7053  -8.7045
    -8.6769  -8.6761  -8.6648  -8.6641  -1.5928  -1.1395  -0.5596   4.4880
     5.0145   5.1582   5.2808   6.4559   6.4604   6.6680   6.7718   7.2277
     9.3553   9.4495  10.0442  10.2944  11.4546  11.5345  12.1607  13.0953
    13.3811  13.5428  13.6957  14.5945  14.5990  14.8508  15.3722  15.6491

          k = 0.3168 0.0915 0.0000 (  7691 PWs)   bands (ev):

   -57.5120 -57.4998 -57.0069 -57.0061 -24.2921 -24.2894 -24.2161 -24.0439
   -23.9364 -23.8879 -23.6191 -23.6075 -23.5597 -23.5478 -23.2894 -23.2886
    -9.2089  -9.1981  -9.1940  -9.1903  -9.1899  -9.1883  -9.1863  -9.1847
    -9.1838  -9.1806  -9.1788  -9.1768  -9.1754  -9.1670  -8.7629  -8.7621
    -8.7465  -8.7457  -8.7376  -8.7368  -8.7167  -8.7159  -8.7044  -8.7036
    -8.6756  -8.6749  -8.6658  -8.6650  -1.5309  -1.1322  -0.5116   4.1910
     4.9205   5.2295   5.4658   6.2638   6.4651   6.6731   6.9887   7.3698
     8.6783   9.9967  10.0679  10.1613  11.7646  11.8954  12.4126  13.0903
    13.4160  13.5458  13.7124  14.1834  14.4645  14.6955  15.2118  16.0246

          k = 0.3961 0.2287 0.0000 (  7726 PWs)   bands (ev):

   -57.4986 -57.4907 -56.9964 -56.9956 -24.4721 -24.4207 -24.1831 -24.0670
   -23.9710 -23.9039 -23.7199 -23.7098 -23.6189 -23.5993 -23.3133 -23.3122
    -9.2144  -9.1986  -9.1961  -9.1950  -9.1937  -9.1898  -9.1825  -9.1798
    -9.1785  -9.1777  -9.1754  -9.1751  -9.1729  -9.1659  -8.7591  -8.7583
    -8.7522  -8.7514  -8.7394  -8.7386  -8.7167  -8.7160  -8.6994  -8.6986
    -8.6745  -8.6737  -8.6654  -8.6647  -1.3165  -0.7705   0.1017   3.1999
     4.2047   5.6541   5.8346   6.0653   6.2816   6.7835   6.8371   7.1102
     8.4839   9.8785  10.8644  10.9654  12.2100  13.2396  13.4520  13.7276
    13.8626  14.1078  14.4512  14.7414  14.8674  15.1526  15.2329  16.2246

          k = 0.3961 0.3201 0.0000 (  7736 PWs)   bands (ev):

   -57.4952 -57.4886 -56.9938 -56.9930 -24.4890 -24.4365 -24.1604 -24.0796
   -23.9991 -23.9443 -23.7302 -23.7243 -23.6158 -23.6021 -23.3450 -23.3443
    -9.2134  -9.1985  -9.1970  -9.1962  -9.1947  -9.1899  -9.1836  -9.1790
    -9.1775  -9.1763  -9.1755  -9.1738  -9.1718  -9.1674  -8.7577  -8.7569
    -8.7527  -8.7519  -8.7404  -8.7396  -8.7163  -8.7155  -8.6992  -8.6984
    -8.6771  -8.6764  -8.6630  -8.6622  -1.2488  -0.6648   0.2958   3.0490
     4.2097   5.6899   5.8983   6.0198   6.2750   6.5762   6.8129   6.9058
     8.6328   9.9878  11.0347  11.0535  12.3486  13.1654  13.3535  13.5812
    14.0764  14.5930  14.9423  15.0931  15.1423  15.2014  15.6347  16.0815

          k = 0.3961 0.4116 0.0000 (  7732 PWs)   bands (ev):

   -57.4920 -57.4870 -56.9916 -56.9908 -24.4566 -24.4054 -24.1342 -24.1282
   -24.0306 -24.0280 -23.7085 -23.7018 -23.6095 -23.6057 -23.4160 -23.4128
    -9.2089  -9.1996  -9.1971  -9.1938  -9.1927  -9.1888  -9.1870  -9.1815
    -9.1789  -9.1759  -9.1753  -9.1732  -9.1716  -9.1713  -8.7557  -8.7549
    -8.7518  -8.7510  -8.7423  -8.7415  -8.7151  -8.7143  -8.7007  -8.6999
    -8.6803  -8.6795  -8.6610  -8.6602  -1.0111  -0.5529   0.2236   3.3294
     4.3699   5.6876   5.9061   5.9711   6.1651   6.2780   6.5111   6.9412
     9.0710   9.9971  10.9123  10.9735  12.4855  13.1227  13.1343  13.6747
    13.9202  14.2216  14.6623  14.8692  15.2131  15.4141  16.3386  16.7421

          k = 0.3961 0.5031 0.0000 (  7741 PWs)   bands (ev):

   -57.4901 -57.4862 -56.9903 -56.9896 -24.3899 -24.3499 -24.2066 -24.1511
   -24.0881 -24.0351 -23.6647 -23.6568 -23.6103 -23.6067 -23.4928 -23.4860
    -9.2034  -9.1995  -9.1968  -9.1929  -9.1912  -9.1888  -9.1860  -9.1848
    -9.1814  -9.1779  -9.1758  -9.1747  -9.1729  -9.1712  -8.7542  -8.7534
    -8.7500  -8.7492  -8.7444  -8.7436  -8.7137  -8.7129  -8.7026  -8.7018
    -8.6826  -8.6818  -8.6599  -8.6592  -0.6738  -0.4905  -0.0572   3.8948
     4.5535   5.3023   5.4945   6.0958   6.1756   6.2854   6.5244   6.7801
     9.7912  10.0809  10.6097  10.7291  12.2191  12.9425  13.1690  13.3809
    13.8518  14.0189  14.3551  14.6991  15.1397  15.3262  16.7585  17.0614

          k = 0.3961 0.5945 0.0000 (  7741 PWs)   bands (ev):

   -57.4901 -57.4862 -56.9903 -56.9896 -24.3899 -24.3499 -24.2066 -24.1511
   -24.0881 -24.0351 -23.6647 -23.6568 -23.6103 -23.6067 -23.4928 -23.4860
    -9.2034  -9.1995  -9.1968  -9.1929  -9.1912  -9.1888  -9.1860  -9.1848
    -9.1814  -9.1779  -9.1758  -9.1747  -9.1729  -9.1712  -8.7542  -8.7534
    -8.7500  -8.7492  -8.7444  -8.7436  -8.7137  -8.7129  -8.7026  -8.7018
    -8.6826  -8.6818  -8.6599  -8.6592  -0.6738  -0.4905  -0.0572   3.8948
     4.5535   5.3023   5.4945   6.0958   6.1756   6.2854   6.5244   6.7801
     9.7913  10.0809  10.6097  10.7291  12.2191  12.9425  13.1690  13.3809
    13.8518  14.0189  14.3551  14.6991  15.1397  15.3262  16.7585  17.0614

          k = 0.3961 0.6860 0.0000 (  7732 PWs)   bands (ev):

   -57.4920 -57.4870 -56.9916 -56.9908 -24.4566 -24.4054 -24.1342 -24.1282
   -24.0306 -24.0280 -23.7085 -23.7018 -23.6095 -23.6057 -23.4160 -23.4128
    -9.2089  -9.1996  -9.1971  -9.1938  -9.1927  -9.1888  -9.1870  -9.1815
    -9.1789  -9.1759  -9.1753  -9.1732  -9.1716  -9.1713  -8.7557  -8.7549
    -8.7518  -8.7510  -8.7423  -8.7415  -8.7151  -8.7143  -8.7007  -8.6999
    -8.6803  -8.6795  -8.6610  -8.6602  -1.0111  -0.5529   0.2236   3.3294
     4.3699   5.6876   5.9062   5.9711   6.1651   6.2780   6.5111   6.9412
     9.0711   9.9971  10.9123  10.9735  12.4855  13.1227  13.1343  13.6747
    13.9202  14.2216  14.6623  14.8692  15.2131  15.4141  16.3386  16.7421

          k = 0.3961-0.3201 0.0000 (  7736 PWs)   bands (ev):

   -57.4952 -57.4886 -56.9938 -56.9930 -24.4890 -24.4365 -24.1604 -24.0796
   -23.9991 -23.9442 -23.7302 -23.7243 -23.6158 -23.6021 -23.3450 -23.3443
    -9.2134  -9.1985  -9.1970  -9.1962  -9.1947  -9.1899  -9.1836  -9.1790
    -9.1775  -9.1763  -9.1755  -9.1738  -9.1718  -9.1674  -8.7577  -8.7569
    -8.7527  -8.7519  -8.7404  -8.7396  -8.7163  -8.7155  -8.6992  -8.6984
    -8.6771  -8.6764  -8.6630  -8.6622  -1.2488  -0.6648   0.2958   3.0490
     4.2097   5.6899   5.8983   6.0198   6.2750   6.5762   6.8129   6.9058
     8.6329   9.9878  11.0346  11.0535  12.3486  13.1654  13.3535  13.5812
    14.0764  14.5930  14.9423  15.0931  15.1422  15.2014  15.6347  16.0815

          k = 0.3961-0.2287 0.0000 (  7726 PWs)   bands (ev):

   -57.4986 -57.4907 -56.9964 -56.9956 -24.4721 -24.4207 -24.1831 -24.0670
   -23.9710 -23.9039 -23.7199 -23.7098 -23.6189 -23.5993 -23.3133 -23.3122
    -9.2144  -9.1986  -9.1961  -9.1950  -9.1937  -9.1898  -9.1825  -9.1798
    -9.1785  -9.1777  -9.1754  -9.1751  -9.1729  -9.1659  -8.7591  -8.7583
    -8.7522  -8.7514  -8.7394  -8.7386  -8.7167  -8.7160  -8.6994  -8.6986
    -8.6745  -8.6737  -8.6654  -8.6647  -1.3165  -0.7705   0.1016   3.1999
     4.2047   5.6541   5.8347   6.0653   6.2816   6.7835   6.8371   7.1102
     8.4839   9.8785  10.8644  10.9654  12.2099  13.2396  13.4519  13.7276
    13.8626  14.1078  14.4512  14.7414  14.8674  15.1526  15.2329  16.2246

          k = 0.3961-0.1372 0.0000 (  7716 PWs)   bands (ev):

   -57.5016 -57.4925 -56.9986 -56.9978 -24.4138 -24.3697 -24.1989 -24.0604
   -23.9779 -23.9236 -23.6753 -23.6672 -23.6141 -23.5977 -23.3247 -23.3240
    -9.2118  -9.1977  -9.1940  -9.1928  -9.1920  -9.1877  -9.1852  -9.1822
    -9.1808  -9.1791  -9.1776  -9.1761  -9.1738  -9.1672  -8.7595  -8.7587
    -8.7505  -8.7497  -8.7393  -8.7385  -8.7166  -8.7158  -8.7011  -8.7003
    -8.6731  -8.6723  -8.6675  -8.6668  -1.2104  -0.8422  -0.2156   3.6704
     4.3724   5.5129   5.9611   6.1226   6.2313   6.6125   6.8150   7.0348
     8.5925   9.9610  10.5360  10.5991  12.1622  12.7263  12.8402  13.3516
    13.7874  14.1281  14.5462  14.7099  14.7324  14.9453  15.3536  16.2597

          k = 0.3961-0.0457 0.0000 (  7693 PWs)   bands (ev):

   -57.5032 -57.4936 -56.9999 -56.9991 -24.3449 -24.3248 -24.2112 -24.0506
   -24.0045 -23.9699 -23.6244 -23.6201 -23.6071 -23.5987 -23.3578 -23.3549
    -9.2067  -9.1970  -9.1932  -9.1915  -9.1900  -9.1882  -9.1861  -9.1834
    -9.1830  -9.1802  -9.1794  -9.1769  -9.1743  -9.1699  -8.7594  -8.7586
    -8.7488  -8.7480  -8.7397  -8.7389  -8.7162  -8.7154  -8.7027  -8.7019
    -8.6729  -8.6721  -8.6686  -8.6678  -0.9934  -0.8683  -0.5399   4.2905
     4.5846   5.3174   5.7696   6.1187   6.2850   6.5331   6.5972   6.8875
     9.1117   9.8671  10.1768  10.3571  11.9706  12.1863  12.3045  13.2171
    13.8457  13.9919  14.4988  14.8938  15.0100  15.0927  16.0118  16.2397

          k = 0.3961 0.0457 0.0000 (  7693 PWs)   bands (ev):

   -57.5032 -57.4936 -56.9999 -56.9991 -24.3449 -24.3248 -24.2112 -24.0506
   -24.0045 -23.9699 -23.6244 -23.6201 -23.6071 -23.5987 -23.3578 -23.3549
    -9.2067  -9.1970  -9.1932  -9.1915  -9.1900  -9.1882  -9.1861  -9.1834
    -9.1830  -9.1802  -9.1794  -9.1769  -9.1743  -9.1699  -8.7594  -8.7586
    -8.7488  -8.7480  -8.7397  -8.7389  -8.7162  -8.7154  -8.7027  -8.7019
    -8.6729  -8.6721  -8.6686  -8.6678  -0.9934  -0.8683  -0.5399   4.2905
     4.5846   5.3173   5.7696   6.1187   6.2850   6.5331   6.5972   6.8875
     9.1117   9.8671  10.1768  10.3571  11.9706  12.1864  12.3045  13.2171
    13.8457  13.9919  14.4988  14.8938  15.0100  15.0927  16.0118  16.2397

          k = 0.3961 0.1372 0.0000 (  7716 PWs)   bands (ev):

   -57.5016 -57.4925 -56.9986 -56.9978 -24.4138 -24.3697 -24.1989 -24.0604
   -23.9779 -23.9236 -23.6753 -23.6672 -23.6141 -23.5977 -23.3247 -23.3240
    -9.2118  -9.1977  -9.1940  -9.1928  -9.1920  -9.1877  -9.1852  -9.1822
    -9.1808  -9.1791  -9.1776  -9.1761  -9.1738  -9.1672  -8.7595  -8.7587
    -8.7505  -8.7497  -8.7393  -8.7385  -8.7166  -8.7158  -8.7011  -8.7003
    -8.6731  -8.6723  -8.6675  -8.6668  -1.2104  -0.8422  -0.2156   3.6704
     4.3724   5.5129   5.9611   6.1226   6.2313   6.6125   6.8150   7.0348
     8.5925   9.9610  10.5360  10.5991  12.1622  12.7263  12.8402  13.3516
    13.7874  14.1281  14.5462  14.7098  14.7323  14.9453  15.3536  16.2597

          k =-0.4753-0.2744 0.0000 (  7696 PWs)   bands (ev):

   -57.4952 -57.4886 -56.9938 -56.9930 -24.5137 -24.4593 -24.1625 -24.0772
   -23.9823 -23.9133 -23.7453 -23.7441 -23.6195 -23.6018 -23.3225 -23.3214
    -9.2152  -9.1984  -9.1983  -9.1963  -9.1960  -9.1908  -9.1821  -9.1774
    -9.1768  -9.1758  -9.1744  -9.1738  -9.1712  -9.1658  -8.7582  -8.7574
    -8.7533  -8.7525  -8.7398  -8.7390  -8.7165  -8.7158  -8.6982  -8.6975
    -8.6765  -8.6757  -8.6628  -8.6621  -1.3488  -0.6847   0.4464   2.8051
     4.1304   5.6160   5.9710   5.9918   6.2195   6.8170   6.8548   6.9550
     8.5543   9.9505  11.1705  11.2150  12.2990  13.5132  13.5960  13.7592
    14.0289  14.3908  14.8055  15.2972  15.3308  15.3388  15.6619  15.7665

          k =-0.4753-0.1829 0.0000 (  7736 PWs)   bands (ev):

   -57.4952 -57.4886 -56.9938 -56.9930 -24.4890 -24.4365 -24.1604 -24.0796
   -23.9991 -23.9443 -23.7302 -23.7243 -23.6158 -23.6021 -23.3450 -23.3443
    -9.2134  -9.1985  -9.1970  -9.1962  -9.1947  -9.1899  -9.1836  -9.1790
    -9.1775  -9.1763  -9.1755  -9.1738  -9.1718  -9.1674  -8.7577  -8.7569
    -8.7527  -8.7519  -8.7404  -8.7396  -8.7163  -8.7155  -8.6992  -8.6984
    -8.6771  -8.6764  -8.6630  -8.6622  -1.2488  -0.6648   0.2958   3.0490
     4.2097   5.6899   5.8983   6.0198   6.2750   6.5762   6.8129   6.9058
     8.6328   9.9878  11.0347  11.0535  12.3486  13.1654  13.3535  13.5812
    14.0764  14.5929  14.9423  15.0931  15.1423  15.2014  15.6347  16.0816

          k =-0.4753-0.0915 0.0000 (  7727 PWs)   bands (ev):

   -57.4952 -57.4886 -56.9938 -56.9930 -24.4264 -24.3839 -24.1638 -24.0965
   -24.0289 -24.0091 -23.6857 -23.6797 -23.6099 -23.6044 -23.4004 -23.3971
    -9.2083  -9.1982  -9.1952  -9.1938  -9.1923  -9.1884  -9.1855  -9.1839
    -9.1795  -9.1772  -9.1763  -9.1746  -9.1737  -9.1700  -8.7567  -8.7559
    -8.7510  -8.7502  -8.7415  -8.7407  -8.7155  -8.7147  -8.7012  -8.7004
    -8.6783  -8.6775  -8.6631  -8.6623  -0.9752  -0.6266  -0.0576   3.6362
     4.4189   5.5262   5.9381   6.1156   6.2620   6.3441   6.4352   6.8458
     9.0615   9.9775  10.6390  10.7245  12.3947  12.6226  13.0692  13.2091
    13.8864  14.3701  14.8542  15.1116  15.1571  15.3471  16.2038  16.4709

          k =-0.4753-0.0000 0.0000 (  7725 PWs)   bands (ev):

   -57.4952 -57.4886 -56.9938 -56.9930 -24.3748 -24.3598 -24.1786 -24.0900
   -24.0858 -24.0193 -23.6500 -23.6490 -23.6107 -23.6080 -23.4368 -23.4308
    -9.2044  -9.1967  -9.1957  -9.1941  -9.1901  -9.1895  -9.1851  -9.1839
    -9.1814  -9.1790  -9.1771  -9.1764  -9.1741  -9.1706  -8.7562  -8.7554
    -8.7500  -8.7492  -8.7423  -8.7415  -8.7150  -8.7142  -8.7023  -8.7015
    -8.6789  -8.6782  -8.6632  -8.6624  -0.6722  -0.6448  -0.3561   4.0853
     4.5485   5.2932   5.7650   6.1379   6.1557   6.3084   6.5522   6.7104
     9.5607   9.9519  10.2321  10.5252  12.1280  12.5342  12.8184  13.1946
    13.9356  14.2783  14.7916  15.1547  15.1752  15.2857  16.6214  16.7569

          k =-0.4753 0.0915 0.0000 (  7727 PWs)   bands (ev):

   -57.4952 -57.4886 -56.9938 -56.9930 -24.4264 -24.3839 -24.1638 -24.0965
   -24.0289 -24.0091 -23.6857 -23.6797 -23.6099 -23.6044 -23.4004 -23.3971
    -9.2083  -9.1982  -9.1952  -9.1938  -9.1923  -9.1884  -9.1855  -9.1839
    -9.1795  -9.1772  -9.1763  -9.1746  -9.1737  -9.1700  -8.7567  -8.7559
    -8.7510  -8.7502  -8.7415  -8.7407  -8.7155  -8.7147  -8.7012  -8.7004
    -8.6783  -8.6775  -8.6631  -8.6623  -0.9752  -0.6266  -0.0576   3.6362
     4.4189   5.5262   5.9381   6.1156   6.2620   6.3441   6.4352   6.8458
     9.0615   9.9775  10.6390  10.7244  12.3947  12.6226  13.0692  13.2091
    13.8864  14.3701  14.8542  15.1116  15.1571  15.3471  16.2038  16.4709

          k =-0.4753 0.1829 0.0000 (  7736 PWs)   bands (ev):

   -57.4952 -57.4886 -56.9938 -56.9930 -24.4890 -24.4365 -24.1604 -24.0796
   -23.9991 -23.9442 -23.7302 -23.7243 -23.6158 -23.6021 -23.3450 -23.3443
    -9.2134  -9.1985  -9.1970  -9.1962  -9.1947  -9.1899  -9.1836  -9.1790
    -9.1775  -9.1763  -9.1755  -9.1738  -9.1718  -9.1674  -8.7577  -8.7569
    -8.7527  -8.7519  -8.7404  -8.7396  -8.7163  -8.7155  -8.6992  -8.6984
    -8.6771  -8.6764  -8.6630  -8.6622  -1.2488  -0.6648   0.2958   3.0490
     4.2097   5.6899   5.8983   6.0198   6.2750   6.5762   6.8129   6.9058
     8.6328   9.9878  11.0346  11.0535  12.3485  13.1654  13.3535  13.5811
    14.0764  14.5929  14.9423  15.0931  15.1423  15.2014  15.6347  16.0816

          k =-0.4753-0.8232 0.0000 (  7696 PWs)   bands (ev):

   -57.4952 -57.4886 -56.9938 -56.9930 -24.5137 -24.4593 -24.1625 -24.0772
   -23.9823 -23.9133 -23.7453 -23.7441 -23.6195 -23.6018 -23.3225 -23.3214
    -9.2152  -9.1984  -9.1983  -9.1963  -9.1960  -9.1908  -9.1821  -9.1774
    -9.1768  -9.1758  -9.1744  -9.1738  -9.1712  -9.1658  -8.7582  -8.7574
    -8.7533  -8.7525  -8.7398  -8.7390  -8.7165  -8.7158  -8.6982  -8.6975
    -8.6765  -8.6757  -8.6628  -8.6621  -1.3488  -0.6847   0.4464   2.8051
     4.1304   5.6160   5.9710   5.9918   6.2195   6.8170   6.8548   6.9550
     8.5543   9.9505  11.1705  11.2150  12.2990  13.5132  13.5960  13.7591
    14.0290  14.3908  14.8055  15.2972  15.3308  15.3388  15.6619  15.7665

     the Fermi energy is    11.0505 ev

!    total energy              =   -2759.16326531 Ry
     estimated scf accuracy    <          7.4E-13 Ry
     smearing contrib. (-TS)   =      -0.00001214 Ry
     internal energy E=F+TS    =   -2759.16325318 Ry

     The total energy is F=E-TS. E is the sum of the following terms:
     one-electron contribution =   -8664.02028872 Ry
     hartree contribution      =    4438.01220893 Ry
     xc contribution           =    -282.39110497 Ry
     ewald contribution        =    1749.23593158 Ry

     convergence has been achieved in  29 iterations

     Forces acting on atoms (cartesian axes, Ry/au):

     atom    1 type  1   force =     0.00000067    0.00000149   -0.00023780
     atom    2 type  2   force =    -0.00000045   -0.00000096    0.00043975
     atom    3 type  1   force =    -0.00000078   -0.00000187    0.00020695
     atom    4 type  2   force =     0.00000056    0.00000127   -0.00082312
     atom    5 type  1   force =     0.00000042    0.00000113    0.00017663
     atom    6 type  2   force =     0.00000000   -0.00000012   -0.00026188
     atom    7 type  1   force =    -0.00000042   -0.00000095    0.00049948

     Total force =     0.001149     Total SCF correction =     0.000010


     Computing stress (Cartesian axis) and pressure

          total   stress  (Ry/bohr**3)                   (kbar)     P=      -10.18
  -0.00006456   0.00000000  -0.00000000           -9.50        0.00       -0.00
   0.00000000  -0.00006457  -0.00000001            0.00       -9.50       -0.00
  -0.00000000  -0.00000001  -0.00007845           -0.00       -0.00      -11.54


     BFGS Geometry Optimization
     Energy error            =      0.0E+00 Ry
     Gradient error          =      8.2E-04 Ry/Bohr
     Cell gradient error     =      9.5E+00 kbar

     number of scf cycles    =   1
     number of bfgs steps    =   0

     enthalpy           new  =   -2759.1632653146 Ry

     new trust radius        =       0.0101230724 bohr
     new conv_thr            =            1.0E-12 Ry

     new unit-cell volume =    980.01042 a.u.^3 (   145.22256 Ang^3 )
     density =      8.68816 g/cm^3

CELL_PARAMETERS (alat=  5.55000000)
   1.050350187  -0.000000853   0.000000000
  -0.525175833   0.909633777   0.000000000
   0.000000000   0.000000000   6.000000000

ATOMIC_POSITIONS (alat)
Ta           -0.0000014335        0.6064200847       -0.1614608476
C            -0.0000003803       -0.0000008712        0.2348097339
Ta            0.5251751284        0.3032113569        0.6775056875
C            -0.0000006540        0.6064218416        1.1308061900
Ta           -0.0000002245       -0.0000005957        1.5838493254
C             0.5251753685        0.3032118714        2.0263996144
Ta            0.0000004665        0.6064244378        2.4226569964



     Writing output data file /scratch/as3359/Ta4C3_loop/Ta.save/
     NEW-OLD atomic charge density approx. for the potential

     Check: negative core charge=   -0.000002
     extrapolated charge  119.61169, renormalised to  120.00000

     total cpu time spent up to now is      508.1 secs

     Self-consistent Calculation

     iteration #  1     ecut=    60.00 Ry     beta= 0.70
     Davidson diagonalization with overlap
     c_bands:  1 eigenvalues not converged
     c_bands:  1 eigenvalues not converged
     c_bands:  1 eigenvalues not converged
     ethr =  1.00E-06,  avg # of iterations = 13.7

     negative rho (up, down):  1.532E-06 0.000E+00

     total cpu time spent up to now is      552.3 secs

     WARNING: integrated charge=   120.00012521, expected=   120.00000000

     total energy              =   -2750.25054367 Ry
     estimated scf accuracy    <       9.56322648 Ry

     iteration #  2     ecut=    60.00 Ry     beta= 0.70
     Davidson diagonalization with overlap
     ethr =  7.97E-03,  avg # of iterations = 11.1

     total cpu time spent up to now is      598.5 secs

     WARNING: integrated charge=   120.00019002, expected=   120.00000000

     total energy              =   -2623.80050721 Ry
     estimated scf accuracy    <    5647.20633452 Ry

     iteration #  3     ecut=    60.00 Ry     beta= 0.70
     Davidson diagonalization with overlap
     ethr =  7.97E-03,  avg # of iterations =  7.4

     total cpu time spent up to now is      629.7 secs

     WARNING: integrated charge=   120.00014205, expected=   120.00000000

     total energy              =   -2755.88890282 Ry
[...]
    -9.1136  -9.1107  -9.1087  -9.1066  -9.1054  -9.0968  -8.6874  -8.6874
    -8.6711  -8.6709  -8.6619  -8.6618  -8.6410  -8.6410  -8.6284  -8.6284
    -8.5995  -8.5994  -8.5894  -8.5894  -1.4885  -1.0865  -0.4689   4.2322
     4.9658   5.2737   5.5146   6.3043   6.5139   6.7274   7.0319   7.4195
     8.7319  10.0574  10.1254  10.2083  11.8293  11.9576  12.4783  13.1659
    13.4948  13.6151  13.7857  14.2513  14.5315  14.7676  15.2879  16.1087

          k = 0.3175 0.0000 0.0000 (  7653 PWs)   bands (ev):

   -57.4457 -57.4331 -56.9336 -56.9336 -24.2298 -24.1905 -24.1378 -23.9695
   -23.8733 -23.8441 -23.5458 -23.5335 -23.4564 -23.4496 -23.2254 -23.2238
    -9.1356  -9.1294  -9.1267  -9.1216  -9.1207  -9.1175  -9.1161  -9.1139
    -9.1137  -9.1122  -9.1077  -9.1070  -9.1026  -9.0997  -8.6878  -8.6877
    -8.6700  -8.6699  -8.6619  -8.6619  -8.6408  -8.6408  -8.6294  -8.6293
    -8.6007  -8.6007  -8.5885  -8.5884  -1.5498  -1.0928  -0.5182   4.5317
     5.0572   5.2046   5.3306   6.4992   6.5096   6.7230   6.8150   7.2750
     9.4040   9.5059  10.0925  10.3556  11.5230  11.5948  12.2216  13.1654
    13.4652  13.6073  13.7633  14.6652  14.6670  14.9278  15.4569  15.7291

          k = 0.3175 0.0917 0.0000 (  7665 PWs)   bands (ev):

   -57.4440 -57.4319 -56.9323 -56.9323 -24.2314 -24.2288 -24.1548 -23.9801
   -23.8693 -23.8205 -23.5491 -23.5374 -23.4905 -23.4787 -23.2135 -23.2132
    -9.1393  -9.1283  -9.1241  -9.1204  -9.1197  -9.1187  -9.1160  -9.1150
    -9.1136  -9.1107  -9.1087  -9.1066  -9.1054  -9.0968  -8.6874  -8.6874
    -8.6711  -8.6709  -8.6619  -8.6618  -8.6410  -8.6410  -8.6284  -8.6284
    -8.5995  -8.5994  -8.5894  -8.5894  -1.4885  -1.0865  -0.4689   4.2322
     4.9658   5.2737   5.5146   6.3043   6.5139   6.7274   7.0319   7.4195
     8.7319  10.0574  10.1254  10.2083  11.8293  11.9576  12.4783  13.1659
    13.4948  13.6151  13.7857  14.2513  14.5315  14.7675  15.2879  16.1087

          k = 0.3969 0.2292 0.0000 (  7690 PWs)   bands (ev):

   -57.4302 -57.4225 -56.9215 -56.9215 -24.4160 -24.3639 -24.1204 -24.0028
   -23.9043 -23.8369 -23.6542 -23.6441 -23.5483 -23.5290 -23.2380 -23.2372
    -9.1449  -9.1288  -9.1255  -9.1251  -9.1247  -9.1202  -9.1123  -9.1092
    -9.1082  -9.1072  -9.1054  -9.1052  -9.1029  -9.0956  -8.6836  -8.6835
    -8.6768  -8.6767  -8.6637  -8.6637  -8.6410  -8.6409  -8.6233  -8.6233
    -8.5982  -8.5982  -8.5889  -8.5889  -1.2808  -0.7235   0.1532   3.2366
     4.2436   5.6902   5.8653   6.1145   6.3271   6.8289   6.8950   7.1506
     8.5471   9.9240  10.9348  11.0338  12.2557  13.3077  13.5271  13.8130
    13.9144  14.1933  14.5520  14.8237  14.9514  15.2444  15.3212  16.3159

          k = 0.3969 0.3208 0.0000 (  7696 PWs)   bands (ev):

   -57.4266 -57.4204 -56.9189 -56.9188 -24.4334 -24.3801 -24.0974 -24.0152
   -23.9333 -23.8780 -23.6647 -23.6590 -23.5451 -23.5316 -23.2704 -23.2702
    -9.1438  -9.1282  -9.1272  -9.1267  -9.1251  -9.1203  -9.1134  -9.1086
    -9.1066  -9.1059  -9.1056  -9.1038  -9.1018  -9.0972  -8.6821  -8.6821
    -8.6774  -8.6773  -8.6648  -8.6647  -8.6406  -8.6405  -8.6231  -8.6231
    -8.6009  -8.6009  -8.5864  -8.5864  -1.2131  -0.6175   0.3499   3.0834
     4.2490   5.7204   5.9362   6.0674   6.3161   6.6279   6.8555   6.9561
     8.6920  10.0343  11.1067  11.1240  12.3952  13.2332  13.4334  13.6405
    14.1596  14.6870  15.0145  15.1901  15.2396  15.2846  15.7341  16.1802

          k = 0.3969 0.4125 0.0000 (  7702 PWs)   bands (ev):

   -57.4233 -57.4188 -56.9166 -56.9165 -24.4002 -24.3484 -24.0708 -24.0643
   -23.9661 -23.9635 -23.6425 -23.6360 -23.5387 -23.5350 -23.3433 -23.3402
    -9.1393  -9.1293  -9.1278  -9.1237  -9.1232  -9.1192  -9.1170  -9.1111
    -9.1088  -9.1052  -9.1049  -9.1033  -9.1015  -9.1013  -8.6801  -8.6800
    -8.6764  -8.6763  -8.6667  -8.6666  -8.6394  -8.6393  -8.6247  -8.6246
    -8.6042  -8.6041  -8.5845  -8.5844  -0.9728  -0.5043   0.2763   3.3645
     4.4107   5.7333   5.9522   5.9990   6.2075   6.3242   6.5535   6.9903
     9.1278  10.0491  10.9821  11.0413  12.5360  13.1955  13.2198  13.7372
    13.9962  14.3099  14.7562  14.9504  15.2847  15.4992  16.4411  16.8462

          k = 0.3969 0.5042 0.0000 (  7705 PWs)   bands (ev):

   -57.4213 -57.4180 -56.9153 -56.9152 -24.3321 -24.2916 -24.1445 -24.0887
   -24.0245 -23.9707 -23.5976 -23.5898 -23.5394 -23.5359 -23.4221 -23.4153
    -9.1337  -9.1293  -9.1274  -9.1229  -9.1212  -9.1189  -9.1162  -9.1147
    -9.1114  -9.1078  -9.1053  -9.1043  -9.1027  -9.1013  -8.6785  -8.6785
    -8.6746  -8.6745  -8.6689  -8.6688  -8.6379  -8.6379  -8.6266  -8.6266
    -8.6066  -8.6065  -8.5833  -8.5833  -0.6306  -0.4411  -0.0095   3.9325
     4.5960   5.3466   5.5393   6.1352   6.2209   6.3221   6.5667   6.8242
     9.8530  10.1417  10.6731  10.7894  12.2874  13.0158  13.2525  13.4587
    13.9213  14.0921  14.4266  14.7775  15.2107  15.4085  16.8643  17.1693

          k = 0.3969 0.5958 0.0000 (  7705 PWs)   bands (ev):

   -57.4213 -57.4180 -56.9153 -56.9152 -24.3321 -24.2916 -24.1445 -24.0887
   -24.0245 -23.9707 -23.5976 -23.5898 -23.5394 -23.5359 -23.4221 -23.4153
    -9.1337  -9.1293  -9.1274  -9.1229  -9.1212  -9.1189  -9.1162  -9.1147
    -9.1114  -9.1078  -9.1053  -9.1043  -9.1027  -9.1013  -8.6785  -8.6785
    -8.6746  -8.6745  -8.6689  -8.6688  -8.6379  -8.6379  -8.6266  -8.6266
    -8.6066  -8.6065  -8.5833  -8.5833  -0.6306  -0.4411  -0.0095   3.9325
     4.5960   5.3466   5.5393   6.1352   6.2209   6.3221   6.5667   6.8242
     9.8530  10.1417  10.6731  10.7894  12.2874  13.0158  13.2525  13.4587
    13.9213  14.0921  14.4266  14.7775  15.2107  15.4085  16.8643  17.1690

          k = 0.3969 0.6875 0.0000 (  7702 PWs)   bands (ev):

   -57.4233 -57.4188 -56.9166 -56.9165 -24.4002 -24.3484 -24.0708 -24.0643
   -23.9661 -23.9635 -23.6425 -23.6360 -23.5387 -23.5350 -23.3433 -23.3402
    -9.1393  -9.1293  -9.1278  -9.1237  -9.1232  -9.1192  -9.1170  -9.1111
    -9.1088  -9.1052  -9.1049  -9.1033  -9.1015  -9.1013  -8.6801  -8.6800
    -8.6764  -8.6763  -8.6667  -8.6666  -8.6394  -8.6393  -8.6247  -8.6246
    -8.6042  -8.6041  -8.5845  -8.5844  -0.9728  -0.5043   0.2763   3.3645
     4.4107   5.7333   5.9522   5.9990   6.2075   6.3242   6.5535   6.9903
     9.1278  10.0491  10.9821  11.0413  12.5360  13.1955  13.2198  13.7372
    13.9962  14.3099  14.7562  14.9503  15.2847  15.4992  16.4411  16.8462

          k = 0.3969-0.3208 0.0000 (  7696 PWs)   bands (ev):

   -57.4266 -57.4204 -56.9189 -56.9188 -24.4334 -24.3801 -24.0974 -24.0152
   -23.9333 -23.8780 -23.6647 -23.6590 -23.5451 -23.5316 -23.2704 -23.2702
    -9.1438  -9.1282  -9.1272  -9.1267  -9.1251  -9.1203  -9.1134  -9.1086
    -9.1066  -9.1059  -9.1056  -9.1038  -9.1018  -9.0972  -8.6821  -8.6821
    -8.6774  -8.6773  -8.6648  -8.6647  -8.6406  -8.6405  -8.6231  -8.6231
    -8.6009  -8.6009  -8.5864  -8.5864  -1.2131  -0.6175   0.3499   3.0834
     4.2490   5.7204   5.9362   6.0674   6.3161   6.6279   6.8555   6.9561
     8.6920  10.0343  11.1067  11.1240  12.3952  13.2332  13.4334  13.6405
    14.1596  14.6870  15.0145  15.1900  15.2396  15.2846  15.7341  16.1802

          k = 0.3969-0.2292 0.0000 (  7690 PWs)   bands (ev):

   -57.4302 -57.4225 -56.9215 -56.9215 -24.4160 -24.3639 -24.1204 -24.0028
   -23.9043 -23.8369 -23.6542 -23.6441 -23.5483 -23.5290 -23.2380 -23.2372
    -9.1449  -9.1288  -9.1255  -9.1251  -9.1247  -9.1202  -9.1123  -9.1092
    -9.1082  -9.1072  -9.1054  -9.1052  -9.1029  -9.0956  -8.6836  -8.6835
    -8.6768  -8.6767  -8.6637  -8.6637  -8.6410  -8.6409  -8.6233  -8.6233
    -8.5982  -8.5982  -8.5889  -8.5889  -1.2808  -0.7235   0.1532   3.2366
     4.2436   5.6902   5.8653   6.1145   6.3271   6.8289   6.8950   7.1506
     8.5471   9.9240  10.9348  11.0338  12.2557  13.3077  13.5271  13.8130
    13.9144  14.1933  14.5520  14.8237  14.9514  15.2444  15.3212  16.3159

          k = 0.3969-0.1375 0.0000 (  7684 PWs)   bands (ev):

   -57.4332 -57.4244 -56.9238 -56.9238 -24.3565 -24.3117 -24.1364 -23.9961
   -23.9116 -23.8569 -23.6084 -23.6002 -23.5438 -23.5276 -23.2497 -23.2494
    -9.1422  -9.1279  -9.1235  -9.1231  -9.1228  -9.1179  -9.1151  -9.1118
    -9.1104  -9.1092  -9.1074  -9.1059  -9.1039  -9.0970  -8.6840  -8.6839
    -8.6751  -8.6750  -8.6636  -8.6636  -8.6409  -8.6408  -8.6250  -8.6250
    -8.5969  -8.5968  -8.5912  -8.5911  -1.1719  -0.7946  -0.1679   3.7102
     4.4126   5.5553   5.9937   6.1716   6.2772   6.6664   6.8587   7.0800
     8.6503  10.0102  10.6031  10.6623  12.2157  12.7966  12.9098  13.4185
    13.8552  14.2162  14.6189  14.7985  14.8208  15.0253  15.4351  16.3498

          k = 0.3969-0.0458 0.0000 (  7663 PWs)   bands (ev):

   -57.4350 -57.4255 -56.9251 -56.9251 -24.2861 -24.2657 -24.1487 -23.9865
   -23.9392 -23.9041 -23.5556 -23.5515 -23.5375 -23.5292 -23.2838 -23.2810
    -9.1370  -9.1271  -9.1229  -9.1218  -9.1202  -9.1182  -9.1160  -9.1135
    -9.1129  -9.1101  -9.1094  -9.1067  -9.1044  -9.0998  -8.6839  -8.6838
    -8.6733  -8.6733  -8.6640  -8.6639  -8.6405  -8.6404  -8.6267  -8.6267
    -8.5967  -8.5966  -8.5923  -8.5922  -0.9486  -0.8207  -0.4979   4.3334
     4.6275   5.3622   5.8177   6.1573   6.3336   6.5795   6.6404   6.9332
     9.1671   9.9199  10.2392  10.4129  12.0401  12.2381  12.3768  13.2800
    13.9087  14.0636  14.5934  14.9732  15.0908  15.1807  16.1007  16.3231

          k = 0.3969 0.0458 0.0000 (  7663 PWs)   bands (ev):

   -57.4350 -57.4255 -56.9251 -56.9251 -24.2861 -24.2657 -24.1487 -23.9865
   -23.9392 -23.9041 -23.5556 -23.5515 -23.5375 -23.5292 -23.2838 -23.2810
    -9.1370  -9.1271  -9.1229  -9.1218  -9.1202  -9.1182  -9.1160  -9.1135
    -9.1129  -9.1101  -9.1094  -9.1067  -9.1044  -9.0998  -8.6839  -8.6838
    -8.6733  -8.6733  -8.6640  -8.6639  -8.6405  -8.6404  -8.6267  -8.6267
    -8.5967  -8.5966  -8.5923  -8.5922  -0.9486  -0.8207  -0.4979   4.3334
     4.6275   5.3622   5.8177   6.1573   6.3336   6.5795   6.6404   6.9332
     9.1672   9.9199  10.2392  10.4129  12.0401  12.2381  12.3768  13.2800
    13.9087  14.0636  14.5934  14.9732  15.0908  15.1807  16.1007  16.3231

          k = 0.3969 0.1375 0.0000 (  7684 PWs)   bands (ev):

   -57.4332 -57.4244 -56.9238 -56.9238 -24.3565 -24.3117 -24.1364 -23.9961
   -23.9116 -23.8569 -23.6084 -23.6002 -23.5438 -23.5276 -23.2497 -23.2494
    -9.1422  -9.1279  -9.1235  -9.1231  -9.1228  -9.1179  -9.1151  -9.1118
    -9.1104  -9.1092  -9.1074  -9.1059  -9.1039  -9.0970  -8.6840  -8.6839
    -8.6751  -8.6750  -8.6636  -8.6636  -8.6409  -8.6408  -8.6250  -8.6250
    -8.5969  -8.5968  -8.5912  -8.5911  -1.1719  -0.7946  -0.1679   3.7102
     4.4126   5.5553   5.9937   6.1716   6.2772   6.6664   6.8587   7.0800
     8.6503  10.0102  10.6031  10.6623  12.2157  12.7966  12.9098  13.4185
    13.8552  14.2162  14.6189  14.7985  14.8207  15.0253  15.4351  16.3498

          k =-0.4763-0.2750 0.0000 (  7688 PWs)   bands (ev):

   -57.4266 -57.4204 -56.9189 -56.9188 -24.4585 -24.4034 -24.0996 -24.0130
   -23.9159 -23.8465 -23.6799 -23.6795 -23.5487 -23.5313 -23.2475 -23.2466
    -9.1458  -9.1286  -9.1278  -9.1271  -9.1265  -9.1213  -9.1119  -9.1067
    -9.1062  -9.1054  -9.1046  -9.1039  -9.1013  -9.0956  -8.6827  -8.6826
    -8.6780  -8.6779  -8.6642  -8.6642  -8.6408  -8.6408  -8.6222  -8.6221
    -8.6004  -8.6003  -8.5864  -8.5864  -1.3144  -0.6380   0.5028   2.8374
     4.1691   5.6404   6.0134   6.0402   6.2566   6.8742   6.9051   6.9944
     8.6174   9.9939  11.2402  11.2892  12.3457  13.5886  13.6690  13.8061
    14.1039  14.4912  14.9059  15.4008  15.4233  15.4282  15.7604  15.8687

          k =-0.4763-0.1833 0.0000 (  7696 PWs)   bands (ev):

   -57.4266 -57.4204 -56.9189 -56.9188 -24.4334 -24.3801 -24.0974 -24.0152
   -23.9333 -23.8780 -23.6647 -23.6590 -23.5451 -23.5316 -23.2704 -23.2702
    -9.1438  -9.1282  -9.1272  -9.1267  -9.1251  -9.1203  -9.1134  -9.1086
    -9.1066  -9.1059  -9.1056  -9.1038  -9.1018  -9.0972  -8.6821  -8.6821
    -8.6774  -8.6773  -8.6648  -8.6647  -8.6406  -8.6405  -8.6231  -8.6231
    -8.6009  -8.6009  -8.5864  -8.5864  -1.2131  -0.6175   0.3499   3.0834
     4.2490   5.7204   5.9362   6.0674   6.3161   6.6279   6.8555   6.9561
     8.6920  10.0343  11.1067  11.1240  12.3952  13.2332  13.4334  13.6405
    14.1595  14.6870  15.0145  15.1901  15.2397  15.2846  15.7341  16.1802

          k =-0.4763-0.0917 0.0000 (  7690 PWs)   bands (ev):

   -57.4266 -57.4204 -56.9189 -56.9188 -24.3694 -24.3264 -24.1005 -24.0325
   -23.9644 -23.9442 -23.6191 -23.6133 -23.5393 -23.5339 -23.3273 -23.3242
    -9.1387  -9.1280  -9.1257  -9.1239  -9.1226  -9.1184  -9.1156  -9.1137
    -9.1095  -9.1065  -9.1059  -9.1046  -9.1038  -9.0999  -8.6811  -8.6810
    -8.6757  -8.6756  -8.6659  -8.6659  -8.6398  -8.6397  -8.6251  -8.6251
    -8.6021  -8.6021  -8.5866  -8.5865  -0.9358  -0.5779  -0.0080   3.6741
     4.4604   5.5705   5.9746   6.1600   6.3056   6.3906   6.4776   6.8922
     9.1184  10.0303  10.7059  10.7884  12.4470  12.7005  13.1455  13.2724
    13.9453  14.4455  14.9533  15.1971  15.2469  15.4325  16.2962  16.5714

          k =-0.4763-0.0000 0.0000 (  7691 PWs)   bands (ev):

   -57.4267 -57.4204 -56.9189 -56.9188 -24.3168 -24.3015 -24.1153 -24.0264
   -24.0224 -23.9547 -23.5826 -23.5820 -23.5400 -23.5373 -23.3646 -23.3588
    -9.1348  -9.1261  -9.1261  -9.1248  -9.1199  -9.1197  -9.1148  -9.1144
    -9.1115  -9.1089  -9.1063  -9.1061  -9.1043  -9.1006  -8.6805  -8.6805
    -8.6745  -8.6745  -8.6666  -8.6666  -8.6393  -8.6392  -8.6263  -8.6262
    -8.6028  -8.6028  -8.5866  -8.5866  -0.6282  -0.5968  -0.3102   4.1240
     4.5936   5.3376   5.8095   6.1740   6.2027   6.3555   6.5934   6.7527
     9.6228  10.0112  10.2916  10.5808  12.1919  12.6031  12.8868  13.2653
    13.9925  14.3425  14.8942  15.2403  15.2606  15.3739  16.7169  16.8673

          k =-0.4763 0.0917 0.0000 (  7690 PWs)   bands (ev):

   -57.4266 -57.4204 -56.9189 -56.9188 -24.3694 -24.3264 -24.1005 -24.0325
   -23.9644 -23.9442 -23.6191 -23.6133 -23.5393 -23.5339 -23.3273 -23.3242
    -9.1387  -9.1280  -9.1257  -9.1239  -9.1226  -9.1184  -9.1156  -9.1137
    -9.1095  -9.1065  -9.1059  -9.1046  -9.1038  -9.0999  -8.6811  -8.6810
    -8.6757  -8.6756  -8.6659  -8.6659  -8.6398  -8.6397  -8.6251  -8.6251
    -8.6021  -8.6021  -8.5866  -8.5865  -0.9358  -0.5779  -0.0080   3.6741
     4.4604   5.5705   5.9746   6.1600   6.3056   6.3906   6.4776   6.8922
     9.1184  10.0303  10.7059  10.7884  12.4470  12.7005  13.1455  13.2724
    13.9453  14.4455  14.9534  15.1971  15.2469  15.4325  16.2962  16.5714

          k =-0.4763 0.1833 0.0000 (  7696 PWs)   bands (ev):

   -57.4266 -57.4204 -56.9189 -56.9188 -24.4334 -24.3801 -24.0974 -24.0152
   -23.9333 -23.8780 -23.6647 -23.6590 -23.5451 -23.5316 -23.2704 -23.2702
    -9.1438  -9.1282  -9.1272  -9.1267  -9.1251  -9.1203  -9.1134  -9.1086
    -9.1066  -9.1059  -9.1056  -9.1038  -9.1018  -9.0972  -8.6821  -8.6821
    -8.6774  -8.6773  -8.6648  -8.6647  -8.6406  -8.6405  -8.6231  -8.6231
    -8.6009  -8.6009  -8.5864  -8.5864  -1.2131  -0.6175   0.3499   3.0834
     4.2490   5.7204   5.9362   6.0674   6.3161   6.6279   6.8555   6.9561
     8.6920  10.0343  11.1067  11.1240  12.3952  13.2331  13.4334  13.6404
    14.1595  14.6870  15.0145  15.1901  15.2397  15.2847  15.7341  16.1802

          k =-0.4763-0.8250 0.0000 (  7688 PWs)   bands (ev):

   -57.4266 -57.4204 -56.9189 -56.9188 -24.4585 -24.4034 -24.0996 -24.0130
   -23.9159 -23.8465 -23.6799 -23.6795 -23.5487 -23.5313 -23.2475 -23.2466
    -9.1458  -9.1286  -9.1278  -9.1271  -9.1265  -9.1213  -9.1119  -9.1067
    -9.1062  -9.1054  -9.1046  -9.1039  -9.1013  -9.0956  -8.6827  -8.6826
    -8.6780  -8.6779  -8.6642  -8.6642  -8.6408  -8.6408  -8.6222  -8.6221
    -8.6004  -8.6003  -8.5864  -8.5864  -1.3144  -0.6380   0.5028   2.8374
     4.1691   5.6404   6.0134   6.0402   6.2566   6.8742   6.9051   6.9944
     8.6174   9.9939  11.2402  11.2892  12.3457  13.5886  13.6690  13.8060
    14.1039  14.4912  14.9059  15.4008  15.4233  15.4282  15.7604  15.8687

     the Fermi energy is    11.1214 ev

!    total energy              =   -2759.16306522 Ry
     estimated scf accuracy    <          6.0E-15 Ry
     smearing contrib. (-TS)   =      -0.00001585 Ry
     internal energy E=F+TS    =   -2759.16304937 Ry

     The total energy is F=E-TS. E is the sum of the following terms:
     one-electron contribution =   -8681.79989617 Ry
     hartree contribution      =    4447.20840813 Ry
     xc contribution           =    -282.42178736 Ry
     ewald contribution        =    1757.85022603 Ry

     convergence has been achieved in  32 iterations

     Forces acting on atoms (cartesian axes, Ry/au):

     atom    1 type  1   force =     0.00000018    0.00000040   -0.00061736
     atom    2 type  2   force =     0.00000001    0.00000001   -0.00056281
     atom    3 type  1   force =    -0.00000022   -0.00000052   -0.00046807
     atom    4 type  2   force =     0.00000004    0.00000011   -0.00002161
     atom    5 type  1   force =     0.00000024    0.00000057    0.00037704
     atom    6 type  2   force =    -0.00000004   -0.00000007    0.00062095
     atom    7 type  1   force =    -0.00000021   -0.00000050    0.00067186

     Total force =     0.001377     Total SCF correction =     0.000001


     Computing stress (Cartesian axis) and pressure

          total   stress  (Ry/bohr**3)                   (kbar)     P=       -3.05
   0.00000041   0.00000000  -0.00000000            0.06        0.00       -0.00
   0.00000000   0.00000040  -0.00000000            0.00        0.06       -0.00
  -0.00000000  -0.00000000  -0.00006302           -0.00       -0.00       -9.27


     Writing output data file /scratch/as3359/Ta4C3_loop/Ta.save/
 
     init_run     :     37.88s CPU     21.46s WALL (       2 calls)
     electrons    :   5053.85s CPU   2584.15s WALL (       5 calls)
     update_pot   :     17.60s CPU     10.55s WALL (       3 calls)
     forces       :     34.52s CPU     17.69s WALL (       5 calls)
     stress       :    124.63s CPU     63.48s WALL (       5 calls)

     Called by init_run:
     wfcinit      :     25.21s CPU     12.95s WALL (       2 calls)
     potinit      :      3.00s CPU      1.51s WALL (       2 calls)
     hinit0       :      8.50s CPU      6.23s WALL (       2 calls)

     Called by electrons:
     c_bands      :   4199.37s CPU   2130.27s WALL (     152 calls)
     sum_band     :    756.81s CPU    394.32s WALL (     152 calls)
     v_of_rho     :     14.44s CPU      7.38s WALL (     157 calls)
     newd         :     81.19s CPU     51.35s WALL (     157 calls)
     mix_rho      :      3.26s CPU      1.68s WALL (     152 calls)

     Called by c_bands:
     init_us_2    :     66.90s CPU     33.57s WALL (   23384 calls)
     cegterg      :   3900.05s CPU   1979.20s WALL (   11248 calls)

     Called by *egterg:
     cdiaghg      :    301.72s CPU    153.84s WALL (   41363 calls)
     h_psi        :   2881.46s CPU   1465.33s WALL (   41733 calls)
     s_psi        :    141.78s CPU     71.03s WALL (   41733 calls)
     g_psi        :     15.71s CPU      7.91s WALL (   30337 calls)

     Called by h_psi:
     h_psi:calbec :    149.33s CPU     75.02s WALL (   41733 calls)
     vloc_psi     :   2555.29s CPU   1301.44s WALL (   41733 calls)
     add_vuspsi   :    153.19s CPU     76.78s WALL (   41733 calls)

     General routines
     calbec       :    213.98s CPU    107.52s WALL (   54831 calls)
     fft          :      7.15s CPU      3.66s WALL (    2159 calls)
     ffts         :      0.49s CPU      0.25s WALL (     309 calls)
     fftw         :   2785.57s CPU   1418.32s WALL ( 4541524 calls)
     interpolate  :      0.91s CPU      0.47s WALL (     157 calls)
 
     Parallel routines
 
     PWSCF        :      1h27m CPU  45m 0.39s WALL

 
   This run was terminated on:   0: 8:33   7Apr2022            

=------------------------------------------------------------------------------=
   JOB DONE.
=------------------------------------------------------------------------------=
