
     Program PWSCF v.6.8 starts on  6Apr2022 at 23:15: 8 

     This program is part of the open-source Quantum ESPRESSO suite
     for quantum simulation of materials; please cite
         "P. Giannozzi et al., J. Phys.:Condens. Matter 21 395502 (2009);
         "P. Giannozzi et al., J. Phys.:Condens. Matter 29 465901 (2017);
         "P. Giannozzi et al., J. Chem. Phys. 152 154105 (2020);
          URL http://www.quantum-espresso.org", 
     in publications or presentations arising from this work. More details at
     http://www.quantum-espresso.org/quote

     Parallel version (MPI & OpenMP), running on       4 processor cores
     Number of MPI processes:                 2
     Threads/MPI process:                     2

     MPI processes distributed on     1 nodes
     R & G space division:  proc/nbgrp/npool/nimage =       2
     124322 MiB available memory on the printing compute node when the environment starts
 
     Reading input from Ta4C3.relax.in
Warning: card  &CELL ignored
Warning: card     CELL_DYNAMICS='BFGS', CELL_DOFREE ='2DXY' ignored
Warning: card  / ignored
Warning: card  O   15.9994  O.PBESOL-N-RRKJUS_PSL.1.0.0.UPF ignored

     Current dimensions of program PWSCF are:
     Max number of different atomic species (ntypx) = 10
     Max number of k-points (npk) =  40000
     Max angular momentum in pseudopotentials (lmaxx) =  4
     file Ta.pbesol-spfn-rrkjus_psl.1.0.0.UPF: wavefunction(s)  5S 5P renormalized

     Subspace diagonalization in iterative solution of the eigenvalue problem:
     a serial algorithm will be used

 
     Parallelization info
     --------------------
     sticks:   dense  smooth     PW     G-vecs:    dense   smooth      PW
     Min         476     279     93                66401    30795    5701
     Max         479     280     94                66404    30816    5714
     Sum         955     559    187               132805    61611   11415
 
     Using Slab Decomposition
 


     bravais-lattice index     =            0
     lattice parameter (alat)  =       5.5500  a.u.
     unit-cell volume          =     983.1817 (a.u.)^3
     number of atoms/cell      =            7
     number of atomic types    =            2
     number of electrons       =       120.00
     number of Kohn-Sham states=           72
     kinetic-energy cutoff     =      60.0000  Ry
     charge density cutoff     =     400.0000  Ry
     scf convergence threshold =      1.0E-12
     mixing beta               =       0.7000
     number of iterations used =            8  plain     mixing
     energy convergence thresh.=      1.0E-04
     force convergence thresh. =      1.0E-03
     Exchange-correlation= PBESOL
                           (   1   4  10   8   0   0   0)
     nstep                     =           50


     celldm(1)=   5.550000  celldm(2)=   0.000000  celldm(3)=   0.000000
     celldm(4)=   0.000000  celldm(5)=   0.000000  celldm(6)=   0.000000

     crystal axes: (cart. coord. in units of alat)
               a(1) = (   1.052048  -0.000001   0.000000 )  
               a(2) = (  -0.526025   0.911105   0.000000 )  
               a(3) = (   0.000000   0.000000   6.000000 )  

     reciprocal axes: (cart. coord. in units 2 pi/alat)
               b(1) = (  0.950527  0.548786  0.000000 )  
               b(2) = (  0.000001  1.097569  0.000000 )  
               b(3) = (  0.000000  0.000000  0.166667 )  


     PseudoPot. # 1 for Ta read from file:
     /shared/home/as3359/pseudo/Ta.pbesol-spfn-rrkjus_psl.1.0.0.UPF
     MD5 check sum: f099565ffaca9b150a52e9412a28e20b
     Pseudo is Ultrasoft + core correction, Zval = 27.0
     Generated using &quot;atomic&quot; code by A. Dal Corso  v.6.3
     Using radial grid of 1273 points,  8 beta functions with: 
                l(1) =   0
                l(2) =   0
                l(3) =   1
                l(4) =   1
                l(5) =   2
                l(6) =   2
                l(7) =   3
                l(8) =   3
     Q(r) pseudized with 0 coefficients 


     PseudoPot. # 2 for C  read from file:
     /shared/home/as3359/pseudo/C.pbesol-n-rrkjus_psl.1.0.0.UPF
     MD5 check sum: 05995be603a8a7c99da3dc4413f31573
     Pseudo is Ultrasoft + core correction, Zval =  4.0
     Generated using &quot;atomic&quot; code by A. Dal Corso  v.6.3MaX
     Using radial grid of 1073 points,  4 beta functions with: 
                l(1) =   0
                l(2) =   0
                l(3) =   1
                l(4) =   1
     Q(r) pseudized with 0 coefficients 


     atomic species   valence    mass     pseudopotential
        Ta            27.00   180.94788     Ta( 1.00)
        C              4.00    12.01070     C ( 1.00)

     No symmetry found



   Cartesian axes

     site n.     atom                  positions (alat units)
         1           Ta  tau(   1) = (  -0.0000016   0.6074003  -0.1614180  )
         2           C   tau(   2) = (  -0.0000003  -0.0000007   0.2347305  )
         3           Ta  tau(   3) = (   0.5260242   0.3037019   0.6774684  )
         4           C   tau(   4) = (  -0.0000008   0.6074021   1.1309545  )
         5           Ta  tau(   5) = (  -0.0000003  -0.0000008   1.5838175  )
         6           C   tau(   6) = (   0.5260243   0.3037021   2.0264468  )
         7           Ta  tau(   7) = (   0.0000005   0.6074051   2.4225670  )

     number of k points=    74  Marzari-Vanderbilt smearing, width (Ry)=  0.0010
                       cart. coord. in units 2pi/alat
        k(    1) = (   0.0000000   0.0000000   0.0000000), wk =   0.0138889
        k(    2) = (   0.0000001   0.0914641   0.0000000), wk =   0.0277778
        k(    3) = (   0.0000002   0.1829282   0.0000000), wk =   0.0277778
        k(    4) = (   0.0000002   0.2743924   0.0000000), wk =   0.0277778
        k(    5) = (   0.0000003   0.3658565   0.0000000), wk =   0.0277778
        k(    6) = (   0.0000004   0.4573206   0.0000000), wk =   0.0277778
        k(    7) = (  -0.0000005  -0.5487847   0.0000000), wk =   0.0138889
        k(    8) = (   0.0792106   0.0457321   0.0000000), wk =   0.0277778
        k(    9) = (   0.0792107   0.1371963   0.0000000), wk =   0.0277778
        k(   10) = (   0.0792108   0.2286604   0.0000000), wk =   0.0277778
        k(   11) = (   0.0792109   0.3201245   0.0000000), wk =   0.0277778
        k(   12) = (   0.0792109   0.4115886   0.0000000), wk =   0.0277778
        k(   13) = (   0.0792110   0.5030527   0.0000000), wk =   0.0277778
        k(   14) = (   0.0792101  -0.5030526   0.0000000), wk =   0.0277778
        k(   15) = (   0.0792102  -0.4115885   0.0000000), wk =   0.0277778
        k(   16) = (   0.0792103  -0.3201244   0.0000000), wk =   0.0277778
        k(   17) = (   0.0792104  -0.2286602   0.0000000), wk =   0.0277778
        k(   18) = (   0.0792105  -0.1371961   0.0000000), wk =   0.0277778
        k(   19) = (   0.0792105  -0.0457320   0.0000000), wk =   0.0277778
        k(   20) = (   0.1584212   0.0914643   0.0000000), wk =   0.0277778
        k(   21) = (   0.1584213   0.1829284   0.0000000), wk =   0.0277778
        k(   22) = (   0.1584214   0.2743925   0.0000000), wk =   0.0277778
        k(   23) = (   0.1584215   0.3658566   0.0000000), wk =   0.0277778
        k(   24) = (   0.1584216   0.4573207   0.0000000), wk =   0.0277778
        k(   25) = (   0.1584216   0.5487849   0.0000000), wk =   0.0277778
        k(   26) = (   0.1584207  -0.4573205   0.0000000), wk =   0.0277778
        k(   27) = (   0.1584208  -0.3658563   0.0000000), wk =   0.0277778
        k(   28) = (   0.1584209  -0.2743922   0.0000000), wk =   0.0277778
        k(   29) = (   0.1584210  -0.1829281   0.0000000), wk =   0.0277778
        k(   30) = (   0.1584211  -0.0914640   0.0000000), wk =   0.0277778
        k(   31) = (   0.1584211   0.0000001   0.0000000), wk =   0.0277778
        k(   32) = (   0.2376318   0.1371964   0.0000000), wk =   0.0277778
        k(   33) = (   0.2376319   0.2286605   0.0000000), wk =   0.0277778
        k(   34) = (   0.2376320   0.3201246   0.0000000), wk =   0.0277778
        k(   35) = (   0.2376321   0.4115888   0.0000000), wk =   0.0277778
        k(   36) = (   0.2376322   0.5030529   0.0000000), wk =   0.0277778
        k(   37) = (   0.2376322   0.5945170   0.0000000), wk =   0.0277778
        k(   38) = (   0.2376314  -0.4115883   0.0000000), wk =   0.0277778
        k(   39) = (   0.2376314  -0.3201242   0.0000000), wk =   0.0277778
        k(   40) = (   0.2376315  -0.2286601   0.0000000), wk =   0.0277778
        k(   41) = (   0.2376316  -0.1371960   0.0000000), wk =   0.0277778
        k(   42) = (   0.2376317  -0.0457319   0.0000000), wk =   0.0277778
        k(   43) = (   0.2376318   0.0457323   0.0000000), wk =   0.0277778
        k(   44) = (   0.3168425   0.1829285   0.0000000), wk =   0.0277778
        k(   45) = (   0.3168425   0.2743926   0.0000000), wk =   0.0277778
        k(   46) = (   0.3168426   0.3658568   0.0000000), wk =   0.0277778
        k(   47) = (   0.3168427   0.4573209   0.0000000), wk =   0.0277778
        k(   48) = (   0.3168428   0.5487850   0.0000000), wk =   0.0277778
        k(   49) = (   0.3168429   0.6402491   0.0000000), wk =   0.0277778
        k(   50) = (   0.3168420  -0.3658562   0.0000000), wk =   0.0277778
        k(   51) = (   0.3168421  -0.2743921   0.0000000), wk =   0.0277778
        k(   52) = (   0.3168421  -0.1829280   0.0000000), wk =   0.0277778
        k(   53) = (   0.3168422  -0.0914638   0.0000000), wk =   0.0277778
        k(   54) = (   0.3168423   0.0000003   0.0000000), wk =   0.0277778
        k(   55) = (   0.3168424   0.0914644   0.0000000), wk =   0.0277778
        k(   56) = (   0.3960531   0.2286607   0.0000000), wk =   0.0277778
        k(   57) = (   0.3960532   0.3201248   0.0000000), wk =   0.0277778
        k(   58) = (   0.3960532   0.4115889   0.0000000), wk =   0.0277778
        k(   59) = (   0.3960533   0.5030530   0.0000000), wk =   0.0277778
        k(   60) = (   0.3960534   0.5945171   0.0000000), wk =   0.0277778
        k(   61) = (   0.3960535   0.6859813   0.0000000), wk =   0.0277778
        k(   62) = (   0.3960526  -0.3201241   0.0000000), wk =   0.0277778
        k(   63) = (   0.3960527  -0.2286600   0.0000000), wk =   0.0277778
        k(   64) = (   0.3960527  -0.1371958   0.0000000), wk =   0.0277778
        k(   65) = (   0.3960528  -0.0457317   0.0000000), wk =   0.0277778
        k(   66) = (   0.3960529   0.0457324   0.0000000), wk =   0.0277778
        k(   67) = (   0.3960530   0.1371965   0.0000000), wk =   0.0277778
        k(   68) = (  -0.4752637  -0.2743928   0.0000000), wk =   0.0138889
        k(   69) = (  -0.4752636  -0.1829287   0.0000000), wk =   0.0277778
        k(   70) = (  -0.4752635  -0.0914645   0.0000000), wk =   0.0277778
        k(   71) = (  -0.4752634  -0.0000004   0.0000000), wk =   0.0277778
        k(   72) = (  -0.4752634   0.0914637   0.0000000), wk =   0.0277778
        k(   73) = (  -0.4752633   0.1829278   0.0000000), wk =   0.0277778
        k(   74) = (  -0.4752642  -0.8231775   0.0000000), wk =   0.0138889

     Dense  grid:   132805 G-vectors     FFT dimensions: (  40,  40, 216)

     Smooth grid:    61611 G-vectors     FFT dimensions: (  30,  30, 180)

     Estimated max dynamical RAM per process >     965.45 MB

     Estimated total dynamical RAM >       1.89 GB

     Check: negative core charge=   -0.000002

     Initial potential from superposition of free atoms

     starting charge  119.99679, renormalised to  120.00000

     negative rho (up, down):  1.014E-08 0.000E+00
     Starting wfcs are   80 randomized atomic wfcs

     total cpu time spent up to now is        9.1 secs

     Self-consistent Calculation

     iteration #  1     ecut=    60.00 Ry     beta= 0.70
     Davidson diagonalization with overlap
     ethr =  1.00E-02,  avg # of iterations =  2.2

     negative rho (up, down):  3.250E-08 0.000E+00

     total cpu time spent up to now is       25.9 secs

     total energy              =   -2756.60779646 Ry
     estimated scf accuracy    <       3.73923627 Ry

     iteration #  2     ecut=    60.00 Ry     beta= 0.70
     Davidson diagonalization with overlap
     ethr =  3.12E-03,  avg # of iterations =  7.3

     total cpu time spent up to now is       55.7 secs

     total energy              =   -2737.28568242 Ry
     estimated scf accuracy    <     489.93506925 Ry

     iteration #  3     ecut=    60.00 Ry     beta= 0.70
     Davidson diagonalization with overlap
     ethr =  3.12E-03,  avg # of iterations =  8.1

     total cpu time spent up to now is       85.6 secs

     total energy              =   -2758.38849571 Ry
     estimated scf accuracy    <       6.54009688 Ry

     iteration #  4     ecut=    60.00 Ry     beta= 0.70
     Davidson diagonalization with overlap
     ethr =  3.12E-03,  avg # of iterations =  2.0

     total cpu time spent up to now is      102.5 secs

     total energy              =   -2759.06542816 Ry
     estimated scf accuracy    <       2.59676929 Ry

     iteration #  5     ecut=    60.00 Ry     beta= 0.70
     Davidson diagonalization with overlap
     ethr =  2.16E-03,  avg # of iterations =  1.2

     total cpu time spent up to now is      117.3 secs

     total energy              =   -2759.14527907 Ry
     estimated scf accuracy    <       1.65862268 Ry

     iteration #  6     ecut=    60.00 Ry     beta= 0.70
     Davidson diagonalization with overlap
     ethr =  1.38E-03,  avg # of iterations =  1.0

     total cpu time spent up to now is      131.9 secs

     total energy              =   -2759.18919008 Ry
     estimated scf accuracy    <       0.38125187 Ry

     iteration #  7     ecut=    60.00 Ry     beta= 0.70
     Davidson diagonalization with overlap
     ethr =  3.18E-04,  avg # of iterations =  1.2

     total cpu time spent up to now is      147.0 secs

     total energy              =   -2759.18174842 Ry
     estimated scf accuracy    <       0.10207659 Ry

     iteration #  8     ecut=    60.00 Ry     beta= 0.70
     Davidson diagonalization with overlap
     ethr =  8.51E-05,  avg # of iterations =  3.4

     total cpu time spent up to now is      163.9 secs

     total energy              =   -2759.17047712 Ry
     estimated scf accuracy    <       0.10309540 Ry

     iteration #  9     ecut=    60.00 Ry     beta= 0.70
     Davidson diagonalization with overlap
     ethr =  8.51E-05,  avg # of iterations =  1.8

     total cpu time spent up to now is      179.6 secs

     total energy              =   -2759.16508415 Ry
     estimated scf accuracy    <       0.07867680 Ry

     iteration # 10     ecut=    60.00 Ry     beta= 0.70
     Davidson diagonalization with overlap
     ethr =  6.56E-05,  avg # of iterations =  1.8

     total cpu time spent up to now is      195.2 secs

     total energy              =   -2759.16368261 Ry
     estimated scf accuracy    <       0.02466595 Ry

     iteration # 11     ecut=    60.00 Ry     beta= 0.70
     Davidson diagonalization with overlap
     ethr =  2.06E-05,  avg # of iterations =  3.1

     total cpu time spent up to now is      211.9 secs

     total energy              =   -2759.16080851 Ry
     estimated scf accuracy    <       0.02733535 Ry

     iteration # 12     ecut=    60.00 Ry     beta= 0.70
     Davidson diagonalization with overlap
     ethr =  2.06E-05,  avg # of iterations =  3.1

     total cpu time spent up to now is      228.8 secs

     total energy              =   -2759.16330115 Ry
     estimated scf accuracy    <       0.02534502 Ry

     iteration # 13     ecut=    60.00 Ry     beta= 0.70
     Davidson diagonalization with overlap
     ethr =  2.06E-05,  avg # of iterations =  1.1

     total cpu time spent up to now is      243.6 secs

     total energy              =   -2759.16309835 Ry
     estimated scf accuracy    <       0.02692434 Ry

     iteration # 14     ecut=    60.00 Ry     beta= 0.70
     Davidson diagonalization with overlap
     ethr =  2.06E-05,  avg # of iterations =  1.0

     total cpu time spent up to now is      258.1 secs

     total energy              =   -2759.16311859 Ry
     estimated scf accuracy    <       0.00681566 Ry

     iteration # 15     ecut=    60.00 Ry     beta= 0.70
     Davidson diagonalization with overlap
     c_bands:  1 eigenvalues not converged
     ethr =  5.68E-06,  avg # of iterations =  2.3

     total cpu time spent up to now is      273.6 secs

     total energy              =   -2759.16316878 Ry
     estimated scf accuracy    <       0.00867829 Ry

     iteration # 16     ecut=    60.00 Ry     beta= 0.70
     Davidson diagonalization with overlap
     c_bands:  1 eigenvalues not converged
     ethr =  5.68E-06,  avg # of iterations =  1.3

     total cpu time spent up to now is      288.4 secs

     total energy              =   -2759.16322259 Ry
     estimated scf accuracy    <       0.00533981 Ry

     iteration # 17     ecut=    60.00 Ry     beta= 0.70
     Davidson diagonalization with overlap
     ethr =  4.45E-06,  avg # of iterations =  1.1

     total cpu time spent up to now is      303.2 secs

     total energy              =   -2759.16326084 Ry
     estimated scf accuracy    <       0.00073085 Ry

     iteration # 18     ecut=    60.00 Ry     beta= 0.70
     Davidson diagonalization with overlap
     ethr =  6.09E-07,  avg # of iterations =  2.3

     total cpu time spent up to now is      318.6 secs

     total energy              =   -2759.16326478 Ry
     estimated scf accuracy    <       0.00004595 Ry

     iteration # 19     ecut=    60.00 Ry     beta= 0.70
     Davidson diagonalization with overlap
     ethr =  3.83E-08,  avg # of iterations =  1.1

     total cpu time spent up to now is      333.3 secs

     total energy              =   -2759.16326520 Ry
     estimated scf accuracy    <       0.00000283 Ry

     iteration # 20     ecut=    60.00 Ry     beta= 0.70
     Davidson diagonalization with overlap
     ethr =  2.36E-09,  avg # of iterations =  2.3

     total cpu time spent up to now is      349.4 secs

     total energy              =   -2759.16326516 Ry
     estimated scf accuracy    <       0.00002002 Ry

     iteration # 21     ecut=    60.00 Ry     beta= 0.70
     Davidson diagonalization with overlap
     ethr =  2.36E-09,  avg # of iterations =  1.0

     total cpu time spent up to now is      364.2 secs

     total energy              =   -2759.16326531 Ry
     estimated scf accuracy    <       0.00000397 Ry

     iteration # 22     ecut=    60.00 Ry     beta= 0.70
     Davidson diagonalization with overlap
     ethr =  2.36E-09,  avg # of iterations =  1.0

     total cpu time spent up to now is      379.1 secs

     total energy              =   -2759.16326530 Ry
     estimated scf accuracy    <       0.00000240 Ry

     iteration # 23     ecut=    60.00 Ry     beta= 0.70
     Davidson diagonalization with overlap
     ethr =  2.00E-09,  avg # of iterations =  1.0

     total cpu time spent up to now is      393.9 secs

     total energy              =   -2759.16326531 Ry
     estimated scf accuracy    <       0.00000005 Ry

     iteration # 24     ecut=    60.00 Ry     beta= 0.70
     Davidson diagonalization with overlap
     ethr =  3.78E-11,  avg # of iterations =  1.9

     total cpu time spent up to now is      409.4 secs

     total energy              =   -2759.16326531 Ry
     estimated scf accuracy    <       0.00000002 Ry

     iteration # 25     ecut=    60.00 Ry     beta= 0.70
     Davidson diagonalization with overlap
     ethr =  1.50E-11,  avg # of iterations =  1.2

     total cpu time spent up to now is      424.4 secs

     total energy              =   -2759.16326531 Ry
     estimated scf accuracy    <          1.8E-10 Ry

     iteration # 26     ecut=    60.00 Ry     beta= 0.70
     Davidson diagonalization with overlap
     ethr =  1.47E-13,  avg # of iterations =  5.7

     total cpu time spent up to now is      444.2 secs

     total energy              =   -2759.16326531 Ry
     estimated scf accuracy    <          3.1E-11 Ry

     iteration # 27     ecut=    60.00 Ry     beta= 0.70
     Davidson diagonalization with overlap
     ethr =  1.00E-13,  avg # of iterations =  1.0

     total cpu time spent up to now is      458.7 secs

     total energy              =   -2759.16326531 Ry
     estimated scf accuracy    <          1.4E-11 Ry

     iteration # 28     ecut=    60.00 Ry     beta= 0.70
     Davidson diagonalization with overlap
     ethr =  1.00E-13,  avg # of iterations =  1.0

     total cpu time spent up to now is      473.1 secs

     total energy              =   -2759.16326531 Ry
     estimated scf accuracy    <          1.4E-12 Ry

     iteration # 29     ecut=    60.00 Ry     beta= 0.70
     Davidson diagonalization with overlap
     ethr =  1.00E-13,  avg # of iterations =  1.0

     total cpu time spent up to now is      487.5 secs

     End of self-consistent calculation

          k = 0.0000 0.0000 0.0000 (  7661 PWs)   bands (ev):

   -57.5423 -57.5235 -57.0319 -57.0312 -24.4358 -24.1771 -23.8049 -23.8049
   -23.7772 -23.7772 -23.6647 -23.5988 -23.1826 -23.1826 -23.1819 -23.1819
    -9.2216  -9.2156  -9.2014  -9.2008  -9.2008  -9.1912  -9.1912  -9.1891
    -9.1771  -9.1771  -9.1680  -9.1680  -9.1555  -9.1531  -8.7746  -8.7738
    -8.7335  -8.7335  -8.7327  -8.7327  -8.7147  -8.7147  -8.7139  -8.7139
    -8.7000  -8.6993  -8.6420  -8.6412  -3.2840  -2.1301  -0.3713   2.7735
     4.6454   6.0485   6.0486   6.8010   6.8010   7.4244   8.7889   8.7889
     9.4662  10.2452  10.2453  10.2930  10.3582  11.4196  11.4197  12.0922
    12.2145  12.2146  13.2670  13.2671  13.6357  13.9588  13.9589  14.5444

          k = 0.0000 0.0915 0.0000 (  7723 PWs)   bands (ev):

   -57.5393 -57.5211 -57.0294 -57.0286 -24.4204 -24.1726 -23.8506 -23.8324
   -23.8179 -23.7856 -23.6503 -23.5983 -23.2245 -23.2235 -23.1921 -23.1915
    -9.2191  -9.2133  -9.2018  -9.1999  -9.1995  -9.1915  -9.1902  -9.1880
    -9.1786  -9.1777  -9.1695  -9.1684  -9.1583  -9.1560  -8.7733  -8.7725
    -8.7350  -8.7342  -8.7340  -8.7332  -8.7151  -8.7144  -8.7136  -8.7129
    -8.6977  -8.6969  -8.6448  -8.6441  -3.1167  -2.0139  -0.3698   2.9813
     4.6228   6.0844   6.1302   6.3433   6.8383   7.5945   8.1646   8.6272
     9.4772   9.9586  10.2570  10.4620  10.4704  11.2419  11.4405  11.7165
    12.3666  12.8843  13.3144  13.3902  13.5777  14.1018  14.1520  14.8551

          k = 0.0000 0.1829 0.0000 (  7719 PWs)   bands (ev):

   -57.5310 -57.5144 -57.0224 -57.0217 -24.3775 -24.1702 -23.9801 -23.9431
   -23.8519 -23.8096 -23.6330 -23.5991 -23.3371 -23.3337 -23.2179 -23.2172
    -9.2121  -9.2073  -9.2032  -9.1963  -9.1959  -9.1921  -9.1876  -9.1853
    -9.1819  -9.1790  -9.1731  -9.1703  -9.1646  -9.1620  -8.7700  -8.7692
    -8.7388  -8.7380  -8.7349  -8.7342  -8.7160  -8.7153  -8.7107  -8.7099
    -8.6908  -8.6901  -8.6514  -8.6507  -2.6468  -1.7094  -0.4019   3.5334
     4.6864   5.6040   6.1331   6.3131   6.8957   7.0424   7.5731   8.3162
     8.9640   9.8012  10.0194  10.4509  11.0560  11.2062  11.7790  11.8216
    12.5070  13.1827  13.4895  13.6232  13.8189  14.2660  14.4540  15.5261

          k = 0.0000 0.2744 0.0000 (  7712 PWs)   bands (ev):

   -57.5195 -57.5054 -57.0129 -57.0121 -24.3191 -24.2259 -24.1421 -24.0316
   -23.8965 -23.8436 -23.6231 -23.6031 -23.4852 -23.4764 -23.2530 -23.2522
    -9.2091  -9.2019  -9.1969  -9.1928  -9.1910  -9.1893  -9.1869  -9.1854
    -9.1810  -9.1809  -9.1772  -9.1767  -9.1724  -9.1651  -8.7657  -8.7649
    -8.7438  -8.7430  -8.7364  -8.7356  -8.7167  -8.7159  -8.7066  -8.7059
    -8.6816  -8.6808  -8.6603  -8.6595  -1.9758  -1.3424  -0.4790   4.0541
     4.9812   5.1960   5.6104   6.3980   6.4122   6.8951   7.2198   8.1846
     8.2008   9.8607   9.9272  10.2842  11.6845  11.9148  12.0803  12.4737
    12.9794  13.1762  13.6080  13.7192  14.1520  14.5898  14.7496  16.0669

          k = 0.0000 0.3659 0.0000 (  7708 PWs)   bands (ev):

   -57.5077 -57.4967 -57.0034 -57.0026 -24.3598 -24.3224 -24.2255 -24.0531
   -23.9398 -23.8783 -23.6357 -23.6309 -23.6097 -23.5858 -23.2879 -23.2869
    -9.2120  -9.1987  -9.1921  -9.1902  -9.1892  -9.1883  -9.1861  -9.1843
    -9.1838  -9.1798  -9.1780  -9.1766  -9.1759  -9.1657  -8.7617  -8.7609
    -8.7487  -8.7479  -8.7380  -8.7372  -8.7169  -8.7161  -8.7025  -8.7017
    -8.6723  -8.6715  -8.6686  -8.6678  -1.3846  -1.0493  -0.3879   3.8606
     4.5791   5.3739   5.8031   6.1279   6.2502   6.8743   6.9038   7.5452
     8.3098   9.7978  10.2916  10.5021  12.0705  12.6337  12.8711  13.2462
    13.4341  13.7886  13.9170  13.9742  14.1035  14.8319  15.0642  16.4056

          k = 0.0000 0.4573 0.0000 (  7726 PWs)   bands (ev):

   -57.4986 -57.4907 -56.9964 -56.9956 -24.4721 -24.4207 -24.1831 -24.0670
   -23.9710 -23.9039 -23.7199 -23.7098 -23.6189 -23.5993 -23.3133 -23.3122
    -9.2144  -9.1986  -9.1961  -9.1950  -9.1937  -9.1898  -9.1825  -9.1798
    -9.1785  -9.1777  -9.1754  -9.1751  -9.1729  -9.1659  -8.7591  -8.7583
    -8.7522  -8.7514  -8.7394  -8.7386  -8.7167  -8.7159  -8.6994  -8.6986
    -8.6745  -8.6737  -8.6654  -8.6647  -1.3165  -0.7705   0.1016   3.1999
     4.2047   5.6541   5.8347   6.0653   6.2816   6.7835   6.8371   7.1102
     8.4840   9.8785  10.8644  10.9654  12.2099  13.2396  13.4519  13.7276
    13.8625  14.1078  14.4512  14.7414  14.8674  15.1526  15.2329  16.2246

          k =-0.0000-0.5488 0.0000 (  7696 PWs)   bands (ev):

   -57.4952 -57.4886 -56.9938 -56.9930 -24.5136 -24.4593 -24.1625 -24.0772
   -23.9823 -23.9133 -23.7453 -23.7441 -23.6195 -23.6018 -23.3225 -23.3214
    -9.2152  -9.1984  -9.1983  -9.1963  -9.1960  -9.1908  -9.1821  -9.1774
    -9.1768  -9.1758  -9.1744  -9.1738  -9.1712  -9.1658  -8.7582  -8.7574
    -8.7533  -8.7525  -8.7398  -8.7390  -8.7165  -8.7158  -8.6982  -8.6975
    -8.6765  -8.6757  -8.6628  -8.6621  -1.3488  -0.6847   0.4464   2.8051
     4.1304   5.6160   5.9710   5.9918   6.2195   6.8171   6.8548   6.9550
     8.5544   9.9505  11.1705  11.2150  12.2990  13.5132  13.5960  13.7591
    14.0290  14.3908  14.8055  15.2972  15.3308  15.3388  15.6619  15.7665

          k = 0.0792 0.0457 0.0000 (  7723 PWs)   bands (ev):

   -57.5393 -57.5211 -57.0294 -57.0286 -24.4204 -24.1726 -23.8506 -23.8324
   -23.8179 -23.7856 -23.6503 -23.5983 -23.2245 -23.2235 -23.1921 -23.1915
    -9.2191  -9.2133  -9.2018  -9.1999  -9.1995  -9.1915  -9.1902  -9.1880
    -9.1786  -9.1777  -9.1695  -9.1684  -9.1583  -9.1560  -8.7733  -8.7725
    -8.7350  -8.7343  -8.7340  -8.7332  -8.7151  -8.7144  -8.7136  -8.7129
    -8.6977  -8.6969  -8.6448  -8.6441  -3.1167  -2.0139  -0.3698   2.9813
     4.6228   6.0844   6.1302   6.3434   6.8382   7.5945   8.1646   8.6272
     9.4772   9.9587  10.2570  10.4619  10.4704  11.2419  11.4404  11.7165
    12.3666  12.8844  13.3143  13.3902  13.5777  14.1018  14.1520  14.8550

          k = 0.0792 0.1372 0.0000 (  7715 PWs)   bands (ev):

   -57.5336 -57.5165 -57.0246 -57.0239 -24.3912 -24.1685 -23.9328 -23.9166
   -23.8367 -23.8091 -23.6366 -23.5984 -23.2994 -23.2971 -23.2120 -23.2114
    -9.2142  -9.2089  -9.2023  -9.1996  -9.1956  -9.1917  -9.1889  -9.1858
    -9.1809  -9.1786  -9.1723  -9.1688  -9.1628  -9.1606  -8.7710  -8.7703
    -8.7376  -8.7368  -8.7346  -8.7338  -8.7157  -8.7149  -8.7117  -8.7109
    -8.6930  -8.6923  -8.6494  -8.6486  -2.7975  -1.8027  -0.3871   3.3688
     4.6469   5.7590   6.1501   6.3515   6.7632   7.4856   7.5873   8.1848
     9.5366   9.5744  10.3284  10.3638  10.6347  11.2230  11.5954  11.8342
    12.3454  13.2318  13.3837  13.8038  13.9477  14.1172  14.3742  14.8016

          k = 0.0792 0.2287 0.0000 (  7706 PWs)   bands (ev):

   -57.5237 -57.5087 -57.0164 -57.0156 -24.3397 -24.1896 -24.0799 -24.0045
   -23.8830 -23.8467 -23.6241 -23.6006 -23.4239 -23.4185 -23.2480 -23.2473
    -9.2072  -9.2039  -9.2007  -9.1963  -9.1920  -9.1898  -9.1866  -9.1847
    -9.1825  -9.1800  -9.1772  -9.1718  -9.1695  -9.1660  -8.7671  -8.7664
    -8.7419  -8.7411  -8.7359  -8.7351  -8.7164  -8.7157  -8.7083  -8.7075
    -8.6850  -8.6842  -8.6571  -8.6564  -2.2194  -1.4601  -0.4592   3.9919
     4.8301   5.2510   5.9006   6.4644   6.5956   6.8136   7.3165   7.7386
     9.0257   9.7571   9.9982  10.3355  11.1200  11.3099  12.1956  12.2920
    12.5464  13.3200  13.6761  13.9870  14.3299  14.4332  14.7050  15.2748

          k = 0.0792 0.3201 0.0000 (  7691 PWs)   bands (ev):

   -57.5120 -57.4998 -57.0069 -57.0061 -24.2921 -24.2894 -24.2161 -24.0439
   -23.9364 -23.8879 -23.6191 -23.6075 -23.5597 -23.5478 -23.2894 -23.2886
    -9.2089  -9.1981  -9.1940  -9.1903  -9.1899  -9.1883  -9.1863  -9.1847
    -9.1838  -9.1806  -9.1788  -9.1768  -9.1754  -9.1671  -8.7629  -8.7621
    -8.7465  -8.7457  -8.7376  -8.7368  -8.7167  -8.7159  -8.7044  -8.7036
    -8.6756  -8.6749  -8.6658  -8.6650  -1.5310  -1.1323  -0.5116   4.1910
     4.9205   5.2295   5.4658   6.2638   6.4651   6.6731   6.9887   7.3698
     8.6783   9.9967  10.0679  10.1613  11.7646  11.8954  12.4126  13.0903
    13.4160  13.5458  13.7124  14.1834  14.4645  14.6955  15.2118  16.0246

          k = 0.0792 0.4116 0.0000 (  7716 PWs)   bands (ev):

   -57.5016 -57.4925 -56.9986 -56.9978 -24.4138 -24.3697 -24.1989 -24.0604
   -23.9779 -23.9235 -23.6753 -23.6672 -23.6141 -23.5976 -23.3247 -23.3240
    -9.2118  -9.1977  -9.1940  -9.1928  -9.1920  -9.1877  -9.1852  -9.1822
    -9.1808  -9.1791  -9.1776  -9.1761  -9.1738  -9.1672  -8.7595  -8.7587
    -8.7505  -8.7497  -8.7393  -8.7385  -8.7166  -8.7158  -8.7011  -8.7003
    -8.6731  -8.6723  -8.6675  -8.6668  -1.2104  -0.8422  -0.2156   3.6704
     4.3724   5.5129   5.9612   6.1226   6.2313   6.6125   6.8150   7.0348
     8.5926   9.9610  10.5360  10.5991  12.1622  12.7263  12.8402  13.3516
    13.7874  14.1281  14.5461  14.7098  14.7323  14.9453  15.3536  16.2597

          k = 0.0792 0.5031 0.0000 (  7736 PWs)   bands (ev):

   -57.4952 -57.4886 -56.9938 -56.9930 -24.4890 -24.4365 -24.1604 -24.0796
   -23.9991 -23.9442 -23.7302 -23.7243 -23.6158 -23.6021 -23.3450 -23.3443
    -9.2134  -9.1985  -9.1970  -9.1962  -9.1947  -9.1899  -9.1836  -9.1790
    -9.1775  -9.1763  -9.1755  -9.1738  -9.1718  -9.1674  -8.7577  -8.7569
    -8.7527  -8.7519  -8.7404  -8.7396  -8.7163  -8.7155  -8.6992  -8.6984
    -8.6771  -8.6764  -8.6630  -8.6622  -1.2488  -0.6648   0.2957   3.0490
     4.2097   5.6899   5.8983   6.0199   6.2750   6.5762   6.8129   6.9058
     8.6329   9.9878  11.0346  11.0535  12.3485  13.1654  13.3535  13.5811
    14.0764  14.5929  14.9423  15.0931  15.1423  15.2015  15.6347  16.0815

          k = 0.0792-0.5031 0.0000 (  7736 PWs)   bands (ev):

   -57.4952 -57.4886 -56.9938 -56.9930 -24.4890 -24.4365 -24.1604 -24.0796
   -23.9991 -23.9442 -23.7302 -23.7243 -23.6158 -23.6021 -23.3450 -23.3443
    -9.2134  -9.1985  -9.1970  -9.1962  -9.1947  -9.1899  -9.1836  -9.1790
    -9.1775  -9.1763  -9.1755  -9.1738  -9.1718  -9.1674  -8.7577  -8.7569
    -8.7527  -8.7519  -8.7404  -8.7396  -8.7163  -8.7155  -8.6992  -8.6984
    -8.6771  -8.6764  -8.6630  -8.6622  -1.2488  -0.6648   0.2957   3.0490
     4.2097   5.6899   5.8983   6.0199   6.2750   6.5762   6.8129   6.9058
     8.6329   9.9878  11.0346  11.0535  12.3485  13.1654  13.3535  13.5811
    14.0764  14.5929  14.9423  15.0931  15.1423  15.2014  15.6347  16.0815

          k = 0.0792-0.4116 0.0000 (  7716 PWs)   bands (ev):

   -57.5016 -57.4925 -56.9986 -56.9978 -24.4138 -24.3697 -24.1989 -24.0604
   -23.9779 -23.9235 -23.6753 -23.6672 -23.6141 -23.5976 -23.3247 -23.3240
    -9.2118  -9.1977  -9.1940  -9.1928  -9.1920  -9.1877  -9.1852  -9.1822
    -9.1808  -9.1791  -9.1776  -9.1761  -9.1738  -9.1672  -8.7595  -8.7587
    -8.7505  -8.7497  -8.7393  -8.7385  -8.7166  -8.7158  -8.7011  -8.7003
    -8.6731  -8.6723  -8.6675  -8.6668  -1.2104  -0.8422  -0.2156   3.6704
     4.3724   5.5129   5.9612   6.1225   6.2313   6.6125   6.8150   7.0348
     8.5926   9.9610  10.5360  10.5991  12.1622  12.7263  12.8402  13.3516
    13.7874  14.1281  14.5461  14.7098  14.7323  14.9453  15.3536  16.2597

          k = 0.0792-0.3201 0.0000 (  7691 PWs)   bands (ev):

   -57.5120 -57.4998 -57.0069 -57.0061 -24.2921 -24.2894 -24.2161 -24.0439
   -23.9364 -23.8879 -23.6191 -23.6075 -23.5597 -23.5478 -23.2894 -23.2886
    -9.2089  -9.1981  -9.1940  -9.1903  -9.1899  -9.1883  -9.1863  -9.1847
    -9.1838  -9.1806  -9.1788  -9.1768  -9.1754  -9.1671  -8.7629  -8.7621
    -8.7465  -8.7457  -8.7376  -8.7368  -8.7167  -8.7159  -8.7044  -8.7036
    -8.6756  -8.6749  -8.6658  -8.6650  -1.5310  -1.1323  -0.5116   4.1910
     4.9205   5.2295   5.4658   6.2638   6.4651   6.6731   6.9887   7.3698
     8.6784   9.9967  10.0679  10.1613  11.7646  11.8954  12.4126  13.0903
    13.4160  13.5458  13.7124  14.1834  14.4645  14.6955  15.2118  16.0246

          k = 0.0792-0.2287 0.0000 (  7706 PWs)   bands (ev):

   -57.5237 -57.5087 -57.0164 -57.0156 -24.3397 -24.1896 -24.0799 -24.0045
   -23.8830 -23.8467 -23.6241 -23.6006 -23.4239 -23.4185 -23.2480 -23.2473
    -9.2072  -9.2039  -9.2007  -9.1963  -9.1920  -9.1898  -9.1866  -9.1847
    -9.1825  -9.1800  -9.1772  -9.1718  -9.1695  -9.1660  -8.7671  -8.7664
    -8.7419  -8.7411  -8.7359  -8.7351  -8.7164  -8.7157  -8.7083  -8.7075
    -8.6850  -8.6842  -8.6571  -8.6564  -2.2194  -1.4601  -0.4592   3.9919
     4.8301   5.2510   5.9006   6.4645   6.5956   6.8136   7.3165   7.7386
     9.0258   9.7571   9.9982  10.3355  11.1200  11.3099  12.1956  12.2920
    12.5464  13.3200  13.6761  13.9870  14.3299  14.4332  14.7050  15.2748

          k = 0.0792-0.1372 0.0000 (  7715 PWs)   bands (ev):

   -57.5336 -57.5165 -57.0246 -57.0239 -24.3912 -24.1685 -23.9328 -23.9166
   -23.8367 -23.8091 -23.6366 -23.5984 -23.2994 -23.2971 -23.2120 -23.2114
    -9.2142  -9.2089  -9.2023  -9.1996  -9.1956  -9.1917  -9.1889  -9.1858
    -9.1809  -9.1786  -9.1723  -9.1688  -9.1628  -9.1606  -8.7710  -8.7703
    -8.7376  -8.7368  -8.7346  -8.7338  -8.7157  -8.7149  -8.7117  -8.7109
    -8.6930  -8.6923  -8.6494  -8.6486  -2.7975  -1.8027  -0.3871   3.3688
     4.6469   5.7590   6.1501   6.3515   6.7632   7.4856   7.5873   8.1848
     9.5366   9.5744  10.3284  10.3638  10.6347  11.2230  11.5954  11.8342
    12.3454  13.2318  13.3837  13.8038  13.9478  14.1172  14.3742  14.8016

          k = 0.0792-0.0457 0.0000 (  7723 PWs)   bands (ev):

   -57.5393 -57.5211 -57.0294 -57.0286 -24.4204 -24.1726 -23.8506 -23.8324
   -23.8179 -23.7856 -23.6503 -23.5983 -23.2245 -23.2235 -23.1921 -23.1915
    -9.2191  -9.2133  -9.2018  -9.1999  -9.1995  -9.1915  -9.1902  -9.1880
    -9.1786  -9.1777  -9.1695  -9.1684  -9.1583  -9.1560  -8.7733  -8.7725
    -8.7350  -8.7342  -8.7340  -8.7332  -8.7151  -8.7144  -8.7136  -8.7129
    -8.6977  -8.6969  -8.6448  -8.6441  -3.1167  -2.0139  -0.3698   2.9813
     4.6228   6.0844   6.1302   6.3433   6.8382   7.5945   8.1646   8.6272
     9.4772   9.9587  10.2570  10.4619  10.4704  11.2419  11.4405  11.7165
    12.3666  12.8843  13.3143  13.3902  13.5777  14.1018  14.1520  14.8549

          k = 0.1584 0.0915 0.0000 (  7719 PWs)   bands (ev):

   -57.5310 -57.5144 -57.0224 -57.0217 -24.3775 -24.1702 -23.9801 -23.9431
   -23.8519 -23.8096 -23.6330 -23.5991 -23.3371 -23.3337 -23.2179 -23.2172
    -9.2121  -9.2073  -9.2032  -9.1963  -9.1959  -9.1921  -9.1876  -9.1853
    -9.1819  -9.1790  -9.1731  -9.1703  -9.1646  -9.1620  -8.7700  -8.7692
    -8.7388  -8.7380  -8.7349  -8.7341  -8.7160  -8.7153  -8.7107  -8.7099
    -8.6908  -8.6901  -8.6514  -8.6507  -2.6468  -1.7094  -0.4019   3.5334
     4.6864   5.6040   6.1331   6.3131   6.8957   7.0424   7.5731   8.3161
     8.9641   9.8012  10.0194  10.4509  11.0560  11.2063  11.7790  11.8216
    12.5070  13.1827  13.4895  13.6232  13.8189  14.2660  14.4540  15.5274

          k = 0.1584 0.1829 0.0000 (  7706 PWs)   bands (ev):

   -57.5237 -57.5087 -57.0164 -57.0156 -24.3397 -24.1896 -24.0799 -24.0045
   -23.8830 -23.8467 -23.6241 -23.6006 -23.4239 -23.4185 -23.2480 -23.2473
    -9.2072  -9.2039  -9.2007  -9.1963  -9.1920  -9.1898  -9.1866  -9.1847
    -9.1825  -9.1800  -9.1772  -9.1718  -9.1695  -9.1660  -8.7671  -8.7664
    -8.7419  -8.7411  -8.7359  -8.7351  -8.7164  -8.7157  -8.7083  -8.7075
    -8.6850  -8.6842  -8.6571  -8.6564  -2.2194  -1.4601  -0.4592   3.9919
     4.8301   5.2510   5.9006   6.4644   6.5956   6.8136   7.3165   7.7386
     9.0258   9.7571   9.9982  10.3355  11.1200  11.3099  12.1956  12.2920
    12.5464  13.3200  13.6761  13.9871  14.3299  14.4332  14.7050  15.2749

          k = 0.1584 0.2744 0.0000 (  7689 PWs)   bands (ev):

   -57.5136 -57.5010 -57.0081 -57.0074 -24.2910 -24.2519 -24.1994 -24.0333
   -23.9402 -23.9113 -23.6157 -23.6036 -23.5263 -23.5195 -23.3008 -23.2990
    -9.2054  -9.1994  -9.1964  -9.1917  -9.1906  -9.1874  -9.1860  -9.1842
    -9.1835  -9.1823  -9.1782  -9.1768  -9.1726  -9.1698  -8.7632  -8.7624
    -8.7455  -8.7447  -8.7376  -8.7368  -8.7166  -8.7158  -8.7053  -8.7045
    -8.6769  -8.6761  -8.6648  -8.6641  -1.5928  -1.1395  -0.5596   4.4880
     5.0145   5.1582   5.2808   6.4559   6.4604   6.6680   6.7718   7.2277
     9.3553   9.4495  10.0442  10.2944  11.4547  11.5345  12.1607  13.0953
    13.3811  13.5428  13.6957  14.5945  14.5990  14.8508  15.3722  15.6491

          k = 0.1584 0.3659 0.0000 (  7693 PWs)   bands (ev):

   -57.5032 -57.4936 -56.9999 -56.9991 -24.3449 -24.3248 -24.2112 -24.0506
   -24.0045 -23.9699 -23.6244 -23.6201 -23.6071 -23.5987 -23.3578 -23.3549
    -9.2067  -9.1970  -9.1932  -9.1915  -9.1900  -9.1882  -9.1861  -9.1834
    -9.1830  -9.1802  -9.1794  -9.1769  -9.1743  -9.1699  -8.7594  -8.7586
    -8.7488  -8.7480  -8.7397  -8.7389  -8.7162  -8.7154  -8.7027  -8.7019
    -8.6729  -8.6721  -8.6686  -8.6678  -0.9934  -0.8683  -0.5399   4.2905
     4.5846   5.3174   5.7696   6.1187   6.2851   6.5331   6.5972   6.8875
     9.1117   9.8671  10.1768  10.3571  11.9707  12.1863  12.3045  13.2171
    13.8457  13.9919  14.4988  14.8938  15.0100  15.0927  16.0118  16.2397

          k = 0.1584 0.4573 0.0000 (  7727 PWs)   bands (ev):

   -57.4952 -57.4886 -56.9938 -56.9930 -24.4264 -24.3839 -24.1638 -24.0965
   -24.0289 -24.0091 -23.6857 -23.6797 -23.6099 -23.6044 -23.4004 -23.3971
    -9.2083  -9.1982  -9.1952  -9.1938  -9.1923  -9.1884  -9.1855  -9.1839
    -9.1795  -9.1772  -9.1763  -9.1746  -9.1737  -9.1700  -8.7567  -8.7559
    -8.7510  -8.7502  -8.7415  -8.7407  -8.7155  -8.7147  -8.7012  -8.7004
    -8.6783  -8.6775  -8.6631  -8.6623  -0.9752  -0.6266  -0.0576   3.6362
     4.4189   5.5262   5.9381   6.1156   6.2620   6.3441   6.4352   6.8458
     9.0615   9.9775  10.6389  10.7245  12.3947  12.6226  13.0692  13.2091
    13.8864  14.3701  14.8541  15.1116  15.1571  15.3471  16.2038  16.4708

          k = 0.1584 0.5488 0.0000 (  7732 PWs)   bands (ev):

   -57.4920 -57.4870 -56.9916 -56.9908 -24.4566 -24.4054 -24.1342 -24.1282
   -24.0306 -24.0280 -23.7085 -23.7018 -23.6095 -23.6056 -23.4160 -23.4128
    -9.2089  -9.1996  -9.1971  -9.1938  -9.1927  -9.1888  -9.1870  -9.1815
    -9.1789  -9.1759  -9.1753  -9.1732  -9.1716  -9.1713  -8.7557  -8.7549
    -8.7518  -8.7510  -8.7423  -8.7415  -8.7151  -8.7143  -8.7007  -8.6999
    -8.6803  -8.6795  -8.6610  -8.6602  -1.0111  -0.5529   0.2236   3.3294
     4.3699   5.6877   5.9062   5.9712   6.1651   6.2780   6.5111   6.9412
     9.0711   9.9971  10.9123  10.9735  12.4855  13.1227  13.1342  13.6747
    13.9202  14.2216  14.6623  14.8692  15.2132  15.4141  16.3386  16.7421

          k = 0.1584-0.4573 0.0000 (  7727 PWs)   bands (ev):

   -57.4952 -57.4886 -56.9938 -56.9930 -24.4264 -24.3839 -24.1638 -24.0965
   -24.0289 -24.0091 -23.6857 -23.6797 -23.6099 -23.6044 -23.4004 -23.3971
    -9.2083  -9.1982  -9.1952  -9.1938  -9.1923  -9.1884  -9.1855  -9.1839
    -9.1795  -9.1772  -9.1763  -9.1746  -9.1737  -9.1700  -8.7567  -8.7559
    -8.7510  -8.7502  -8.7415  -8.7407  -8.7155  -8.7147  -8.7012  -8.7004
    -8.6783  -8.6775  -8.6631  -8.6623  -0.9752  -0.6266  -0.0576   3.6362
     4.4189   5.5262   5.9381   6.1156   6.2620   6.3441   6.4352   6.8458
     9.0615   9.9775  10.6390  10.7245  12.3947  12.6226  13.0692  13.2091
    13.8864  14.3701  14.8541  15.1116  15.1570  15.3471  16.2038  16.4709

          k = 0.1584-0.3659 0.0000 (  7693 PWs)   bands (ev):

   -57.5032 -57.4936 -56.9999 -56.9991 -24.3449 -24.3248 -24.2112 -24.0506
   -24.0045 -23.9699 -23.6244 -23.6201 -23.6071 -23.5987 -23.3578 -23.3549
    -9.2067  -9.1970  -9.1932  -9.1915  -9.1900  -9.1882  -9.1861  -9.1834
    -9.1830  -9.1802  -9.1794  -9.1769  -9.1743  -9.1699  -8.7594  -8.7586
    -8.7488  -8.7480  -8.7397  -8.7389  -8.7162  -8.7154  -8.7027  -8.7019
    -8.6729  -8.6721  -8.6686  -8.6679  -0.9934  -0.8683  -0.5399   4.2905
     4.5846   5.3174   5.7696   6.1187   6.2851   6.5331   6.5972   6.8875
     9.1118   9.8671  10.1768  10.3571  11.9707  12.1863  12.3045  13.2171
    13.8457  13.9919  14.4988  14.8938  15.0100  15.0927  16.0118  16.2397

          k = 0.1584-0.2744 0.0000 (  7689 PWs)   bands (ev):

   -57.5136 -57.5010 -57.0081 -57.0074 -24.2910 -24.2519 -24.1994 -24.0333
   -23.9402 -23.9113 -23.6157 -23.6036 -23.5263 -23.5195 -23.3008 -23.2990
    -9.2054  -9.1994  -9.1964  -9.1917  -9.1906  -9.1874  -9.1860  -9.1842
    -9.1835  -9.1823  -9.1782  -9.1768  -9.1726  -9.1698  -8.7632  -8.7624
    -8.7455  -8.7447  -8.7376  -8.7368  -8.7166  -8.7158  -8.7053  -8.7045
    -8.6769  -8.6761  -8.6648  -8.6641  -1.5928  -1.1395  -0.5596   4.4880
     5.0145   5.1582   5.2809   6.4559   6.4604   6.6680   6.7718   7.2277
     9.3553   9.4495  10.0442  10.2944  11.4547  11.5345  12.1607  13.0953
    13.3811  13.5428  13.6957  14.5945  14.5990  14.8508  15.3722  15.6491

          k = 0.1584-0.1829 0.0000 (  7706 PWs)   bands (ev):

   -57.5237 -57.5087 -57.0164 -57.0156 -24.3397 -24.1896 -24.0799 -24.0045
   -23.8830 -23.8467 -23.6241 -23.6006 -23.4239 -23.4185 -23.2480 -23.2473
    -9.2072  -9.2039  -9.2007  -9.1963  -9.1920  -9.1898  -9.1866  -9.1847
    -9.1825  -9.1800  -9.1772  -9.1718  -9.1695  -9.1660  -8.7671  -8.7664
    -8.7419  -8.7411  -8.7359  -8.7351  -8.7164  -8.7157  -8.7083  -8.7075
    -8.6850  -8.6842  -8.6571  -8.6564  -2.2194  -1.4601  -0.4592   3.9919
     4.8301   5.2510   5.9006   6.4644   6.5956   6.8136   7.3165   7.7386
     9.0258   9.7571   9.9982  10.3355  11.1200  11.3099  12.1956  12.2920
    12.5464  13.3200  13.6760  13.9870  14.3299  14.4332  14.7050  15.2748

          k = 0.1584-0.0915 0.0000 (  7719 PWs)   bands (ev):

   -57.5310 -57.5144 -57.0224 -57.0217 -24.3775 -24.1702 -23.9801 -23.9431
   -23.8519 -23.8096 -23.6330 -23.5991 -23.3371 -23.3337 -23.2179 -23.2172
    -9.2121  -9.2073  -9.2032  -9.1963  -9.1959  -9.1921  -9.1876  -9.1853
    -9.1819  -9.1790  -9.1731  -9.1703  -9.1646  -9.1620  -8.7700  -8.7692
    -8.7388  -8.7380  -8.7349  -8.7342  -8.7160  -8.7153  -8.7107  -8.7099
    -8.6908  -8.6901  -8.6514  -8.6507  -2.6468  -1.7094  -0.4019   3.5334
     4.6864   5.6040   6.1331   6.3131   6.8957   7.0424   7.5731   8.3161
     8.9640   9.8012  10.0194  10.4509  11.0560  11.2062  11.7790  11.8216
    12.5070  13.1827  13.4895  13.6232  13.8189  14.2660  14.4540  15.5265

          k = 0.1584 0.0000 0.0000 (  7715 PWs)   bands (ev):

   -57.5336 -57.5165 -57.0246 -57.0239 -24.3912 -24.1685 -23.9328 -23.9166
   -23.8367 -23.8091 -23.6366 -23.5984 -23.2994 -23.2971 -23.2120 -23.2114
    -9.2142  -9.2089  -9.2023  -9.1996  -9.1956  -9.1917  -9.1889  -9.1858
    -9.1809  -9.1786  -9.1723  -9.1688  -9.1628  -9.1606  -8.7710  -8.7703
    -8.7376  -8.7368  -8.7346  -8.7338  -8.7157  -8.7149  -8.7117  -8.7109
    -8.6930  -8.6923  -8.6494  -8.6486  -2.7975  -1.8027  -0.3871   3.3688
     4.6469   5.7591   6.1502   6.3515   6.7631   7.4856   7.5873   8.1848
     9.5366   9.5744  10.3284  10.3639  10.6346  11.2230  11.5954  11.8342
    12.3454  13.2318  13.3838  13.8037  13.9477  14.1172  14.3743  14.8016

          k = 0.2376 0.1372 0.0000 (  7712 PWs)   bands (ev):

   -57.5195 -57.5054 -57.0129 -57.0121 -24.3191 -24.2259 -24.1421 -24.0316
   -23.8965 -23.8436 -23.6231 -23.6031 -23.4852 -23.4764 -23.2530 -23.2522
    -9.2091  -9.2019  -9.1969  -9.1928  -9.1910  -9.1893  -9.1869  -9.1854
    -9.1810  -9.1809  -9.1772  -9.1767  -9.1724  -9.1651  -8.7657  -8.7649
    -8.7438  -8.7430  -8.7364  -8.7356  -8.7167  -8.7159  -8.7066  -8.7059
    -8.6816  -8.6808  -8.6603  -8.6595  -1.9758  -1.3424  -0.4790   4.0541
     4.9812   5.1960   5.6104   6.3979   6.4123   6.8951   7.2198   8.1846
     8.2008   9.8607   9.9272  10.2842  11.6845  11.9148  12.0803  12.4737
    12.9794  13.1763  13.6080  13.7191  14.1521  14.5898  14.7496  16.0666

          k = 0.2376 0.2287 0.0000 (  7691 PWs)   bands (ev):

   -57.5120 -57.4998 -57.0069 -57.0061 -24.2921 -24.2894 -24.2161 -24.0439
   -23.9364 -23.8879 -23.6191 -23.6075 -23.5597 -23.5478 -23.2894 -23.2886
    -9.2089  -9.1981  -9.1940  -9.1903  -9.1899  -9.1883  -9.1863  -9.1847
    -9.1838  -9.1806  -9.1788  -9.1768  -9.1754  -9.1670  -8.7629  -8.7621
    -8.7465  -8.7457  -8.7376  -8.7368  -8.7167  -8.7159  -8.7044  -8.7036
    -8.6756  -8.6749  -8.6658  -8.6650  -1.5310  -1.1322  -0.5116   4.1910
     4.9205   5.2295   5.4658   6.2638   6.4651   6.6731   6.9887   7.3698
     8.6783   9.9967  10.0679  10.1613  11.7646  11.8954  12.4126  13.0903
    13.4160  13.5458  13.7124  14.1834  14.4645  14.6954  15.2118  16.0246

          k = 0.2376 0.3201 0.0000 (  7693 PWs)   bands (ev):

   -57.5032 -57.4936 -56.9999 -56.9991 -24.3449 -24.3248 -24.2112 -24.0506
   -24.0045 -23.9699 -23.6244 -23.6201 -23.6071 -23.5987 -23.3578 -23.3549
    -9.2067  -9.1970  -9.1932  -9.1915  -9.1900  -9.1882  -9.1861  -9.1834
    -9.1830  -9.1802  -9.1794  -9.1769  -9.1743  -9.1699  -8.7594  -8.7586
    -8.7488  -8.7480  -8.7397  -8.7389  -8.7162  -8.7154  -8.7027  -8.7019
    -8.6729  -8.6721  -8.6686  -8.6678  -0.9934  -0.8683  -0.5399   4.2905
     4.5846   5.3174   5.7696   6.1187   6.2850   6.5331   6.5972   6.8875
     9.1117   9.8671  10.1768  10.3571  11.9707  12.1864  12.3045  13.2171
    13.8457  13.9919  14.4988  14.8938  15.0100  15.0927  16.0118  16.2397

          k = 0.2376 0.4116 0.0000 (  7725 PWs)   bands (ev):

   -57.4952 -57.4886 -56.9938 -56.9931 -24.3748 -24.3598 -24.1786 -24.0900
   -24.0858 -24.0193 -23.6500 -23.6490 -23.6107 -23.6080 -23.4368 -23.4308
    -9.2044  -9.1967  -9.1957  -9.1941  -9.1901  -9.1895  -9.1851  -9.1839
    -9.1814  -9.1790  -9.1771  -9.1764  -9.1741  -9.1706  -8.7562  -8.7554
    -8.7500  -8.7492  -8.7423  -8.7415  -8.7150  -8.7142  -8.7023  -8.7015
    -8.6789  -8.6782  -8.6632  -8.6624  -0.6722  -0.6448  -0.3561   4.0854
     4.5485   5.2932   5.7650   6.1379   6.1557   6.3084   6.5522   6.7104
     9.5607   9.9519  10.2321  10.5252  12.1280  12.5342  12.8184  13.1946
    13.9356  14.2783  14.7916  15.1546  15.1752  15.2857  16.6214  16.7568

          k = 0.2376 0.5031 0.0000 (  7741 PWs)   bands (ev):

   -57.4901 -57.4862 -56.9903 -56.9896 -24.3899 -24.3499 -24.2066 -24.1511
   -24.0881 -24.0351 -23.6647 -23.6568 -23.6103 -23.6067 -23.4928 -23.4860
    -9.2034  -9.1995  -9.1967  -9.1929  -9.1912  -9.1888  -9.1860  -9.1848
    -9.1814  -9.1779  -9.1758  -9.1747  -9.1729  -9.1712  -8.7542  -8.7534
    -8.7500  -8.7492  -8.7444  -8.7436  -8.7137  -8.7129  -8.7026  -8.7018
    -8.6826  -8.6818  -8.6599  -8.6592  -0.6738  -0.4905  -0.0572   3.8948
     4.5535   5.3023   5.4945   6.0958   6.1756   6.2855   6.5244   6.7801
     9.7913  10.0809  10.6097  10.7291  12.2191  12.9425  13.1689  13.3809
    13.8518  14.0189  14.3551  14.6991  15.1397  15.3262  16.7585  17.0614

          k = 0.2376 0.5945 0.0000 (  7741 PWs)   bands (ev):

   -57.4901 -57.4862 -56.9903 -56.9896 -24.3899 -24.3499 -24.2066 -24.1511
   -24.0881 -24.0351 -23.6647 -23.6568 -23.6103 -23.6067 -23.4928 -23.4860
    -9.2034  -9.1995  -9.1967  -9.1929  -9.1912  -9.1888  -9.1860  -9.1848
    -9.1814  -9.1779  -9.1758  -9.1747  -9.1729  -9.1712  -8.7542  -8.7534
    -8.7500  -8.7492  -8.7444  -8.7436  -8.7137  -8.7129  -8.7026  -8.7018
    -8.6826  -8.6818  -8.6599  -8.6592  -0.6738  -0.4905  -0.0572   3.8948
     4.5535   5.3023   5.4945   6.0958   6.1756   6.2855   6.5244   6.7801
     9.7913  10.0809  10.6097  10.7291  12.2191  12.9425  13.1689  13.3809
    13.8518  14.0189  14.3551  14.6991  15.1397  15.3262  16.7585  17.0614

          k = 0.2376-0.4116 0.0000 (  7725 PWs)   bands (ev):

   -57.4952 -57.4886 -56.9938 -56.9931 -24.3748 -24.3598 -24.1786 -24.0900
   -24.0858 -24.0194 -23.6500 -23.6490 -23.6107 -23.6080 -23.4368 -23.4308
    -9.2044  -9.1967  -9.1957  -9.1941  -9.1901  -9.1895  -9.1851  -9.1839
    -9.1814  -9.1790  -9.1771  -9.1764  -9.1741  -9.1706  -8.7562  -8.7554
    -8.7500  -8.7492  -8.7423  -8.7415  -8.7150  -8.7142  -8.7023  -8.7015
    -8.6789  -8.6782  -8.6632  -8.6624  -0.6722  -0.6448  -0.3562   4.0854
     4.5485   5.2932   5.7650   6.1379   6.1557   6.3084   6.5522   6.7104
     9.5608   9.9519  10.2321  10.5252  12.1280  12.5342  12.8184  13.1946
    13.9356  14.2783  14.7916  15.1546  15.1752  15.2857  16.6214  16.7567

          k = 0.2376-0.3201 0.0000 (  7693 PWs)   bands (ev):

   -57.5032 -57.4936 -56.9999 -56.9991 -24.3449 -24.3248 -24.2112 -24.0506
   -24.0045 -23.9699 -23.6244 -23.6201 -23.6071 -23.5987 -23.3578 -23.3549
    -9.2067  -9.1970  -9.1932  -9.1915  -9.1900  -9.1882  -9.1861  -9.1834
    -9.1830  -9.1802  -9.1794  -9.1769  -9.1743  -9.1699  -8.7594  -8.7586
    -8.7488  -8.7480  -8.7397  -8.7389  -8.7162  -8.7154  -8.7027  -8.7019
    -8.6729  -8.6721  -8.6686  -8.6678  -0.9934  -0.8683  -0.5399   4.2905
     4.5846   5.3174   5.7696   6.1187   6.2851   6.5331   6.5972   6.8875
     9.1118   9.8671  10.1768  10.3571  11.9707  12.1863  12.3045  13.2171
    13.8457  13.9919  14.4988  14.8938  15.0100  15.0927  16.0118  16.2396

          k = 0.2376-0.2287 0.0000 (  7691 PWs)   bands (ev):

   -57.5120 -57.4998 -57.0069 -57.0061 -24.2921 -24.2894 -24.2161 -24.0439
   -23.9364 -23.8879 -23.6191 -23.6075 -23.5597 -23.5478 -23.2894 -23.2886
    -9.2089  -9.1981  -9.1940  -9.1903  -9.1899  -9.1883  -9.1863  -9.1847
    -9.1838  -9.1806  -9.1788  -9.1768  -9.1754  -9.1670  -8.7629  -8.7621
    -8.7465  -8.7457  -8.7376  -8.7368  -8.7167  -8.7159  -8.7044  -8.7036
    -8.6756  -8.6749  -8.6658  -8.6650  -1.5310  -1.1323  -0.5116   4.1910
     4.9205   5.2295   5.4658   6.2638   6.4651   6.6731   6.9887   7.3698
     8.6784   9.9967  10.0679  10.1613  11.7646  11.8954  12.4126  13.0903
    13.4160  13.5458  13.7124  14.1834  14.4645  14.6954  15.2118  16.0246

          k = 0.2376-0.1372 0.0000 (  7712 PWs)   bands (ev):

   -57.5195 -57.5054 -57.0129 -57.0121 -24.3191 -24.2259 -24.1421 -24.0316
   -23.8965 -23.8436 -23.6231 -23.6031 -23.4852 -23.4764 -23.2530 -23.2522
    -9.2091  -9.2019  -9.1969  -9.1928  -9.1910  -9.1893  -9.1869  -9.1854
    -9.1810  -9.1809  -9.1772  -9.1767  -9.1724  -9.1651  -8.7657  -8.7649
    -8.7438  -8.7430  -8.7364  -8.7356  -8.7167  -8.7159  -8.7066  -8.7059
    -8.6816  -8.6808  -8.6603  -8.6595  -1.9758  -1.3424  -0.4790   4.0541
     4.9812   5.1960   5.6104   6.3979   6.4122   6.8951   7.2198   8.1846
     8.2008   9.8607   9.9272  10.2842  11.6845  11.9148  12.0803  12.4737
    12.9794  13.1762  13.6080  13.7191  14.1521  14.5898  14.7496  16.0666

          k = 0.2376-0.0457 0.0000 (  7706 PWs)   bands (ev):

   -57.5237 -57.5087 -57.0164 -57.0156 -24.3397 -24.1896 -24.0799 -24.0045
   -23.8830 -23.8467 -23.6241 -23.6006 -23.4239 -23.4185 -23.2480 -23.2473
    -9.2072  -9.2039  -9.2007  -9.1963  -9.1920  -9.1898  -9.1866  -9.1847
    -9.1825  -9.1800  -9.1772  -9.1718  -9.1695  -9.1660  -8.7671  -8.7664
    -8.7419  -8.7411  -8.7359  -8.7351  -8.7164  -8.7157  -8.7083  -8.7075
    -8.6850  -8.6842  -8.6571  -8.6564  -2.2194  -1.4601  -0.4592   3.9919
     4.8301   5.2510   5.9006   6.4644   6.5956   6.8136   7.3165   7.7386
     9.0257   9.7571   9.9982  10.3355  11.1200  11.3099  12.1956  12.2920
    12.5464  13.3200  13.6761  13.9871  14.3299  14.4332  14.7049  15.2748

          k = 0.2376 0.0457 0.0000 (  7706 PWs)   bands (ev):

   -57.5237 -57.5087 -57.0164 -57.0156 -24.3397 -24.1896 -24.0799 -24.0045
   -23.8830 -23.8467 -23.6241 -23.6006 -23.4239 -23.4185 -23.2480 -23.2473
    -9.2072  -9.2039  -9.2007  -9.1963  -9.1920  -9.1898  -9.1866  -9.1847
    -9.1825  -9.1800  -9.1772  -9.1718  -9.1695  -9.1660  -8.7671  -8.7664
    -8.7419  -8.7411  -8.7359  -8.7351  -8.7164  -8.7157  -8.7083  -8.7075
    -8.6850  -8.6842  -8.6571  -8.6564  -2.2194  -1.4601  -0.4592   3.9919
     4.8301   5.2510   5.9006   6.4644   6.5956   6.8136   7.3165   7.7386
     9.0257   9.7571   9.9982  10.3355  11.1200  11.3099  12.1956  12.2920
    12.5464  13.3200  13.6761  13.9871  14.3299  14.4332  14.7049  15.2748

          k = 0.3168 0.1829 0.0000 (  7708 PWs)   bands (ev):

   -57.5077 -57.4967 -57.0034 -57.0026 -24.3598 -24.3224 -24.2255 -24.0531
   -23.9399 -23.8783 -23.6357 -23.6309 -23.6097 -23.5858 -23.2879 -23.2869
    -9.2120  -9.1987  -9.1921  -9.1902  -9.1892  -9.1883  -9.1861  -9.1843
    -9.1838  -9.1798  -9.1779  -9.1766  -9.1759  -9.1657  -8.7617  -8.7609
    -8.7487  -8.7479  -8.7380  -8.7372  -8.7169  -8.7161  -8.7025  -8.7017
    -8.6723  -8.6715  -8.6686  -8.6678  -1.3846  -1.0493  -0.3879   3.8606
     4.5791   5.3739   5.8031   6.1279   6.2502   6.8743   6.9038   7.5452
     8.3098   9.7978  10.2916  10.5021  12.0706  12.6337  12.8711  13.2463
    13.4341  13.7886  13.9170  13.9742  14.1036  14.8319  15.0642  16.4056

          k = 0.3168 0.2744 0.0000 (  7716 PWs)   bands (ev):

   -57.5016 -57.4925 -56.9986 -56.9978 -24.4138 -24.3697 -24.1989 -24.0604
   -23.9779 -23.9236 -23.6753 -23.6672 -23.6141 -23.5977 -23.3247 -23.3240
    -9.2118  -9.1977  -9.1940  -9.1928  -9.1920  -9.1877  -9.1852  -9.1822
    -9.1808  -9.1791  -9.1776  -9.1761  -9.1738  -9.1672  -8.7595  -8.7587
    -8.7505  -8.7497  -8.7393  -8.7385  -8.7166  -8.7158  -8.7011  -8.7003
    -8.6731  -8.6723  -8.6675  -8.6668  -1.2104  -0.8422  -0.2156   3.6704
     4.3724   5.5129   5.9612   6.1226   6.2313   6.6125   6.8150   7.0348
     8.5925   9.9610  10.5360  10.5991  12.1623  12.7264  12.8402  13.3516
    13.7874  14.1281  14.5462  14.7098  14.7323  14.9453  15.3536  16.2597

          k = 0.3168 0.3659 0.0000 (  7727 PWs)   bands (ev):

   -57.4952 -57.4886 -56.9938 -56.9930 -24.4264 -24.3839 -24.1638 -24.0965
   -24.0289 -24.0091 -23.6857 -23.6797 -23.6099 -23.6044 -23.4004 -23.3971
    -9.2083  -9.1982  -9.1952  -9.1938  -9.1923  -9.1884  -9.1855  -9.1839
    -9.1795  -9.1772  -9.1763  -9.1746  -9.1737  -9.1700  -8.7567  -8.7559
    -8.7510  -8.7502  -8.7415  -8.7407  -8.7155  -8.7147  -8.7012  -8.7004
    -8.6783  -8.6775  -8.6631  -8.6623  -0.9752  -0.6266  -0.0576   3.6362
     4.4189   5.5262   5.9381   6.1156   6.2620   6.3441   6.4352   6.8458
     9.0615   9.9775  10.6390  10.7245  12.3947  12.6226  13.0692  13.2091
    13.8864  14.3701  14.8541  15.1116  15.1570  15.3471  16.2038  16.4709

          k = 0.3168 0.4573 0.0000 (  7741 PWs)   bands (ev):

   -57.4901 -57.4862 -56.9903 -56.9896 -24.3899 -24.3499 -24.2066 -24.1511
   -24.0881 -24.0351 -23.6647 -23.6568 -23.6103 -23.6067 -23.4928 -23.4860
    -9.2034  -9.1995  -9.1968  -9.1929  -9.1912  -9.1888  -9.1860  -9.1848
    -9.1814  -9.1779  -9.1758  -9.1747  -9.1729  -9.1712  -8.7542  -8.7534
    -8.7500  -8.7492  -8.7444  -8.7436  -8.7137  -8.7129  -8.7026  -8.7018
    -8.6826  -8.6818  -8.6599  -8.6592  -0.6738  -0.4905  -0.0572   3.8948
     4.5535   5.3023   5.4945   6.0958   6.1756   6.2854   6.5244   6.7801
     9.7913  10.0809  10.6097  10.7291  12.2191  12.9425  13.1689  13.3809
    13.8518  14.0189  14.3551  14.6991  15.1397  15.3262  16.7585  17.0614

          k = 0.3168 0.5488 0.0000 (  7767 PWs)   bands (ev):

   -57.4878 -57.4857 -56.9890 -56.9883 -24.3248 -24.2940 -24.2931 -24.2312
   -24.0585 -24.0575 -23.6296 -23.6290 -23.6122 -23.6065 -23.5479 -23.5471
    -9.2003  -9.1997  -9.1986  -9.1917  -9.1900  -9.1897  -9.1869  -9.1849
    -9.1818  -9.1798  -9.1763  -9.1744  -9.1731  -9.1708  -8.7533  -8.7525
    -8.7479  -8.7472  -8.7471  -8.7464  -8.7126  -8.7118  -8.7038  -8.7030
    -8.6842  -8.6835  -8.6588  -8.6581  -0.4468  -0.4467  -0.1807   4.3819
     4.3824   5.1204   5.1745   6.1454   6.1480   6.4176   6.6104   6.6107
    10.2410  10.2411  10.6761  10.6765  12.1032  13.0515  13.0559  13.1312
    13.6365  14.1274  14.1290  14.5060  15.1323  15.1338  16.8667  17.4434

          k = 0.3168 0.6402 0.0000 (  7741 PWs)   bands (ev):

   -57.4901 -57.4862 -56.9903 -56.9896 -24.3899 -24.3499 -24.2066 -24.1511
   -24.0881 -24.0351 -23.6647 -23.6568 -23.6103 -23.6067 -23.4928 -23.4860
    -9.2034  -9.1995  -9.1967  -9.1929  -9.1912  -9.1888  -9.1860  -9.1848
    -9.1814  -9.1779  -9.1758  -9.1747  -9.1729  -9.1712  -8.7542  -8.7534
    -8.7500  -8.7492  -8.7444  -8.7436  -8.7137  -8.7129  -8.7026  -8.7018
    -8.6826  -8.6818  -8.6599  -8.6592  -0.6738  -0.4905  -0.0572   3.8948
     4.5535   5.3023   5.4945   6.0958   6.1756   6.2855   6.5244   6.7801
     9.7913  10.0809  10.6097  10.7291  12.2191  12.9425  13.1689  13.3809
    13.8518  14.0189  14.3551  14.6991  15.1397  15.3262  16.7585  17.0614

          k = 0.3168-0.3659 0.0000 (  7727 PWs)   bands (ev):

   -57.4952 -57.4886 -56.9938 -56.9930 -24.4264 -24.3839 -24.1638 -24.0965
   -24.0289 -24.0091 -23.6857 -23.6797 -23.6099 -23.6044 -23.4004 -23.3971
    -9.2083  -9.1982  -9.1952  -9.1938  -9.1923  -9.1884  -9.1855  -9.1839
    -9.1795  -9.1772  -9.1763  -9.1746  -9.1737  -9.1700  -8.7567  -8.7559
    -8.7510  -8.7502  -8.7415  -8.7407  -8.7155  -8.7147  -8.7012  -8.7004
    -8.6783  -8.6775  -8.6631  -8.6623  -0.9752  -0.6266  -0.0576   3.6362
     4.4189   5.5262   5.9381   6.1156   6.2620   6.3441   6.4352   6.8458
     9.0615   9.9775  10.6390  10.7245  12.3947  12.6226  13.0692  13.2091
    13.8864  14.3701  14.8541  15.1116  15.1570  15.3471  16.2038  16.4708

          k = 0.3168-0.2744 0.0000 (  7716 PWs)   bands (ev):

   -57.5016 -57.4925 -56.9986 -56.9978 -24.4138 -24.3697 -24.1989 -24.0604
   -23.9779 -23.9236 -23.6753 -23.6672 -23.6141 -23.5977 -23.3247 -23.3240
    -9.2118  -9.1977  -9.1940  -9.1928  -9.1920  -9.1877  -9.1852  -9.1822
    -9.1808  -9.1791  -9.1776  -9.1761  -9.1738  -9.1672  -8.7595  -8.7587
    -8.7505  -8.7497  -8.7393  -8.7385  -8.7166  -8.7158  -8.7011  -8.7003
    -8.6731  -8.6723  -8.6675  -8.6668  -1.2104  -0.8422  -0.2156   3.6704
     4.3724   5.5129   5.9612   6.1226   6.2313   6.6125   6.8150   7.0348
     8.5926   9.9610  10.5360  10.5991  12.1622  12.7264  12.8402  13.3516
    13.7874  14.1281  14.5461  14.7098  14.7323  14.9453  15.3536  16.2597

          k = 0.3168-0.1829 0.0000 (  7708 PWs)   bands (ev):

   -57.5077 -57.4967 -57.0034 -57.0026 -24.3598 -24.3224 -24.2255 -24.0531
   -23.9399 -23.8783 -23.6357 -23.6309 -23.6097 -23.5858 -23.2879 -23.2869
    -9.2120  -9.1987  -9.1921  -9.1902  -9.1892  -9.1883  -9.1861  -9.1843
    -9.1838  -9.1798  -9.1780  -9.1766  -9.1759  -9.1657  -8.7617  -8.7609
    -8.7487  -8.7479  -8.7380  -8.7372  -8.7169  -8.7161  -8.7025  -8.7017
    -8.6723  -8.6715  -8.6686  -8.6678  -1.3846  -1.0493  -0.3879   3.8606
     4.5791   5.3739   5.8031   6.1279   6.2502   6.8743   6.9038   7.5452
     8.3098   9.7978  10.2916  10.5021  12.0705  12.6337  12.8711  13.2463
    13.4341  13.7886  13.9170  13.9742  14.1036  14.8319  15.0642  16.4056

          k = 0.3168-0.0915 0.0000 (  7691 PWs)   bands (ev):

   -57.5120 -57.4998 -57.0069 -57.0061 -24.2921 -24.2894 -24.2161 -24.0439
   -23.9364 -23.8879 -23.6191 -23.6075 -23.5597 -23.5478 -23.2894 -23.2886
    -9.2089  -9.1981  -9.1940  -9.1903  -9.1899  -9.1883  -9.1863  -9.1847
    -9.1838  -9.1806  -9.1788  -9.1768  -9.1754  -9.1670  -8.7629  -8.7621
    -8.7465  -8.7457  -8.7376  -8.7368  -8.7167  -8.7159  -8.7044  -8.7036
    -8.6756  -8.6749  -8.6658  -8.6650  -1.5310  -1.1322  -0.5116   4.1910
     4.9205   5.2295   5.4658   6.2638   6.4651   6.6731   6.9887   7.3698
     8.6783   9.9967  10.0679  10.1613  11.7646  11.8954  12.4126  13.0903
    13.4160  13.5459  13.7124  14.1834  14.4645  14.6955  15.2118  16.0246

          k = 0.3168 0.0000 0.0000 (  7689 PWs)   bands (ev):

   -57.5136 -57.5010 -57.0081 -57.0074 -24.2910 -24.2519 -24.1994 -24.0333
   -23.9403 -23.9113 -23.6157 -23.6036 -23.5263 -23.5195 -23.3008 -23.2990
    -9.2054  -9.1994  -9.1964  -9.1917  -9.1906  -9.1874  -9.1860  -9.1842
    -9.1835  -9.1823  -9.1782  -9.1768  -9.1726  -9.1698  -8.7632  -8.7624
    -8.7455  -8.7447  -8.7376  -8.7368  -8.7166  -8.7158  -8.7053  -8.7045
    -8.6769  -8.6761  -8.6648  -8.6641  -1.5928  -1.1395  -0.5596   4.4880
     5.0145   5.1582   5.2808   6.4559   6.4604   6.6680   6.7718   7.2277
     9.3553   9.4495  10.0442  10.2944  11.4546  11.5345  12.1607  13.0953
    13.3811  13.5428  13.6957  14.5945  14.5990  14.8508  15.3722  15.6491

          k = 0.3168 0.0915 0.0000 (  7691 PWs)   bands (ev):

   -57.5120 -57.4998 -57.0069 -57.0061 -24.2921 -24.2894 -24.2161 -24.0439
   -23.9364 -23.8879 -23.6191 -23.6075 -23.5597 -23.5478 -23.2894 -23.2886
    -9.2089  -9.1981  -9.1940  -9.1903  -9.1899  -9.1883  -9.1863  -9.1847
    -9.1838  -9.1806  -9.1788  -9.1768  -9.1754  -9.1670  -8.7629  -8.7621
    -8.7465  -8.7457  -8.7376  -8.7368  -8.7167  -8.7159  -8.7044  -8.7036
    -8.6756  -8.6749  -8.6658  -8.6650  -1.5309  -1.1322  -0.5116   4.1910
     4.9205   5.2295   5.4658   6.2638   6.4651   6.6731   6.9887   7.3698
     8.6783   9.9967  10.0679  10.1613  11.7646  11.8954  12.4126  13.0903
    13.4160  13.5458  13.7124  14.1834  14.4645  14.6955  15.2118  16.0246

          k = 0.3961 0.2287 0.0000 (  7726 PWs)   bands (ev):

   -57.4986 -57.4907 -56.9964 -56.9956 -24.4721 -24.4207 -24.1831 -24.0670
   -23.9710 -23.9039 -23.7199 -23.7098 -23.6189 -23.5993 -23.3133 -23.3122
    -9.2144  -9.1986  -9.1961  -9.1950  -9.1937  -9.1898  -9.1825  -9.1798
    -9.1785  -9.1777  -9.1754  -9.1751  -9.1729  -9.1659  -8.7591  -8.7583
    -8.7522  -8.7514  -8.7394  -8.7386  -8.7167  -8.7160  -8.6994  -8.6986
    -8.6745  -8.6737  -8.6654  -8.6647  -1.3165  -0.7705   0.1017   3.1999
     4.2047   5.6541   5.8346   6.0653   6.2816   6.7835   6.8371   7.1102
     8.4839   9.8785  10.8644  10.9654  12.2100  13.2396  13.4520  13.7276
    13.8626  14.1078  14.4512  14.7414  14.8674  15.1526  15.2329  16.2246

          k = 0.3961 0.3201 0.0000 (  7736 PWs)   bands (ev):

   -57.4952 -57.4886 -56.9938 -56.9930 -24.4890 -24.4365 -24.1604 -24.0796
   -23.9991 -23.9443 -23.7302 -23.7243 -23.6158 -23.6021 -23.3450 -23.3443
    -9.2134  -9.1985  -9.1970  -9.1962  -9.1947  -9.1899  -9.1836  -9.1790
    -9.1775  -9.1763  -9.1755  -9.1738  -9.1718  -9.1674  -8.7577  -8.7569
    -8.7527  -8.7519  -8.7404  -8.7396  -8.7163  -8.7155  -8.6992  -8.6984
    -8.6771  -8.6764  -8.6630  -8.6622  -1.2488  -0.6648   0.2958   3.0490
     4.2097   5.6899   5.8983   6.0198   6.2750   6.5762   6.8129   6.9058
     8.6328   9.9878  11.0347  11.0535  12.3486  13.1654  13.3535  13.5812
    14.0764  14.5930  14.9423  15.0931  15.1423  15.2014  15.6347  16.0815

          k = 0.3961 0.4116 0.0000 (  7732 PWs)   bands (ev):

   -57.4920 -57.4870 -56.9916 -56.9908 -24.4566 -24.4054 -24.1342 -24.1282
   -24.0306 -24.0280 -23.7085 -23.7018 -23.6095 -23.6057 -23.4160 -23.4128
    -9.2089  -9.1996  -9.1971  -9.1938  -9.1927  -9.1888  -9.1870  -9.1815
    -9.1789  -9.1759  -9.1753  -9.1732  -9.1716  -9.1713  -8.7557  -8.7549
    -8.7518  -8.7510  -8.7423  -8.7415  -8.7151  -8.7143  -8.7007  -8.6999
    -8.6803  -8.6795  -8.6610  -8.6602  -1.0111  -0.5529   0.2236   3.3294
     4.3699   5.6876   5.9061   5.9711   6.1651   6.2780   6.5111   6.9412
     9.0710   9.9971  10.9123  10.9735  12.4855  13.1227  13.1343  13.6747
    13.9202  14.2216  14.6623  14.8692  15.2131  15.4141  16.3386  16.7421

          k = 0.3961 0.5031 0.0000 (  7741 PWs)   bands (ev):

   -57.4901 -57.4862 -56.9903 -56.9896 -24.3899 -24.3499 -24.2066 -24.1511
   -24.0881 -24.0351 -23.6647 -23.6568 -23.6103 -23.6067 -23.4928 -23.4860
    -9.2034  -9.1995  -9.1968  -9.1929  -9.1912  -9.1888  -9.1860  -9.1848
    -9.1814  -9.1779  -9.1758  -9.1747  -9.1729  -9.1712  -8.7542  -8.7534
    -8.7500  -8.7492  -8.7444  -8.7436  -8.7137  -8.7129  -8.7026  -8.7018
    -8.6826  -8.6818  -8.6599  -8.6592  -0.6738  -0.4905  -0.0572   3.8948
     4.5535   5.3023   5.4945   6.0958   6.1756   6.2854   6.5244   6.7801
     9.7912  10.0809  10.6097  10.7291  12.2191  12.9425  13.1690  13.3809
    13.8518  14.0189  14.3551  14.6991  15.1397  15.3262  16.7585  17.0614

          k = 0.3961 0.5945 0.0000 (  7741 PWs)   bands (ev):

   -57.4901 -57.4862 -56.9903 -56.9896 -24.3899 -24.3499 -24.2066 -24.1511
   -24.0881 -24.0351 -23.6647 -23.6568 -23.6103 -23.6067 -23.4928 -23.4860
    -9.2034  -9.1995  -9.1968  -9.1929  -9.1912  -9.1888  -9.1860  -9.1848
    -9.1814  -9.1779  -9.1758  -9.1747  -9.1729  -9.1712  -8.7542  -8.7534
    -8.7500  -8.7492  -8.7444  -8.7436  -8.7137  -8.7129  -8.7026  -8.7018
    -8.6826  -8.6818  -8.6599  -8.6592  -0.6738  -0.4905  -0.0572   3.8948
     4.5535   5.3023   5.4945   6.0958   6.1756   6.2854   6.5244   6.7801
     9.7913  10.0809  10.6097  10.7291  12.2191  12.9425  13.1690  13.3809
    13.8518  14.0189  14.3551  14.6991  15.1397  15.3262  16.7585  17.0614

          k = 0.3961 0.6860 0.0000 (  7732 PWs)   bands (ev):

   -57.4920 -57.4870 -56.9916 -56.9908 -24.4566 -24.4054 -24.1342 -24.1282
   -24.0306 -24.0280 -23.7085 -23.7018 -23.6095 -23.6057 -23.4160 -23.4128
    -9.2089  -9.1996  -9.1971  -9.1938  -9.1927  -9.1888  -9.1870  -9.1815
    -9.1789  -9.1759  -9.1753  -9.1732  -9.1716  -9.1713  -8.7557  -8.7549
    -8.7518  -8.7510  -8.7423  -8.7415  -8.7151  -8.7143  -8.7007  -8.6999
    -8.6803  -8.6795  -8.6610  -8.6602  -1.0111  -0.5529   0.2236   3.3294
     4.3699   5.6876   5.9062   5.9711   6.1651   6.2780   6.5111   6.9412
     9.0711   9.9971  10.9123  10.9735  12.4855  13.1227  13.1343  13.6747
    13.9202  14.2216  14.6623  14.8692  15.2131  15.4141  16.3386  16.7421

          k = 0.3961-0.3201 0.0000 (  7736 PWs)   bands (ev):

   -57.4952 -57.4886 -56.9938 -56.9930 -24.4890 -24.4365 -24.1604 -24.0796
   -23.9991 -23.9442 -23.7302 -23.7243 -23.6158 -23.6021 -23.3450 -23.3443
    -9.2134  -9.1985  -9.1970  -9.1962  -9.1947  -9.1899  -9.1836  -9.1790
    -9.1775  -9.1763  -9.1755  -9.1738  -9.1718  -9.1674  -8.7577  -8.7569
    -8.7527  -8.7519  -8.7404  -8.7396  -8.7163  -8.7155  -8.6992  -8.6984
    -8.6771  -8.6764  -8.6630  -8.6622  -1.2488  -0.6648   0.2958   3.0490
     4.2097   5.6899   5.8983   6.0198   6.2750   6.5762   6.8129   6.9058
     8.6329   9.9878  11.0346  11.0535  12.3486  13.1654  13.3535  13.5812
    14.0764  14.5930  14.9423  15.0931  15.1422  15.2014  15.6347  16.0815

          k = 0.3961-0.2287 0.0000 (  7726 PWs)   bands (ev):

   -57.4986 -57.4907 -56.9964 -56.9956 -24.4721 -24.4207 -24.1831 -24.0670
   -23.9710 -23.9039 -23.7199 -23.7098 -23.6189 -23.5993 -23.3133 -23.3122
    -9.2144  -9.1986  -9.1961  -9.1950  -9.1937  -9.1898  -9.1825  -9.1798
    -9.1785  -9.1777  -9.1754  -9.1751  -9.1729  -9.1659  -8.7591  -8.7583
    -8.7522  -8.7514  -8.7394  -8.7386  -8.7167  -8.7160  -8.6994  -8.6986
    -8.6745  -8.6737  -8.6654  -8.6647  -1.3165  -0.7705   0.1016   3.1999
     4.2047   5.6541   5.8347   6.0653   6.2816   6.7835   6.8371   7.1102
     8.4839   9.8785  10.8644  10.9654  12.2099  13.2396  13.4519  13.7276
    13.8626  14.1078  14.4512  14.7414  14.8674  15.1526  15.2329  16.2246

          k = 0.3961-0.1372 0.0000 (  7716 PWs)   bands (ev):

   -57.5016 -57.4925 -56.9986 -56.9978 -24.4138 -24.3697 -24.1989 -24.0604
   -23.9779 -23.9236 -23.6753 -23.6672 -23.6141 -23.5977 -23.3247 -23.3240
    -9.2118  -9.1977  -9.1940  -9.1928  -9.1920  -9.1877  -9.1852  -9.1822
    -9.1808  -9.1791  -9.1776  -9.1761  -9.1738  -9.1672  -8.7595  -8.7587
    -8.7505  -8.7497  -8.7393  -8.7385  -8.7166  -8.7158  -8.7011  -8.7003
    -8.6731  -8.6723  -8.6675  -8.6668  -1.2104  -0.8422  -0.2156   3.6704
     4.3724   5.5129   5.9611   6.1226   6.2313   6.6125   6.8150   7.0348
     8.5925   9.9610  10.5360  10.5991  12.1622  12.7263  12.8402  13.3516
    13.7874  14.1281  14.5462  14.7099  14.7324  14.9453  15.3536  16.2597

          k = 0.3961-0.0457 0.0000 (  7693 PWs)   bands (ev):

   -57.5032 -57.4936 -56.9999 -56.9991 -24.3449 -24.3248 -24.2112 -24.0506
   -24.0045 -23.9699 -23.6244 -23.6201 -23.6071 -23.5987 -23.3578 -23.3549
    -9.2067  -9.1970  -9.1932  -9.1915  -9.1900  -9.1882  -9.1861  -9.1834
    -9.1830  -9.1802  -9.1794  -9.1769  -9.1743  -9.1699  -8.7594  -8.7586
    -8.7488  -8.7480  -8.7397  -8.7389  -8.7162  -8.7154  -8.7027  -8.7019
    -8.6729  -8.6721  -8.6686  -8.6678  -0.9934  -0.8683  -0.5399   4.2905
     4.5846   5.3174   5.7696   6.1187   6.2850   6.5331   6.5972   6.8875
     9.1117   9.8671  10.1768  10.3571  11.9706  12.1863  12.3045  13.2171
    13.8457  13.9919  14.4988  14.8938  15.0100  15.0927  16.0118  16.2397

          k = 0.3961 0.0457 0.0000 (  7693 PWs)   bands (ev):

   -57.5032 -57.4936 -56.9999 -56.9991 -24.3449 -24.3248 -24.2112 -24.0506
   -24.0045 -23.9699 -23.6244 -23.6201 -23.6071 -23.5987 -23.3578 -23.3549
    -9.2067  -9.1970  -9.1932  -9.1915  -9.1900  -9.1882  -9.1861  -9.1834
    -9.1830  -9.1802  -9.1794  -9.1769  -9.1743  -9.1699  -8.7594  -8.7586
    -8.7488  -8.7480  -8.7397  -8.7389  -8.7162  -8.7154  -8.7027  -8.7019
    -8.6729  -8.6721  -8.6686  -8.6678  -0.9934  -0.8683  -0.5399   4.2905
     4.5846   5.3173   5.7696   6.1187   6.2850   6.5331   6.5972   6.8875
     9.1117   9.8671  10.1768  10.3571  11.9706  12.1864  12.3045  13.2171
    13.8457  13.9919  14.4988  14.8938  15.0100  15.0927  16.0118  16.2397

          k = 0.3961 0.1372 0.0000 (  7716 PWs)   bands (ev):

   -57.5016 -57.4925 -56.9986 -56.9978 -24.4138 -24.3697 -24.1989 -24.0604
   -23.9779 -23.9236 -23.6753 -23.6672 -23.6141 -23.5977 -23.3247 -23.3240
    -9.2118  -9.1977  -9.1940  -9.1928  -9.1920  -9.1877  -9.1852  -9.1822
    -9.1808  -9.1791  -9.1776  -9.1761  -9.1738  -9.1672  -8.7595  -8.7587
    -8.7505  -8.7497  -8.7393  -8.7385  -8.7166  -8.7158  -8.7011  -8.7003
    -8.6731  -8.6723  -8.6675  -8.6668  -1.2104  -0.8422  -0.2156   3.6704
     4.3724   5.5129   5.9611   6.1226   6.2313   6.6125   6.8150   7.0348
     8.5925   9.9610  10.5360  10.5991  12.1622  12.7263  12.8402  13.3516
    13.7874  14.1281  14.5462  14.7098  14.7323  14.9453  15.3536  16.2597

          k =-0.4753-0.2744 0.0000 (  7696 PWs)   bands (ev):

   -57.4952 -57.4886 -56.9938 -56.9930 -24.5137 -24.4593 -24.1625 -24.0772
   -23.9823 -23.9133 -23.7453 -23.7441 -23.6195 -23.6018 -23.3225 -23.3214
    -9.2152  -9.1984  -9.1983  -9.1963  -9.1960  -9.1908  -9.1821  -9.1774
    -9.1768  -9.1758  -9.1744  -9.1738  -9.1712  -9.1658  -8.7582  -8.7574
    -8.7533  -8.7525  -8.7398  -8.7390  -8.7165  -8.7158  -8.6982  -8.6975
    -8.6765  -8.6757  -8.6628  -8.6621  -1.3488  -0.6847   0.4464   2.8051
     4.1304   5.6160   5.9710   5.9918   6.2195   6.8170   6.8548   6.9550
     8.5543   9.9505  11.1705  11.2150  12.2990  13.5132  13.5960  13.7592
    14.0289  14.3908  14.8055  15.2972  15.3308  15.3388  15.6619  15.7665

          k =-0.4753-0.1829 0.0000 (  7736 PWs)   bands (ev):

   -57.4952 -57.4886 -56.9938 -56.9930 -24.4890 -24.4365 -24.1604 -24.0796
   -23.9991 -23.9443 -23.7302 -23.7243 -23.6158 -23.6021 -23.3450 -23.3443
    -9.2134  -9.1985  -9.1970  -9.1962  -9.1947  -9.1899  -9.1836  -9.1790
    -9.1775  -9.1763  -9.1755  -9.1738  -9.1718  -9.1674  -8.7577  -8.7569
    -8.7527  -8.7519  -8.7404  -8.7396  -8.7163  -8.7155  -8.6992  -8.6984
    -8.6771  -8.6764  -8.6630  -8.6622  -1.2488  -0.6648   0.2958   3.0490
     4.2097   5.6899   5.8983   6.0198   6.2750   6.5762   6.8129   6.9058
     8.6328   9.9878  11.0347  11.0535  12.3486  13.1654  13.3535  13.5812
    14.0764  14.5929  14.9423  15.0931  15.1423  15.2014  15.6347  16.0816

          k =-0.4753-0.0915 0.0000 (  7727 PWs)   bands (ev):

   -57.4952 -57.4886 -56.9938 -56.9930 -24.4264 -24.3839 -24.1638 -24.0965
   -24.0289 -24.0091 -23.6857 -23.6797 -23.6099 -23.6044 -23.4004 -23.3971
    -9.2083  -9.1982  -9.1952  -9.1938  -9.1923  -9.1884  -9.1855  -9.1839
    -9.1795  -9.1772  -9.1763  -9.1746  -9.1737  -9.1700  -8.7567  -8.7559
    -8.7510  -8.7502  -8.7415  -8.7407  -8.7155  -8.7147  -8.7012  -8.7004
    -8.6783  -8.6775  -8.6631  -8.6623  -0.9752  -0.6266  -0.0576   3.6362
     4.4189   5.5262   5.9381   6.1156   6.2620   6.3441   6.4352   6.8458
     9.0615   9.9775  10.6390  10.7245  12.3947  12.6226  13.0692  13.2091
    13.8864  14.3701  14.8542  15.1116  15.1571  15.3471  16.2038  16.4709

          k =-0.4753-0.0000 0.0000 (  7725 PWs)   bands (ev):

   -57.4952 -57.4886 -56.9938 -56.9930 -24.3748 -24.3598 -24.1786 -24.0900
   -24.0858 -24.0193 -23.6500 -23.6490 -23.6107 -23.6080 -23.4368 -23.4308
    -9.2044  -9.1967  -9.1957  -9.1941  -9.1901  -9.1895  -9.1851  -9.1839
    -9.1814  -9.1790  -9.1771  -9.1764  -9.1741  -9.1706  -8.7562  -8.7554
    -8.7500  -8.7492  -8.7423  -8.7415  -8.7150  -8.7142  -8.7023  -8.7015
    -8.6789  -8.6782  -8.6632  -8.6624  -0.6722  -0.6448  -0.3561   4.0853
     4.5485   5.2932   5.7650   6.1379   6.1557   6.3084   6.5522   6.7104
     9.5607   9.9519  10.2321  10.5252  12.1280  12.5342  12.8184  13.1946
    13.9356  14.2783  14.7916  15.1547  15.1752  15.2857  16.6214  16.7569

          k =-0.4753 0.0915 0.0000 (  7727 PWs)   bands (ev):

   -57.4952 -57.4886 -56.9938 -56.9930 -24.4264 -24.3839 -24.1638 -24.0965
   -24.0289 -24.0091 -23.6857 -23.6797 -23.6099 -23.6044 -23.4004 -23.3971
    -9.2083  -9.1982  -9.1952  -9.1938  -9.1923  -9.1884  -9.1855  -9.1839
    -9.1795  -9.1772  -9.1763  -9.1746  -9.1737  -9.1700  -8.7567  -8.7559
    -8.7510  -8.7502  -8.7415  -8.7407  -8.7155  -8.7147  -8.7012  -8.7004
    -8.6783  -8.6775  -8.6631  -8.6623  -0.9752  -0.6266  -0.0576   3.6362
     4.4189   5.5262   5.9381   6.1156   6.2620   6.3441   6.4352   6.8458
     9.0615   9.9775  10.6390  10.7244  12.3947  12.6226  13.0692  13.2091
    13.8864  14.3701  14.8542  15.1116  15.1571  15.3471  16.2038  16.4709

          k =-0.4753 0.1829 0.0000 (  7736 PWs)   bands (ev):

   -57.4952 -57.4886 -56.9938 -56.9930 -24.4890 -24.4365 -24.1604 -24.0796
   -23.9991 -23.9442 -23.7302 -23.7243 -23.6158 -23.6021 -23.3450 -23.3443
    -9.2134  -9.1985  -9.1970  -9.1962  -9.1947  -9.1899  -9.1836  -9.1790
    -9.1775  -9.1763  -9.1755  -9.1738  -9.1718  -9.1674  -8.7577  -8.7569
    -8.7527  -8.7519  -8.7404  -8.7396  -8.7163  -8.7155  -8.6992  -8.6984
    -8.6771  -8.6764  -8.6630  -8.6622  -1.2488  -0.6648   0.2958   3.0490
     4.2097   5.6899   5.8983   6.0198   6.2750   6.5762   6.8129   6.9058
     8.6328   9.9878  11.0346  11.0535  12.3485  13.1654  13.3535  13.5811
    14.0764  14.5929  14.9423  15.0931  15.1423  15.2014  15.6347  16.0816

          k =-0.4753-0.8232 0.0000 (  7696 PWs)   bands (ev):

   -57.4952 -57.4886 -56.9938 -56.9930 -24.5137 -24.4593 -24.1625 -24.0772
   -23.9823 -23.9133 -23.7453 -23.7441 -23.6195 -23.6018 -23.3225 -23.3214
    -9.2152  -9.1984  -9.1983  -9.1963  -9.1960  -9.1908  -9.1821  -9.1774
    -9.1768  -9.1758  -9.1744  -9.1738  -9.1712  -9.1658  -8.7582  -8.7574
    -8.7533  -8.7525  -8.7398  -8.7390  -8.7165  -8.7158  -8.6982  -8.6975
    -8.6765  -8.6757  -8.6628  -8.6621  -1.3488  -0.6847   0.4464   2.8051
     4.1304   5.6160   5.9710   5.9918   6.2195   6.8170   6.8548   6.9550
     8.5543   9.9505  11.1705  11.2150  12.2990  13.5132  13.5960  13.7591
    14.0290  14.3908  14.8055  15.2972  15.3308  15.3388  15.6619  15.7665

     the Fermi energy is    11.0505 ev

!    total energy              =   -2759.16326531 Ry
     estimated scf accuracy    <          7.4E-13 Ry
     smearing contrib. (-TS)   =      -0.00001214 Ry
     internal energy E=F+TS    =   -2759.16325318 Ry

     The total energy is F=E-TS. E is the sum of the following terms:
     one-electron contribution =   -8664.02028872 Ry
     hartree contribution      =    4438.01220893 Ry
     xc contribution           =    -282.39110497 Ry
     ewald contribution        =    1749.23593158 Ry

     convergence has been achieved in  29 iterations

     Forces acting on atoms (cartesian axes, Ry/au):

     atom    1 type  1   force =     0.00000067    0.00000149   -0.00023780
     atom    2 type  2   force =    -0.00000045   -0.00000096    0.00043975
     atom    3 type  1   force =    -0.00000078   -0.00000187    0.00020695
     atom    4 type  2   force =     0.00000056    0.00000127   -0.00082312
     atom    5 type  1   force =     0.00000042    0.00000113    0.00017663
     atom    6 type  2   force =     0.00000000   -0.00000012   -0.00026188
     atom    7 type  1   force =    -0.00000042   -0.00000095    0.00049948

     Total force =     0.001149     Total SCF correction =     0.000010


     Computing stress (Cartesian axis) and pressure

          total   stress  (Ry/bohr**3)                   (kbar)     P=      -10.18
  -0.00006456   0.00000000  -0.00000000           -9.50        0.00       -0.00
   0.00000000  -0.00006457  -0.00000001            0.00       -9.50       -0.00
  -0.00000000  -0.00000001  -0.00007845           -0.00       -0.00      -11.54


     BFGS Geometry Optimization
     Energy error            =      0.0E+00 Ry
     Gradient error          =      8.2E-04 Ry/Bohr

     bfgs converged in   1 scf cycles and   0 bfgs steps
     (criteria: energy <  1.0E-04 Ry, force <  1.0E-03 Ry/Bohr)

     End of BFGS Geometry Optimization

     Final energy             =   -2759.1632653146 Ry
Begin final coordinates

ATOMIC_POSITIONS (alat)
Ta           -0.0000016000        0.6074003000       -0.1614180000
C            -0.0000003000       -0.0000007000        0.2347305000
Ta            0.5260242000        0.3037019000        0.6774684000
C            -0.0000008000        0.6074021000        1.1309545000
Ta           -0.0000003000       -0.0000008000        1.5838175000
C             0.5260243000        0.3037021000        2.0264468000
Ta            0.0000005000        0.6074051000        2.4225670000
End final coordinates



     Writing output data file /scratch/as3359/Ta4C3_loop/Ta.save/
 
     init_run     :     16.30s CPU      8.88s WALL (       1 calls)
     electrons    :    935.43s CPU    478.49s WALL (       1 calls)
     forces       :      5.60s CPU      2.88s WALL (       1 calls)
     stress       :     22.07s CPU     11.27s WALL (       1 calls)

     Called by init_run:
     wfcinit      :     12.83s CPU      6.60s WALL (       1 calls)
     potinit      :      0.75s CPU      0.38s WALL (       1 calls)
     hinit0       :      2.16s CPU      1.52s WALL (       1 calls)

     Called by electrons:
     c_bands      :    766.24s CPU    388.69s WALL (      29 calls)
     sum_band     :    150.26s CPU     78.23s WALL (      29 calls)
     v_of_rho     :      2.93s CPU      1.51s WALL (      30 calls)
     newd         :     15.57s CPU      9.89s WALL (      30 calls)
     mix_rho      :      0.66s CPU      0.34s WALL (      29 calls)

     Called by c_bands:
     init_us_2    :     13.72s CPU      6.89s WALL (    4514 calls)
     cegterg      :    707.02s CPU    358.80s WALL (    2146 calls)

     Called by *egterg:
     cdiaghg      :     48.80s CPU     24.86s WALL (    6839 calls)
     h_psi        :    536.17s CPU    272.66s WALL (    6913 calls)
     s_psi        :     25.94s CPU     12.99s WALL (    6913 calls)
     g_psi        :      2.78s CPU      1.40s WALL (    4693 calls)

     Called by h_psi:
     h_psi:calbec :     28.20s CPU     14.18s WALL (    6913 calls)
     vloc_psi     :    475.80s CPU    242.29s WALL (    6913 calls)
     add_vuspsi   :     27.81s CPU     13.95s WALL (    6913 calls)

     General routines
     calbec       :     41.36s CPU     20.79s WALL (    9429 calls)
     fft          :      1.45s CPU      0.74s WALL (     413 calls)
     ffts         :      0.11s CPU      0.06s WALL (      59 calls)
     fftw         :    524.59s CPU    267.05s WALL (  839804 calls)
     interpolate  :      0.19s CPU      0.10s WALL (      30 calls)
 
     Parallel routines
 
     PWSCF        :  16m21.55s CPU   8m23.47s WALL

 
   This run was terminated on:  23:23:32   6Apr2022            

=------------------------------------------------------------------------------=
   JOB DONE.
=------------------------------------------------------------------------------=
