
     Program PWSCF v.6.8 starts on 25Mar2022 at  1: 8:55 

     This program is part of the open-source Quantum ESPRESSO suite
     for quantum simulation of materials; please cite
         "P. Giannozzi et al., J. Phys.:Condens. Matter 21 395502 (2009);
         "P. Giannozzi et al., J. Phys.:Condens. Matter 29 465901 (2017);
         "P. Giannozzi et al., J. Chem. Phys. 152 154105 (2020);
          URL http://www.quantum-espresso.org", 
     in publications or presentations arising from this work. More details at
     http://www.quantum-espresso.org/quote

     Parallel version (MPI & OpenMP), running on       4 processor cores
     Number of MPI processes:                 2
     Threads/MPI process:                     2

     MPI processes distributed on     1 nodes
     R & G space division:  proc/nbgrp/npool/nimage =       2
     123916 MiB available memory on the printing compute node when the environment starts
 
     Waiting for input...
     Reading input from standard input

     Current dimensions of program PWSCF are:
     Max number of different atomic species (ntypx) = 10
     Max number of k-points (npk) =  40000
     Max angular momentum in pseudopotentials (lmaxx) =  4
     file Ta.pbesol-spfn-rrkjus_psl.1.0.0.UPF: wavefunction(s)  5S 5P renormalized

     Subspace diagonalization in iterative solution of the eigenvalue problem:
     a serial algorithm will be used

 
     Parallelization info
     --------------------
     sticks:   dense  smooth     PW     G-vecs:    dense   smooth      PW
     Min         807     324     99               250461    63482   11403
     Max         808     325    100               250484    63497   11438
     Sum        1615     649    199               500945   126979   22841
 
     Using Slab Decomposition
 


     bravais-lattice index     =            0
     lattice parameter (alat)  =       5.5500  a.u.
     unit-cell volume          =    1601.4729 (a.u.)^3
     number of atoms/cell      =            6
     number of atomic types    =            3
     number of electrons       =        95.00
     number of Kohn-Sham states=           58
     kinetic-energy cutoff     =      70.0000  Ry
     charge density cutoff     =     700.0000  Ry
     scf convergence threshold =      1.0E-12
     mixing beta               =       0.7000
     number of iterations used =            8  plain     mixing
     Exchange-correlation= PBESOL
                           (   1   4  10   8   0   0   0)

     celldm(1)=   5.550000  celldm(2)=   0.000000  celldm(3)=   0.000000
     celldm(4)=   0.000000  celldm(5)=   0.000000  celldm(6)=   0.000000

     crystal axes: (cart. coord. in units of alat)
               a(1) = (   1.040049  -0.000001   0.000000 )  
               a(2) = (  -0.520026   0.900714   0.000000 )  
               a(3) = (   0.000000   0.000000  10.000000 )  

     reciprocal axes: (cart. coord. in units 2 pi/alat)
               b(1) = (  0.961493  0.555116  0.000000 )  
               b(2) = (  0.000001  1.110231  0.000000 )  
               b(3) = (  0.000000  0.000000  0.100000 )  


     PseudoPot. # 1 for Ta read from file:
     /shared/home/as3359/pseudo/Ta.pbesol-spfn-rrkjus_psl.1.0.0.UPF
     MD5 check sum: f099565ffaca9b150a52e9412a28e20b
     Pseudo is Ultrasoft + core correction, Zval = 27.0
     Generated using &quot;atomic&quot; code by A. Dal Corso  v.6.3
     Using radial grid of 1273 points,  8 beta functions with: 
                l(1) =   0
                l(2) =   0
                l(3) =   1
                l(4) =   1
                l(5) =   2
                l(6) =   2
                l(7) =   3
                l(8) =   3
     Q(r) pseudized with 0 coefficients 


     PseudoPot. # 2 for C  read from file:
     /shared/home/as3359/pseudo/C.pbesol-n-rrkjus_psl.1.0.0.UPF
     MD5 check sum: 05995be603a8a7c99da3dc4413f31573
     Pseudo is Ultrasoft + core correction, Zval =  4.0
     Generated using &quot;atomic&quot; code by A. Dal Corso  v.6.3MaX
     Using radial grid of 1073 points,  4 beta functions with: 
                l(1) =   0
                l(2) =   0
                l(3) =   1
                l(4) =   1
     Q(r) pseudized with 0 coefficients 


     PseudoPot. # 3 for O  read from file:
     /shared/home/as3359/pseudo/O.pbesol-n-rrkjus_psl.1.0.0.UPF
     MD5 check sum: dd9bad2534826f832ffc9296591fc5de
     Pseudo is Ultrasoft + core correction, Zval =  6.0
     Generated using &quot;atomic&quot; code by A. Dal Corso  v.6.3MaX
     Using radial grid of 1095 points,  4 beta functions with: 
                l(1) =   0
                l(2) =   0
                l(3) =   1
                l(4) =   1
     Q(r) pseudized with 0 coefficients 


     atomic species   valence    mass     pseudopotential
        Ta            27.00   180.94788     Ta( 1.00)
        C              4.00    12.01070     C ( 1.00)
        O              6.00    15.99940     O ( 1.00)

     No symmetry found



   Cartesian axes

     site n.     atom                  positions (alat units)
         1           Ta  tau(   1) = (   0.0000088   0.6004957   0.6856589  )
         2           C   tau(   2) = (   0.0000053   0.0000108   1.0955604  )
         3           Ta  tau(   3) = (   0.5200282   0.3002450   1.5454419  )
         4           C   tau(   4) = (  -0.0000001   0.6004764   1.9848084  )
         5           Ta  tau(   5) = (  -0.0000085  -0.0000192   2.4469301  )
         6           O   tau(   6) = (  -0.0000110   0.6004554   2.8325448  )

     number of k points=    74  Marzari-Vanderbilt smearing, width (Ry)=  0.0010
                       cart. coord. in units 2pi/alat
        k(    1) = (   0.0000000   0.0000000   0.0000000), wk =   0.0138889
        k(    2) = (   0.0000001   0.0925192   0.0000000), wk =   0.0277778
        k(    3) = (   0.0000002   0.1850385   0.0000000), wk =   0.0277778
        k(    4) = (   0.0000003   0.2775577   0.0000000), wk =   0.0277778
        k(    5) = (   0.0000003   0.3700770   0.0000000), wk =   0.0277778
        k(    6) = (   0.0000004   0.4625962   0.0000000), wk =   0.0277778
        k(    7) = (  -0.0000005  -0.5551155   0.0000000), wk =   0.0138889
        k(    8) = (   0.0801244   0.0462597   0.0000000), wk =   0.0277778
        k(    9) = (   0.0801245   0.1387789   0.0000000), wk =   0.0277778
        k(   10) = (   0.0801246   0.2312982   0.0000000), wk =   0.0277778
        k(   11) = (   0.0801247   0.3238174   0.0000000), wk =   0.0277778
        k(   12) = (   0.0801248   0.4163367   0.0000000), wk =   0.0277778
        k(   13) = (   0.0801249   0.5088559   0.0000000), wk =   0.0277778
        k(   14) = (   0.0801239  -0.5088558   0.0000000), wk =   0.0277778
        k(   15) = (   0.0801240  -0.4163365   0.0000000), wk =   0.0277778
        k(   16) = (   0.0801241  -0.3238173   0.0000000), wk =   0.0277778
        k(   17) = (   0.0801242  -0.2312980   0.0000000), wk =   0.0277778
        k(   18) = (   0.0801243  -0.1387788   0.0000000), wk =   0.0277778
        k(   19) = (   0.0801244  -0.0462595   0.0000000), wk =   0.0277778
        k(   20) = (   0.1602489   0.0925194   0.0000000), wk =   0.0277778
        k(   21) = (   0.1602490   0.1850386   0.0000000), wk =   0.0277778
        k(   22) = (   0.1602491   0.2775579   0.0000000), wk =   0.0277778
        k(   23) = (   0.1602491   0.3700771   0.0000000), wk =   0.0277778
        k(   24) = (   0.1602492   0.4625964   0.0000000), wk =   0.0277778
        k(   25) = (   0.1602493   0.5551156   0.0000000), wk =   0.0277778
        k(   26) = (   0.1602484  -0.4625961   0.0000000), wk =   0.0277778
        k(   27) = (   0.1602485  -0.3700768   0.0000000), wk =   0.0277778
        k(   28) = (   0.1602485  -0.2775576   0.0000000), wk =   0.0277778
        k(   29) = (   0.1602486  -0.1850383   0.0000000), wk =   0.0277778
        k(   30) = (   0.1602487  -0.0925191   0.0000000), wk =   0.0277778
        k(   31) = (   0.1602488   0.0000001   0.0000000), wk =   0.0277778
        k(   32) = (   0.2403733   0.1387791   0.0000000), wk =   0.0277778
        k(   33) = (   0.2403734   0.2312983   0.0000000), wk =   0.0277778
        k(   34) = (   0.2403735   0.3238176   0.0000000), wk =   0.0277778
        k(   35) = (   0.2403736   0.4163368   0.0000000), wk =   0.0277778
        k(   36) = (   0.2403737   0.5088561   0.0000000), wk =   0.0277778
        k(   37) = (   0.2403737   0.6013753   0.0000000), wk =   0.0277778
        k(   38) = (   0.2403728  -0.4163364   0.0000000), wk =   0.0277778
        k(   39) = (   0.2403729  -0.3238171   0.0000000), wk =   0.0277778
        k(   40) = (   0.2403730  -0.2312979   0.0000000), wk =   0.0277778
        k(   41) = (   0.2403731  -0.1387786   0.0000000), wk =   0.0277778
        k(   42) = (   0.2403731  -0.0462594   0.0000000), wk =   0.0277778
        k(   43) = (   0.2403732   0.0462598   0.0000000), wk =   0.0277778
        k(   44) = (   0.3204978   0.1850388   0.0000000), wk =   0.0277778
        k(   45) = (   0.3204978   0.2775580   0.0000000), wk =   0.0277778
        k(   46) = (   0.3204979   0.3700773   0.0000000), wk =   0.0277778
        k(   47) = (   0.3204980   0.4625965   0.0000000), wk =   0.0277778
        k(   48) = (   0.3204981   0.5551158   0.0000000), wk =   0.0277778
        k(   49) = (   0.3204982   0.6476350   0.0000000), wk =   0.0277778
        k(   50) = (   0.3204972  -0.3700767   0.0000000), wk =   0.0277778
        k(   51) = (   0.3204973  -0.2775574   0.0000000), wk =   0.0277778
        k(   52) = (   0.3204974  -0.1850382   0.0000000), wk =   0.0277778
        k(   53) = (   0.3204975  -0.0925190   0.0000000), wk =   0.0277778
        k(   54) = (   0.3204976   0.0000003   0.0000000), wk =   0.0277778
        k(   55) = (   0.3204977   0.0925195   0.0000000), wk =   0.0277778
        k(   56) = (   0.4006222   0.2312985   0.0000000), wk =   0.0277778
        k(   57) = (   0.4006223   0.3238177   0.0000000), wk =   0.0277778
        k(   58) = (   0.4006224   0.4163370   0.0000000), wk =   0.0277778
        k(   59) = (   0.4006225   0.5088562   0.0000000), wk =   0.0277778
        k(   60) = (   0.4006225   0.6013755   0.0000000), wk =   0.0277778
        k(   61) = (   0.4006226   0.6938947   0.0000000), wk =   0.0277778
        k(   62) = (   0.4006217  -0.3238170   0.0000000), wk =   0.0277778
        k(   63) = (   0.4006218  -0.2312977   0.0000000), wk =   0.0277778
        k(   64) = (   0.4006219  -0.1387785   0.0000000), wk =   0.0277778
        k(   65) = (   0.4006219  -0.0462593   0.0000000), wk =   0.0277778
        k(   66) = (   0.4006220   0.0462600   0.0000000), wk =   0.0277778
        k(   67) = (   0.4006221   0.1387792   0.0000000), wk =   0.0277778
        k(   68) = (  -0.4807466  -0.2775582   0.0000000), wk =   0.0138889
        k(   69) = (  -0.4807466  -0.1850389   0.0000000), wk =   0.0277778
        k(   70) = (  -0.4807465  -0.0925197   0.0000000), wk =   0.0277778
        k(   71) = (  -0.4807464  -0.0000004   0.0000000), wk =   0.0277778
        k(   72) = (  -0.4807463   0.0925188   0.0000000), wk =   0.0277778
        k(   73) = (  -0.4807462   0.1850381   0.0000000), wk =   0.0277778
        k(   74) = (  -0.4807472  -0.8326737   0.0000000), wk =   0.0138889

     Dense  grid:   500945 G-vectors     FFT dimensions: (  50,  50, 480)

     Smooth grid:   126979 G-vectors     FFT dimensions: (  32,  32, 300)

     Estimated max dynamical RAM per process >       2.87 GB

     Estimated total dynamical RAM >       5.74 GB

     Initial potential from superposition of free atoms

     starting charge   94.99760, renormalised to   95.00000

     negative rho (up, down):  9.174E-05 0.000E+00
     Starting wfcs are   63 randomized atomic wfcs

     total cpu time spent up to now is       19.3 secs

     Self-consistent Calculation

     iteration #  1     ecut=    70.00 Ry     beta= 0.70
     Davidson diagonalization with overlap
     ethr =  1.00E-02,  avg # of iterations =  2.1
     Minimization algorithm failed to find Fermi energy: reverting to bisection
     Possible cause: smearing is larger than the electronic band-gap.

     negative rho (up, down):  4.410E-08 0.000E+00

     total cpu time spent up to now is       45.4 secs

     total energy              =   -2096.54730077 Ry
     estimated scf accuracy    <       3.18443857 Ry

     iteration #  2     ecut=    70.00 Ry     beta= 0.70
     Davidson diagonalization with overlap
     ethr =  3.35E-03,  avg # of iterations =  9.1
     Minimization algorithm failed to find Fermi energy: reverting to bisection
     Possible cause: smearing is larger than the electronic band-gap.

     negative rho (up, down):  1.391E-05 0.000E+00

     total cpu time spent up to now is       95.1 secs

     total energy              =   -2069.41036573 Ry
     estimated scf accuracy    <    1140.61173773 Ry

     iteration #  3     ecut=    70.00 Ry     beta= 0.70
     Davidson diagonalization with overlap
     ethr =  3.35E-03,  avg # of iterations = 10.6

     negative rho (up, down):  7.960E-06 0.000E+00

     total cpu time spent up to now is      148.3 secs

     total energy              =   -2095.19176154 Ry
     estimated scf accuracy    <      45.61452606 Ry

     iteration #  4     ecut=    70.00 Ry     beta= 0.70
     Davidson diagonalization with overlap
     ethr =  3.35E-03,  avg # of iterations =  6.3

     negative rho (up, down):  5.074E-06 0.000E+00

     total cpu time spent up to now is      180.7 secs

     total energy              =   -2095.97324059 Ry
     estimated scf accuracy    <      85.63526828 Ry

     iteration #  5     ecut=    70.00 Ry     beta= 0.70
     Davidson diagonalization with overlap
     ethr =  3.35E-03,  avg # of iterations =  5.0

     negative rho (up, down):  2.079E-06 0.000E+00

     total cpu time spent up to now is      208.9 secs

     total energy              =   -2098.60570317 Ry
     estimated scf accuracy    <       3.87454616 Ry

     iteration #  6     ecut=    70.00 Ry     beta= 0.70
     Davidson diagonalization with overlap
     ethr =  3.35E-03,  avg # of iterations =  1.5

     negative rho (up, down):  4.005E-06 0.000E+00

     total cpu time spent up to now is      232.2 secs

     total energy              =   -2098.73060846 Ry
     estimated scf accuracy    <       0.39358956 Ry

     iteration #  7     ecut=    70.00 Ry     beta= 0.70
     Davidson diagonalization with overlap
     ethr =  4.14E-04,  avg # of iterations =  9.3

     negative rho (up, down):  6.768E-06 0.000E+00

     total cpu time spent up to now is      265.0 secs

     total energy              =   -2098.75870196 Ry
     estimated scf accuracy    <       0.13868800 Ry

     iteration #  8     ecut=    70.00 Ry     beta= 0.70
     Davidson diagonalization with overlap
     ethr =  1.46E-04,  avg # of iterations =  2.9

     negative rho (up, down):  3.331E-05 0.000E+00

     total cpu time spent up to now is      289.8 secs

     total energy              =   -2098.73884050 Ry
     estimated scf accuracy    <       0.10015350 Ry

     iteration #  9     ecut=    70.00 Ry     beta= 0.70
     Davidson diagonalization with overlap
     ethr =  1.05E-04,  avg # of iterations =  2.7

     negative rho (up, down):  5.296E-05 0.000E+00

     total cpu time spent up to now is      314.9 secs

     total energy              =   -2098.73908866 Ry
     estimated scf accuracy    <       0.05422088 Ry

     iteration # 10     ecut=    70.00 Ry     beta= 0.70
     Davidson diagonalization with overlap
     ethr =  5.71E-05,  avg # of iterations =  2.4

     negative rho (up, down):  6.221E-05 0.000E+00

     total cpu time spent up to now is      339.3 secs

     total energy              =   -2098.73687802 Ry
     estimated scf accuracy    <       0.03918714 Ry

     iteration # 11     ecut=    70.00 Ry     beta= 0.70
     Davidson diagonalization with overlap
     ethr =  4.12E-05,  avg # of iterations =  1.7

     negative rho (up, down):  7.973E-05 0.000E+00

     total cpu time spent up to now is      362.6 secs

     total energy              =   -2098.72739097 Ry
     estimated scf accuracy    <       0.03331972 Ry

     iteration # 12     ecut=    70.00 Ry     beta= 0.70
     Davidson diagonalization with overlap
     ethr =  3.51E-05,  avg # of iterations =  3.3

     negative rho (up, down):  6.876E-05 0.000E+00

     total cpu time spent up to now is      388.4 secs

     total energy              =   -2098.72928008 Ry
     estimated scf accuracy    <       0.00945007 Ry

     iteration # 13     ecut=    70.00 Ry     beta= 0.70
     Davidson diagonalization with overlap
     ethr =  9.95E-06,  avg # of iterations =  2.4

     negative rho (up, down):  7.396E-05 0.000E+00

     total cpu time spent up to now is      412.7 secs

     total energy              =   -2098.72953609 Ry
     estimated scf accuracy    <       0.00110522 Ry

     iteration # 14     ecut=    70.00 Ry     beta= 0.70
     Davidson diagonalization with overlap
     ethr =  1.16E-06,  avg # of iterations =  7.9

     negative rho (up, down):  7.516E-05 0.000E+00

     total cpu time spent up to now is      443.4 secs

     total energy              =   -2098.72960839 Ry
     estimated scf accuracy    <       0.00028540 Ry

     iteration # 15     ecut=    70.00 Ry     beta= 0.70
     Davidson diagonalization with overlap
     ethr =  3.00E-07,  avg # of iterations =  2.0

     negative rho (up, down):  9.360E-05 0.000E+00

     total cpu time spent up to now is      468.4 secs

     total energy              =   -2098.72960935 Ry
     estimated scf accuracy    <       0.00032414 Ry

     iteration # 16     ecut=    70.00 Ry     beta= 0.70
     Davidson diagonalization with overlap
     ethr =  3.00E-07,  avg # of iterations =  1.8

     negative rho (up, down):  8.535E-05 0.000E+00

     total cpu time spent up to now is      491.8 secs

     total energy              =   -2098.72961148 Ry
     estimated scf accuracy    <       0.00111709 Ry

     iteration # 17     ecut=    70.00 Ry     beta= 0.70
     Davidson diagonalization with overlap
     ethr =  3.00E-07,  avg # of iterations =  1.1

     negative rho (up, down):  9.508E-05 0.000E+00

     total cpu time spent up to now is      514.4 secs

     total energy              =   -2098.72962808 Ry
     estimated scf accuracy    <       0.00017088 Ry

     iteration # 18     ecut=    70.00 Ry     beta= 0.70
     Davidson diagonalization with overlap
     ethr =  1.80E-07,  avg # of iterations =  1.1

     negative rho (up, down):  9.703E-05 0.000E+00

     total cpu time spent up to now is      537.0 secs

     total energy              =   -2098.72963329 Ry
     estimated scf accuracy    <       0.00000265 Ry

     iteration # 19     ecut=    70.00 Ry     beta= 0.70
     Davidson diagonalization with overlap
     ethr =  2.79E-09,  avg # of iterations =  2.9

     negative rho (up, down):  9.812E-05 0.000E+00

     total cpu time spent up to now is      565.0 secs

     total energy              =   -2098.72963363 Ry
     estimated scf accuracy    <       0.00000275 Ry

     iteration # 20     ecut=    70.00 Ry     beta= 0.70
     Davidson diagonalization with overlap
     ethr =  2.79E-09,  avg # of iterations =  2.0

     negative rho (up, down):  9.929E-05 0.000E+00

     total cpu time spent up to now is      589.8 secs

     total energy              =   -2098.72963388 Ry
     estimated scf accuracy    <       0.00000010 Ry

     iteration # 21     ecut=    70.00 Ry     beta= 0.70
     Davidson diagonalization with overlap
     ethr =  1.10E-10,  avg # of iterations =  4.2

     negative rho (up, down):  1.003E-04 0.000E+00

     total cpu time spent up to now is      618.3 secs

     total energy              =   -2098.72963390 Ry
     estimated scf accuracy    <       0.00000001 Ry

     iteration # 22     ecut=    70.00 Ry     beta= 0.70
     Davidson diagonalization with overlap
     ethr =  1.06E-11,  avg # of iterations =  3.4

     negative rho (up, down):  1.004E-04 0.000E+00

     total cpu time spent up to now is      647.1 secs

     total energy              =   -2098.72963390 Ry
     estimated scf accuracy    <          3.5E-09 Ry

     iteration # 23     ecut=    70.00 Ry     beta= 0.70
     Davidson diagonalization with overlap
     ethr =  3.67E-12,  avg # of iterations =  2.0

     negative rho (up, down):  1.006E-04 0.000E+00

     total cpu time spent up to now is      671.9 secs

     total energy              =   -2098.72963390 Ry
     estimated scf accuracy    <          6.7E-10 Ry

     iteration # 24     ecut=    70.00 Ry     beta= 0.70
     Davidson diagonalization with overlap
     ethr =  7.02E-13,  avg # of iterations =  3.2

     negative rho (up, down):  1.006E-04 0.000E+00

     total cpu time spent up to now is      698.9 secs

     total energy              =   -2098.72963390 Ry
     estimated scf accuracy    <          3.7E-11 Ry

     iteration # 25     ecut=    70.00 Ry     beta= 0.70
     Davidson diagonalization with overlap
     ethr =  1.00E-13,  avg # of iterations =  3.2

     negative rho (up, down):  1.006E-04 0.000E+00

     total cpu time spent up to now is      725.7 secs

     total energy              =   -2098.72963390 Ry
     estimated scf accuracy    <          9.7E-12 Ry

     iteration # 26     ecut=    70.00 Ry     beta= 0.70
     Davidson diagonalization with overlap
     ethr =  1.00E-13,  avg # of iterations =  1.0

     negative rho (up, down):  1.006E-04 0.000E+00

     total cpu time spent up to now is      748.1 secs

     total energy              =   -2098.72963390 Ry
     estimated scf accuracy    <          5.9E-12 Ry

     iteration # 27     ecut=    70.00 Ry     beta= 0.70
     Davidson diagonalization with overlap
     ethr =  1.00E-13,  avg # of iterations =  1.0

     negative rho (up, down):  1.006E-04 0.000E+00

     total cpu time spent up to now is      770.5 secs

     End of self-consistent calculation

          k = 0.0000 0.0000 0.0000 ( 15945 PWs)   bands (ev):

   -66.3835 -66.2528 -65.8445 -33.2333 -32.8362 -32.6108 -32.6108 -32.4645
   -32.4383 -32.4382 -31.9679 -31.9679 -18.0229 -18.0021 -17.9848 -17.9777
   -17.9777 -17.9597 -17.9596 -17.9308 -17.8685 -17.8593 -17.8593 -17.8444
   -17.8444 -17.7991 -17.5352 -17.4924 -17.4924 -17.4750 -17.4750 -17.4635
   -17.4005 -16.7466 -11.7208  -9.4832  -5.8161  -3.5264  -2.7966  -2.7965
    -2.2529  -2.2529  -0.9377  -0.2119  -0.2118   1.4108   2.0610   2.0610
     2.1729   3.4685   3.4688   4.0673   4.4600   4.4602   5.3798   6.3326
     6.3327   6.3372

          k = 0.0000 0.0925 0.0000 ( 15917 PWs)   bands (ev):

   -66.3803 -66.2497 -65.8415 -33.2180 -32.8355 -32.6595 -32.6229 -32.4970
   -32.4536 -32.4492 -32.0148 -31.9785 -18.0132 -17.9991 -17.9834 -17.9781
   -17.9763 -17.9612 -17.9600 -17.9337 -17.8666 -17.8597 -17.8580 -17.8461
   -17.8448 -17.8020 -17.5338 -17.4940 -17.4927 -17.4755 -17.4738 -17.4607
   -17.4033 -16.7053 -11.5699  -9.4662  -5.6327  -3.5599  -3.0146  -2.7120
    -2.3036  -2.2100  -0.8165  -0.6844  -0.3530   1.3579   1.6754   2.1940
     2.2540   3.1938   3.5501   4.1729   4.5880   4.9978   5.4274   6.2323
     6.4177   6.7910

          k = 0.0000 0.1850 0.0000 ( 15863 PWs)   bands (ev):

   -66.3714 -66.2411 -65.8333 -33.1761 -32.8712 -32.7523 -32.6561 -32.6336
   -32.4792 -32.4463 -32.1404 -32.0074 -17.9935 -17.9893 -17.9810 -17.9766
   -17.9725 -17.9653 -17.9612 -17.9414 -17.8623 -17.8590 -17.8543 -17.8504
   -17.8459 -17.8097 -17.5301 -17.4982 -17.4938 -17.4765 -17.4705 -17.4533
   -17.4107 -16.6000 -11.1499  -9.4403  -5.1432  -3.6884  -3.3641  -2.5229
    -2.4617  -2.1277  -1.6126  -0.6848  -0.6355   0.9382   1.1719   2.4341
     2.6808   2.9176   3.7399   4.4656   4.8881   5.2475   5.6788   6.5748
     6.6371   7.1373

          k = 0.0000 0.2776 0.0000 ( 15813 PWs)   bands (ev):

   -66.3594 -66.2294 -65.8222 -33.1214 -33.0255 -32.8433 -32.7365 -32.7009
   -32.5198 -32.4389 -32.3052 -32.0467 -17.9879 -17.9784 -17.9740 -17.9696
   -17.9679 -17.9639 -17.9621 -17.9500 -17.8607 -17.8557 -17.8510 -17.8500
   -17.8473 -17.8193 -17.5254 -17.5039 -17.4954 -17.4771 -17.4661 -17.4432
   -17.4204 -16.4758 -10.5643  -9.4293  -4.7123  -3.7214  -3.5780  -2.9428
    -2.4370  -2.1243  -2.0834  -1.0165  -0.7376   0.6562   1.0371   2.2198
     3.1922   3.5064   4.1864   4.5074   5.1509   5.4462   6.1182   6.8421
     6.9500   7.9763

          k = 0.0000 0.3701 0.0000 ( 15805 PWs)   bands (ev):

   -66.3473 -66.2178 -65.8110 -33.2006 -33.1047 -32.9730 -32.7453 -32.7330
   -32.5601 -32.4674 -32.4266 -32.0857 -17.9898 -17.9774 -17.9713 -17.9677
   -17.9644 -17.9620 -17.9547 -17.9461 -17.8629 -17.8548 -17.8519 -17.8437
   -17.8404 -17.8274 -17.5212 -17.5092 -17.4974 -17.4773 -17.4615 -17.4330
   -17.4295 -16.3751 -10.0689  -9.2955  -4.9535  -3.9036  -3.3822  -3.0960
    -2.5884  -2.3365  -2.0649  -1.5276  -0.5618   0.5540   1.3972   2.0554
     3.6693   4.4725   4.5467   4.9491   5.5046   5.6563   6.6045   7.0499
     7.1620   8.3630

          k = 0.0000 0.4626 0.0000 ( 15836 PWs)   bands (ev):

   -66.3384 -66.2092 -65.8028 -33.3282 -33.1900 -32.9730 -32.7775 -32.7271
   -32.5895 -32.5691 -32.4260 -32.1140 -17.9919 -17.9804 -17.9774 -17.9632
   -17.9597 -17.9558 -17.9551 -17.9388 -17.8665 -17.8553 -17.8505 -17.8401
   -17.8318 -17.8307 -17.5184 -17.5130 -17.4990 -17.4770 -17.4582 -17.4357
   -17.4254 -16.3162  -9.9570  -8.8572  -5.5009  -4.0667  -3.3700  -2.7999
    -2.7727  -2.5036  -2.0761  -1.8714  -0.3412   0.5867   1.8957   2.2094
     4.0496   4.6960   5.2534   5.6068   6.1563   6.2998   6.5551   7.1928
     7.3812   8.3750

          k =-0.0000-0.5551 0.0000 ( 15834 PWs)   bands (ev):

   -66.3352 -66.2061 -65.7998 -33.3746 -33.2323 -32.9631 -32.7893 -32.7244
   -32.6049 -32.6002 -32.4249 -32.1243 -17.9928 -17.9815 -17.9799 -17.9615
   -17.9595 -17.9544 -17.9524 -17.9370 -17.8678 -17.8569 -17.8486 -17.8389
   -17.8331 -17.8266 -17.5175 -17.5144 -17.4997 -17.4767 -17.4569 -17.4379
   -17.4226 -16.2977  -9.9644  -8.5994  -5.7826  -4.0954  -3.3369  -2.8457
    -2.7938  -2.5541  -2.0864  -1.9588  -0.2521   0.6222   2.0409   2.4645
     4.2373   4.7589   5.4914   5.9844   6.4135   6.6492   6.8818   7.0880
     7.3936   8.2339

          k = 0.0801 0.0463 0.0000 ( 15917 PWs)   bands (ev):

   -66.3803 -66.2497 -65.8415 -33.2180 -32.8355 -32.6595 -32.6230 -32.4970
   -32.4536 -32.4492 -32.0148 -31.9785 -18.0132 -17.9991 -17.9834 -17.9781
   -17.9763 -17.9612 -17.9600 -17.9337 -17.8666 -17.8597 -17.8580 -17.8461
   -17.8448 -17.8020 -17.5338 -17.4940 -17.4927 -17.4755 -17.4738 -17.4607
   -17.4033 -16.7052 -11.5699  -9.4662  -5.6327  -3.5599  -3.0146  -2.7121
    -2.3036  -2.2100  -0.8165  -0.6844  -0.3529   1.3579   1.6753   2.1940
     2.2541   3.1938   3.5499   4.1729   4.5880   4.9978   5.4273   6.2323
     6.4179   6.7912

          k = 0.0801 0.1388 0.0000 ( 15879 PWs)   bands (ev):

   -66.3742 -66.2438 -65.8359 -33.1893 -32.8496 -32.7297 -32.6505 -32.5865
   -32.4740 -32.4474 -32.0985 -32.0008 -17.9980 -17.9932 -17.9810 -17.9787
   -17.9733 -17.9641 -17.9606 -17.9391 -17.8630 -17.8602 -17.8553 -17.8491
   -17.8455 -17.8074 -17.5312 -17.4968 -17.4935 -17.4762 -17.4716 -17.4556
   -17.4084 -16.6320 -11.2836  -9.4454  -5.2877  -3.6428  -3.2894  -2.5872
    -2.4106  -2.1398  -1.2722  -0.7879  -0.5961   1.0657   1.4345   2.2170
     2.4399   3.1268   3.6129   4.5086   4.6455   5.3418   5.7188   6.3896
     6.5325   6.9470

          k = 0.0801 0.2313 0.0000 ( 15853 PWs)   bands (ev):

   -66.3638 -66.2337 -65.8263 -33.1402 -32.9540 -32.7942 -32.7189 -32.6884
   -32.5166 -32.4398 -32.2375 -32.0412 -17.9870 -17.9814 -17.9782 -17.9701
   -17.9688 -17.9677 -17.9620 -17.9477 -17.8609 -17.8557 -17.8538 -17.8507
   -17.8467 -17.8162 -17.5270 -17.5016 -17.4949 -17.4769 -17.4679 -17.4469
   -17.4170 -16.5176 -10.7718  -9.4346  -4.7319  -3.8098  -3.5293  -2.7541
    -2.4626  -2.0950  -1.8678  -1.1559  -0.5941   0.5989   1.3262   2.1732
     2.6361   3.5552   3.8795   4.5668   5.1234   5.6207   6.0418   6.6453
     6.9207   7.1893

          k = 0.0801 0.3238 0.0000 ( 15839 PWs)   bands (ev):

   -66.3517 -66.2220 -65.8151 -33.1188 -33.0944 -32.9282 -32.7528 -32.7266
   -32.5650 -32.4350 -32.3889 -32.0876 -17.9868 -17.9763 -17.9720 -17.9702
   -17.9670 -17.9621 -17.9549 -17.9506 -17.8611 -17.8571 -17.8506 -17.8452
   -17.8444 -17.8254 -17.5224 -17.5069 -17.4969 -17.4772 -17.4636 -17.4368
   -17.4265 -16.4063 -10.1845  -9.4057  -4.6114  -3.8100  -3.5007  -3.2190
    -2.5417  -2.2983  -1.9891  -1.4028  -0.7373   0.6629   1.2151   1.9974
     3.2197   3.9755   4.5123   4.9199   5.4070   5.9187   6.4489   6.8190
     7.2203   7.9007

          k = 0.0801 0.4163 0.0000 ( 15822 PWs)   bands (ev):

   -66.3413 -66.2119 -65.8054 -33.2643 -33.1362 -32.9774 -32.7976 -32.7218
   -32.6067 -32.5179 -32.4257 -32.1273 -17.9892 -17.9791 -17.9742 -17.9663
   -17.9613 -17.9593 -17.9559 -17.9396 -17.8647 -17.8538 -17.8535 -17.8415
   -17.8344 -17.8314 -17.5188 -17.5112 -17.4989 -17.4769 -17.4600 -17.4344
   -17.4278 -16.3282  -9.8878  -9.1027  -5.0991  -4.0029  -3.4598  -2.9124
    -2.7073  -2.4849  -2.0856  -1.7190  -0.6013   0.6797   1.6748   1.9817
     3.8107   4.3245   5.0062   5.5258   5.9601   6.2699   6.6153   7.0981
     7.4649   8.2745

          k = 0.0801 0.5089 0.0000 ( 15827 PWs)   bands (ev):

   -66.3352 -66.2061 -65.7998 -33.3477 -33.2064 -32.9608 -32.8236 -32.7181
   -32.6315 -32.5835 -32.4236 -32.1502 -17.9908 -17.9808 -17.9791 -17.9624
   -17.9609 -17.9562 -17.9528 -17.9354 -17.8669 -17.8566 -17.8499 -17.8399
   -17.8348 -17.8263 -17.5169 -17.5136 -17.5001 -17.4765 -17.4579 -17.4387
   -17.4226 -16.2908  -9.8773  -8.6869  -5.5692  -4.0798  -3.4006  -2.9920
    -2.6507  -2.5289  -2.1918  -1.8542  -0.4634   0.7162   2.0478   2.2473
     4.1698   4.5622   5.5941   5.7706   6.3613   6.4886   6.8133   7.2601
     7.6293   8.1781

          k = 0.0801-0.5089 0.0000 ( 15827 PWs)   bands (ev):

   -66.3352 -66.2061 -65.7998 -33.3477 -33.2064 -32.9608 -32.8236 -32.7181
   -32.6315 -32.5835 -32.4236 -32.1502 -17.9908 -17.9808 -17.9791 -17.9624
   -17.9609 -17.9562 -17.9528 -17.9354 -17.8669 -17.8566 -17.8499 -17.8399
   -17.8348 -17.8263 -17.5169 -17.5136 -17.5001 -17.4765 -17.4579 -17.4387
   -17.4226 -16.2908  -9.8773  -8.6869  -5.5692  -4.0798  -3.4006  -2.9919
    -2.6507  -2.5289  -2.1918  -1.8542  -0.4634   0.7162   2.0478   2.2473
     4.1698   4.5622   5.5941   5.7706   6.3613   6.4886   6.8134   7.2601
     7.6293   8.1781

          k = 0.0801-0.4163 0.0000 ( 15822 PWs)   bands (ev):

   -66.3413 -66.2119 -65.8054 -33.2643 -33.1362 -32.9773 -32.7976 -32.7218
   -32.6067 -32.5179 -32.4257 -32.1273 -17.9892 -17.9791 -17.9742 -17.9663
   -17.9613 -17.9593 -17.9559 -17.9396 -17.8647 -17.8538 -17.8535 -17.8415
   -17.8344 -17.8314 -17.5188 -17.5112 -17.4989 -17.4769 -17.4600 -17.4344
   -17.4278 -16.3282  -9.8878  -9.1027  -5.0991  -4.0029  -3.4598  -2.9124
    -2.7073  -2.4849  -2.0856  -1.7190  -0.6013   0.6797   1.6748   1.9817
     3.8107   4.3245   5.0063   5.5258   5.9601   6.2699   6.6154   7.0981
     7.4649   8.2745

          k = 0.0801-0.3238 0.0000 ( 15839 PWs)   bands (ev):

   -66.3517 -66.2220 -65.8151 -33.1188 -33.0944 -32.9281 -32.7528 -32.7266
   -32.5650 -32.4350 -32.3889 -32.0876 -17.9868 -17.9763 -17.9720 -17.9702
   -17.9670 -17.9621 -17.9549 -17.9506 -17.8611 -17.8571 -17.8506 -17.8452
   -17.8444 -17.8254 -17.5224 -17.5069 -17.4969 -17.4772 -17.4636 -17.4368
   -17.4265 -16.4063 -10.1845  -9.4057  -4.6114  -3.8100  -3.5007  -3.2191
    -2.5417  -2.2983  -1.9891  -1.4028  -0.7374   0.6630   1.2151   1.9974
     3.2196   3.9755   4.5123   4.9199   5.4070   5.9187   6.4488   6.8189
     7.2203   7.9007

          k = 0.0801-0.2313 0.0000 ( 15853 PWs)   bands (ev):

   -66.3638 -66.2337 -65.8263 -33.1402 -32.9540 -32.7942 -32.7189 -32.6884
   -32.5166 -32.4398 -32.2375 -32.0412 -17.9870 -17.9814 -17.9782 -17.9701
   -17.9688 -17.9677 -17.9620 -17.9477 -17.8609 -17.8557 -17.8538 -17.8507
   -17.8467 -17.8162 -17.5270 -17.5016 -17.4949 -17.4769 -17.4679 -17.4469
   -17.4170 -16.5176 -10.7718  -9.4346  -4.7319  -3.8099  -3.5293  -2.7541
    -2.4626  -2.0950  -1.8678  -1.1559  -0.5941   0.5989   1.3262   2.1733
     2.6360   3.5553   3.8794   4.5669   5.1234   5.6207   6.0418   6.6453
     6.9207   7.1893

          k = 0.0801-0.1388 0.0000 ( 15879 PWs)   bands (ev):

   -66.3742 -66.2438 -65.8359 -33.1893 -32.8496 -32.7297 -32.6505 -32.5865
   -32.4740 -32.4474 -32.0985 -32.0008 -17.9980 -17.9932 -17.9810 -17.9787
   -17.9733 -17.9641 -17.9606 -17.9391 -17.8630 -17.8602 -17.8553 -17.8491
   -17.8455 -17.8074 -17.5312 -17.4968 -17.4935 -17.4762 -17.4716 -17.4556
   -17.4084 -16.6320 -11.2836  -9.4454  -5.2877  -3.6428  -3.2895  -2.5872
    -2.4106  -2.1398  -1.2722  -0.7879  -0.5961   1.0657   1.4345   2.2169
     2.4399   3.1268   3.6130   4.5087   4.6455   5.3418   5.7188   6.3896
     6.5324   6.9471

          k = 0.0801-0.0463 0.0000 ( 15917 PWs)   bands (ev):

   -66.3803 -66.2497 -65.8415 -33.2180 -32.8355 -32.6595 -32.6230 -32.4970
   -32.4536 -32.4492 -32.0148 -31.9785 -18.0132 -17.9991 -17.9834 -17.9781
   -17.9763 -17.9612 -17.9600 -17.9337 -17.8666 -17.8597 -17.8580 -17.8461
   -17.8448 -17.8020 -17.5338 -17.4940 -17.4927 -17.4755 -17.4738 -17.4607
   -17.4033 -16.7053 -11.5699  -9.4662  -5.6327  -3.5599  -3.0146  -2.7120
    -2.3036  -2.2100  -0.8165  -0.6844  -0.3529   1.3579   1.6753   2.1940
     2.2541   3.1938   3.5500   4.1729   4.5880   4.9978   5.4274   6.2323
     6.4178   6.7910

          k = 0.1602 0.0925 0.0000 ( 15863 PWs)   bands (ev):

   -66.3714 -66.2411 -65.8333 -33.1761 -32.8712 -32.7523 -32.6561 -32.6336
   -32.4791 -32.4463 -32.1404 -32.0074 -17.9935 -17.9893 -17.9810 -17.9766
   -17.9725 -17.9653 -17.9612 -17.9414 -17.8623 -17.8589 -17.8543 -17.8504
   -17.8459 -17.8097 -17.5301 -17.4982 -17.4938 -17.4765 -17.4705 -17.4533
   -17.4107 -16.6000 -11.1498  -9.4403  -5.1431  -3.6884  -3.3641  -2.5230
    -2.4617  -2.1277  -1.6127  -0.6847  -0.6355   0.9381   1.1719   2.4341
     2.6808   2.9174   3.7398   4.4655   4.8881   5.2475   5.6789   6.5747
     6.6373   7.1373

          k = 0.1602 0.1850 0.0000 ( 15853 PWs)   bands (ev):

   -66.3638 -66.2337 -65.8263 -33.1402 -32.9540 -32.7942 -32.7189 -32.6884
   -32.5166 -32.4398 -32.2375 -32.0412 -17.9870 -17.9814 -17.9782 -17.9701
   -17.9688 -17.9677 -17.9620 -17.9477 -17.8609 -17.8557 -17.8538 -17.8507
   -17.8467 -17.8162 -17.5270 -17.5016 -17.4949 -17.4769 -17.4679 -17.4469
   -17.4170 -16.5176 -10.7718  -9.4346  -4.7318  -3.8098  -3.5293  -2.7540
    -2.4626  -2.0949  -1.8678  -1.1559  -0.5941   0.5989   1.3263   2.1732
     2.6361   3.5552   3.8794   4.5669   5.1234   5.6207   6.0419   6.6453
     6.9207   7.1893

          k = 0.1602 0.2776 0.0000 ( 15846 PWs)   bands (ev):

   -66.3533 -66.2236 -65.8166 -33.0953 -33.0755 -32.9026 -32.7585 -32.7266
   -32.5811 -32.4327 -32.3534 -32.0999 -17.9819 -17.9799 -17.9734 -17.9723
   -17.9655 -17.9609 -17.9564 -17.9522 -17.8607 -17.8577 -17.8507 -17.8458
   -17.8452 -17.8250 -17.5227 -17.5058 -17.4969 -17.4771 -17.4646 -17.4382
   -17.4256 -16.4170 -10.2248  -9.4368  -4.2360  -4.0053  -3.6005  -3.2032
    -2.5481  -2.1682  -2.0939  -1.4467  -0.6696   0.5294   1.3614   1.9162
     2.8664   3.8638   4.4997   4.8897   5.6224   6.2010   6.5252   6.6955
     7.1616   7.3828

          k = 0.1602 0.3701 0.0000 ( 15830 PWs)   bands (ev):

   -66.3429 -66.2135 -65.8069 -33.1949 -33.0897 -32.9741 -32.8345 -32.7180
   -32.6496 -32.4604 -32.4260 -32.1638 -17.9839 -17.9778 -17.9730 -17.9695
   -17.9633 -17.9627 -17.9569 -17.9391 -17.8630 -17.8570 -17.8524 -17.8421
   -17.8365 -17.8324 -17.5185 -17.5094 -17.4992 -17.4766 -17.4618 -17.4343
   -17.4291 -16.3308  -9.7273  -9.3391  -4.5328  -3.9559  -3.5928  -3.1821
    -2.6683  -2.5249  -2.1933  -1.5122  -0.7664   0.7857   1.2835   1.9374
     3.4389   3.9989   4.8562   5.7115   6.0219   6.3405   6.9096   7.0871
     7.5457   8.0021

          k = 0.1602 0.4626 0.0000 ( 15824 PWs)   bands (ev):

   -66.3352 -66.2061 -65.7998 -33.2813 -33.1456 -32.9618 -32.8927 -32.7132
   -32.6987 -32.5331 -32.4223 -32.2119 -17.9857 -17.9799 -17.9756 -17.9673
   -17.9639 -17.9592 -17.9531 -17.9321 -17.8651 -17.8557 -17.8534 -17.8412
   -17.8386 -17.8261 -17.5156 -17.5117 -17.5013 -17.4757 -17.4601 -17.4403
   -17.4227 -16.2769  -9.6480  -8.9124  -5.0364  -4.0410  -3.6107  -2.9964
    -2.7260  -2.5501  -2.2720  -1.7333  -0.6795   0.8253   1.7788   2.0390
     4.0171   4.3463   4.9628   5.7421   6.3600   6.4116   7.2053   7.4441
     7.9129   8.2980

          k = 0.1602 0.5551 0.0000 ( 15816 PWs)   bands (ev):

   -66.3324 -66.2033 -65.7972 -33.3128 -33.1711 -32.9537 -32.9121 -32.7210
   -32.7076 -32.5588 -32.4207 -32.2297 -17.9862 -17.9802 -17.9788 -17.9657
   -17.9622 -17.9595 -17.9511 -17.9301 -17.8656 -17.8575 -17.8513 -17.8417
   -17.8398 -17.8225 -17.5146 -17.5125 -17.5021 -17.4753 -17.4596 -17.4424
   -17.4204 -16.2591  -9.6562  -8.6895  -5.2701  -4.0892  -3.5375  -3.0662
    -2.7885  -2.4914  -2.2022  -1.8658  -0.6340   0.8564   2.0488   2.1661
     4.2448   4.5392   5.3744   5.4517   5.9654   6.4708   7.3576   7.5722
     8.1523   8.3737

          k = 0.1602-0.4626 0.0000 ( 15824 PWs)   bands (ev):

   -66.3352 -66.2061 -65.7998 -33.2813 -33.1456 -32.9618 -32.8927 -32.7132
   -32.6987 -32.5331 -32.4223 -32.2119 -17.9857 -17.9799 -17.9756 -17.9673
   -17.9639 -17.9592 -17.9531 -17.9321 -17.8651 -17.8557 -17.8534 -17.8412
   -17.8386 -17.8261 -17.5156 -17.5117 -17.5013 -17.4757 -17.4601 -17.4403
   -17.4227 -16.2769  -9.6480  -8.9124  -5.0364  -4.0410  -3.6107  -2.9964
    -2.7260  -2.5501  -2.2720  -1.7333  -0.6795   0.8253   1.7788   2.0390
     4.0171   4.3463   4.9628   5.7421   6.3600   6.4116   7.2053   7.4441
     7.9129   8.2980

          k = 0.1602-0.3701 0.0000 ( 15830 PWs)   bands (ev):

   -66.3429 -66.2135 -65.8069 -33.1949 -33.0897 -32.9741 -32.8345 -32.7180
   -32.6496 -32.4604 -32.4260 -32.1638 -17.9839 -17.9778 -17.9730 -17.9695
   -17.9632 -17.9627 -17.9569 -17.9391 -17.8630 -17.8570 -17.8524 -17.8421
   -17.8365 -17.8324 -17.5185 -17.5094 -17.4992 -17.4766 -17.4618 -17.4343
   -17.4291 -16.3308  -9.7273  -9.3391  -4.5328  -3.9559  -3.5928  -3.1822
    -2.6683  -2.5249  -2.1933  -1.5122  -0.7664   0.7857   1.2835   1.9373
     3.4389   3.9989   4.8562   5.7115   6.0220   6.3405   6.9096   7.0871
     7.5457   8.0021

          k = 0.1602-0.2776 0.0000 ( 15846 PWs)   bands (ev):

   -66.3533 -66.2236 -65.8166 -33.0953 -33.0755 -32.9026 -32.7584 -32.7266
   -32.5811 -32.4327 -32.3533 -32.0999 -17.9819 -17.9799 -17.9734 -17.9723
   -17.9655 -17.9609 -17.9564 -17.9522 -17.8607 -17.8577 -17.8507 -17.8457
   -17.8452 -17.8250 -17.5227 -17.5058 -17.4969 -17.4771 -17.4646 -17.4382
   -17.4256 -16.4170 -10.2248  -9.4368  -4.2360  -4.0053  -3.6005  -3.2032
    -2.5481  -2.1681  -2.0939  -1.4467  -0.6696   0.5294   1.3614   1.9162
     2.8664   3.8639   4.4997   4.8897   5.6224   6.2010   6.5253   6.6954
     7.1617   7.3828

          k = 0.1602-0.1850 0.0000 ( 15853 PWs)   bands (ev):

   -66.3638 -66.2337 -65.8263 -33.1402 -32.9540 -32.7942 -32.7189 -32.6884
   -32.5166 -32.4398 -32.2375 -32.0412 -17.9870 -17.9814 -17.9782 -17.9701
   -17.9688 -17.9677 -17.9620 -17.9477 -17.8609 -17.8557 -17.8538 -17.8507
   -17.8467 -17.8162 -17.5270 -17.5016 -17.4949 -17.4769 -17.4679 -17.4469
   -17.4170 -16.5176 -10.7718  -9.4346  -4.7318  -3.8098  -3.5293  -2.7540
    -2.4626  -2.0950  -1.8678  -1.1559  -0.5941   0.5989   1.3262   2.1732
     2.6360   3.5552   3.8794   4.5669   5.1234   5.6207   6.0419   6.6453
     6.9207   7.1893

          k = 0.1602-0.0925 0.0000 ( 15863 PWs)   bands (ev):

   -66.3714 -66.2411 -65.8333 -33.1761 -32.8712 -32.7523 -32.6561 -32.6336
   -32.4791 -32.4463 -32.1404 -32.0074 -17.9935 -17.9893 -17.9810 -17.9766
   -17.9725 -17.9653 -17.9612 -17.9414 -17.8623 -17.8590 -17.8543 -17.8504
   -17.8459 -17.8097 -17.5301 -17.4982 -17.4938 -17.4765 -17.4705 -17.4533
   -17.4107 -16.6000 -11.1498  -9.4403  -5.1432  -3.6884  -3.3641  -2.5230
    -2.4617  -2.1277  -1.6127  -0.6847  -0.6355   0.9381   1.1719   2.4341
     2.6808   2.9175   3.7399   4.4656   4.8881   5.2475   5.6789   6.5748
     6.6372   7.1373

          k = 0.1602 0.0000 0.0000 ( 15879 PWs)   bands (ev):

   -66.3742 -66.2438 -65.8359 -33.1893 -32.8496 -32.7297 -32.6505 -32.5865
   -32.4740 -32.4474 -32.0985 -32.0008 -17.9980 -17.9932 -17.9810 -17.9787
   -17.9733 -17.9641 -17.9606 -17.9391 -17.8630 -17.8602 -17.8553 -17.8491
   -17.8455 -17.8074 -17.5312 -17.4968 -17.4935 -17.4762 -17.4716 -17.4556
   -17.4084 -16.6320 -11.2836  -9.4454  -5.2877  -3.6428  -3.2894  -2.5873
    -2.4106  -2.1398  -1.2722  -0.7879  -0.5960   1.0656   1.4345   2.2170
     2.4399   3.1267   3.6129   4.5086   4.6456   5.3418   5.7188   6.3896
     6.5326   6.9469

          k = 0.2404 0.1388 0.0000 ( 15813 PWs)   bands (ev):

   -66.3594 -66.2294 -65.8222 -33.1214 -33.0255 -32.8433 -32.7365 -32.7009
   -32.5198 -32.4389 -32.3052 -32.0467 -17.9879 -17.9784 -17.9740 -17.9696
   -17.9679 -17.9639 -17.9621 -17.9500 -17.8607 -17.8557 -17.8510 -17.8500
   -17.8473 -17.8193 -17.5254 -17.5039 -17.4954 -17.4771 -17.4661 -17.4432
   -17.4204 -16.4758 -10.5642  -9.4293  -4.7122  -3.7214  -3.5780  -2.9427
    -2.4371  -2.1243  -2.0833  -1.0165  -0.7376   0.6563   1.0371   2.2197
     3.1921   3.5064   4.1864   4.5073   5.1509   5.4463   6.1183   6.8420
     6.9502   7.8703

          k = 0.2404 0.2313 0.0000 ( 15839 PWs)   bands (ev):

   -66.3517 -66.2220 -65.8151 -33.1188 -33.0944 -32.9282 -32.7528 -32.7266
   -32.5650 -32.4350 -32.3889 -32.0876 -17.9868 -17.9763 -17.9720 -17.9702
   -17.9670 -17.9621 -17.9549 -17.9506 -17.8611 -17.8571 -17.8506 -17.8452
   -17.8444 -17.8254 -17.5224 -17.5069 -17.4969 -17.4772 -17.4636 -17.4368
   -17.4265 -16.4063 -10.1844  -9.4057  -4.6114  -3.8100  -3.5006  -3.2190
    -2.5417  -2.2983  -1.9890  -1.4028  -0.7374   0.6630   1.2151   1.9972
     3.2196   3.9754   4.5122   4.9199   5.4070   5.9187   6.4490   6.8189
     7.2203   7.9006

          k = 0.2404 0.3238 0.0000 ( 15830 PWs)   bands (ev):

   -66.3429 -66.2135 -65.8069 -33.1949 -33.0897 -32.9741 -32.8345 -32.7180
   -32.6496 -32.4604 -32.4259 -32.1638 -17.9839 -17.9778 -17.9730 -17.9695
   -17.9632 -17.9627 -17.9569 -17.9391 -17.8630 -17.8570 -17.8524 -17.8421
   -17.8365 -17.8324 -17.5185 -17.5094 -17.4992 -17.4766 -17.4618 -17.4343
   -17.4291 -16.3308  -9.7273  -9.3392  -4.5328  -3.9559  -3.5928  -3.1821
    -2.6683  -2.5249  -2.1933  -1.5122  -0.7664   0.7858   1.2835   1.9373
     3.4389   3.9988   4.8562   5.7115   6.0219   6.3404   6.9096   7.0871
     7.5457   8.0021

          k = 0.2404 0.4163 0.0000 ( 15818 PWs)   bands (ev):

   -66.3352 -66.2061 -65.7998 -33.2350 -33.1092 -32.9756 -32.9235 -32.7444
   -32.7084 -32.4965 -32.4233 -32.2522 -17.9826 -17.9772 -17.9729 -17.9703
   -17.9694 -17.9599 -17.9532 -17.9303 -17.8640 -17.8556 -17.8549 -17.8415
   -17.8409 -17.8260 -17.5149 -17.5106 -17.5021 -17.4753 -17.4614 -17.4410
   -17.4228 -16.2700  -9.4422  -9.1146  -4.6367  -4.0032  -3.7665  -3.1560
    -2.7310  -2.5503  -2.3907  -1.5782  -0.7705   1.0307   1.3849   2.0147
     3.9637   4.0916   4.8878   5.6978   6.3238   6.3693   7.2750   7.7413
     8.1540   8.5993

          k = 0.2404 0.5089 0.0000 ( 15824 PWs)   bands (ev):

   -66.3308 -66.2018 -65.7957 -33.2425 -33.1103 -33.0226 -32.9483 -32.8004
   -32.7059 -32.5068 -32.4202 -32.3169 -17.9817 -17.9787 -17.9742 -17.9717
   -17.9663 -17.9616 -17.9502 -17.9257 -17.8635 -17.8578 -17.8536 -17.8450
   -17.8425 -17.8204 -17.5128 -17.5105 -17.5045 -17.4738 -17.4619 -17.4450
   -17.4191 -16.2370  -9.3765  -8.8581  -4.8026  -4.0695  -3.7146  -3.2468
    -2.9324  -2.3761  -2.2682  -1.8274  -0.7428   1.1536   1.7811   2.1745
     4.1969   4.5601   4.8267   5.1934   5.6478   6.3498   7.6309   7.9452
     8.4493   8.8292

          k = 0.2404 0.6014 0.0000 ( 15824 PWs)   bands (ev):

   -66.3308 -66.2018 -65.7957 -33.2425 -33.1103 -33.0226 -32.9483 -32.8004
   -32.7059 -32.5068 -32.4202 -32.3169 -17.9817 -17.9787 -17.9742 -17.9717
   -17.9663 -17.9616 -17.9502 -17.9257 -17.8635 -17.8578 -17.8536 -17.8450
   -17.8425 -17.8204 -17.5128 -17.5105 -17.5045 -17.4738 -17.4619 -17.4450
   -17.4191 -16.2370  -9.3765  -8.8581  -4.8026  -4.0695  -3.7146  -3.2468
    -2.9324  -2.3761  -2.2682  -1.8274  -0.7428   1.1536   1.7811   2.1745
     4.1969   4.5601   4.8267   5.1934   5.6478   6.3498   7.6308   7.9453
     8.4494   8.8292

          k = 0.2404-0.4163 0.0000 ( 15818 PWs)   bands (ev):

   -66.3352 -66.2061 -65.7998 -33.2350 -33.1092 -32.9756 -32.9235 -32.7444
   -32.7084 -32.4965 -32.4233 -32.2522 -17.9826 -17.9772 -17.9729 -17.9703
   -17.9694 -17.9599 -17.9532 -17.9303 -17.8640 -17.8556 -17.8549 -17.8415
   -17.8409 -17.8260 -17.5149 -17.5106 -17.5021 -17.4753 -17.4614 -17.4410
   -17.4228 -16.2701  -9.4422  -9.1146  -4.6367  -4.0033  -3.7665  -3.1560
    -2.7310  -2.5503  -2.3906  -1.5783  -0.7705   1.0307   1.3849   2.0148
     3.9637   4.0916   4.8879   5.6978   6.3238   6.3693   7.2749   7.7414
     8.1539   8.5992

          k = 0.2404-0.3238 0.0000 ( 15830 PWs)   bands (ev):

   -66.3429 -66.2135 -65.8069 -33.1949 -33.0897 -32.9741 -32.8345 -32.7180
   -32.6496 -32.4604 -32.4260 -32.1638 -17.9839 -17.9778 -17.9730 -17.9695
   -17.9632 -17.9627 -17.9569 -17.9391 -17.8630 -17.8570 -17.8524 -17.8421
   -17.8365 -17.8324 -17.5185 -17.5094 -17.4992 -17.4766 -17.4618 -17.4343
   -17.4291 -16.3308  -9.7273  -9.3391  -4.5328  -3.9559  -3.5928  -3.1821
    -2.6683  -2.5249  -2.1933  -1.5122  -0.7664   0.7857   1.2835   1.9373
     3.4389   3.9989   4.8562   5.7115   6.0219   6.3405   6.9096   7.0871
     7.5457   8.0021

          k = 0.2404-0.2313 0.0000 ( 15839 PWs)   bands (ev):

   -66.3517 -66.2220 -65.8151 -33.1188 -33.0944 -32.9282 -32.7528 -32.7266
   -32.5650 -32.4350 -32.3889 -32.0876 -17.9868 -17.9763 -17.9720 -17.9702
   -17.9670 -17.9621 -17.9549 -17.9506 -17.8611 -17.8571 -17.8506 -17.8452
   -17.8444 -17.8254 -17.5224 -17.5069 -17.4969 -17.4772 -17.4636 -17.4368
   -17.4265 -16.4063 -10.1844  -9.4057  -4.6114  -3.8100  -3.5007  -3.2190
    -2.5417  -2.2983  -1.9891  -1.4028  -0.7374   0.6630   1.2151   1.9973
     3.2196   3.9754   4.5123   4.9199   5.4070   5.9187   6.4489   6.8189
     7.2203   7.9006

          k = 0.2404-0.1388 0.0000 ( 15813 PWs)   bands (ev):

   -66.3594 -66.2294 -65.8222 -33.1214 -33.0255 -32.8433 -32.7365 -32.7009
   -32.5198 -32.4389 -32.3052 -32.0467 -17.9879 -17.9784 -17.9740 -17.9696
   -17.9679 -17.9639 -17.9621 -17.9500 -17.8607 -17.8557 -17.8510 -17.8500
   -17.8473 -17.8193 -17.5254 -17.5039 -17.4954 -17.4771 -17.4661 -17.4432
   -17.4204 -16.4758 -10.5642  -9.4293  -4.7122  -3.7214  -3.5780  -2.9428
    -2.4371  -2.1243  -2.0834  -1.0165  -0.7376   0.6562   1.0371   2.2197
     3.1922   3.5064   4.1864   4.5074   5.1509   5.4462   6.1183   6.8420
     6.9501   7.8703

          k = 0.2404-0.0463 0.0000 ( 15853 PWs)   bands (ev):

   -66.3638 -66.2337 -65.8263 -33.1402 -32.9540 -32.7942 -32.7190 -32.6884
   -32.5165 -32.4398 -32.2375 -32.0412 -17.9870 -17.9814 -17.9782 -17.9701
   -17.9688 -17.9677 -17.9620 -17.9477 -17.8609 -17.8557 -17.8538 -17.8507
   -17.8467 -17.8162 -17.5270 -17.5016 -17.4949 -17.4769 -17.4679 -17.4469
   -17.4170 -16.5176 -10.7718  -9.4346  -4.7318  -3.8098  -3.5293  -2.7540
    -2.4626  -2.0950  -1.8678  -1.1559  -0.5941   0.5989   1.3262   2.1732
     2.6361   3.5552   3.8794   4.5668   5.1234   5.6207   6.0419   6.6454
     6.9207   7.1892

          k = 0.2404 0.0463 0.0000 ( 15853 PWs)   bands (ev):

   -66.3638 -66.2337 -65.8263 -33.1402 -32.9540 -32.7942 -32.7190 -32.6884
   -32.5165 -32.4398 -32.2375 -32.0412 -17.9870 -17.9814 -17.9782 -17.9701
   -17.9688 -17.9677 -17.9620 -17.9477 -17.8609 -17.8557 -17.8538 -17.8507
   -17.8467 -17.8162 -17.5270 -17.5016 -17.4949 -17.4769 -17.4679 -17.4469
   -17.4170 -16.5176 -10.7718  -9.4346  -4.7318  -3.8098  -3.5293  -2.7540
    -2.4626  -2.0950  -1.8678  -1.1559  -0.5941   0.5989   1.3263   2.1731
     2.6361   3.5552   3.8794   4.5668   5.1234   5.6208   6.0419   6.6454
     6.9207   7.1892

          k = 0.3205 0.1850 0.0000 ( 15805 PWs)   bands (ev):

   -66.3473 -66.2178 -65.8110 -33.2006 -33.1047 -32.9730 -32.7453 -32.7330
   -32.5601 -32.4674 -32.4266 -32.0857 -17.9898 -17.9774 -17.9713 -17.9677
   -17.9644 -17.9620 -17.9547 -17.9461 -17.8629 -17.8548 -17.8519 -17.8437
   -17.8404 -17.8274 -17.5212 -17.5092 -17.4974 -17.4773 -17.4615 -17.4330
   -17.4295 -16.3751 -10.0688  -9.2956  -4.9535  -3.9036  -3.3821  -3.0959
    -2.5884  -2.3365  -2.0649  -1.5277  -0.5618   0.5540   1.3972   2.0552
     3.6691   4.4725   4.5466   4.9490   5.5046   5.6565   6.6047   7.0499
     7.1620   8.3629

          k = 0.3205 0.2776 0.0000 ( 15822 PWs)   bands (ev):

   -66.3413 -66.2119 -65.8054 -33.2643 -33.1362 -32.9774 -32.7976 -32.7218
   -32.6067 -32.5180 -32.4257 -32.1273 -17.9892 -17.9791 -17.9742 -17.9663
   -17.9613 -17.9593 -17.9559 -17.9396 -17.8647 -17.8538 -17.8535 -17.8415
   -17.8344 -17.8314 -17.5188 -17.5112 -17.4989 -17.4769 -17.4600 -17.4344
   -17.4278 -16.3282  -9.8878  -9.1028  -5.0991  -4.0029  -3.4597  -2.9123
    -2.7073  -2.4849  -2.0856  -1.7190  -0.6013   0.6797   1.6748   1.9815
     3.8106   4.3244   5.0063   5.5257   5.9601   6.2699   6.6154   7.0981
     7.4649   8.2745

          k = 0.3205 0.3701 0.0000 ( 15824 PWs)   bands (ev):

   -66.3352 -66.2061 -65.7998 -33.2813 -33.1456 -32.9618 -32.8928 -32.7132
   -32.6987 -32.5331 -32.4223 -32.2119 -17.9856 -17.9799 -17.9756 -17.9673
   -17.9639 -17.9592 -17.9531 -17.9321 -17.8651 -17.8557 -17.8534 -17.8412
   -17.8386 -17.8261 -17.5156 -17.5117 -17.5013 -17.4757 -17.4601 -17.4403
   -17.4227 -16.2769  -9.6480  -8.9124  -5.0364  -4.0410  -3.6107  -2.9963
    -2.7260  -2.5501  -2.2720  -1.7333  -0.6795   0.8253   1.7788   2.0389
     4.0170   4.3463   4.9629   5.7421   6.3601   6.4115   7.2053   7.4442
     7.9129   8.2981

          k = 0.3205 0.4626 0.0000 ( 15824 PWs)   bands (ev):

   -66.3308 -66.2018 -65.7957 -33.2425 -33.1104 -33.0226 -32.9483 -32.8004
   -32.7059 -32.5068 -32.4202 -32.3169 -17.9817 -17.9787 -17.9742 -17.9717
   -17.9663 -17.9616 -17.9502 -17.9257 -17.8635 -17.8578 -17.8536 -17.8450
   -17.8425 -17.8204 -17.5128 -17.5105 -17.5045 -17.4738 -17.4619 -17.4450
   -17.4191 -16.2370  -9.3765  -8.8581  -4.8026  -4.0695  -3.7146  -3.2468
    -2.9324  -2.3761  -2.2682  -1.8274  -0.7428   1.1536   1.7811   2.1745
     4.1968   4.5601   4.8267   5.1934   5.6478   6.3498   7.6309   7.9452
     8.4493   8.8293

          k = 0.3205 0.5551 0.0000 ( 15738 PWs)   bands (ev):

   -66.3291 -66.2002 -65.7942 -33.1644 -33.1465 -33.0160 -33.0128 -32.8343
   -32.7054 -32.4643 -32.4195 -32.3897 -17.9796 -17.9770 -17.9765 -17.9692
   -17.9686 -17.9645 -17.9491 -17.9230 -17.8607 -17.8604 -17.8536 -17.8475
   -17.8438 -17.8182 -17.5116 -17.5081 -17.5075 -17.4724 -17.4633 -17.4468
   -17.4178 -16.2218  -9.2053  -8.9139  -4.6632  -3.9546  -3.6966  -3.6447
    -2.9329  -2.3090  -2.1246  -1.9827  -0.7936   1.4148   1.8094   2.2716
     4.2535   4.5876   4.7239   4.9457   5.1706   6.2131   7.7875   8.2919
     8.3589   9.2812

          k = 0.3205 0.6476 0.0000 ( 15824 PWs)   bands (ev):

   -66.3308 -66.2018 -65.7957 -33.2425 -33.1103 -33.0226 -32.9483 -32.8004
   -32.7059 -32.5068 -32.4202 -32.3169 -17.9817 -17.9787 -17.9742 -17.9717
   -17.9663 -17.9616 -17.9502 -17.9257 -17.8635 -17.8578 -17.8536 -17.8450
   -17.8425 -17.8204 -17.5128 -17.5105 -17.5045 -17.4738 -17.4619 -17.4450
   -17.4191 -16.2370  -9.3765  -8.8581  -4.8026  -4.0695  -3.7146  -3.2468
    -2.9324  -2.3761  -2.2682  -1.8274  -0.7428   1.1536   1.7811   2.1745
     4.1968   4.5601   4.8267   5.1935   5.6478   6.3498   7.6309   7.9453
     8.4493   8.8293

          k = 0.3205-0.3701 0.0000 ( 15824 PWs)   bands (ev):

   -66.3352 -66.2061 -65.7998 -33.2813 -33.1456 -32.9618 -32.8928 -32.7132
   -32.6987 -32.5331 -32.4223 -32.2119 -17.9857 -17.9799 -17.9756 -17.9673
   -17.9639 -17.9592 -17.9531 -17.9321 -17.8651 -17.8557 -17.8534 -17.8412
   -17.8386 -17.8261 -17.5156 -17.5117 -17.5013 -17.4757 -17.4601 -17.4403
   -17.4227 -16.2769  -9.6480  -8.9124  -5.0364  -4.0410  -3.6107  -2.9964
    -2.7260  -2.5501  -2.2720  -1.7333  -0.6795   0.8253   1.7788   2.0389
     4.0170   4.3463   4.9629   5.7421   6.3600   6.4115   7.2053   7.4442
     7.9129   8.2980

          k = 0.3205-0.2776 0.0000 ( 15822 PWs)   bands (ev):

   -66.3413 -66.2119 -65.8054 -33.2643 -33.1362 -32.9774 -32.7976 -32.7218
   -32.6067 -32.5179 -32.4257 -32.1273 -17.9892 -17.9791 -17.9742 -17.9663
   -17.9613 -17.9593 -17.9559 -17.9396 -17.8647 -17.8538 -17.8535 -17.8415
   -17.8344 -17.8314 -17.5188 -17.5112 -17.4989 -17.4769 -17.4600 -17.4344
   -17.4278 -16.3282  -9.8878  -9.1028  -5.0991  -4.0029  -3.4598  -2.9123
    -2.7072  -2.4849  -2.0856  -1.7190  -0.6013   0.6797   1.6748   1.9816
     3.8107   4.3244   5.0063   5.5257   5.9601   6.2699   6.6154   7.0981
     7.4649   8.2745

          k = 0.3205-0.1850 0.0000 ( 15805 PWs)   bands (ev):

   -66.3473 -66.2178 -65.8110 -33.2006 -33.1047 -32.9730 -32.7453 -32.7330
   -32.5601 -32.4674 -32.4266 -32.0857 -17.9898 -17.9774 -17.9713 -17.9677
   -17.9644 -17.9620 -17.9547 -17.9461 -17.8629 -17.8548 -17.8519 -17.8437
   -17.8404 -17.8274 -17.5212 -17.5092 -17.4974 -17.4773 -17.4615 -17.4330
   -17.4295 -16.3751 -10.0688  -9.2955  -4.9535  -3.9036  -3.3821  -3.0960
    -2.5884  -2.3365  -2.0649  -1.5277  -0.5618   0.5540   1.3972   2.0553
     3.6692   4.4725   4.5466   4.9490   5.5046   5.6564   6.6046   7.0499
     7.1620   8.3629

          k = 0.3205-0.0925 0.0000 ( 15839 PWs)   bands (ev):

   -66.3517 -66.2220 -65.8151 -33.1188 -33.0944 -32.9282 -32.7528 -32.7266
   -32.5650 -32.4350 -32.3889 -32.0876 -17.9868 -17.9763 -17.9720 -17.9702
   -17.9670 -17.9621 -17.9549 -17.9506 -17.8611 -17.8571 -17.8506 -17.8453
   -17.8444 -17.8254 -17.5224 -17.5069 -17.4969 -17.4772 -17.4636 -17.4368
   -17.4265 -16.4063 -10.1844  -9.4057  -4.6114  -3.8100  -3.5006  -3.2190
    -2.5417  -2.2983  -1.9891  -1.4028  -0.7373   0.6629   1.2151   1.9973
     3.2197   3.9754   4.5123   4.9198   5.4070   5.9187   6.4490   6.8190
     7.2203   7.9006

          k = 0.3205 0.0000 0.0000 ( 15846 PWs)   bands (ev):

   -66.3533 -66.2236 -65.8166 -33.0953 -33.0755 -32.9026 -32.7585 -32.7266
   -32.5811 -32.4327 -32.3534 -32.0999 -17.9819 -17.9799 -17.9734 -17.9723
   -17.9655 -17.9608 -17.9564 -17.9522 -17.8607 -17.8577 -17.8507 -17.8458
   -17.8452 -17.8250 -17.5227 -17.5058 -17.4969 -17.4771 -17.4646 -17.4382
   -17.4256 -16.4170 -10.2248  -9.4368  -4.2360  -4.0052  -3.6004  -3.2032
    -2.5481  -2.1682  -2.0939  -1.4468  -0.6696   0.5294   1.3613   1.9162
     2.8664   3.8638   4.4997   4.8896   5.6224   6.2011   6.5251   6.6956
     7.1615   7.3828

          k = 0.3205 0.0925 0.0000 ( 15839 PWs)   bands (ev):

   -66.3517 -66.2220 -65.8151 -33.1188 -33.0944 -32.9282 -32.7528 -32.7266
   -32.5650 -32.4350 -32.3889 -32.0876 -17.9868 -17.9763 -17.9720 -17.9702
   -17.9670 -17.9621 -17.9549 -17.9506 -17.8611 -17.8571 -17.8506 -17.8453
   -17.8444 -17.8254 -17.5224 -17.5069 -17.4969 -17.4772 -17.4636 -17.4368
   -17.4265 -16.4063 -10.1844  -9.4057  -4.6114  -3.8100  -3.5006  -3.2190
    -2.5417  -2.2983  -1.9891  -1.4028  -0.7373   0.6630   1.2151   1.9972
     3.2197   3.9754   4.5123   4.9198   5.4069   5.9187   6.4490   6.8189
     7.2203   7.9005

          k = 0.4006 0.2313 0.0000 ( 15836 PWs)   bands (ev):

   -66.3384 -66.2092 -65.8028 -33.3282 -33.1900 -32.9730 -32.7776 -32.7271
   -32.5895 -32.5691 -32.4260 -32.1140 -17.9919 -17.9804 -17.9774 -17.9632
   -17.9597 -17.9558 -17.9551 -17.9388 -17.8665 -17.8553 -17.8505 -17.8401
   -17.8318 -17.8307 -17.5184 -17.5130 -17.4990 -17.4770 -17.4582 -17.4357
   -17.4254 -16.3162  -9.9570  -8.8572  -5.5009  -4.0667  -3.3699  -2.7998
    -2.7727  -2.5036  -2.0761  -1.8715  -0.3412   0.5867   1.8956   2.2093
     4.0494   4.6960   5.2534   5.6068   6.1565   6.2998   6.5551   7.1928
     7.3813   8.3749

          k = 0.4006 0.3238 0.0000 ( 15827 PWs)   bands (ev):

   -66.3352 -66.2061 -65.7998 -33.3477 -33.2064 -32.9609 -32.8237 -32.7181
   -32.6315 -32.5835 -32.4236 -32.1502 -17.9908 -17.9808 -17.9791 -17.9624
   -17.9609 -17.9562 -17.9527 -17.9354 -17.8669 -17.8566 -17.8499 -17.8399
   -17.8348 -17.8263 -17.5169 -17.5136 -17.5001 -17.4765 -17.4579 -17.4387
   -17.4226 -16.2908  -9.8773  -8.6869  -5.5692  -4.0798  -3.4005  -2.9919
    -2.6507  -2.5289  -2.1918  -1.8542  -0.4634   0.7162   2.0477   2.2473
     4.1695   4.5622   5.5942   5.7706   6.3613   6.4886   6.8134   7.2601
     7.6294   8.1780

          k = 0.4006 0.4163 0.0000 ( 15816 PWs)   bands (ev):

   -66.3324 -66.2033 -65.7972 -33.3128 -33.1711 -32.9537 -32.9121 -32.7210
   -32.7075 -32.5588 -32.4207 -32.2297 -17.9862 -17.9802 -17.9788 -17.9657
   -17.9622 -17.9595 -17.9511 -17.9301 -17.8656 -17.8575 -17.8513 -17.8417
   -17.8398 -17.8225 -17.5146 -17.5125 -17.5021 -17.4753 -17.4596 -17.4424
   -17.4204 -16.2591  -9.6562  -8.6895  -5.2701  -4.0892  -3.5374  -3.0662
    -2.7885  -2.4914  -2.2022  -1.8658  -0.6340   0.8565   2.0488   2.1661
     4.2446   4.5392   5.3744   5.4518   5.9653   6.4708   7.3575   7.5723
     8.1522   8.3737

          k = 0.4006 0.5089 0.0000 ( 15824 PWs)   bands (ev):

   -66.3308 -66.2018 -65.7957 -33.2425 -33.1104 -33.0226 -32.9483 -32.8004
   -32.7059 -32.5068 -32.4202 -32.3169 -17.9817 -17.9787 -17.9742 -17.9717
   -17.9663 -17.9616 -17.9502 -17.9257 -17.8635 -17.8578 -17.8536 -17.8450
   -17.8425 -17.8204 -17.5128 -17.5105 -17.5045 -17.4738 -17.4619 -17.4450
   -17.4191 -16.2370  -9.3765  -8.8581  -4.8026  -4.0695  -3.7146  -3.2468
    -2.9324  -2.3761  -2.2682  -1.8274  -0.7428   1.1536   1.7811   2.1744
     4.1968   4.5601   4.8266   5.1934   5.6479   6.3498   7.6309   7.9452
     8.4494   8.8297

          k = 0.4006 0.6014 0.0000 ( 15824 PWs)   bands (ev):

   -66.3308 -66.2018 -65.7957 -33.2425 -33.1104 -33.0226 -32.9483 -32.8004
   -32.7059 -32.5068 -32.4202 -32.3169 -17.9817 -17.9787 -17.9742 -17.9717
   -17.9663 -17.9616 -17.9502 -17.9257 -17.8635 -17.8578 -17.8536 -17.8450
   -17.8425 -17.8204 -17.5128 -17.5105 -17.5045 -17.4738 -17.4619 -17.4450
   -17.4191 -16.2370  -9.3765  -8.8581  -4.8026  -4.0695  -3.7146  -3.2468
    -2.9324  -2.3761  -2.2682  -1.8274  -0.7428   1.1536   1.7811   2.1744
     4.1969   4.5601   4.8266   5.1934   5.6479   6.3498   7.6309   7.9452
     8.4493   8.8293

          k = 0.4006 0.6939 0.0000 ( 15816 PWs)   bands (ev):

   -66.3324 -66.2033 -65.7972 -33.3128 -33.1711 -32.9537 -32.9121 -32.7210
   -32.7075 -32.5588 -32.4207 -32.2297 -17.9862 -17.9802 -17.9788 -17.9657
   -17.9622 -17.9595 -17.9511 -17.9301 -17.8656 -17.8575 -17.8513 -17.8417
   -17.8398 -17.8225 -17.5146 -17.5125 -17.5021 -17.4753 -17.4596 -17.4424
   -17.4204 -16.2591  -9.6562  -8.6895  -5.2701  -4.0892  -3.5374  -3.0662
    -2.7885  -2.4914  -2.2022  -1.8658  -0.6340   0.8564   2.0488   2.1661
     4.2447   4.5392   5.3744   5.4518   5.9653   6.4708   7.3576   7.5723
     8.1522   8.3737

          k = 0.4006-0.3238 0.0000 ( 15827 PWs)   bands (ev):

   -66.3352 -66.2061 -65.7998 -33.3477 -33.2064 -32.9608 -32.8237 -32.7181
   -32.6315 -32.5835 -32.4236 -32.1502 -17.9908 -17.9808 -17.9791 -17.9624
   -17.9609 -17.9562 -17.9528 -17.9354 -17.8669 -17.8566 -17.8499 -17.8399
   -17.8348 -17.8263 -17.5169 -17.5136 -17.5001 -17.4765 -17.4579 -17.4387
   -17.4226 -16.2908  -9.8773  -8.6869  -5.5692  -4.0798  -3.4005  -2.9919
    -2.6507  -2.5289  -2.1918  -1.8542  -0.4634   0.7162   2.0477   2.2473
     4.1696   4.5622   5.5942   5.7706   6.3613   6.4886   6.8134   7.2601
     7.6293   8.1780

          k = 0.4006-0.2313 0.0000 ( 15836 PWs)   bands (ev):

   -66.3384 -66.2092 -65.8028 -33.3282 -33.1900 -32.9730 -32.7775 -32.7271
   -32.5895 -32.5691 -32.4260 -32.1140 -17.9919 -17.9804 -17.9774 -17.9632
   -17.9597 -17.9558 -17.9551 -17.9388 -17.8665 -17.8553 -17.8505 -17.8401
   -17.8318 -17.8307 -17.5184 -17.5130 -17.4990 -17.4770 -17.4582 -17.4357
   -17.4254 -16.3162  -9.9570  -8.8572  -5.5009  -4.0667  -3.3700  -2.7999
    -2.7727  -2.5036  -2.0761  -1.8715  -0.3412   0.5867   1.8957   2.2094
     4.0495   4.6960   5.2534   5.6068   6.1564   6.2998   6.5551   7.1928
     7.3812   8.3749

          k = 0.4006-0.1388 0.0000 ( 15822 PWs)   bands (ev):

   -66.3413 -66.2119 -65.8054 -33.2643 -33.1362 -32.9774 -32.7976 -32.7218
   -32.6067 -32.5180 -32.4257 -32.1273 -17.9892 -17.9791 -17.9742 -17.9663
   -17.9613 -17.9593 -17.9559 -17.9396 -17.8647 -17.8538 -17.8535 -17.8415
   -17.8344 -17.8314 -17.5188 -17.5112 -17.4989 -17.4769 -17.4600 -17.4344
   -17.4278 -16.3282  -9.8878  -9.1028  -5.0991  -4.0029  -3.4597  -2.9123
    -2.7073  -2.4848  -2.0856  -1.7190  -0.6013   0.6797   1.6748   1.9816
     3.8107   4.3244   5.0063   5.5258   5.9600   6.2699   6.6153   7.0982
     7.4649   8.2745

          k = 0.4006-0.0463 0.0000 ( 15830 PWs)   bands (ev):

   -66.3429 -66.2135 -65.8069 -33.1949 -33.0897 -32.9741 -32.8345 -32.7180
   -32.6496 -32.4604 -32.4259 -32.1638 -17.9839 -17.9778 -17.9730 -17.9695
   -17.9633 -17.9627 -17.9569 -17.9391 -17.8630 -17.8570 -17.8524 -17.8421
   -17.8365 -17.8324 -17.5185 -17.5094 -17.4992 -17.4766 -17.4618 -17.4343
   -17.4291 -16.3308  -9.7273  -9.3392  -4.5328  -3.9558  -3.5928  -3.1821
    -2.6683  -2.5250  -2.1933  -1.5122  -0.7664   0.7858   1.2834   1.9373
     3.4389   3.9988   4.8561   5.7115   6.0219   6.3404   6.9097   7.0871
     7.5457   8.0020

          k = 0.4006 0.0463 0.0000 ( 15830 PWs)   bands (ev):

   -66.3429 -66.2135 -65.8069 -33.1949 -33.0897 -32.9741 -32.8345 -32.7180
   -32.6496 -32.4604 -32.4259 -32.1638 -17.9839 -17.9778 -17.9730 -17.9695
   -17.9632 -17.9627 -17.9569 -17.9391 -17.8630 -17.8570 -17.8524 -17.8421
   -17.8365 -17.8324 -17.5185 -17.5094 -17.4992 -17.4766 -17.4618 -17.4343
   -17.4291 -16.3308  -9.7273  -9.3392  -4.5328  -3.9558  -3.5928  -3.1821
    -2.6683  -2.5250  -2.1933  -1.5122  -0.7664   0.7858   1.2834   1.9373
     3.4389   3.9988   4.8561   5.7115   6.0219   6.3404   6.9097   7.0871
     7.5457   8.0020

          k = 0.4006 0.1388 0.0000 ( 15822 PWs)   bands (ev):

   -66.3413 -66.2119 -65.8054 -33.2643 -33.1362 -32.9774 -32.7976 -32.7218
   -32.6067 -32.5180 -32.4257 -32.1273 -17.9892 -17.9791 -17.9742 -17.9663
   -17.9614 -17.9593 -17.9559 -17.9396 -17.8647 -17.8538 -17.8535 -17.8415
   -17.8344 -17.8314 -17.5188 -17.5112 -17.4989 -17.4769 -17.4600 -17.4344
   -17.4278 -16.3282  -9.8878  -9.1028  -5.0991  -4.0029  -3.4597  -2.9123
    -2.7073  -2.4848  -2.0856  -1.7190  -0.6013   0.6797   1.6748   1.9815
     3.8106   4.3244   5.0063   5.5258   5.9600   6.2699   6.6153   7.0982
     7.4649   8.2745

          k =-0.4807-0.2776 0.0000 ( 15834 PWs)   bands (ev):

   -66.3352 -66.2061 -65.7998 -33.3746 -33.2323 -32.9631 -32.7893 -32.7244
   -32.6049 -32.6002 -32.4248 -32.1243 -17.9928 -17.9815 -17.9799 -17.9615
   -17.9595 -17.9544 -17.9524 -17.9370 -17.8678 -17.8569 -17.8486 -17.8389
   -17.8331 -17.8266 -17.5175 -17.5144 -17.4997 -17.4767 -17.4569 -17.4379
   -17.4226 -16.2977  -9.9644  -8.5994  -5.7826  -4.0954  -3.3367  -2.8457
    -2.7937  -2.5541  -2.0864  -1.9588  -0.2521   0.6222   2.0407   2.4644
     4.2371   4.7589   5.4914   5.9845   6.4135   6.6493   6.8817   7.0880
     7.3938   8.2338

          k =-0.4807-0.1850 0.0000 ( 15827 PWs)   bands (ev):

   -66.3352 -66.2061 -65.7998 -33.3477 -33.2064 -32.9609 -32.8237 -32.7181
   -32.6315 -32.5836 -32.4236 -32.1502 -17.9908 -17.9808 -17.9791 -17.9624
   -17.9609 -17.9562 -17.9527 -17.9354 -17.8669 -17.8566 -17.8499 -17.8399
   -17.8348 -17.8263 -17.5169 -17.5136 -17.5001 -17.4765 -17.4579 -17.4387
   -17.4226 -16.2908  -9.8773  -8.6869  -5.5692  -4.0798  -3.4005  -2.9919
    -2.6507  -2.5289  -2.1918  -1.8542  -0.4634   0.7162   2.0477   2.2473
     4.1695   4.5622   5.5942   5.7706   6.3613   6.4886   6.8133   7.2601
     7.6294   8.1780

          k =-0.4807-0.0925 0.0000 ( 15824 PWs)   bands (ev):

   -66.3352 -66.2061 -65.7998 -33.2813 -33.1456 -32.9618 -32.8928 -32.7132
   -32.6987 -32.5331 -32.4223 -32.2119 -17.9856 -17.9799 -17.9756 -17.9673
   -17.9639 -17.9592 -17.9531 -17.9321 -17.8651 -17.8557 -17.8534 -17.8412
   -17.8386 -17.8261 -17.5156 -17.5117 -17.5013 -17.4757 -17.4601 -17.4403
   -17.4227 -16.2769  -9.6480  -8.9124  -5.0364  -4.0409  -3.6106  -2.9963
    -2.7260  -2.5501  -2.2720  -1.7332  -0.6795   0.8253   1.7788   2.0389
     4.0170   4.3463   4.9628   5.7421   6.3601   6.4115   7.2053   7.4441
     7.9128   8.2981

          k =-0.4807-0.0000 0.0000 ( 15818 PWs)   bands (ev):

   -66.3352 -66.2061 -65.7998 -33.2350 -33.1093 -32.9756 -32.9235 -32.7444
   -32.7084 -32.4965 -32.4233 -32.2522 -17.9826 -17.9772 -17.9729 -17.9703
   -17.9694 -17.9599 -17.9532 -17.9303 -17.8640 -17.8556 -17.8549 -17.8415
   -17.8409 -17.8260 -17.5149 -17.5106 -17.5021 -17.4753 -17.4614 -17.4410
   -17.4228 -16.2700  -9.4423  -9.1146  -4.6367  -4.0032  -3.7665  -3.1559
    -2.7310  -2.5503  -2.3907  -1.5782  -0.7705   1.0307   1.3850   2.0147
     3.9637   4.0915   4.8877   5.6978   6.3238   6.3693   7.2751   7.7412
     8.1540   8.5993

          k =-0.4807 0.0925 0.0000 ( 15824 PWs)   bands (ev):

   -66.3352 -66.2061 -65.7998 -33.2813 -33.1456 -32.9618 -32.8928 -32.7132
   -32.6987 -32.5331 -32.4223 -32.2119 -17.9856 -17.9799 -17.9756 -17.9673
   -17.9639 -17.9592 -17.9531 -17.9321 -17.8651 -17.8557 -17.8534 -17.8412
   -17.8386 -17.8261 -17.5156 -17.5117 -17.5013 -17.4757 -17.4601 -17.4403
   -17.4227 -16.2769  -9.6480  -8.9124  -5.0364  -4.0409  -3.6107  -2.9964
    -2.7260  -2.5501  -2.2720  -1.7332  -0.6795   0.8253   1.7788   2.0389
     4.0170   4.3463   4.9628   5.7421   6.3601   6.4115   7.2053   7.4441
     7.9128   8.2980

          k =-0.4807 0.1850 0.0000 ( 15827 PWs)   bands (ev):

   -66.3352 -66.2061 -65.7998 -33.3477 -33.2064 -32.9609 -32.8237 -32.7181
   -32.6315 -32.5835 -32.4236 -32.1502 -17.9908 -17.9808 -17.9791 -17.9624
   -17.9609 -17.9562 -17.9527 -17.9354 -17.8669 -17.8566 -17.8499 -17.8399
   -17.8348 -17.8263 -17.5169 -17.5136 -17.5001 -17.4765 -17.4579 -17.4387
   -17.4226 -16.2908  -9.8773  -8.6869  -5.5692  -4.0798  -3.4005  -2.9919
    -2.6507  -2.5289  -2.1918  -1.8542  -0.4634   0.7162   2.0477   2.2473
     4.1696   4.5622   5.5942   5.7706   6.3613   6.4886   6.8133   7.2601
     7.6294   8.1780

          k =-0.4807-0.8327 0.0000 ( 15834 PWs)   bands (ev):

   -66.3352 -66.2061 -65.7998 -33.3746 -33.2323 -32.9631 -32.7893 -32.7244
   -32.6049 -32.6002 -32.4248 -32.1243 -17.9928 -17.9815 -17.9799 -17.9615
   -17.9595 -17.9544 -17.9524 -17.9370 -17.8678 -17.8569 -17.8486 -17.8389
   -17.8331 -17.8266 -17.5175 -17.5144 -17.4997 -17.4767 -17.4569 -17.4379
   -17.4226 -16.2977  -9.9644  -8.5994  -5.7826  -4.0954  -3.3368  -2.8457
    -2.7937  -2.5541  -2.0864  -1.9588  -0.2521   0.6222   2.0408   2.4645
     4.2372   4.7589   5.4914   5.9844   6.4135   6.6492   6.8818   7.0880
     7.3938   8.2338

     the Fermi energy is     2.1657 ev

!    total energy              =   -2098.72963390 Ry
     estimated scf accuracy    <          2.8E-13 Ry
     smearing contrib. (-TS)   =      -0.00004763 Ry
     internal energy E=F+TS    =   -2098.72958628 Ry

     The total energy is F=E-TS. E is the sum of the following terms:
     one-electron contribution =  -21206.01954312 Ry
     hartree contribution      =   10655.95681775 Ry
     xc contribution           =    -218.04734744 Ry
     ewald contribution        =    8669.38048653 Ry

     convergence has been achieved in  27 iterations

     negative rho (up, down):  1.006E-04 0.000E+00

     Forces acting on atoms (cartesian axes, Ry/au):

     atom    1 type  1   force =    -0.00000311   -0.00000651    0.00018420
     atom    2 type  2   force =     0.00000108    0.00000274   -0.00028585
     atom    3 type  1   force =    -0.00000038   -0.00000062    0.00064908
     atom    4 type  2   force =    -0.00000203   -0.00000452   -0.00047043
     atom    5 type  1   force =     0.00000007   -0.00000019   -0.00031339
     atom    6 type  3   force =     0.00000437    0.00000910    0.00023638

     Total force =     0.000955     Total SCF correction =     0.000007


     Computing stress (Cartesian axis) and pressure


     negative rho (up, down):  1.006E-04 0.000E+00
          total   stress  (Ry/bohr**3)                   (kbar)     P=       -0.16
   0.00000266   0.00000001   0.00000002            0.39        0.00        0.00
   0.00000001   0.00000262   0.00000005            0.00        0.39        0.01
   0.00000002   0.00000005  -0.00000856            0.00        0.01       -1.26


     Writing output data file /scratch/as3359/Ta3C2O_loop/Ta.save/
 
     init_run     :     32.96s CPU     19.06s WALL (       1 calls)
     electrons    :   1454.39s CPU    751.25s WALL (       1 calls)
     forces       :     15.27s CPU      7.93s WALL (       1 calls)
     stress       :     54.25s CPU     28.04s WALL (       1 calls)

     Called by init_run:
     wfcinit      :     18.26s CPU      9.37s WALL (       1 calls)
     potinit      :      4.01s CPU      2.03s WALL (       1 calls)
     hinit0       :      8.35s CPU      6.14s WALL (       1 calls)

     Called by electrons:
     c_bands      :   1142.56s CPU    579.30s WALL (      27 calls)
     sum_band     :    239.54s CPU    128.26s WALL (      27 calls)
     v_of_rho     :     10.90s CPU      5.79s WALL (      28 calls)
     newd         :     60.63s CPU     37.69s WALL (      28 calls)
     mix_rho      :      2.03s CPU      1.09s WALL (      27 calls)

     Called by c_bands:
     init_us_2    :     23.96s CPU     12.01s WALL (    4218 calls)
     cegterg      :   1061.60s CPU    538.52s WALL (    1998 calls)

     Called by *egterg:
     cdiaghg      :     44.98s CPU     22.94s WALL (    9121 calls)
     h_psi        :    788.78s CPU    401.39s WALL (    9195 calls)
     s_psi        :     47.87s CPU     23.97s WALL (    9195 calls)
     g_psi        :      4.11s CPU      2.06s WALL (    7123 calls)

     Called by h_psi:
     h_psi:calbec :     42.88s CPU     21.52s WALL (    9195 calls)
     vloc_psi     :    686.92s CPU    350.27s WALL (    9195 calls)
     add_vuspsi   :     52.30s CPU     26.20s WALL (    9195 calls)

     General routines
     calbec       :     59.61s CPU     29.92s WALL (   11563 calls)
     fft          :      6.25s CPU      3.32s WALL (     387 calls)
     ffts         :      0.24s CPU      0.12s WALL (      55 calls)
     fftw         :    706.13s CPU    360.33s WALL (  679458 calls)
     interpolate  :      0.71s CPU      0.36s WALL (      28 calls)
 
     Parallel routines
 
     PWSCF        :  26m 0.27s CPU  13m29.41s WALL

 
   This run was terminated on:   1:22:24  25Mar2022            

=------------------------------------------------------------------------------=
   JOB DONE.
=------------------------------------------------------------------------------=
