
     Program PWSCF v.6.8 starts on 24Mar2022 at 14:59:23 

     This program is part of the open-source Quantum ESPRESSO suite
     for quantum simulation of materials; please cite
         "P. Giannozzi et al., J. Phys.:Condens. Matter 21 395502 (2009);
         "P. Giannozzi et al., J. Phys.:Condens. Matter 29 465901 (2017);
         "P. Giannozzi et al., J. Chem. Phys. 152 154105 (2020);
          URL http://www.quantum-espresso.org", 
     in publications or presentations arising from this work. More details at
     http://www.quantum-espresso.org/quote

     Parallel version (MPI & OpenMP), running on       4 processor cores
     Number of MPI processes:                 2
     Threads/MPI process:                     2

     MPI processes distributed on     1 nodes
     R & G space division:  proc/nbgrp/npool/nimage =       2
     125241 MiB available memory on the printing compute node when the environment starts
 
     Reading input from Ta3C2O.vcrelax.in

     Current dimensions of program PWSCF are:
     Max number of different atomic species (ntypx) = 10
     Max number of k-points (npk) =  40000
     Max angular momentum in pseudopotentials (lmaxx) =  4
     file Ta.pbesol-spfn-rrkjus_psl.1.0.0.UPF: wavefunction(s)  5S 5P renormalized

     Subspace diagonalization in iterative solution of the eigenvalue problem:
     a serial algorithm will be used

 
     Parallelization info
     --------------------
     sticks:   dense  smooth     PW     G-vecs:    dense   smooth      PW
     Min         777     312     99               242162    61128   11163
     Max         778     313    100               242163    61139   11190
     Sum        1555     625    199               484325   122267   22353
 
     Using Slab Decomposition
 


     bravais-lattice index     =            0
     lattice parameter (alat)  =       5.5500  a.u.
     unit-cell volume          =    1549.0441 (a.u.)^3
     number of atoms/cell      =            6
     number of atomic types    =            3
     number of electrons       =        95.00
     number of Kohn-Sham states=           58
     kinetic-energy cutoff     =      70.0000  Ry
     charge density cutoff     =     700.0000  Ry
     scf convergence threshold =      1.0E-12
     mixing beta               =       0.7000
     number of iterations used =            8  plain     mixing
     energy convergence thresh.=      1.0E-04
     force convergence thresh. =      1.0E-03
     press convergence thresh. =      5.0E-01
     Exchange-correlation= PBESOL
                           (   1   4  10   8   0   0   0)
     nstep                     =           50


     celldm(1)=   5.550000  celldm(2)=   0.000000  celldm(3)=   0.000000
     celldm(4)=   0.000000  celldm(5)=   0.000000  celldm(6)=   0.000000

     crystal axes: (cart. coord. in units of alat)
               a(1) = (   1.023061   0.000071   0.000000 )  
               a(2) = (  -0.511470   0.885658   0.000000 )  
               a(3) = (   0.000000   0.000000  10.000000 )  

     reciprocal axes: (cart. coord. in units 2 pi/alat)
               b(1) = (  0.977420  0.564462  0.000000 )  
               b(2) = ( -0.000078  1.129060  0.000000 )  
               b(3) = (  0.000000  0.000000  0.100000 )  


     PseudoPot. # 1 for Ta read from file:
     /shared/home/as3359/pseudo/Ta.pbesol-spfn-rrkjus_psl.1.0.0.UPF
     MD5 check sum: f099565ffaca9b150a52e9412a28e20b
     Pseudo is Ultrasoft + core correction, Zval = 27.0
     Generated using &quot;atomic&quot; code by A. Dal Corso  v.6.3
     Using radial grid of 1273 points,  8 beta functions with: 
                l(1) =   0
                l(2) =   0
                l(3) =   1
                l(4) =   1
                l(5) =   2
                l(6) =   2
                l(7) =   3
                l(8) =   3
     Q(r) pseudized with 0 coefficients 


     PseudoPot. # 2 for C  read from file:
     /shared/home/as3359/pseudo/C.pbesol-n-rrkjus_psl.1.0.0.UPF
     MD5 check sum: 05995be603a8a7c99da3dc4413f31573
     Pseudo is Ultrasoft + core correction, Zval =  4.0
     Generated using &quot;atomic&quot; code by A. Dal Corso  v.6.3MaX
     Using radial grid of 1073 points,  4 beta functions with: 
                l(1) =   0
                l(2) =   0
                l(3) =   1
                l(4) =   1
     Q(r) pseudized with 0 coefficients 


     PseudoPot. # 3 for O  read from file:
     /shared/home/as3359/pseudo/O.pbesol-n-rrkjus_psl.1.0.0.UPF
     MD5 check sum: dd9bad2534826f832ffc9296591fc5de
     Pseudo is Ultrasoft + core correction, Zval =  6.0
     Generated using &quot;atomic&quot; code by A. Dal Corso  v.6.3MaX
     Using radial grid of 1095 points,  4 beta functions with: 
                l(1) =   0
                l(2) =   0
                l(3) =   1
                l(4) =   1
     Q(r) pseudized with 0 coefficients 


     atomic species   valence    mass     pseudopotential
        Ta            27.00   180.94788     Ta( 1.00)
        C              4.00    12.01070     C ( 1.00)
        O              6.00    15.99940     O ( 1.00)

     No symmetry found



   Cartesian axes

     site n.     atom                  positions (alat units)
         1           Ta  tau(   1) = (   0.0000408   0.5904619   0.4908521  )
         2           C   tau(   2) = (   0.0000000   0.0000000   0.9463553  )
         3           Ta  tau(   3) = (   0.5115510   0.2952663   1.4781894  )
         4           C   tau(   4) = (   0.0000408   0.5904619   2.0100231  )
         5           Ta  tau(   5) = (   0.0000000   0.0000000   2.4655247  )
         6           O   tau(   6) = (   0.0000408   0.5904619   3.2000000  )

     number of k points=    74  Marzari-Vanderbilt smearing, width (Ry)=  0.0010
                       cart. coord. in units 2pi/alat
        k(    1) = (   0.0000000   0.0000000   0.0000000), wk =   0.0138889
        k(    2) = (  -0.0000065   0.0940883   0.0000000), wk =   0.0277778
        k(    3) = (  -0.0000130   0.1881766   0.0000000), wk =   0.0277778
        k(    4) = (  -0.0000195   0.2822649   0.0000000), wk =   0.0277778
        k(    5) = (  -0.0000260   0.3763532   0.0000000), wk =   0.0277778
        k(    6) = (  -0.0000325   0.4704415   0.0000000), wk =   0.0277778
        k(    7) = (   0.0000390  -0.5645298   0.0000000), wk =   0.0138889
        k(    8) = (   0.0814516   0.0470385   0.0000000), wk =   0.0277778
        k(    9) = (   0.0814451   0.1411268   0.0000000), wk =   0.0277778
        k(   10) = (   0.0814386   0.2352151   0.0000000), wk =   0.0277778
        k(   11) = (   0.0814322   0.3293034   0.0000000), wk =   0.0277778
        k(   12) = (   0.0814257   0.4233917   0.0000000), wk =   0.0277778
        k(   13) = (   0.0814192   0.5174800   0.0000000), wk =   0.0277778
        k(   14) = (   0.0814906  -0.5174912   0.0000000), wk =   0.0277778
        k(   15) = (   0.0814841  -0.4234030   0.0000000), wk =   0.0277778
        k(   16) = (   0.0814776  -0.3293147   0.0000000), wk =   0.0277778
        k(   17) = (   0.0814711  -0.2352264   0.0000000), wk =   0.0277778
        k(   18) = (   0.0814646  -0.1411381   0.0000000), wk =   0.0277778
        k(   19) = (   0.0814581  -0.0470498   0.0000000), wk =   0.0277778
        k(   20) = (   0.1629033   0.0940771   0.0000000), wk =   0.0277778
        k(   21) = (   0.1628968   0.1881653   0.0000000), wk =   0.0277778
        k(   22) = (   0.1628903   0.2822536   0.0000000), wk =   0.0277778
        k(   23) = (   0.1628838   0.3763419   0.0000000), wk =   0.0277778
        k(   24) = (   0.1628773   0.4704302   0.0000000), wk =   0.0277778
        k(   25) = (   0.1628708   0.5645185   0.0000000), wk =   0.0277778
        k(   26) = (   0.1629422  -0.4704527   0.0000000), wk =   0.0277778
        k(   27) = (   0.1629357  -0.3763644   0.0000000), wk =   0.0277778
        k(   28) = (   0.1629292  -0.2822761   0.0000000), wk =   0.0277778
        k(   29) = (   0.1629227  -0.1881878   0.0000000), wk =   0.0277778
        k(   30) = (   0.1629162  -0.0940995   0.0000000), wk =   0.0277778
        k(   31) = (   0.1629098  -0.0000112   0.0000000), wk =   0.0277778
        k(   32) = (   0.2443549   0.1411156   0.0000000), wk =   0.0277778
        k(   33) = (   0.2443484   0.2352039   0.0000000), wk =   0.0277778
        k(   34) = (   0.2443419   0.3292922   0.0000000), wk =   0.0277778
        k(   35) = (   0.2443354   0.4233805   0.0000000), wk =   0.0277778
        k(   36) = (   0.2443289   0.5174688   0.0000000), wk =   0.0277778
        k(   37) = (   0.2443224   0.6115571   0.0000000), wk =   0.0277778
        k(   38) = (   0.2443938  -0.4234142   0.0000000), wk =   0.0277778
        k(   39) = (   0.2443873  -0.3293259   0.0000000), wk =   0.0277778
        k(   40) = (   0.2443809  -0.2352376   0.0000000), wk =   0.0277778
        k(   41) = (   0.2443744  -0.1411493   0.0000000), wk =   0.0277778
        k(   42) = (   0.2443679  -0.0470610   0.0000000), wk =   0.0277778
        k(   43) = (   0.2443614   0.0470273   0.0000000), wk =   0.0277778
        k(   44) = (   0.3258065   0.1881541   0.0000000), wk =   0.0277778
        k(   45) = (   0.3258000   0.2822424   0.0000000), wk =   0.0277778
        k(   46) = (   0.3257935   0.3763307   0.0000000), wk =   0.0277778
        k(   47) = (   0.3257870   0.4704190   0.0000000), wk =   0.0277778
        k(   48) = (   0.3257806   0.5645073   0.0000000), wk =   0.0277778
        k(   49) = (   0.3257741   0.6585956   0.0000000), wk =   0.0277778
        k(   50) = (   0.3258455  -0.3763757   0.0000000), wk =   0.0277778
        k(   51) = (   0.3258390  -0.2822874   0.0000000), wk =   0.0277778
        k(   52) = (   0.3258325  -0.1881991   0.0000000), wk =   0.0277778
        k(   53) = (   0.3258260  -0.0941108   0.0000000), wk =   0.0277778
        k(   54) = (   0.3258195  -0.0000225   0.0000000), wk =   0.0277778
        k(   55) = (   0.3258130   0.0940658   0.0000000), wk =   0.0277778
        k(   56) = (   0.4072581   0.2351926   0.0000000), wk =   0.0277778
        k(   57) = (   0.4072517   0.3292809   0.0000000), wk =   0.0277778
        k(   58) = (   0.4072452   0.4233692   0.0000000), wk =   0.0277778
        k(   59) = (   0.4072387   0.5174575   0.0000000), wk =   0.0277778
        k(   60) = (   0.4072322   0.6115458   0.0000000), wk =   0.0277778
        k(   61) = (   0.4072257   0.7056341   0.0000000), wk =   0.0277778
        k(   62) = (   0.4072971  -0.3293371   0.0000000), wk =   0.0277778
        k(   63) = (   0.4072906  -0.2352488   0.0000000), wk =   0.0277778
        k(   64) = (   0.4072841  -0.1411606   0.0000000), wk =   0.0277778
        k(   65) = (   0.4072776  -0.0470723   0.0000000), wk =   0.0277778
        k(   66) = (   0.4072711   0.0470160   0.0000000), wk =   0.0277778
        k(   67) = (   0.4072646   0.1411043   0.0000000), wk =   0.0277778
        k(   68) = (  -0.4887098  -0.2822312   0.0000000), wk =   0.0138889
        k(   69) = (  -0.4887163  -0.1881429   0.0000000), wk =   0.0277778
        k(   70) = (  -0.4887228  -0.0940546   0.0000000), wk =   0.0277778
        k(   71) = (  -0.4887293   0.0000337   0.0000000), wk =   0.0277778
        k(   72) = (  -0.4887357   0.0941220   0.0000000), wk =   0.0277778
        k(   73) = (  -0.4887422   0.1882103   0.0000000), wk =   0.0277778
        k(   74) = (  -0.4886708  -0.8467609   0.0000000), wk =   0.0138889

     Dense  grid:   484325 G-vectors     FFT dimensions: (  48,  48, 480)

     Smooth grid:   122267 G-vectors     FFT dimensions: (  32,  32, 300)

     Estimated max dynamical RAM per process >       2.79 GB

     Estimated total dynamical RAM >       5.58 GB

     Initial potential from superposition of free atoms

     starting charge   94.99760, renormalised to   95.00000

     negative rho (up, down):  8.040E-05 0.000E+00
     Starting wfcs are   63 randomized atomic wfcs

     total cpu time spent up to now is       27.6 secs

     Self-consistent Calculation

     iteration #  1     ecut=    70.00 Ry     beta= 0.70
     Davidson diagonalization with overlap
     ethr =  1.00E-02,  avg # of iterations =  2.1

     negative rho (up, down):  1.192E-07 0.000E+00

     total cpu time spent up to now is       53.1 secs

     total energy              =   -2094.31503689 Ry
     estimated scf accuracy    <       5.18912093 Ry

     iteration #  2     ecut=    70.00 Ry     beta= 0.70
     Davidson diagonalization with overlap
     ethr =  5.46E-03,  avg # of iterations = 11.2
     Minimization algorithm failed to find Fermi energy: reverting to bisection
     Possible cause: smearing is larger than the electronic band-gap.

     negative rho (up, down):  1.076E-04 0.000E+00

     total cpu time spent up to now is      105.5 secs

     total energy              =   -2038.96472347 Ry
     estimated scf accuracy    <    3370.32120920 Ry

     iteration #  3     ecut=    70.00 Ry     beta= 0.70
     Davidson diagonalization with overlap
     ethr =  5.46E-03,  avg # of iterations = 10.3

     negative rho (up, down):  1.712E-04 0.000E+00

     total cpu time spent up to now is      156.3 secs

     total energy              =   -2092.81253142 Ry
     estimated scf accuracy    <      93.28925543 Ry

     iteration #  4     ecut=    70.00 Ry     beta= 0.70
     Davidson diagonalization with overlap
     ethr =  5.46E-03,  avg # of iterations =  6.9

     negative rho (up, down):  3.828E-05 0.000E+00

     total cpu time spent up to now is      194.7 secs

     total energy              =   -2094.82738697 Ry
     estimated scf accuracy    <      59.04509591 Ry

     iteration #  5     ecut=    70.00 Ry     beta= 0.70
     Davidson diagonalization with overlap
     ethr =  5.46E-03,  avg # of iterations =  3.7

     negative rho (up, down):  4.353E-06 0.000E+00

     total cpu time spent up to now is      222.8 secs

     total energy              =   -2097.95720741 Ry
     estimated scf accuracy    <      10.79396894 Ry

     iteration #  6     ecut=    70.00 Ry     beta= 0.70
     Davidson diagonalization with overlap
     ethr =  5.46E-03,  avg # of iterations =  1.5

     negative rho (up, down):  3.585E-06 0.000E+00

     total cpu time spent up to now is      245.8 secs

     total energy              =   -2098.22003737 Ry
     estimated scf accuracy    <       2.60722912 Ry

     iteration #  7     ecut=    70.00 Ry     beta= 0.70
     Davidson diagonalization with overlap
     ethr =  2.74E-03,  avg # of iterations =  1.1

     negative rho (up, down):  1.941E-06 0.000E+00

     total cpu time spent up to now is      268.3 secs

     total energy              =   -2098.30956225 Ry
     estimated scf accuracy    <       3.45030342 Ry

     iteration #  8     ecut=    70.00 Ry     beta= 0.70
     Davidson diagonalization with overlap
     ethr =  2.74E-03,  avg # of iterations =  1.0

     negative rho (up, down):  4.744E-06 0.000E+00

     total cpu time spent up to now is      290.6 secs

     total energy              =   -2098.31523754 Ry
     estimated scf accuracy    <       1.68595345 Ry

     iteration #  9     ecut=    70.00 Ry     beta= 0.70
     Davidson diagonalization with overlap
     ethr =  1.77E-03,  avg # of iterations =  1.1

     negative rho (up, down):  3.683E-05 0.000E+00

     total cpu time spent up to now is      313.0 secs

     total energy              =   -2098.28690031 Ry
     estimated scf accuracy    <       2.29415800 Ry

     iteration # 10     ecut=    70.00 Ry     beta= 0.70
     Davidson diagonalization with overlap
     ethr =  1.77E-03,  avg # of iterations =  1.0
     Minimization algorithm failed to find Fermi energy: reverting to bisection
     Possible cause: smearing is larger than the electronic band-gap.

     negative rho (up, down):  6.411E-05 0.000E+00

     total cpu time spent up to now is      335.3 secs

     total energy              =   -2098.29595187 Ry
     estimated scf accuracy    <       0.10550798 Ry

     iteration # 11     ecut=    70.00 Ry     beta= 0.70
     Davidson diagonalization with overlap
     ethr =  1.11E-04,  avg # of iterations =  4.6
     Minimization algorithm failed to find Fermi energy: reverting to bisection
     Possible cause: smearing is larger than the electronic band-gap.

     negative rho (up, down):  7.686E-05 0.000E+00

     total cpu time spent up to now is      361.7 secs

     total energy              =   -2098.28867454 Ry
     estimated scf accuracy    <       0.06723201 Ry

     iteration # 12     ecut=    70.00 Ry     beta= 0.70
     Davidson diagonalization with overlap
     ethr =  7.08E-05,  avg # of iterations =  3.7

     negative rho (up, down):  6.957E-05 0.000E+00

     total cpu time spent up to now is      387.0 secs

     total energy              =   -2098.28840052 Ry
     estimated scf accuracy    <       0.43716499 Ry

     iteration # 13     ecut=    70.00 Ry     beta= 0.70
     Davidson diagonalization with overlap
     ethr =  7.08E-05,  avg # of iterations =  2.0

     negative rho (up, down):  7.090E-05 0.000E+00

     total cpu time spent up to now is      410.5 secs

     total energy              =   -2098.29474619 Ry
     estimated scf accuracy    <       0.00774783 Ry

     iteration # 14     ecut=    70.00 Ry     beta= 0.70
     Davidson diagonalization with overlap
     ethr =  8.16E-06,  avg # of iterations =  7.7

     negative rho (up, down):  7.914E-05 0.000E+00

     total cpu time spent up to now is      439.6 secs

     total energy              =   -2098.29491590 Ry
     estimated scf accuracy    <       0.00373125 Ry

     iteration # 15     ecut=    70.00 Ry     beta= 0.70
     Davidson diagonalization with overlap
     ethr =  3.93E-06,  avg # of iterations =  2.4

     negative rho (up, down):  7.438E-05 0.000E+00

     total cpu time spent up to now is      463.7 secs

     total energy              =   -2098.29478894 Ry
     estimated scf accuracy    <       0.00441484 Ry

     iteration # 16     ecut=    70.00 Ry     beta= 0.70
     Davidson diagonalization with overlap
     ethr =  3.93E-06,  avg # of iterations =  1.1

     negative rho (up, down):  7.824E-05 0.000E+00

     total cpu time spent up to now is      486.0 secs

     total energy              =   -2098.29505955 Ry
     estimated scf accuracy    <       0.00027527 Ry

     iteration # 17     ecut=    70.00 Ry     beta= 0.70
     Davidson diagonalization with overlap
     ethr =  2.90E-07,  avg # of iterations =  1.5

     negative rho (up, down):  8.019E-05 0.000E+00

     total cpu time spent up to now is      509.1 secs

     total energy              =   -2098.29506631 Ry
     estimated scf accuracy    <       0.00003390 Ry

     iteration # 18     ecut=    70.00 Ry     beta= 0.70
     Davidson diagonalization with overlap
     ethr =  3.57E-08,  avg # of iterations =  2.1

     negative rho (up, down):  8.412E-05 0.000E+00

     total cpu time spent up to now is      532.9 secs

     total energy              =   -2098.29506686 Ry
     estimated scf accuracy    <       0.00002539 Ry

     iteration # 19     ecut=    70.00 Ry     beta= 0.70
     Davidson diagonalization with overlap
     ethr =  2.67E-08,  avg # of iterations =  1.3

     negative rho (up, down):  8.520E-05 0.000E+00

     total cpu time spent up to now is      555.7 secs

     total energy              =   -2098.29506749 Ry
     estimated scf accuracy    <       0.00001109 Ry

     iteration # 20     ecut=    70.00 Ry     beta= 0.70
     Davidson diagonalization with overlap
     ethr =  1.17E-08,  avg # of iterations =  1.6

     negative rho (up, down):  8.514E-05 0.000E+00

     total cpu time spent up to now is      578.8 secs

     total energy              =   -2098.29506784 Ry
     estimated scf accuracy    <       0.00000064 Ry

     iteration # 21     ecut=    70.00 Ry     beta= 0.70
     Davidson diagonalization with overlap
     ethr =  6.69E-10,  avg # of iterations =  4.2

     negative rho (up, down):  8.465E-05 0.000E+00

     total cpu time spent up to now is      605.3 secs

     total energy              =   -2098.29506790 Ry
     estimated scf accuracy    <       0.00000020 Ry

     iteration # 22     ecut=    70.00 Ry     beta= 0.70
     Davidson diagonalization with overlap
     ethr =  2.12E-10,  avg # of iterations =  1.7

     negative rho (up, down):  8.494E-05 0.000E+00

     total cpu time spent up to now is      628.6 secs

     total energy              =   -2098.29506791 Ry
     estimated scf accuracy    <       0.00000004 Ry

     iteration # 23     ecut=    70.00 Ry     beta= 0.70
     Davidson diagonalization with overlap
     ethr =  3.77E-11,  avg # of iterations =  4.5

     negative rho (up, down):  8.495E-05 0.000E+00

     total cpu time spent up to now is      654.8 secs

     total energy              =   -2098.29506791 Ry
     estimated scf accuracy    <          6.7E-09 Ry

     iteration # 24     ecut=    70.00 Ry     beta= 0.70
     Davidson diagonalization with overlap
     ethr =  7.08E-12,  avg # of iterations =  3.1

     negative rho (up, down):  8.496E-05 0.000E+00

     total cpu time spent up to now is      679.6 secs

     total energy              =   -2098.29506791 Ry
     estimated scf accuracy    <          7.8E-11 Ry

     iteration # 25     ecut=    70.00 Ry     beta= 0.70
     Davidson diagonalization with overlap
     ethr =  1.00E-13,  avg # of iterations =  7.3

     negative rho (up, down):  8.496E-05 0.000E+00

     total cpu time spent up to now is      716.2 secs

     total energy              =   -2098.29506791 Ry
     estimated scf accuracy    <          7.9E-11 Ry

     iteration # 26     ecut=    70.00 Ry     beta= 0.70
     Davidson diagonalization with overlap
     ethr =  1.00E-13,  avg # of iterations =  2.0

     negative rho (up, down):  8.497E-05 0.000E+00

     total cpu time spent up to now is      740.5 secs

     total energy              =   -2098.29506791 Ry
     estimated scf accuracy    <          3.3E-11 Ry

     iteration # 27     ecut=    70.00 Ry     beta= 0.70
     Davidson diagonalization with overlap
     ethr =  1.00E-13,  avg # of iterations =  1.1

     negative rho (up, down):  8.497E-05 0.000E+00

     total cpu time spent up to now is      762.9 secs

     total energy              =   -2098.29506791 Ry
     estimated scf accuracy    <          1.8E-11 Ry

     iteration # 28     ecut=    70.00 Ry     beta= 0.70
     Davidson diagonalization with overlap
     ethr =  1.00E-13,  avg # of iterations =  1.0

     negative rho (up, down):  8.497E-05 0.000E+00

     total cpu time spent up to now is      785.2 secs

     total energy              =   -2098.29506791 Ry
     estimated scf accuracy    <          2.7E-12 Ry

     iteration # 29     ecut=    70.00 Ry     beta= 0.70
     Davidson diagonalization with overlap
     ethr =  1.00E-13,  avg # of iterations =  1.0

     negative rho (up, down):  8.497E-05 0.000E+00

     total cpu time spent up to now is      807.3 secs

     End of self-consistent calculation

          k = 0.0000 0.0000 0.0000 ( 15285 PWs)   bands (ev):

   -67.3218 -66.9211 -66.5032 -33.9251 -33.4200 -33.3955 -33.3947 -33.1825
   -32.9822 -32.9815 -32.5334 -32.5327 -18.9781 -18.9765 -18.9650 -18.9649
   -18.9513 -18.9513 -18.9124 -18.5920 -18.5842 -18.5787 -18.5787 -18.5639
   -18.5638 -18.5184 -18.2069 -18.1634 -18.1633 -18.1423 -18.1423 -18.1241
   -18.0568 -14.4281 -11.8839 -10.4953  -6.2939  -4.0135  -1.5978  -1.5931
    -1.5678  -0.4973  -0.4927  -0.2630   0.8759   1.2466   1.2525   1.7691
     1.7704   2.9418   3.2770   3.2798   3.4065   3.4103   3.6290   4.0021
     4.0052   5.1151

          k =-0.0000 0.0941 0.0000 ( 15393 PWs)   bands (ev):

   -67.3182 -66.9175 -66.4996 -33.9142 -33.4544 -33.4078 -33.4077 -33.1747
   -33.0349 -32.9943 -32.5866 -32.5456 -18.9759 -18.9748 -18.9653 -18.9637
   -18.9531 -18.9518 -18.9156 -18.5907 -18.5824 -18.5781 -18.5774 -18.5656
   -18.5643 -18.5216 -18.2056 -18.1652 -18.1639 -18.1427 -18.1410 -18.1213
   -18.0600 -14.3923 -11.7361 -10.4205  -6.0669  -3.9424  -1.8283  -1.5304
    -1.4400  -1.0284  -0.5055  -0.2214   0.7550   1.0315   1.3931   1.4985
     1.7819   2.3957   2.9525   3.2000   3.7365   3.7960   3.8393   3.9839
     4.2839   5.4942

          k =-0.0000 0.1882 0.0000 ( 15383 PWs)   bands (ev):

   -67.3082 -66.9076 -66.4896 -33.8847 -33.5991 -33.4410 -33.3898 -33.1785
   -33.1536 -33.0273 -32.7316 -32.5789 -18.9732 -18.9681 -18.9651 -18.9603
   -18.9577 -18.9532 -18.9238 -18.5881 -18.5806 -18.5741 -18.5728 -18.5699
   -18.5657 -18.5298 -18.2020 -18.1701 -18.1651 -18.1435 -18.1375 -18.1134
   -18.0684 -14.2945 -11.3231 -10.2299  -5.4598  -3.7849  -2.3582  -2.0688
    -1.4162  -1.1740  -0.5742  -0.2974   0.2067   0.8702   1.0723   1.4825
     1.9052   2.2165   3.0192   3.0620   3.5662   3.8171   3.8181   4.3537
     4.9761   5.9762

          k =-0.0000 0.2823 0.0000 ( 15389 PWs)   bands (ev):

   -67.2945 -66.8940 -66.4760 -33.8448 -33.7926 -33.4861 -33.3847 -33.3475
   -33.1266 -33.0720 -32.9240 -32.6240 -18.9732 -18.9650 -18.9627 -18.9571
   -18.9558 -18.9549 -18.9335 -18.5874 -18.5785 -18.5759 -18.5699 -18.5680
   -18.5615 -18.5398 -18.1973 -18.1766 -18.1670 -18.1443 -18.1328 -18.1026
   -18.0794 -14.1601 -10.7361  -9.9906  -4.7999  -3.6482  -3.1423  -2.8679
    -1.4728  -1.2817  -0.6461  -0.5443   0.3247   0.4141   0.9675   1.4306
     1.7638   2.9967   3.1455   3.4625   3.5911   3.8212   4.0265   4.5848
     5.2060   6.6198

          k =-0.0000 0.3764 0.0000 ( 15341 PWs)   bands (ev):

   -67.2808 -66.8803 -66.4623 -33.9813 -33.8068 -33.5553 -33.5309 -33.3332
   -33.1251 -33.1164 -33.0848 -32.6687 -18.9755 -18.9702 -18.9621 -18.9576
   -18.9506 -18.9452 -18.9404 -18.5887 -18.5834 -18.5732 -18.5719 -18.5646
   -18.5506 -18.5476 -18.1929 -18.1827 -18.1693 -18.1445 -18.1280 -18.0915
   -18.0896 -14.0238 -10.1750  -9.6860  -4.8607  -3.9428  -3.3875  -3.1550
    -1.7223  -1.7068  -0.6795  -0.6411   0.0369   0.7965   1.1337   1.3680
     1.9472   3.1154   3.6646   4.0564   4.1705   4.3006   4.8300   5.0007
     5.3797   6.9855

          k =-0.0000 0.4704 0.0000 ( 15283 PWs)   bands (ev):

   -67.2707 -66.8703 -66.4522 -34.1159 -33.7900 -33.6749 -33.5635 -33.3143
   -33.2487 -33.1486 -33.0740 -32.7013 -18.9782 -18.9734 -18.9677 -18.9535
   -18.9474 -18.9433 -18.9371 -18.5900 -18.5876 -18.5779 -18.5679 -18.5611
   -18.5518 -18.5424 -18.1902 -18.1869 -18.1712 -18.1442 -18.1245 -18.0965
   -18.0833 -13.9222  -9.9291  -9.2140  -5.4607  -4.1609  -3.8003  -2.8137
    -2.1126  -1.9157  -0.7752  -0.7245  -0.0468   1.0793   1.3194   1.5617
     2.1190   3.5839   3.8973   4.1438   5.1407   5.3478   5.6387   5.7255
     6.0439   7.3024

          k = 0.0000-0.5645 0.0000 ( 15258 PWs)   bands (ev):

   -67.2670 -66.8666 -66.4485 -34.1645 -33.7967 -33.7054 -33.5753 -33.3077
   -33.2959 -33.1604 -33.0669 -32.7131 -18.9794 -18.9744 -18.9700 -18.9520
   -18.9465 -18.9439 -18.9341 -18.5906 -18.5891 -18.5799 -18.5664 -18.5598
   -18.5530 -18.5393 -18.1895 -18.1882 -18.1719 -18.1441 -18.1232 -18.0990
   -18.0802 -13.8846  -9.8764  -8.9604  -5.7634  -4.1786  -3.9900  -2.7126
    -2.2669  -1.9941  -0.8553  -0.7476  -0.0382   1.1035   1.3007   1.8019
     2.2810   3.8638   3.9862   4.1424   5.4148   5.9137   6.2241   6.4773
     6.5629   7.1054

          k = 0.0815 0.0470 0.0000 ( 15393 PWs)   bands (ev):

   -67.3182 -66.9175 -66.4996 -33.9143 -33.4549 -33.4078 -33.4070 -33.1747
   -33.0354 -32.9937 -32.5872 -32.5450 -18.9760 -18.9748 -18.9653 -18.9637
   -18.9531 -18.9517 -18.9156 -18.5908 -18.5824 -18.5781 -18.5775 -18.5657
   -18.5643 -18.5216 -18.2056 -18.1653 -18.1638 -18.1427 -18.1410 -18.1213
   -18.0600 -14.3923 -11.7362 -10.4206  -6.0670  -3.9426  -1.8318  -1.5265
    -1.4402  -1.0314  -0.5016  -0.2217   0.7523   1.0298   1.3968   1.4980
     1.7843   2.3946   2.9560   3.1965   3.7352   3.7948   3.8414   3.9867
     4.2826   5.4936

          k = 0.0814 0.1411 0.0000 ( 15383 PWs)   bands (ev):

   -67.3114 -66.9108 -66.4928 -33.8940 -33.5507 -33.4332 -33.3955 -33.1606
   -33.1304 -33.0193 -32.6835 -32.5708 -18.9736 -18.9701 -18.9660 -18.9611
   -18.9565 -18.9525 -18.9213 -18.5886 -18.5810 -18.5759 -18.5739 -18.5690
   -18.5650 -18.5273 -18.2031 -18.1686 -18.1647 -18.1433 -18.1387 -18.1159
   -18.0658 -14.3256 -11.4554 -10.2882  -5.6443  -3.8266  -2.1666  -1.8151
    -1.4229  -1.1410  -0.7852  -0.1592   0.2682   1.0711   1.1669   1.4693
     1.8782   2.3851   2.4493   3.1530   3.6504   3.8171   3.9561   4.3622
     4.9476   5.8131

          k = 0.0814 0.2352 0.0000 ( 15382 PWs)   bands (ev):

   -67.2995 -66.8990 -66.4810 -33.8592 -33.7129 -33.4800 -33.3750 -33.2880
   -33.1363 -33.0654 -32.8449 -32.6173 -18.9714 -18.9661 -18.9628 -18.9605
   -18.9569 -18.9537 -18.9307 -18.5862 -18.5801 -18.5747 -18.5715 -18.5674
   -18.5646 -18.5367 -18.1989 -18.1741 -18.1664 -18.1440 -18.1347 -18.1066
   -18.0756 -14.2096 -10.9503 -10.0773  -4.9488  -3.6974  -2.7427  -2.5961
    -1.5851  -1.1922  -0.8378  -0.3755   0.2345   0.5713   1.1224   1.4055
     1.6383   2.6996   2.9121   3.1018   3.5533   3.8894   4.2164   4.7306
     5.3113   6.1990

          k = 0.0814 0.3293 0.0000 ( 15357 PWs)   bands (ev):

   -67.2858 -66.8853 -66.4673 -33.8953 -33.8196 -33.5341 -33.4729 -33.3417
   -33.1188 -33.1107 -33.0238 -32.6709 -18.9729 -18.9681 -18.9616 -18.9588
   -18.9527 -18.9487 -18.9395 -18.5866 -18.5811 -18.5756 -18.5709 -18.5660
   -18.5546 -18.5461 -18.1942 -18.1801 -18.1687 -18.1443 -18.1303 -18.0956
   -18.0863 -14.0742 -10.3457  -9.8328  -4.5515  -3.6993  -3.3268  -3.1122
    -1.8157  -1.6002  -0.9053  -0.3989   0.1722   0.5975   0.9555   1.3508
     1.7948   2.8094   3.2639   3.5371   4.1343   4.4024   4.7597   4.8116
     5.5186   6.8276

          k = 0.0814 0.4234 0.0000 ( 15308 PWs)   bands (ev):

   -67.2739 -66.8735 -66.4554 -34.0493 -33.7902 -33.6192 -33.5789 -33.3200
   -33.1842 -33.1640 -33.0793 -32.7168 -18.9759 -18.9717 -18.9646 -18.9563
   -18.9488 -18.9446 -18.9397 -18.5880 -18.5858 -18.5755 -18.5706 -18.5626
   -18.5523 -18.5450 -18.1905 -18.1849 -18.1709 -18.1441 -18.1265 -18.0951
   -18.0859 -13.9549  -9.9359  -9.4403  -5.0333  -4.0179  -3.5539  -2.9215
    -2.0971  -1.9740  -0.9201  -0.5729   0.0364   0.9203   1.1614   1.3532
     2.1045   3.1513   3.6208   3.9790   4.4684   5.1121   5.4981   5.6868
     5.9087   7.1539

          k = 0.0814 0.5175 0.0000 ( 15278 PWs)   bands (ev):

   -67.2670 -66.8666 -66.4485 -34.1367 -33.7860 -33.6888 -33.6058 -33.3070
   -33.2692 -33.1901 -33.0667 -32.7432 -18.9780 -18.9731 -18.9693 -18.9527
   -18.9479 -18.9457 -18.9343 -18.5890 -18.5881 -18.5793 -18.5672 -18.5608
   -18.5549 -18.5395 -18.1888 -18.1874 -18.1724 -18.1437 -18.1243 -18.0999
   -18.0803 -13.8849  -9.8161  -9.0221  -5.5516  -4.1052  -3.8435  -2.7012
    -2.3051  -2.1787  -0.9319  -0.7086   0.0306   0.9353   1.3203   1.6750
     2.2619   3.5965   3.8690   4.4655   5.0263   5.4356   5.8802   6.4238
     6.5516   7.0693

          k = 0.0815-0.5175 0.0000 ( 15276 PWs)   bands (ev):

   -67.2670 -66.8666 -66.4485 -34.1368 -33.7860 -33.6889 -33.6058 -33.3070
   -33.2692 -33.1901 -33.0667 -32.7432 -18.9780 -18.9731 -18.9693 -18.9527
   -18.9479 -18.9457 -18.9343 -18.5890 -18.5881 -18.5793 -18.5672 -18.5608
   -18.5549 -18.5395 -18.1888 -18.1874 -18.1724 -18.1437 -18.1243 -18.0999
   -18.0803 -13.8849  -9.8161  -9.0220  -5.5517  -4.1052  -3.8435  -2.7011
    -2.3051  -2.1786  -0.9320  -0.7086   0.0306   0.9353   1.3203   1.6750
     2.2618   3.5963   3.8689   4.4654   5.0249   5.4355   5.8804   6.4255
     6.5522   7.0697

          k = 0.0815-0.4234 0.0000 ( 15310 PWs)   bands (ev):

   -67.2739 -66.8735 -66.4554 -34.0494 -33.7902 -33.6193 -33.5789 -33.3200
   -33.1843 -33.1640 -33.0793 -32.7168 -18.9759 -18.9717 -18.9647 -18.9563
   -18.9488 -18.9446 -18.9397 -18.5880 -18.5858 -18.5755 -18.5706 -18.5626
   -18.5523 -18.5450 -18.1905 -18.1849 -18.1710 -18.1441 -18.1265 -18.0951
   -18.0859 -13.9548  -9.9358  -9.4402  -5.0335  -4.0181  -3.5541  -2.9215
    -2.0970  -1.9738  -0.9204  -0.5729   0.0363   0.9203   1.1614   1.3531
     2.1044   3.1508   3.6206   3.9784   4.4682   5.1123   5.4984   5.6874
     5.9099   7.1543

          k = 0.0815-0.3293 0.0000 ( 15357 PWs)   bands (ev):

   -67.2858 -66.8853 -66.4673 -33.8955 -33.8196 -33.5341 -33.4731 -33.3416
   -33.1188 -33.1107 -33.0239 -32.6708 -18.9729 -18.9681 -18.9616 -18.9588
   -18.9527 -18.9486 -18.9395 -18.5866 -18.5811 -18.5756 -18.5709 -18.5661
   -18.5545 -18.5461 -18.1942 -18.1800 -18.1687 -18.1443 -18.1302 -18.0956
   -18.0863 -14.0741 -10.3455  -9.8327  -4.5515  -3.6995  -3.3268  -3.1123
    -1.8155  -1.5999  -0.9056  -0.3989   0.1719   0.5976   0.9554   1.3509
     1.7946   2.8090   3.2640   3.5373   4.1345   4.4026   4.7597   4.8116
     5.5186   6.8274

          k = 0.0815-0.2352 0.0000 ( 15382 PWs)   bands (ev):

   -67.2995 -66.8990 -66.4810 -33.8591 -33.7129 -33.4800 -33.3750 -33.2881
   -33.1363 -33.0655 -32.8449 -32.6174 -18.9714 -18.9661 -18.9628 -18.9605
   -18.9569 -18.9537 -18.9307 -18.5862 -18.5801 -18.5747 -18.5715 -18.5674
   -18.5646 -18.5367 -18.1989 -18.1741 -18.1664 -18.1440 -18.1347 -18.1065
   -18.0756 -14.2095 -10.9501 -10.0772  -4.9486  -3.6973  -2.7427  -2.5961
    -1.5850  -1.1921  -0.8379  -0.3754   0.2345   0.5709   1.1223   1.4057
     1.6382   2.6994   2.9123   3.1011   3.5535   3.8896   4.2164   4.7299
     5.3111   6.1988

          k = 0.0815-0.1411 0.0000 ( 15383 PWs)   bands (ev):

   -67.3113 -66.9108 -66.4928 -33.8940 -33.5506 -33.4334 -33.3955 -33.1606
   -33.1304 -33.0195 -32.6834 -32.5710 -18.9736 -18.9701 -18.9660 -18.9611
   -18.9565 -18.9525 -18.9214 -18.5886 -18.5811 -18.5759 -18.5739 -18.5690
   -18.5650 -18.5273 -18.2031 -18.1686 -18.1647 -18.1433 -18.1387 -18.1159
   -18.0658 -14.3255 -11.4553 -10.2881  -5.6441  -3.8265  -2.1658  -1.8149
    -1.4229  -1.1414  -0.7859  -0.1591   0.2688   1.0710   1.1670   1.4691
     1.8775   2.3844   2.4491   3.1531   3.6505   3.8177   3.9556   4.3614
     4.9478   5.8127

          k = 0.0815-0.0470 0.0000 ( 15393 PWs)   bands (ev):

   -67.3182 -66.9175 -66.4996 -33.9143 -33.4547 -33.4078 -33.4073 -33.1747
   -33.0352 -32.9939 -32.5870 -32.5452 -18.9760 -18.9748 -18.9653 -18.9637
   -18.9531 -18.9517 -18.9156 -18.5908 -18.5824 -18.5781 -18.5775 -18.5657
   -18.5643 -18.5216 -18.2056 -18.1653 -18.1638 -18.1427 -18.1410 -18.1213
   -18.0600 -14.3923 -11.7362 -10.4206  -6.0670  -3.9425  -1.8305  -1.5280
    -1.4401  -1.0303  -0.5031  -0.2216   0.7533   1.0305   1.3954   1.4982
     1.7834   2.3950   2.9547   3.1978   3.7357   3.7952   3.8406   3.9857
     4.2831   5.4938

          k = 0.1629 0.0941 0.0000 ( 15385 PWs)   bands (ev):

   -67.3082 -66.9076 -66.4896 -33.8847 -33.5995 -33.4402 -33.3899 -33.1789
   -33.1536 -33.0266 -32.7320 -32.5781 -18.9732 -18.9680 -18.9652 -18.9603
   -18.9577 -18.9532 -18.9238 -18.5881 -18.5805 -18.5741 -18.5729 -18.5699
   -18.5656 -18.5298 -18.2020 -18.1702 -18.1650 -18.1435 -18.1376 -18.1134
   -18.0684 -14.2947 -11.3235 -10.2301  -5.4604  -3.7855  -2.3604  -2.0714
    -1.4126  -1.1746  -0.5703  -0.2981   0.2052   0.8694   1.0717   1.4836
     1.9042   2.2210   3.0230   3.0601   3.5628   3.8176   3.8211   4.3558
     4.9758   5.9752

          k = 0.1629 0.1882 0.0000 ( 15382 PWs)   bands (ev):

   -67.2995 -66.8990 -66.4810 -33.8592 -33.7131 -33.4795 -33.3751 -33.2882
   -33.1364 -33.0650 -32.8451 -32.6169 -18.9714 -18.9661 -18.9628 -18.9606
   -18.9569 -18.9537 -18.9306 -18.5862 -18.5801 -18.5747 -18.5716 -18.5674
   -18.5646 -18.5367 -18.1989 -18.1741 -18.1664 -18.1440 -18.1347 -18.1066
   -18.0756 -14.2097 -10.9506 -10.0774  -4.9492  -3.6979  -2.7439  -2.5973
    -1.5833  -1.1906  -0.8379  -0.3756   0.2344   0.5710   1.1220   1.4060
     1.6381   2.7007   2.9120   3.1026   3.5519   3.8912   4.2182   4.7311
     5.3107   6.1997

          k = 0.1629 0.2823 0.0000 ( 15359 PWs)   bands (ev):

   -67.2877 -66.8872 -66.4691 -33.8509 -33.8245 -33.5484 -33.4310 -33.3436
   -33.1325 -33.1130 -32.9811 -32.6846 -18.9693 -18.9676 -18.9654 -18.9575
   -18.9537 -18.9492 -18.9400 -18.5835 -18.5805 -18.5789 -18.5701 -18.5662
   -18.5559 -18.5460 -18.1946 -18.1788 -18.1686 -18.1442 -18.1313 -18.0971
   -18.0853 -14.0926 -10.4085  -9.8785  -4.3260  -3.6848  -3.2620  -2.9610
    -1.9736  -1.7764  -0.8280  -0.2472   0.0691   0.5555   0.8825   1.2925
     1.6578   2.5850   3.1360   3.4402   4.1371   4.3122   4.7252   5.3586
     5.7687   6.1879

          k = 0.1629 0.3763 0.0000 ( 15298 PWs)   bands (ev):

   -67.2758 -66.8753 -66.4573 -33.9788 -33.7918 -33.6241 -33.5518 -33.3229
   -33.2060 -33.1201 -33.0773 -32.7591 -18.9732 -18.9681 -18.9621 -18.9603
   -18.9497 -18.9481 -18.9412 -18.5845 -18.5833 -18.5755 -18.5727 -18.5634
   -18.5547 -18.5466 -18.1903 -18.1829 -18.1713 -18.1437 -18.1285 -18.0949
   -18.0875 -13.9739  -9.8675  -9.6246  -4.4562  -3.7741  -3.3230  -3.1146
    -2.3721  -2.2077  -0.8076  -0.3866   0.0942   0.5302   1.0037   1.2356
     1.9266   2.6766   3.3343   3.5773   4.6327   4.8566   5.6092   5.8232
     6.3419   6.8308

          k = 0.1629 0.4704 0.0000 ( 15277 PWs)   bands (ev):

   -67.2671 -66.8667 -66.4486 -34.0686 -33.7722 -33.6812 -33.6338 -33.3066
   -33.2617 -33.2027 -33.0661 -32.8156 -18.9755 -18.9694 -18.9662 -18.9563
   -18.9519 -18.9485 -18.9346 -18.5867 -18.5842 -18.5771 -18.5704 -18.5624
   -18.5595 -18.5398 -18.1874 -18.1855 -18.1737 -18.1427 -18.1268 -18.1017
   -18.0804 -13.8855  -9.6584  -9.1785  -5.0199  -3.8972  -3.5318  -2.7734
    -2.6611  -2.4903  -0.8045  -0.5430   0.1450   0.5858   1.2486   1.3315
     2.3368   3.0788   3.6618   3.9630   4.6918   5.0286   5.9802   6.3899
     6.6642   7.3493

          k = 0.1629 0.5645 0.0000 ( 15268 PWs)   bands (ev):

   -67.2639 -66.8635 -66.4454 -34.1009 -33.7682 -33.7021 -33.6603 -33.3010
   -33.2819 -33.2343 -33.0600 -32.8366 -18.9757 -18.9697 -18.9695 -18.9531
   -18.9529 -18.9491 -18.9321 -18.5870 -18.5846 -18.5796 -18.5677 -18.5627
   -18.5610 -18.5373 -18.1868 -18.1859 -18.1747 -18.1422 -18.1263 -18.1041
   -18.0779 -13.8528  -9.6091  -8.9579  -5.2778  -3.9349  -3.6106  -2.7933
    -2.7066  -2.5433  -0.8081  -0.5932   0.1588   0.5684   1.3183   1.5495
     2.4156   3.4633   3.8599   4.4385   4.6961   5.1519   5.7935   6.0625
     7.0665   7.3010

          k = 0.1629-0.4705 0.0000 ( 15279 PWs)   bands (ev):

   -67.2671 -66.8667 -66.4485 -34.0687 -33.7722 -33.6811 -33.6340 -33.3066
   -33.2616 -33.2028 -33.0661 -32.8156 -18.9754 -18.9695 -18.9662 -18.9563
   -18.9519 -18.9484 -18.9346 -18.5867 -18.5842 -18.5771 -18.5704 -18.5624
   -18.5595 -18.5398 -18.1874 -18.1855 -18.1737 -18.1427 -18.1268 -18.1017
   -18.0804 -13.8854  -9.6583  -9.1783  -5.0203  -3.8974  -3.5321  -2.7733
    -2.6611  -2.4901  -0.8047  -0.5431   0.1448   0.5860   1.2484   1.3314
     2.3367   3.0781   3.6618   3.9624   4.6917   5.0284   5.9809   6.3916
     6.6646   7.3507

          k = 0.1629-0.3764 0.0000 ( 15300 PWs)   bands (ev):

   -67.2758 -66.8753 -66.4572 -33.9790 -33.7918 -33.6241 -33.5520 -33.3229
   -33.2059 -33.1203 -33.0773 -32.7591 -18.9732 -18.9681 -18.9621 -18.9603
   -18.9497 -18.9481 -18.9411 -18.5845 -18.5833 -18.5755 -18.5727 -18.5634
   -18.5547 -18.5466 -18.1903 -18.1829 -18.1713 -18.1437 -18.1284 -18.0950
   -18.0875 -13.9738  -9.8673  -9.6244  -4.4565  -3.7744  -3.3234  -3.1145
    -2.3720  -2.2075  -0.8077  -0.3869   0.0940   0.5301   1.0036   1.2356
     1.9264   2.6761   3.3344   3.5772   4.6327   4.8564   5.6096   5.8237
     6.3426   6.8315

          k = 0.1629-0.2823 0.0000 ( 15359 PWs)   bands (ev):

   -67.2877 -66.8872 -66.4691 -33.8511 -33.8245 -33.5485 -33.4312 -33.3436
   -33.1325 -33.1130 -32.9813 -32.6847 -18.9692 -18.9676 -18.9655 -18.9575
   -18.9538 -18.9491 -18.9400 -18.5835 -18.5806 -18.5789 -18.5701 -18.5662
   -18.5558 -18.5461 -18.1946 -18.1788 -18.1687 -18.1442 -18.1313 -18.0971
   -18.0853 -14.0925 -10.4081  -9.8784  -4.3258  -3.6848  -3.2619  -2.9611
    -1.9737  -1.7765  -0.8280  -0.2473   0.0688   0.5555   0.8821   1.2927
     1.6578   2.5845   3.1365   3.4404   4.1370   4.3121   4.7249   5.3583
     5.7688   6.1872

          k = 0.1629-0.1882 0.0000 ( 15380 PWs)   bands (ev):

   -67.2995 -66.8990 -66.4810 -33.8592 -33.7130 -33.4797 -33.3750 -33.2882
   -33.1363 -33.0652 -32.8451 -32.6171 -18.9714 -18.9661 -18.9628 -18.9606
   -18.9569 -18.9537 -18.9307 -18.5862 -18.5801 -18.5747 -18.5716 -18.5674
   -18.5646 -18.5367 -18.1989 -18.1741 -18.1664 -18.1440 -18.1347 -18.1066
   -18.0756 -14.2096 -10.9503 -10.0773  -4.9489  -3.6977  -2.7434  -2.5968
    -1.5839  -1.1911  -0.8381  -0.3755   0.2344   0.5708   1.1221   1.4060
     1.6381   2.7000   2.9122   3.1016   3.5526   3.8908   4.2175   4.7303
     5.3108   6.1992

          k = 0.1629-0.0941 0.0000 ( 15385 PWs)   bands (ev):

   -67.3082 -66.9076 -66.4896 -33.8847 -33.5993 -33.4405 -33.3899 -33.1787
   -33.1536 -33.0269 -32.7319 -32.5784 -18.9732 -18.9681 -18.9652 -18.9603
   -18.9577 -18.9532 -18.9238 -18.5881 -18.5806 -18.5741 -18.5728 -18.5699
   -18.5656 -18.5298 -18.2020 -18.1702 -18.1650 -18.1435 -18.1376 -18.1134
   -18.0684 -14.2946 -11.3234 -10.2301  -5.4602  -3.7853  -2.3596  -2.0704
    -1.4139  -1.1744  -0.5718  -0.2978   0.2057   0.8697   1.0719   1.4832
     1.9046   2.2193   3.0216   3.0608   3.5641   3.8173   3.8201   4.3550
     4.9759   5.9756

          k = 0.1629-0.0000 0.0000 ( 15383 PWs)   bands (ev):

   -67.3114 -66.9108 -66.4928 -33.8941 -33.5509 -33.4329 -33.3956 -33.1607
   -33.1305 -33.0191 -32.6836 -32.5705 -18.9736 -18.9701 -18.9660 -18.9611
   -18.9565 -18.9525 -18.9213 -18.5886 -18.5810 -18.5758 -18.5740 -18.5690
   -18.5650 -18.5273 -18.2031 -18.1686 -18.1647 -18.1433 -18.1387 -18.1159
   -18.0658 -14.3257 -11.4556 -10.2883  -5.6445  -3.8268  -2.1679  -1.8154
    -1.4229  -1.1404  -0.7841  -0.1595   0.2672   1.0713   1.1669   1.4697
     1.8793   2.3861   2.4497   3.1529   3.6502   3.8162   3.9569   4.3635
     4.9472   5.8137

          k = 0.2444 0.1411 0.0000 ( 15395 PWs)   bands (ev):

   -67.2946 -66.8940 -66.4760 -33.8449 -33.7928 -33.4853 -33.3847 -33.3477
   -33.1267 -33.0712 -32.9242 -32.6231 -18.9732 -18.9650 -18.9627 -18.9570
   -18.9559 -18.9550 -18.9334 -18.5874 -18.5785 -18.5759 -18.5700 -18.5680
   -18.5615 -18.5397 -18.1973 -18.1767 -18.1669 -18.1443 -18.1328 -18.1026
   -18.0793 -14.1605 -10.7369  -9.9910  -4.8009  -3.6493  -3.1441  -2.8693
    -1.4690  -1.2829  -0.6421  -0.5449   0.3242   0.4138   0.9663   1.4315
     1.7628   2.9954   3.1488   3.4602   3.5940   3.8217   4.0295   4.5874
     5.2065   6.6183

          k = 0.2443 0.2352 0.0000 ( 15357 PWs)   bands (ev):

   -67.2859 -66.8854 -66.4673 -33.8955 -33.8197 -33.5333 -33.4730 -33.3418
   -33.1181 -33.1108 -33.0239 -32.6701 -18.9729 -18.9681 -18.9615 -18.9588
   -18.9528 -18.9487 -18.9395 -18.5865 -18.5811 -18.5755 -18.5709 -18.5661
   -18.5546 -18.5460 -18.1942 -18.1801 -18.1686 -18.1443 -18.1303 -18.0956
   -18.0863 -14.0744 -10.3465  -9.8331  -4.5521  -3.7004  -3.3286  -3.1127
    -1.8129  -1.5989  -0.9050  -0.3983   0.1717   0.5973   0.9552   1.3514
     1.7938   2.8085   3.2631   3.5378   4.1360   4.4042   4.7616   4.8131
     5.5190   6.8278

          k = 0.2443 0.3293 0.0000 ( 15294 PWs)   bands (ev):

   -67.2758 -66.8754 -66.4573 -33.9789 -33.7919 -33.6237 -33.5518 -33.3230
   -33.2056 -33.1202 -33.0773 -32.7587 -18.9733 -18.9680 -18.9621 -18.9604
   -18.9497 -18.9480 -18.9412 -18.5845 -18.5833 -18.5755 -18.5728 -18.5634
   -18.5546 -18.5466 -18.1903 -18.1830 -18.1713 -18.1437 -18.1285 -18.0949
   -18.0875 -13.9740  -9.8681  -9.6246  -4.4568  -3.7744  -3.3236  -3.1149
    -2.3709  -2.2063  -0.8077  -0.3863   0.0938   0.5300   1.0038   1.2356
     1.9260   2.6758   3.3337   3.5779   4.6334   4.8572   5.6097   5.8242
     6.3429   6.8313

          k = 0.2443 0.4234 0.0000 ( 15264 PWs)   bands (ev):

   -67.2671 -66.8667 -66.4486 -34.0223 -33.7685 -33.7288 -33.5935 -33.3121
   -33.3033 -33.1579 -33.0654 -32.8636 -18.9746 -18.9642 -18.9633 -18.9608
   -18.9563 -18.9491 -18.9348 -18.5859 -18.5800 -18.5752 -18.5743 -18.5633
   -18.5622 -18.5399 -18.1867 -18.1843 -18.1746 -18.1421 -18.1282 -18.1026
   -18.0805 -13.8859  -9.5137  -9.3212  -4.6161  -3.7772  -3.3914  -2.9928
    -2.7886  -2.6888  -0.6334  -0.4620   0.3972   0.4455   0.8781   1.2798
     2.2264   2.7663   3.4264   3.8666   4.5800   4.9561   6.0398   6.3935
     6.8239   7.6363

          k = 0.2443 0.5175 0.0000 ( 15244 PWs)   bands (ev):

   -67.2620 -66.8617 -66.4435 -34.0284 -33.8093 -33.7529 -33.6008 -33.3871
   -33.2961 -33.1640 -33.0560 -32.9426 -18.9735 -18.9676 -18.9636 -18.9601
   -18.9562 -18.9515 -18.9310 -18.5851 -18.5794 -18.5782 -18.5706 -18.5670
   -18.5645 -18.5361 -18.1846 -18.1840 -18.1773 -18.1403 -18.1291 -18.1071
   -18.0765 -13.8344  -9.3743  -9.0431  -4.7958  -3.7871  -3.3977  -3.2359
    -3.0187  -2.6626  -0.5516  -0.4865   0.2340   0.6166   1.1981   1.4061
     2.4760   3.1443   3.5707   4.2468   4.3694   4.9758   5.6378   5.8393
     6.9338   7.4562

          k = 0.2443 0.6116 0.0000 ( 15244 PWs)   bands (ev):

   -67.2620 -66.8617 -66.4435 -34.0286 -33.8093 -33.7529 -33.6009 -33.3870
   -33.2961 -33.1641 -33.0560 -32.9425 -18.9734 -18.9676 -18.9636 -18.9601
   -18.9562 -18.9514 -18.9310 -18.5851 -18.5794 -18.5782 -18.5706 -18.5670
   -18.5645 -18.5361 -18.1846 -18.1840 -18.1773 -18.1403 -18.1290 -18.1071
   -18.0765 -13.8344  -9.3743  -9.0428  -4.7960  -3.7874  -3.3977  -3.2360
    -3.0186  -2.6625  -0.5516  -0.4867   0.2341   0.6166   1.1978   1.4060
     2.4757   3.1441   3.5707   4.2465   4.3694   4.9758   5.6392   5.8400
     6.9332   7.4568

          k = 0.2444-0.4234 0.0000 ( 15262 PWs)   bands (ev):

   -67.2671 -66.8667 -66.4486 -34.0225 -33.7685 -33.7288 -33.5937 -33.3122
   -33.3031 -33.1582 -33.0654 -32.8636 -18.9745 -18.9643 -18.9633 -18.9608
   -18.9563 -18.9490 -18.9347 -18.5860 -18.5800 -18.5752 -18.5743 -18.5633
   -18.5622 -18.5399 -18.1867 -18.1843 -18.1746 -18.1421 -18.1282 -18.1026
   -18.0805 -13.8858  -9.5136  -9.3207  -4.6164  -3.7776  -3.3920  -2.9926
    -2.7882  -2.6890  -0.6335  -0.4623   0.3972   0.4455   0.8776   1.2796
     2.2262   2.7662   3.4266   3.8663   4.5798   4.9557   6.0405   6.3954
     6.8237   7.6382

          k = 0.2444-0.3293 0.0000 ( 15296 PWs)   bands (ev):

   -67.2758 -66.8753 -66.4573 -33.9790 -33.7919 -33.6238 -33.5520 -33.3229
   -33.2057 -33.1203 -33.0773 -32.7588 -18.9732 -18.9681 -18.9621 -18.9604
   -18.9497 -18.9481 -18.9411 -18.5845 -18.5833 -18.5755 -18.5727 -18.5634
   -18.5547 -18.5466 -18.1903 -18.1829 -18.1713 -18.1437 -18.1284 -18.0949
   -18.0875 -13.9739  -9.8676  -9.6244  -4.4569  -3.7746  -3.3237  -3.1146
    -2.3713  -2.2066  -0.8078  -0.3867   0.0937   0.5300   1.0037   1.2356
     1.9260   2.6756   3.3340   3.5776   4.6330   4.8568   5.6099   5.8243
     6.3432   6.8317

          k = 0.2444-0.2352 0.0000 ( 15359 PWs)   bands (ev):

   -67.2858 -66.8854 -66.4673 -33.8956 -33.8197 -33.5336 -33.4731 -33.3417
   -33.1183 -33.1107 -33.0240 -32.6704 -18.9729 -18.9681 -18.9616 -18.9588
   -18.9528 -18.9486 -18.9395 -18.5866 -18.5811 -18.5756 -18.5709 -18.5661
   -18.5545 -18.5460 -18.1942 -18.1801 -18.1686 -18.1443 -18.1303 -18.0956
   -18.0863 -14.0743 -10.3460  -9.8329  -4.5519  -3.7002  -3.3279  -3.1127
    -1.8138  -1.5991  -0.9054  -0.3986   0.1716   0.5974   0.9552   1.3513
     1.7940   2.8084   3.2635   3.5377   4.1356   4.4037   4.7609   4.8126
     5.5188   6.8275

          k = 0.2444-0.1411 0.0000 ( 15393 PWs)   bands (ev):

   -67.2945 -66.8940 -66.4760 -33.8449 -33.7927 -33.4856 -33.3847 -33.3476
   -33.1266 -33.0715 -32.9241 -32.6235 -18.9732 -18.9650 -18.9627 -18.9570
   -18.9558 -18.9549 -18.9334 -18.5874 -18.5785 -18.5759 -18.5699 -18.5680
   -18.5615 -18.5397 -18.1973 -18.1766 -18.1670 -18.1443 -18.1328 -18.1026
   -18.0794 -14.1603 -10.7366  -9.9909  -4.8005  -3.6489  -3.1434  -2.8688
    -1.4704  -1.2825  -0.6436  -0.5447   0.3244   0.4139   0.9668   1.4312
     1.7632   2.9959   3.1475   3.4610   3.5929   3.8215   4.0284   4.5864
     5.2063   6.6189

          k = 0.2444-0.0471 0.0000 ( 15382 PWs)   bands (ev):

   -67.2996 -66.8990 -66.4810 -33.8592 -33.7129 -33.4796 -33.3751 -33.2880
   -33.1364 -33.0651 -32.8449 -32.6170 -18.9714 -18.9661 -18.9628 -18.9605
   -18.9569 -18.9538 -18.9306 -18.5862 -18.5800 -18.5747 -18.5716 -18.5674
   -18.5646 -18.5367 -18.1989 -18.1741 -18.1664 -18.1440 -18.1347 -18.1066
   -18.0756 -14.2097 -10.9508 -10.0775  -4.9494  -3.6977  -2.7434  -2.5969
    -1.5841  -1.1913  -0.8376  -0.3757   0.2344   0.5716   1.1222   1.4056
     1.6384   2.7006   2.9118   3.1035   3.5521   3.8901   4.2176   4.7320
     5.3112   6.1999

          k = 0.2444 0.0470 0.0000 ( 15378 PWs)   bands (ev):

   -67.2996 -66.8990 -66.4810 -33.8592 -33.7130 -33.4794 -33.3751 -33.2881
   -33.1364 -33.0649 -32.8450 -32.6168 -18.9714 -18.9661 -18.9628 -18.9605
   -18.9569 -18.9538 -18.9306 -18.5862 -18.5800 -18.5747 -18.5716 -18.5673
   -18.5646 -18.5366 -18.1989 -18.1741 -18.1663 -18.1440 -18.1348 -18.1066
   -18.0756 -14.2098 -10.9509 -10.0775  -4.9495  -3.6979  -2.7439  -2.5974
    -1.5835  -1.1907  -0.8376  -0.3757   0.2343   0.5715   1.1221   1.4058
     1.6384   2.7010   2.9117   3.1038   3.5516   3.8907   4.2183   4.7322
     5.3110   6.2001

          k = 0.3258 0.1882 0.0000 ( 15347 PWs)   bands (ev):

   -67.2809 -66.8804 -66.4623 -33.9812 -33.8069 -33.5552 -33.5299 -33.3333
   -33.1251 -33.1155 -33.0849 -32.6677 -18.9756 -18.9701 -18.9621 -18.9576
   -18.9507 -18.9453 -18.9403 -18.5887 -18.5835 -18.5732 -18.5719 -18.5646
   -18.5506 -18.5475 -18.1929 -18.1828 -18.1692 -18.1445 -18.1281 -18.0916
   -18.0895 -14.0243 -10.1763  -9.6865  -4.8616  -3.9437  -3.3880  -3.1568
    -1.7232  -1.7025  -0.6754  -0.6412   0.0366   0.7957   1.1322   1.3692
     1.9453   3.1143   3.6636   4.0586   4.1708   4.3022   4.8319   5.0030
     5.3803   6.9838

          k = 0.3258 0.2822 0.0000 ( 15302 PWs)   bands (ev):

   -67.2740 -66.8736 -66.4555 -34.0493 -33.7904 -33.6191 -33.5780 -33.3201
   -33.1842 -33.1632 -33.0794 -32.7159 -18.9760 -18.9715 -18.9647 -18.9563
   -18.9488 -18.9445 -18.9398 -18.5879 -18.5858 -18.5755 -18.5706 -18.5626
   -18.5522 -18.5451 -18.1905 -18.1850 -18.1709 -18.1441 -18.1265 -18.0950
   -18.0860 -13.9553  -9.9370  -9.4410  -5.0342  -4.0186  -3.5543  -2.9228
    -2.0947  -1.9719  -0.9187  -0.5721   0.0361   0.9198   1.1608   1.3533
     2.1026   3.1499   3.6202   3.9787   4.4699   5.1134   5.4992   5.6877
     5.9106   7.1545

          k = 0.3258 0.3763 0.0000 ( 15276 PWs)   bands (ev):

   -67.2671 -66.8667 -66.4486 -34.0686 -33.7723 -33.6805 -33.6337 -33.3067
   -33.2610 -33.2027 -33.0662 -32.8150 -18.9755 -18.9693 -18.9662 -18.9563
   -18.9518 -18.9485 -18.9347 -18.5867 -18.5842 -18.5771 -18.5704 -18.5624
   -18.5594 -18.5398 -18.1874 -18.1855 -18.1737 -18.1427 -18.1268 -18.1016
   -18.0805 -13.8858  -9.6591  -9.1791  -5.0206  -3.8978  -3.5315  -2.7729
    -2.6600  -2.4885  -0.8041  -0.5427   0.1450   0.5859   1.2478   1.3306
     2.3357   3.0769   3.6613   3.9624   4.6928   5.0291   5.9812   6.3904
     6.6653   7.3501

          k = 0.3258 0.4704 0.0000 ( 15246 PWs)   bands (ev):

   -67.2621 -66.8617 -66.4436 -34.0284 -33.8090 -33.7529 -33.6007 -33.3868
   -33.2961 -33.1639 -33.0560 -32.9423 -18.9735 -18.9677 -18.9634 -18.9599
   -18.9563 -18.9515 -18.9310 -18.5850 -18.5794 -18.5783 -18.5706 -18.5670
   -18.5645 -18.5361 -18.1846 -18.1841 -18.1773 -18.1403 -18.1291 -18.1071
   -18.0765 -13.8346  -9.3745  -9.0435  -4.7961  -3.7877  -3.3971  -3.2346
    -3.0173  -2.6634  -0.5512  -0.4866   0.2341   0.6180   1.1964   1.4059
     2.4757   3.1426   3.5703   4.2464   4.3697   4.9759   5.6380   5.8395
     6.9339   7.4570

          k = 0.3258 0.5645 0.0000 ( 15284 PWs)   bands (ev):

   -67.2602 -66.8599 -66.4417 -33.9351 -33.9349 -33.7444 -33.5357 -33.4873
   -33.2926 -33.0905 -33.0522 -33.0486 -18.9696 -18.9694 -18.9647 -18.9575
   -18.9573 -18.9557 -18.9297 -18.5818 -18.5813 -18.5754 -18.5715 -18.5694
   -18.5671 -18.5348 -18.1832 -18.1814 -18.1810 -18.1385 -18.1309 -18.1091
   -18.0751 -13.8157  -9.1930  -9.0689  -4.5554  -3.7948  -3.7080  -3.2773
    -2.9401  -2.7940  -0.4769  -0.3941   0.0184   0.9693   1.1718   1.5844
     2.5851   3.0649   3.5520   4.1554   4.4687   4.8144   5.0156   5.7452
     6.9917   7.0365

          k = 0.3258 0.6586 0.0000 ( 15244 PWs)   bands (ev):

   -67.2621 -66.8617 -66.4436 -34.0285 -33.8091 -33.7529 -33.6009 -33.3869
   -33.2961 -33.1641 -33.0560 -32.9424 -18.9734 -18.9677 -18.9635 -18.9600
   -18.9563 -18.9514 -18.9310 -18.5850 -18.5794 -18.5783 -18.5706 -18.5670
   -18.5645 -18.5361 -18.1846 -18.1840 -18.1773 -18.1403 -18.1291 -18.1071
   -18.0765 -13.8345  -9.3744  -9.0431  -4.7962  -3.7878  -3.3974  -3.2352
    -3.0177  -2.6631  -0.5514  -0.4868   0.2342   0.6175   1.1968   1.4058
     2.4755   3.1430   3.5705   4.2463   4.3696   4.9758   5.6394   5.8401
     6.9333   7.4573

          k = 0.3258-0.3764 0.0000 ( 15277 PWs)   bands (ev):

   -67.2671 -66.8667 -66.4486 -34.0687 -33.7723 -33.6807 -33.6339 -33.3067
   -33.2612 -33.2028 -33.0662 -32.8152 -18.9755 -18.9694 -18.9662 -18.9564
   -18.9518 -18.9485 -18.9346 -18.5867 -18.5842 -18.5771 -18.5705 -18.5624
   -18.5595 -18.5398 -18.1874 -18.1855 -18.1737 -18.1427 -18.1268 -18.1017
   -18.0805 -13.8856  -9.6587  -9.1787  -5.0207  -3.8978  -3.5319  -2.7729
    -2.6604  -2.4890  -0.8045  -0.5429   0.1448   0.5861   1.2479   1.3308
     2.3360   3.0769   3.6615   3.9620   4.6923   5.0287   5.9815   6.3919
     6.6652   7.3512

          k = 0.3258-0.2823 0.0000 ( 15304 PWs)   bands (ev):

   -67.2740 -66.8735 -66.4554 -34.0494 -33.7903 -33.6192 -33.5783 -33.3200
   -33.1843 -33.1634 -33.0794 -32.7162 -18.9759 -18.9716 -18.9647 -18.9563
   -18.9488 -18.9445 -18.9397 -18.5879 -18.5858 -18.5755 -18.5706 -18.5626
   -18.5522 -18.5451 -18.1905 -18.1849 -18.1709 -18.1441 -18.1265 -18.0951
   -18.0860 -13.9551  -9.9365  -9.4406  -5.0341  -4.0184  -3.5543  -2.9223
    -2.0955  -1.9725  -0.9195  -0.5724   0.0361   0.9200   1.1611   1.3532
     2.1031   3.1499   3.6202   3.9782   4.4692   5.1131   5.4990   5.6879
     5.9111   7.1547

          k = 0.3258-0.1882 0.0000 ( 15343 PWs)   bands (ev):

   -67.2808 -66.8804 -66.4623 -33.9812 -33.8069 -33.5552 -33.5303 -33.3333
   -33.1251 -33.1158 -33.0849 -32.6681 -18.9756 -18.9702 -18.9621 -18.9576
   -18.9507 -18.9453 -18.9403 -18.5887 -18.5835 -18.5732 -18.5719 -18.5646
   -18.5506 -18.5475 -18.1929 -18.1827 -18.1692 -18.1445 -18.1281 -18.0915
   -18.0895 -14.0241 -10.1758  -9.6863  -4.8613  -3.9433  -3.3878  -3.1561
    -1.7229  -1.7041  -0.6769  -0.6412   0.0367   0.7960   1.1328   1.3688
     1.9460   3.1147   3.6640   4.0578   4.1707   4.3016   4.8312   5.0021
     5.3800   6.9845

          k = 0.3258-0.0941 0.0000 ( 15357 PWs)   bands (ev):

   -67.2859 -66.8854 -66.4673 -33.8952 -33.8197 -33.5336 -33.4728 -33.3417
   -33.1184 -33.1108 -33.0237 -32.6704 -18.9729 -18.9681 -18.9615 -18.9587
   -18.9527 -18.9488 -18.9395 -18.5865 -18.5811 -18.5756 -18.5709 -18.5660
   -18.5546 -18.5460 -18.1942 -18.1801 -18.1686 -18.1443 -18.1303 -18.0956
   -18.0863 -14.0744 -10.3465  -9.8331  -4.5519  -3.6997  -3.3279  -3.1123
    -1.8142  -1.5999  -0.9046  -0.3984   0.1724   0.5972   0.9554   1.3510
     1.7945   2.8097   3.2632   3.5373   4.1351   4.4033   4.7609   4.8125
     5.5188   6.8281

          k = 0.3258-0.0000 0.0000 ( 15363 PWs)   bands (ev):

   -67.2877 -66.8872 -66.4692 -33.8507 -33.8246 -33.5482 -33.4307 -33.3436
   -33.1324 -33.1130 -32.9809 -32.6845 -18.9694 -18.9676 -18.9653 -18.9575
   -18.9537 -18.9493 -18.9399 -18.5835 -18.5805 -18.5789 -18.5702 -18.5662
   -18.5559 -18.5460 -18.1946 -18.1789 -18.1686 -18.1441 -18.1313 -18.0971
   -18.0853 -14.0928 -10.4091  -9.8787  -4.3263  -3.6846  -3.2621  -2.9609
    -1.9735  -1.7763  -0.8281  -0.2471   0.0696   0.5556   0.8832   1.2923
     1.6578   2.5858   3.1352   3.4399   4.1375   4.3125   4.7258   5.3592
     5.7686   6.1891

          k = 0.3258 0.0941 0.0000 ( 15359 PWs)   bands (ev):

   -67.2859 -66.8854 -66.4674 -33.8953 -33.8197 -33.5333 -33.4728 -33.3418
   -33.1181 -33.1108 -33.0237 -32.6701 -18.9729 -18.9681 -18.9615 -18.9588
   -18.9527 -18.9488 -18.9394 -18.5865 -18.5811 -18.5756 -18.5709 -18.5661
   -18.5546 -18.5460 -18.1942 -18.1801 -18.1686 -18.1443 -18.1303 -18.0957
   -18.0863 -14.0745 -10.3468  -9.8332  -4.5522  -3.7001  -3.3285  -3.1125
    -1.8132  -1.5994  -0.9045  -0.3982   0.1722   0.5971   0.9553   1.3513
     1.7941   2.8093   3.2629   3.5376   4.1357   4.4040   4.7616   4.8131
     5.5190   6.8281

          k = 0.4073 0.2352 0.0000 ( 15279 PWs)   bands (ev):

   -67.2708 -66.8704 -66.4523 -34.1157 -33.7901 -33.6747 -33.5624 -33.3145
   -33.2485 -33.1476 -33.0742 -32.7002 -18.9783 -18.9732 -18.9677 -18.9535
   -18.9474 -18.9433 -18.9372 -18.5900 -18.5876 -18.5779 -18.5679 -18.5612
   -18.5516 -18.5424 -18.1902 -18.1870 -18.1711 -18.1442 -18.1246 -18.0964
   -18.0833 -13.9228  -9.9303  -9.2152  -5.4615  -4.1614  -3.8002  -2.8150
    -2.1129  -1.9110  -0.7750  -0.7201  -0.0474   1.0783   1.3207   1.5597
     2.1165   3.5832   3.8967   4.1466   5.1403   5.3476   5.6390   5.7260
     6.0439   7.3000

          k = 0.4073 0.3293 0.0000 ( 15278 PWs)   bands (ev):

   -67.2671 -66.8667 -66.4486 -34.1366 -33.7861 -33.6887 -33.6048 -33.3072
   -33.2690 -33.1892 -33.0669 -32.7422 -18.9781 -18.9729 -18.9693 -18.9527
   -18.9477 -18.9458 -18.9344 -18.5889 -18.5882 -18.5793 -18.5672 -18.5608
   -18.5548 -18.5395 -18.1888 -18.1874 -18.1724 -18.1437 -18.1244 -18.0998
   -18.0804 -13.8855  -9.8172  -9.0233  -5.5523  -4.1058  -3.8431  -2.7021
    -2.3038  -2.1753  -0.9299  -0.7076   0.0303   0.9352   1.3205   1.6729
     2.2596   3.5959   3.8685   4.4673   5.0234   5.4358   5.8812   6.4245
     6.5516   7.0697

          k = 0.4072 0.4234 0.0000 ( 15268 PWs)   bands (ev):

   -67.2639 -66.8636 -66.4454 -34.1007 -33.7683 -33.7014 -33.6601 -33.3011
   -33.2813 -33.2340 -33.0602 -32.8359 -18.9758 -18.9697 -18.9693 -18.9529
   -18.9529 -18.9493 -18.9322 -18.5870 -18.5846 -18.5796 -18.5677 -18.5628
   -18.5609 -18.5373 -18.1868 -18.1859 -18.1746 -18.1422 -18.1264 -18.1041
   -18.0779 -13.8532  -9.6099  -8.9590  -5.2780  -3.9355  -3.6096  -2.7911
    -2.7053  -2.5431  -0.8072  -0.5927   0.1591   0.5685   1.3180   1.5475
     2.4142   3.4622   3.8596   4.4377   4.6968   5.1520   5.7938   6.0612
     7.0670   7.3005

          k = 0.4072 0.5175 0.0000 ( 15244 PWs)   bands (ev):

   -67.2621 -66.8617 -66.4436 -34.0282 -33.8091 -33.7530 -33.6005 -33.3869
   -33.2962 -33.1637 -33.0560 -32.9424 -18.9736 -18.9676 -18.9634 -18.9599
   -18.9563 -18.9516 -18.9311 -18.5850 -18.5794 -18.5782 -18.5706 -18.5670
   -18.5646 -18.5361 -18.1846 -18.1841 -18.1773 -18.1403 -18.1291 -18.1071
   -18.0765 -13.8347  -9.3746  -9.0438  -4.7957  -3.7873  -3.3970  -3.2345
    -3.0175  -2.6635  -0.5511  -0.4864   0.2338   0.6180   1.1969   1.4061
     2.4761   3.1429   3.5703   4.2468   4.3698   4.9760   5.6357   5.8384
     6.9348   7.4561

          k = 0.4072 0.6115 0.0000 ( 15248 PWs)   bands (ev):

   -67.2621 -66.8617 -66.4436 -34.0282 -33.8092 -33.7530 -33.6005 -33.3870
   -33.2961 -33.1637 -33.0560 -32.9425 -18.9735 -18.9676 -18.9635 -18.9600
   -18.9562 -18.9515 -18.9311 -18.5850 -18.5794 -18.5782 -18.5706 -18.5670
   -18.5646 -18.5361 -18.1846 -18.1841 -18.1773 -18.1403 -18.1291 -18.1071
   -18.0765 -13.8346  -9.3745  -9.0437  -4.7956  -3.7870  -3.3972  -3.2350
    -3.0180  -2.6632  -0.5513  -0.4863   0.2338   0.6174   1.1976   1.4062
     2.4762   3.1435   3.5704   4.2470   4.3697   4.9760   5.6356   5.8383
     6.9347   7.4558

          k = 0.4072 0.7056 0.0000 ( 15272 PWs)   bands (ev):

   -67.2639 -66.8635 -66.4454 -34.1008 -33.7683 -33.7017 -33.6602 -33.3010
   -33.2815 -33.2341 -33.0601 -32.8362 -18.9758 -18.9697 -18.9694 -18.9530
   -18.9529 -18.9492 -18.9322 -18.5870 -18.5846 -18.5796 -18.5677 -18.5627
   -18.5609 -18.5373 -18.1868 -18.1859 -18.1747 -18.1422 -18.1264 -18.1041
   -18.0779 -13.8531  -9.6096  -8.9586  -5.2779  -3.9353  -3.6100  -2.7920
    -2.7058  -2.5432  -0.8075  -0.5929   0.1590   0.5684   1.3181   1.5483
     2.4147   3.4626   3.8597   4.4380   4.6965   5.1520   5.7937   6.0617
     7.0668   7.3007

          k = 0.4073-0.3293 0.0000 ( 15276 PWs)   bands (ev):

   -67.2671 -66.8667 -66.4486 -34.1367 -33.7861 -33.6888 -33.6051 -33.3071
   -33.2691 -33.1895 -33.0668 -32.7425 -18.9781 -18.9730 -18.9693 -18.9528
   -18.9477 -18.9457 -18.9343 -18.5889 -18.5882 -18.5793 -18.5672 -18.5608
   -18.5549 -18.5395 -18.1888 -18.1874 -18.1724 -18.1437 -18.1244 -18.0998
   -18.0803 -13.8852  -9.8168  -9.0228  -5.5521  -4.1056  -3.8433  -2.7017
    -2.3043  -2.1765  -0.9308  -0.7080   0.0304   0.9353   1.3205   1.6737
     2.2603   3.5960   3.8686   4.4665   5.0231   5.4357   5.8810   6.4258
     6.5522   7.0699

          k = 0.4073-0.2352 0.0000 ( 15283 PWs)   bands (ev):

   -67.2708 -66.8704 -66.4523 -34.1158 -33.7901 -33.6748 -33.5628 -33.3144
   -33.2486 -33.1480 -33.0741 -32.7006 -18.9783 -18.9733 -18.9677 -18.9535
   -18.9474 -18.9433 -18.9372 -18.5900 -18.5876 -18.5779 -18.5679 -18.5611
   -18.5517 -18.5424 -18.1902 -18.1870 -18.1711 -18.1442 -18.1246 -18.0965
   -18.0833 -13.9226  -9.9298  -9.2147  -5.4612  -4.1612  -3.8002  -2.8145
    -2.1128  -1.9128  -0.7751  -0.7218  -0.0472   1.0787   1.3202   1.5604
     2.1174   3.5835   3.8969   4.1455   5.1404   5.3476   5.6389   5.7258
     6.0439   7.3011

          k = 0.4073-0.1412 0.0000 ( 15302 PWs)   bands (ev):

   -67.2740 -66.8736 -66.4555 -34.0491 -33.7903 -33.6190 -33.5783 -33.3201
   -33.1840 -33.1635 -33.0794 -32.7163 -18.9760 -18.9715 -18.9647 -18.9563
   -18.9488 -18.9445 -18.9398 -18.5879 -18.5858 -18.5755 -18.5706 -18.5626
   -18.5522 -18.5451 -18.1905 -18.1850 -18.1709 -18.1441 -18.1265 -18.0951
   -18.0860 -13.9552  -9.9367  -9.4409  -5.0336  -4.0182  -3.5538  -2.9224
    -2.0957  -1.9731  -0.9187  -0.5724   0.0364   0.9199   1.1609   1.3534
     2.1036   3.1512   3.6207   3.9798   4.4696   5.1126   5.4984   5.6864
     5.9078   7.1537

          k = 0.4073-0.0471 0.0000 ( 15300 PWs)   bands (ev):

   -67.2758 -66.8754 -66.4573 -33.9785 -33.7919 -33.6239 -33.5514 -33.3230
   -33.2058 -33.1199 -33.0773 -32.7589 -18.9733 -18.9680 -18.9621 -18.9603
   -18.9497 -18.9480 -18.9413 -18.5845 -18.5833 -18.5755 -18.5727 -18.5634
   -18.5546 -18.5467 -18.1903 -18.1830 -18.1713 -18.1437 -18.1285 -18.0949
   -18.0875 -13.9742  -9.8683  -9.6249  -4.4560  -3.7738  -3.3229  -3.1150
    -2.3715  -2.2072  -0.8074  -0.3861   0.0943   0.5303   1.0039   1.2357
     1.9266   2.6768   3.3337   3.5778   4.6333   4.8572   5.6089   5.8230
     6.3414   6.8301

          k = 0.4073 0.0470 0.0000 ( 15300 PWs)   bands (ev):

   -67.2758 -66.8754 -66.4573 -33.9785 -33.7919 -33.6237 -33.5514 -33.3230
   -33.2056 -33.1199 -33.0773 -32.7587 -18.9733 -18.9680 -18.9621 -18.9603
   -18.9497 -18.9480 -18.9413 -18.5845 -18.5833 -18.5755 -18.5728 -18.5634
   -18.5546 -18.5467 -18.1903 -18.1830 -18.1713 -18.1437 -18.1285 -18.0949
   -18.0875 -13.9742  -9.8685  -9.6250  -4.4562  -3.7740  -3.3231  -3.1151
    -2.3711  -2.2067  -0.8075  -0.3860   0.0941   0.5302   1.0039   1.2357
     1.9264   2.6765   3.3334   3.5780   4.6335   4.8574   5.6090   5.8234
     6.3418   6.8303

          k = 0.4073 0.1411 0.0000 ( 15304 PWs)   bands (ev):

   -67.2740 -66.8736 -66.4555 -34.0491 -33.7904 -33.6189 -33.5780 -33.3201
   -33.1840 -33.1632 -33.0794 -32.7159 -18.9760 -18.9715 -18.9647 -18.9563
   -18.9488 -18.9445 -18.9398 -18.5879 -18.5858 -18.5755 -18.5706 -18.5626
   -18.5522 -18.5451 -18.1905 -18.1850 -18.1709 -18.1441 -18.1265 -18.0950
   -18.0860 -13.9554  -9.9371  -9.4412  -5.0339  -4.0184  -3.5539  -2.9229
    -2.0948  -1.9723  -0.9182  -0.5721   0.0363   0.9197   1.1606   1.3534
     2.1029   3.1507   3.6205   3.9797   4.4702   5.1131   5.4988   5.6868
     5.9086   7.1538

          k =-0.4887-0.2822 0.0000 ( 15258 PWs)   bands (ev):

   -67.2671 -66.8667 -66.4486 -34.1643 -33.7968 -33.7053 -33.5742 -33.3079
   -33.2957 -33.1594 -33.0671 -32.7120 -18.9795 -18.9742 -18.9700 -18.9520
   -18.9463 -18.9439 -18.9342 -18.5905 -18.5891 -18.5799 -18.5664 -18.5598
   -18.5529 -18.5394 -18.1895 -18.1882 -18.1719 -18.1441 -18.1233 -18.0989
   -18.0803 -13.8852  -9.8776  -8.9618  -5.7641  -4.1793  -3.9895  -2.7137
    -2.2670  -1.9893  -0.8551  -0.7431  -0.0390   1.1025   1.3021   1.7996
     2.2783   3.8633   3.9854   4.1453   5.4152   5.9117   6.2244   6.4759
     6.5619   7.1056

          k =-0.4887-0.1881 0.0000 ( 15278 PWs)   bands (ev):

   -67.2671 -66.8667 -66.4486 -34.1365 -33.7861 -33.6886 -33.6048 -33.3072
   -33.2690 -33.1892 -33.0669 -32.7422 -18.9781 -18.9729 -18.9693 -18.9527
   -18.9477 -18.9458 -18.9344 -18.5889 -18.5882 -18.5793 -18.5672 -18.5609
   -18.5548 -18.5396 -18.1888 -18.1874 -18.1724 -18.1437 -18.1244 -18.0998
   -18.0804 -13.8855  -9.8172  -9.0234  -5.5521  -4.1058  -3.8429  -2.7021
    -2.3037  -2.1755  -0.9296  -0.7076   0.0304   0.9352   1.3206   1.6730
     2.2597   3.5963   3.8687   4.4674   5.0258   5.4359   5.8809   6.4218
     6.5507   7.0691

          k =-0.4887-0.0941 0.0000 ( 15276 PWs)   bands (ev):

   -67.2671 -66.8667 -66.4486 -34.0683 -33.7723 -33.6806 -33.6335 -33.3067
   -33.2612 -33.2024 -33.0662 -32.8151 -18.9756 -18.9693 -18.9662 -18.9563
   -18.9518 -18.9486 -18.9347 -18.5867 -18.5842 -18.5771 -18.5704 -18.5624
   -18.5594 -18.5398 -18.1874 -18.1855 -18.1736 -18.1427 -18.1269 -18.1016
   -18.0805 -13.8859  -9.6592  -9.1795  -5.0201  -3.8974  -3.5310  -2.7732
    -2.6600  -2.4889  -0.8038  -0.5425   0.1452   0.5857   1.2481   1.3309
     2.3359   3.0780   3.6614   3.9635   4.6930   5.0295   5.9801   6.3875
     6.6647   7.3477

          k =-0.4887 0.0000 0.0000 ( 15266 PWs)   bands (ev):

   -67.2671 -66.8667 -66.4486 -34.0219 -33.7685 -33.7289 -33.5930 -33.3121
   -33.3035 -33.1575 -33.0654 -32.8637 -18.9747 -18.9641 -18.9633 -18.9608
   -18.9563 -18.9491 -18.9348 -18.5859 -18.5799 -18.5752 -18.5743 -18.5633
   -18.5622 -18.5400 -18.1867 -18.1843 -18.1745 -18.1421 -18.1283 -18.1026
   -18.0806 -13.8861  -9.5139  -9.3219  -4.6155  -3.7765  -3.3905  -2.9931
    -2.7892  -2.6885  -0.6333  -0.4615   0.3972   0.4453   0.8788   1.2801
     2.2267   2.7664   3.4260   3.8671   4.5802   4.9567   6.0387   6.3903
     6.8242   7.6330

          k =-0.4887 0.0941 0.0000 ( 15276 PWs)   bands (ev):

   -67.2671 -66.8667 -66.4486 -34.0683 -33.7722 -33.6809 -33.6335 -33.3067
   -33.2614 -33.2024 -33.0662 -32.8153 -18.9756 -18.9693 -18.9662 -18.9563
   -18.9518 -18.9485 -18.9347 -18.5867 -18.5842 -18.5771 -18.5704 -18.5624
   -18.5595 -18.5398 -18.1874 -18.1855 -18.1737 -18.1427 -18.1269 -18.1017
   -18.0805 -13.8858  -9.6589  -9.1793  -5.0199  -3.8972  -3.5311  -2.7734
    -2.6604  -2.4895  -0.8040  -0.5426   0.1452   0.5856   1.2484   1.3312
     2.3363   3.0787   3.6616   3.9637   4.6926   5.0293   5.9797   6.3873
     6.6643   7.3474

          k =-0.4887 0.1882 0.0000 ( 15276 PWs)   bands (ev):

   -67.2671 -66.8667 -66.4486 -34.1366 -33.7860 -33.6887 -33.6052 -33.3071
   -33.2690 -33.1896 -33.0668 -32.7426 -18.9781 -18.9729 -18.9693 -18.9527
   -18.9478 -18.9457 -18.9343 -18.5889 -18.5882 -18.5793 -18.5672 -18.5608
   -18.5549 -18.5395 -18.1888 -18.1874 -18.1724 -18.1437 -18.1244 -18.0998
   -18.0803 -13.8853  -9.8168  -9.0230  -5.5518  -4.1055  -3.8431  -2.7018
    -2.3042  -2.1768  -0.9304  -0.7079   0.0305   0.9352   1.3205   1.6737
     2.2605   3.5965   3.8689   4.4667   5.0269   5.4358   5.8805   6.4216
     6.5507   7.0689

          k =-0.4887-0.8468 0.0000 ( 15262 PWs)   bands (ev):

   -67.2671 -66.8667 -66.4486 -34.1644 -33.7968 -33.7053 -33.5746 -33.3078
   -33.2958 -33.1598 -33.0670 -32.7124 -18.9795 -18.9742 -18.9700 -18.9520
   -18.9464 -18.9439 -18.9341 -18.5905 -18.5891 -18.5799 -18.5664 -18.5598
   -18.5529 -18.5394 -18.1895 -18.1882 -18.1719 -18.1441 -18.1233 -18.0989
   -18.0803 -13.8850  -9.8771  -8.9613  -5.7638  -4.1791  -3.9897  -2.7133
    -2.2670  -1.9911  -0.8552  -0.7448  -0.0387   1.1029   1.3016   1.8005
     2.2793   3.8635   3.9857   4.1442   5.4150   5.9125   6.2243   6.4764
     6.5623   7.1055

     the Fermi energy is     1.4035 ev

!    total energy              =   -2098.29506791 Ry
     estimated scf accuracy    <          5.2E-14 Ry
     smearing contrib. (-TS)   =      -0.00005467 Ry
     internal energy E=F+TS    =   -2098.29501324 Ry

     The total energy is F=E-TS. E is the sum of the following terms:
     one-electron contribution =  -19695.68595667 Ry
     hartree contribution      =    9898.77849976 Ry
     xc contribution           =    -217.13943400 Ry
     ewald contribution        =    7915.75187767 Ry

     convergence has been achieved in  29 iterations

     negative rho (up, down):  8.497E-05 0.000E+00

     Forces acting on atoms (cartesian axes, Ry/au):

     atom    1 type  1   force =     0.00000106    0.00000250    0.10635128
     atom    2 type  2   force =     0.00001235    0.00002864    0.03509750
     atom    3 type  1   force =    -0.00000853   -0.00001949   -0.01254846
     atom    4 type  2   force =     0.00001054    0.00002506   -0.04193099
     atom    5 type  1   force =    -0.00000462   -0.00000970    0.10363567
     atom    6 type  3   force =    -0.00001080   -0.00002701   -0.19060501

     Total force =     0.248050     Total SCF correction =     0.000003


     Computing stress (Cartesian axis) and pressure


     negative rho (up, down):  8.497E-05 0.000E+00
          total   stress  (Ry/bohr**3)                   (kbar)     P=      -76.60
  -0.00011058   0.00000002  -0.00000009          -16.27        0.00       -0.01
   0.00000002  -0.00011048  -0.00000022            0.00      -16.25       -0.03
  -0.00000009  -0.00000022  -0.00134099           -0.01       -0.03     -197.27


     BFGS Geometry Optimization
     Energy error            =      0.0E+00 Ry
     Gradient error          =      1.9E-01 Ry/Bohr
     Cell gradient error     =      1.6E+01 kbar

     number of scf cycles    =   1
     number of bfgs steps    =   0

     enthalpy           new  =   -2098.2950679078 Ry

     new trust radius        =       0.1906050105 bohr
     new conv_thr            =            1.0E-12 Ry

     new unit-cell volume =   1540.49523 a.u.^3 (   228.27784 Ang^3 )
     density =      4.23987 g/cm^3

CELL_PARAMETERS (alat=  5.55000000)
   1.020233156   0.000070837   0.000000000
  -0.510055231   0.883211186   0.000000000
   0.000000000   0.000000000  10.000000000

ATOMIC_POSITIONS (crystal)
Ta            0.3333337746        0.6666671758        0.0510014453
C             0.0000050870        0.0000058253        0.0952679154
Ta            0.6666631824        0.3333293686        0.1475928407
C             0.3333377378        0.6666717659        0.2002467917
Ta           -0.0000017999       -0.0000019735        0.2484197754
O             0.3333286841        0.6666611719        0.3165656755



     Writing output data file /scratch/as3359/Ta3C2O_loop/Ta.save/
     NEW-OLD atomic charge density approx. for the potential

     negative rho (up, down):  8.799E-05 0.000E+00
     extrapolated charge   94.47282, renormalised to   95.00000

     total cpu time spent up to now is      873.9 secs

     Self-consistent Calculation

     iteration #  1     ecut=    70.00 Ry     beta= 0.70
     Davidson diagonalization with overlap
     c_bands:  3 eigenvalues not converged
     c_bands:  5 eigenvalues not converged
     c_bands:  4 eigenvalues not converged
     c_bands:  4 eigenvalues not converged
     c_bands:  4 eigenvalues not converged
     c_bands:  4 eigenvalues not converged
     c_bands:  4 eigenvalues not converged
     c_bands:  5 eigenvalues not converged
     c_bands:  5 eigenvalues not converged
     c_bands:  4 eigenvalues not converged
     c_bands:  4 eigenvalues not converged
     c_bands:  4 eigenvalues not converged
     c_bands:  5 eigenvalues not converged
     c_bands:  5 eigenvalues not converged
     c_bands:  5 eigenvalues not converged
     c_bands:  5 eigenvalues not converged
     c_bands:  4 eigenvalues not converged
     c_bands:  4 eigenvalues not converged
     c_bands:  4 eigenvalues not converged
     c_bands:  4 eigenvalues not converged
     c_bands:  5 eigenvalues not converged
     c_bands:  5 eigenvalues not converged
     c_bands:  4 eigenvalues not converged
     c_bands:  1 eigenvalues not converged
     c_bands:  4 eigenvalues not converged
     c_bands:  4 eigenvalues not converged
     ethr =  1.00E-06,  avg # of iterations = 28.6

     negative rho (up, down):  5.573E-05 0.000E+00

     total cpu time spent up to now is     1011.4 secs

     total energy              =   -2041.90370346 Ry
     estimated scf accuracy    <      61.28473972 Ry

     iteration #  2     ecut=    70.00 Ry     beta= 0.70
     Davidson diagonalization with overlap
     c_bands:  1 eigenvalues not converged
     c_bands:  4 eigenvalues not converged
     c_bands:  4 eigenvalues not converged
     c_bands:  3 eigenvalues not converged
     c_bands:  3 eigenvalues not converged
     c_bands:  3 eigenvalues not converged
     c_bands:  2 eigenvalues not converged
     c_bands:  5 eigenvalues not converged
     c_bands:  4 eigenvalues not converged
     c_bands:  3 eigenvalues not converged
     c_bands:  1 eigenvalues not converged
     c_bands:  3 eigenvalues not converged
     c_bands:  1 eigenvalues not converged
     c_bands:  1 eigenvalues not converged
     c_bands:  1 eigenvalues not converged
     c_bands:  1 eigenvalues not converged
     c_bands:  1 eigenvalues not converged
     c_bands:  1 eigenvalues not converged
     c_bands:  3 eigenvalues not converged
     c_bands:  4 eigenvalues not converged
     c_bands:  5 eigenvalues not converged
     c_bands:  4 eigenvalues not converged
     c_bands:  3 eigenvalues not converged
     c_bands:  1 eigenvalues not converged
     c_bands:  1 eigenvalues not converged
     c_bands:  3 eigenvalues not converged
     c_bands:  1 eigenvalues not converged
     c_bands:  1 eigenvalues not converged
     c_bands:  3 eigenvalues not converged
     c_bands:  3 eigenvalues not converged
     c_bands:  3 eigenvalues not converged
     c_bands:  4 eigenvalues not converged
     c_bands:  1 eigenvalues not converged
     c_bands:  2 eigenvalues not converged
     c_bands:  1 eigenvalues not converged
     c_bands:  5 eigenvalues not converged
     c_bands:  5 eigenvalues not converged
     ethr =  1.00E-02,  avg # of iterations = 20.4

     negative rho (up, down):  2.066E-04 0.000E+00

     total cpu time spent up to now is     1153.9 secs

     total energy              =   -1759.15541306 Ry
     estimated scf accuracy    <   20493.44227363 Ry

     iteration #  3     ecut=    70.00 Ry     beta= 0.70
     Davidson diagonalization with overlap
     ethr =  1.00E-02,  avg # of iterations = 14.2

     negative rho (up, down):  1.562E-04 0.000E+00

     total cpu time spent up to now is     1248.7 secs

     total energy              =   -2016.31486086 Ry
     estimated scf accuracy    <    2683.92785870 Ry

     iteration #  4     ecut=    70.00 Ry     beta= 0.70
     Davidson diagonalization with overlap
     ethr =  1.00E-02,  avg # of iterations = 10.1

     negative rho (up, down):  2.194E-04 0.000E+00

     total cpu time spent up to now is     1299.3 secs

     total energy              =   -2083.38005326 Ry
     estimated scf accuracy    <     788.65712343 Ry

     iteration #  5     ecut=    70.00 Ry     beta= 0.70
     Davidson diagonalization with overlap
     ethr =  1.00E-02,  avg # of iterations = 11.4
     Minimization algorithm failed to find Fermi energy: reverting to bisection
     Possible cause: smearing is larger than the electronic band-gap.

     negative rho (up, down):  1.409E-04 0.000E+00

     total cpu time spent up to now is     1348.3 secs

     total energy              =   -2094.99785080 Ry
     estimated scf accuracy    <     173.77985309 Ry

     iteration #  6     ecut=    70.00 Ry     beta= 0.70
     Davidson diagonalization with overlap
     ethr =  1.00E-02,  avg # of iterations =  3.5

     negative rho (up, down):  6.093E-05 0.000E+00

     total cpu time spent up to now is     1377.4 secs

     total energy              =   -2099.69855344 Ry
     estimated scf accuracy    <      59.47729124 Ry

     iteration #  7     ecut=    70.00 Ry     beta= 0.70
     Davidson diagonalization with overlap
     ethr =  1.00E-02,  avg # of iterations =  1.5

     negative rho (up, down):  2.759E-05 0.000E+00

     total cpu time spent up to now is     1400.8 secs

     total energy              =   -2099.55249711 Ry
     estimated scf accuracy    <      16.06002600 Ry

     iteration #  8     ecut=    70.00 Ry     beta= 0.70
     Davidson diagonalization with overlap
     ethr =  1.00E-02,  avg # of iterations =  1.7

     negative rho (up, down):  2.257E-05 0.000E+00

     total cpu time spent up to now is     1424.5 secs

     total energy              =   -2099.12366874 Ry
     estimated scf accuracy    <      13.88151593 Ry

     iteration #  9     ecut=    70.00 Ry     beta= 0.70
     Davidson diagonalization with overlap
     ethr =  1.00E-02,  avg # of iterations =  1.4

     negative rho (up, down):  2.526E-05 0.000E+00

     total cpu time spent up to now is     1447.7 secs

     total energy              =   -2098.89422158 Ry
     estimated scf accuracy    <       8.15037586 Ry

     iteration # 10     ecut=    70.00 Ry     beta= 0.70
     Davidson diagonalization with overlap
     ethr =  8.58E-03,  avg # of iterations =  1.3

     negative rho (up, down):  1.724E-01 0.000E+00

     total cpu time spent up to now is     1470.5 secs

     total energy              =   -2097.79812951 Ry
     estimated scf accuracy    <       6.24024093 Ry

     iteration # 11     ecut=    70.00 Ry     beta= 0.70
     Davidson diagonalization with overlap
     ethr =  6.57E-03,  avg # of iterations =  3.3

     negative rho (up, down):  4.568E-02 0.000E+00

     total cpu time spent up to now is     1496.1 secs

     total energy              =   -2098.00895382 Ry
     estimated scf accuracy    <      24.25860276 Ry

     iteration # 12     ecut=    70.00 Ry     beta= 0.70
     Davidson diagonalization with overlap
     ethr =  6.57E-03,  avg # of iterations =  1.8

     negative rho (up, down):  6.071E-04 0.000E+00

     total cpu time spent up to now is     1519.5 secs

     total energy              =   -2098.22754972 Ry
     estimated scf accuracy    <       0.46255698 Ry

     iteration # 13     ecut=    70.00 Ry     beta= 0.70
     Davidson diagonalization with overlap
     ethr =  4.87E-04,  avg # of iterations =  8.5

     negative rho (up, down):  2.591E-05 0.000E+00

     total cpu time spent up to now is     1556.6 secs

     total energy              =   -2098.33910988 Ry
     estimated scf accuracy    <       2.75216589 Ry

     iteration # 14     ecut=    70.00 Ry     beta= 0.70
     Davidson diagonalization with overlap
     ethr =  4.87E-04,  avg # of iterations =  2.0

     negative rho (up, down):  2.255E-05 0.000E+00

     total cpu time spent up to now is     1581.4 secs

     total energy              =   -2098.36679226 Ry
     estimated scf accuracy    <       0.68015075 Ry

     iteration # 15     ecut=    70.00 Ry     beta= 0.70
     Davidson diagonalization with overlap
     ethr =  4.87E-04,  avg # of iterations =  1.0

     negative rho (up, down):  2.943E-03 0.000E+00

     total cpu time spent up to now is     1603.5 secs

     total energy              =   -2098.35650642 Ry
     estimated scf accuracy    <       0.58205322 Ry

     iteration # 16     ecut=    70.00 Ry     beta= 0.70
     Davidson diagonalization with overlap
     ethr =  4.87E-04,  avg # of iterations =  1.0

     negative rho (up, down):  1.779E-03 0.000E+00

     total cpu time spent up to now is     1625.7 secs

     WARNING: integrated charge=    95.00001586, expected=    95.00000000

[...]
     4.2535   4.5876   4.7239   4.9457   5.1706   6.2131   7.7875   8.2919
     8.3589   9.2812

          k = 0.3205 0.6476 0.0000 ( 15824 PWs)   bands (ev):

   -66.3308 -66.2018 -65.7957 -33.2425 -33.1103 -33.0226 -32.9483 -32.8004
   -32.7059 -32.5068 -32.4202 -32.3169 -17.9817 -17.9787 -17.9742 -17.9717
   -17.9663 -17.9616 -17.9502 -17.9257 -17.8635 -17.8578 -17.8536 -17.8450
   -17.8425 -17.8204 -17.5128 -17.5105 -17.5045 -17.4738 -17.4619 -17.4450
   -17.4191 -16.2370  -9.3765  -8.8581  -4.8026  -4.0695  -3.7146  -3.2468
    -2.9324  -2.3761  -2.2682  -1.8274  -0.7428   1.1536   1.7811   2.1745
     4.1968   4.5601   4.8267   5.1935   5.6478   6.3498   7.6309   7.9453
     8.4493   8.8292

          k = 0.3205-0.3701 0.0000 ( 15824 PWs)   bands (ev):

   -66.3352 -66.2061 -65.7998 -33.2813 -33.1456 -32.9618 -32.8928 -32.7132
   -32.6987 -32.5331 -32.4223 -32.2119 -17.9857 -17.9799 -17.9756 -17.9673
   -17.9639 -17.9592 -17.9531 -17.9321 -17.8651 -17.8557 -17.8534 -17.8412
   -17.8386 -17.8261 -17.5156 -17.5117 -17.5013 -17.4757 -17.4601 -17.4403
   -17.4227 -16.2769  -9.6480  -8.9124  -5.0364  -4.0410  -3.6107  -2.9964
    -2.7260  -2.5501  -2.2720  -1.7333  -0.6795   0.8253   1.7788   2.0389
     4.0170   4.3463   4.9629   5.7421   6.3600   6.4115   7.2053   7.4442
     7.9129   8.2980

          k = 0.3205-0.2776 0.0000 ( 15822 PWs)   bands (ev):

   -66.3413 -66.2119 -65.8054 -33.2643 -33.1362 -32.9774 -32.7976 -32.7218
   -32.6067 -32.5179 -32.4257 -32.1273 -17.9892 -17.9791 -17.9742 -17.9663
   -17.9613 -17.9593 -17.9559 -17.9396 -17.8647 -17.8538 -17.8535 -17.8415
   -17.8344 -17.8314 -17.5188 -17.5112 -17.4989 -17.4769 -17.4600 -17.4344
   -17.4278 -16.3282  -9.8878  -9.1028  -5.0991  -4.0029  -3.4598  -2.9123
    -2.7072  -2.4849  -2.0856  -1.7190  -0.6013   0.6797   1.6748   1.9816
     3.8107   4.3244   5.0063   5.5257   5.9601   6.2699   6.6154   7.0981
     7.4649   8.2745

          k = 0.3205-0.1850 0.0000 ( 15805 PWs)   bands (ev):

   -66.3473 -66.2178 -65.8110 -33.2006 -33.1047 -32.9730 -32.7453 -32.7330
   -32.5601 -32.4674 -32.4266 -32.0857 -17.9898 -17.9774 -17.9713 -17.9677
   -17.9644 -17.9620 -17.9547 -17.9461 -17.8629 -17.8548 -17.8519 -17.8437
   -17.8404 -17.8274 -17.5212 -17.5092 -17.4974 -17.4773 -17.4615 -17.4330
   -17.4295 -16.3751 -10.0688  -9.2955  -4.9535  -3.9036  -3.3821  -3.0960
    -2.5884  -2.3365  -2.0649  -1.5277  -0.5618   0.5540   1.3972   2.0553
     3.6692   4.4725   4.5466   4.9490   5.5046   5.6564   6.6046   7.0499
     7.1620   8.3629

          k = 0.3205-0.0925 0.0000 ( 15839 PWs)   bands (ev):

   -66.3517 -66.2220 -65.8151 -33.1188 -33.0944 -32.9282 -32.7528 -32.7266
   -32.5650 -32.4350 -32.3889 -32.0876 -17.9868 -17.9763 -17.9720 -17.9702
   -17.9670 -17.9621 -17.9549 -17.9506 -17.8611 -17.8571 -17.8506 -17.8453
   -17.8444 -17.8254 -17.5224 -17.5069 -17.4969 -17.4772 -17.4636 -17.4368
   -17.4265 -16.4063 -10.1844  -9.4057  -4.6114  -3.8100  -3.5006  -3.2190
    -2.5417  -2.2983  -1.9891  -1.4028  -0.7373   0.6629   1.2151   1.9973
     3.2197   3.9754   4.5123   4.9198   5.4070   5.9187   6.4490   6.8190
     7.2203   7.9006

          k = 0.3205 0.0000 0.0000 ( 15846 PWs)   bands (ev):

   -66.3533 -66.2236 -65.8166 -33.0953 -33.0755 -32.9026 -32.7585 -32.7266
   -32.5811 -32.4327 -32.3534 -32.0999 -17.9819 -17.9799 -17.9734 -17.9723
   -17.9655 -17.9608 -17.9564 -17.9522 -17.8607 -17.8577 -17.8507 -17.8458
   -17.8452 -17.8250 -17.5227 -17.5058 -17.4969 -17.4771 -17.4646 -17.4382
   -17.4256 -16.4170 -10.2248  -9.4368  -4.2360  -4.0052  -3.6004  -3.2032
    -2.5481  -2.1682  -2.0939  -1.4468  -0.6696   0.5294   1.3613   1.9162
     2.8664   3.8638   4.4997   4.8896   5.6224   6.2011   6.5251   6.6956
     7.1615   7.3828

          k = 0.3205 0.0925 0.0000 ( 15839 PWs)   bands (ev):

   -66.3517 -66.2220 -65.8151 -33.1188 -33.0944 -32.9282 -32.7528 -32.7266
   -32.5650 -32.4350 -32.3889 -32.0876 -17.9868 -17.9763 -17.9720 -17.9702
   -17.9670 -17.9621 -17.9549 -17.9506 -17.8611 -17.8571 -17.8506 -17.8453
   -17.8444 -17.8254 -17.5224 -17.5069 -17.4969 -17.4772 -17.4636 -17.4368
   -17.4265 -16.4063 -10.1844  -9.4057  -4.6114  -3.8100  -3.5006  -3.2190
    -2.5417  -2.2983  -1.9891  -1.4028  -0.7373   0.6630   1.2151   1.9972
     3.2197   3.9754   4.5123   4.9198   5.4069   5.9187   6.4490   6.8189
     7.2203   7.9005

          k = 0.4006 0.2313 0.0000 ( 15836 PWs)   bands (ev):

   -66.3384 -66.2092 -65.8028 -33.3282 -33.1900 -32.9730 -32.7776 -32.7271
   -32.5895 -32.5691 -32.4260 -32.1140 -17.9919 -17.9804 -17.9774 -17.9632
   -17.9597 -17.9558 -17.9551 -17.9388 -17.8665 -17.8553 -17.8505 -17.8401
   -17.8318 -17.8307 -17.5184 -17.5130 -17.4990 -17.4770 -17.4582 -17.4357
   -17.4254 -16.3162  -9.9570  -8.8572  -5.5009  -4.0667  -3.3699  -2.7998
    -2.7727  -2.5036  -2.0761  -1.8715  -0.3412   0.5867   1.8956   2.2093
     4.0494   4.6960   5.2534   5.6068   6.1565   6.2998   6.5551   7.1928
     7.3813   8.3749

          k = 0.4006 0.3238 0.0000 ( 15827 PWs)   bands (ev):

   -66.3352 -66.2061 -65.7998 -33.3477 -33.2064 -32.9609 -32.8237 -32.7181
   -32.6315 -32.5835 -32.4236 -32.1502 -17.9908 -17.9808 -17.9791 -17.9624
   -17.9609 -17.9562 -17.9527 -17.9354 -17.8669 -17.8566 -17.8499 -17.8399
   -17.8348 -17.8263 -17.5169 -17.5136 -17.5001 -17.4765 -17.4579 -17.4387
   -17.4226 -16.2908  -9.8773  -8.6869  -5.5692  -4.0798  -3.4005  -2.9919
    -2.6507  -2.5289  -2.1918  -1.8542  -0.4634   0.7162   2.0477   2.2473
     4.1695   4.5622   5.5942   5.7706   6.3613   6.4886   6.8134   7.2601
     7.6294   8.1780

          k = 0.4006 0.4163 0.0000 ( 15816 PWs)   bands (ev):

   -66.3324 -66.2033 -65.7972 -33.3128 -33.1711 -32.9537 -32.9121 -32.7210
   -32.7075 -32.5588 -32.4207 -32.2297 -17.9862 -17.9802 -17.9788 -17.9657
   -17.9622 -17.9595 -17.9511 -17.9301 -17.8656 -17.8575 -17.8513 -17.8417
   -17.8398 -17.8225 -17.5146 -17.5125 -17.5021 -17.4753 -17.4596 -17.4424
   -17.4204 -16.2591  -9.6562  -8.6895  -5.2701  -4.0892  -3.5374  -3.0662
    -2.7885  -2.4914  -2.2023  -1.8658  -0.6340   0.8565   2.0488   2.1661
     4.2446   4.5392   5.3744   5.4518   5.9653   6.4708   7.3575   7.5723
     8.1522   8.3737

          k = 0.4006 0.5089 0.0000 ( 15824 PWs)   bands (ev):

   -66.3308 -66.2018 -65.7957 -33.2425 -33.1104 -33.0226 -32.9483 -32.8004
   -32.7059 -32.5068 -32.4202 -32.3169 -17.9817 -17.9787 -17.9742 -17.9717
   -17.9663 -17.9616 -17.9502 -17.9257 -17.8635 -17.8578 -17.8536 -17.8450
   -17.8425 -17.8204 -17.5128 -17.5105 -17.5045 -17.4738 -17.4619 -17.4450
   -17.4191 -16.2370  -9.3765  -8.8581  -4.8026  -4.0695  -3.7146  -3.2468
    -2.9324  -2.3761  -2.2682  -1.8274  -0.7428   1.1536   1.7811   2.1744
     4.1968   4.5601   4.8266   5.1934   5.6479   6.3498   7.6309   7.9452
     8.4493   8.8293

          k = 0.4006 0.6014 0.0000 ( 15824 PWs)   bands (ev):

   -66.3308 -66.2018 -65.7957 -33.2425 -33.1104 -33.0226 -32.9483 -32.8004
   -32.7059 -32.5068 -32.4202 -32.3169 -17.9817 -17.9787 -17.9742 -17.9717
   -17.9663 -17.9616 -17.9502 -17.9257 -17.8635 -17.8578 -17.8536 -17.8450
   -17.8425 -17.8204 -17.5128 -17.5105 -17.5045 -17.4738 -17.4619 -17.4450
   -17.4191 -16.2370  -9.3765  -8.8581  -4.8026  -4.0695  -3.7146  -3.2468
    -2.9324  -2.3761  -2.2682  -1.8274  -0.7428   1.1536   1.7811   2.1744
     4.1969   4.5601   4.8266   5.1934   5.6479   6.3498   7.6309   7.9452
     8.4493   8.8293

          k = 0.4006 0.6939 0.0000 ( 15816 PWs)   bands (ev):

   -66.3324 -66.2033 -65.7972 -33.3128 -33.1711 -32.9537 -32.9121 -32.7210
   -32.7075 -32.5588 -32.4207 -32.2297 -17.9862 -17.9802 -17.9788 -17.9657
   -17.9622 -17.9595 -17.9511 -17.9301 -17.8656 -17.8575 -17.8513 -17.8417
   -17.8398 -17.8225 -17.5146 -17.5125 -17.5021 -17.4753 -17.4596 -17.4424
   -17.4204 -16.2591  -9.6562  -8.6895  -5.2701  -4.0892  -3.5374  -3.0662
    -2.7885  -2.4914  -2.2022  -1.8658  -0.6340   0.8564   2.0488   2.1661
     4.2447   4.5392   5.3744   5.4518   5.9653   6.4708   7.3576   7.5723
     8.1522   8.3737

          k = 0.4006-0.3238 0.0000 ( 15827 PWs)   bands (ev):

   -66.3352 -66.2061 -65.7998 -33.3477 -33.2064 -32.9608 -32.8237 -32.7181
   -32.6315 -32.5835 -32.4236 -32.1502 -17.9908 -17.9808 -17.9791 -17.9624
   -17.9609 -17.9562 -17.9528 -17.9354 -17.8669 -17.8566 -17.8499 -17.8399
   -17.8348 -17.8263 -17.5169 -17.5136 -17.5001 -17.4765 -17.4579 -17.4387
   -17.4226 -16.2908  -9.8773  -8.6869  -5.5692  -4.0798  -3.4005  -2.9919
    -2.6507  -2.5289  -2.1918  -1.8542  -0.4634   0.7162   2.0477   2.2473
     4.1696   4.5622   5.5942   5.7706   6.3613   6.4886   6.8134   7.2601
     7.6293   8.1780

          k = 0.4006-0.2313 0.0000 ( 15836 PWs)   bands (ev):

   -66.3384 -66.2092 -65.8028 -33.3282 -33.1900 -32.9730 -32.7775 -32.7271
   -32.5895 -32.5691 -32.4260 -32.1140 -17.9919 -17.9804 -17.9774 -17.9632
   -17.9597 -17.9558 -17.9551 -17.9388 -17.8665 -17.8553 -17.8505 -17.8401
   -17.8318 -17.8307 -17.5184 -17.5130 -17.4990 -17.4770 -17.4582 -17.4357
   -17.4254 -16.3162  -9.9570  -8.8572  -5.5009  -4.0667  -3.3700  -2.7999
    -2.7727  -2.5036  -2.0761  -1.8715  -0.3412   0.5867   1.8957   2.2094
     4.0495   4.6960   5.2534   5.6068   6.1564   6.2998   6.5551   7.1928
     7.3812   8.3749

          k = 0.4006-0.1388 0.0000 ( 15822 PWs)   bands (ev):

   -66.3413 -66.2119 -65.8054 -33.2643 -33.1362 -32.9774 -32.7976 -32.7218
   -32.6067 -32.5180 -32.4257 -32.1273 -17.9892 -17.9791 -17.9742 -17.9663
   -17.9613 -17.9593 -17.9559 -17.9396 -17.8647 -17.8538 -17.8535 -17.8415
   -17.8344 -17.8314 -17.5188 -17.5112 -17.4989 -17.4769 -17.4600 -17.4344
   -17.4278 -16.3282  -9.8878  -9.1028  -5.0991  -4.0029  -3.4597  -2.9123
    -2.7073  -2.4848  -2.0856  -1.7190  -0.6013   0.6797   1.6748   1.9816
     3.8107   4.3244   5.0063   5.5258   5.9600   6.2699   6.6153   7.0982
     7.4649   8.2745

          k = 0.4006-0.0463 0.0000 ( 15830 PWs)   bands (ev):

   -66.3429 -66.2135 -65.8069 -33.1949 -33.0897 -32.9741 -32.8345 -32.7180
   -32.6496 -32.4604 -32.4259 -32.1638 -17.9839 -17.9778 -17.9730 -17.9695
   -17.9633 -17.9627 -17.9569 -17.9391 -17.8630 -17.8570 -17.8524 -17.8421
   -17.8365 -17.8324 -17.5185 -17.5094 -17.4992 -17.4766 -17.4618 -17.4343
   -17.4291 -16.3308  -9.7273  -9.3392  -4.5328  -3.9558  -3.5928  -3.1821
    -2.6683  -2.5250  -2.1933  -1.5122  -0.7664   0.7858   1.2834   1.9373
     3.4389   3.9988   4.8561   5.7115   6.0219   6.3404   6.9097   7.0871
     7.5457   8.0020

          k = 0.4006 0.0463 0.0000 ( 15830 PWs)   bands (ev):

   -66.3429 -66.2135 -65.8069 -33.1949 -33.0897 -32.9741 -32.8345 -32.7180
   -32.6496 -32.4604 -32.4259 -32.1638 -17.9839 -17.9778 -17.9730 -17.9695
   -17.9632 -17.9627 -17.9569 -17.9391 -17.8630 -17.8570 -17.8524 -17.8421
   -17.8365 -17.8324 -17.5185 -17.5094 -17.4992 -17.4766 -17.4618 -17.4343
   -17.4291 -16.3308  -9.7273  -9.3392  -4.5328  -3.9558  -3.5928  -3.1821
    -2.6683  -2.5250  -2.1933  -1.5122  -0.7664   0.7858   1.2834   1.9373
     3.4389   3.9988   4.8561   5.7114   6.0219   6.3404   6.9097   7.0871
     7.5457   8.0020

          k = 0.4006 0.1388 0.0000 ( 15822 PWs)   bands (ev):

   -66.3413 -66.2119 -65.8054 -33.2643 -33.1362 -32.9774 -32.7976 -32.7218
   -32.6067 -32.5180 -32.4257 -32.1273 -17.9892 -17.9791 -17.9742 -17.9663
   -17.9614 -17.9593 -17.9559 -17.9396 -17.8647 -17.8538 -17.8535 -17.8415
   -17.8344 -17.8314 -17.5188 -17.5112 -17.4989 -17.4769 -17.4600 -17.4344
   -17.4278 -16.3282  -9.8878  -9.1028  -5.0991  -4.0029  -3.4597  -2.9123
    -2.7073  -2.4848  -2.0856  -1.7190  -0.6013   0.6797   1.6748   1.9815
     3.8106   4.3244   5.0063   5.5258   5.9600   6.2699   6.6153   7.0982
     7.4649   8.2745

          k =-0.4807-0.2776 0.0000 ( 15834 PWs)   bands (ev):

   -66.3352 -66.2061 -65.7998 -33.3746 -33.2323 -32.9631 -32.7893 -32.7244
   -32.6049 -32.6002 -32.4248 -32.1243 -17.9928 -17.9815 -17.9799 -17.9615
   -17.9595 -17.9544 -17.9524 -17.9370 -17.8678 -17.8569 -17.8486 -17.8389
   -17.8331 -17.8266 -17.5175 -17.5144 -17.4997 -17.4767 -17.4569 -17.4379
   -17.4226 -16.2977  -9.9644  -8.5994  -5.7826  -4.0954  -3.3367  -2.8457
    -2.7937  -2.5541  -2.0864  -1.9588  -0.2521   0.6222   2.0407   2.4644
     4.2371   4.7589   5.4914   5.9845   6.4135   6.6493   6.8817   7.0880
     7.3938   8.2338

          k =-0.4807-0.1850 0.0000 ( 15827 PWs)   bands (ev):

   -66.3352 -66.2061 -65.7998 -33.3477 -33.2064 -32.9609 -32.8237 -32.7181
   -32.6315 -32.5836 -32.4236 -32.1502 -17.9908 -17.9808 -17.9791 -17.9624
   -17.9609 -17.9562 -17.9527 -17.9354 -17.8669 -17.8566 -17.8499 -17.8399
   -17.8348 -17.8263 -17.5169 -17.5136 -17.5001 -17.4765 -17.4579 -17.4387
   -17.4226 -16.2908  -9.8773  -8.6869  -5.5692  -4.0798  -3.4005  -2.9919
    -2.6507  -2.5289  -2.1918  -1.8542  -0.4634   0.7162   2.0477   2.2473
     4.1695   4.5622   5.5942   5.7706   6.3613   6.4886   6.8133   7.2601
     7.6294   8.1780

          k =-0.4807-0.0925 0.0000 ( 15824 PWs)   bands (ev):

   -66.3352 -66.2061 -65.7998 -33.2813 -33.1456 -32.9618 -32.8928 -32.7132
   -32.6987 -32.5331 -32.4223 -32.2119 -17.9856 -17.9799 -17.9756 -17.9673
   -17.9639 -17.9592 -17.9531 -17.9321 -17.8651 -17.8557 -17.8534 -17.8412
   -17.8386 -17.8261 -17.5156 -17.5117 -17.5013 -17.4757 -17.4601 -17.4403
   -17.4227 -16.2769  -9.6480  -8.9124  -5.0364  -4.0409  -3.6106  -2.9963
    -2.7260  -2.5501  -2.2720  -1.7332  -0.6795   0.8253   1.7788   2.0389
     4.0170   4.3463   4.9628   5.7421   6.3601   6.4115   7.2053   7.4441
     7.9128   8.2981

          k =-0.4807-0.0000 0.0000 ( 15818 PWs)   bands (ev):

   -66.3352 -66.2061 -65.7998 -33.2350 -33.1093 -32.9756 -32.9235 -32.7444
   -32.7084 -32.4965 -32.4233 -32.2522 -17.9826 -17.9772 -17.9729 -17.9703
   -17.9694 -17.9599 -17.9532 -17.9303 -17.8640 -17.8556 -17.8549 -17.8415
   -17.8409 -17.8260 -17.5149 -17.5106 -17.5021 -17.4753 -17.4614 -17.4410
   -17.4228 -16.2700  -9.4423  -9.1146  -4.6367  -4.0032  -3.7665  -3.1559
    -2.7310  -2.5503  -2.3907  -1.5782  -0.7705   1.0307   1.3850   2.0147
     3.9637   4.0915   4.8877   5.6978   6.3238   6.3693   7.2751   7.7412
     8.1538   8.5993

          k =-0.4807 0.0925 0.0000 ( 15824 PWs)   bands (ev):

   -66.3352 -66.2061 -65.7998 -33.2813 -33.1456 -32.9618 -32.8928 -32.7132
   -32.6987 -32.5331 -32.4223 -32.2119 -17.9856 -17.9799 -17.9756 -17.9673
   -17.9639 -17.9592 -17.9531 -17.9321 -17.8651 -17.8557 -17.8534 -17.8412
   -17.8386 -17.8261 -17.5156 -17.5117 -17.5013 -17.4757 -17.4601 -17.4403
   -17.4227 -16.2769  -9.6480  -8.9124  -5.0364  -4.0409  -3.6107  -2.9964
    -2.7260  -2.5501  -2.2720  -1.7332  -0.6795   0.8253   1.7788   2.0389
     4.0170   4.3463   4.9628   5.7421   6.3601   6.4115   7.2053   7.4441
     7.9128   8.2980

          k =-0.4807 0.1850 0.0000 ( 15827 PWs)   bands (ev):

   -66.3352 -66.2061 -65.7998 -33.3477 -33.2064 -32.9609 -32.8237 -32.7181
   -32.6315 -32.5835 -32.4236 -32.1502 -17.9908 -17.9808 -17.9791 -17.9624
   -17.9609 -17.9562 -17.9527 -17.9354 -17.8669 -17.8566 -17.8499 -17.8399
   -17.8348 -17.8263 -17.5169 -17.5136 -17.5001 -17.4765 -17.4579 -17.4387
   -17.4226 -16.2908  -9.8773  -8.6869  -5.5692  -4.0798  -3.4005  -2.9919
    -2.6507  -2.5289  -2.1918  -1.8542  -0.4634   0.7162   2.0477   2.2473
     4.1696   4.5622   5.5942   5.7706   6.3613   6.4886   6.8133   7.2601
     7.6294   8.1780

          k =-0.4807-0.8327 0.0000 ( 15834 PWs)   bands (ev):

   -66.3352 -66.2061 -65.7998 -33.3746 -33.2323 -32.9631 -32.7893 -32.7244
   -32.6049 -32.6002 -32.4248 -32.1243 -17.9928 -17.9815 -17.9799 -17.9615
   -17.9595 -17.9544 -17.9524 -17.9370 -17.8678 -17.8569 -17.8486 -17.8389
   -17.8331 -17.8266 -17.5175 -17.5144 -17.4997 -17.4767 -17.4569 -17.4379
   -17.4226 -16.2977  -9.9644  -8.5994  -5.7826  -4.0954  -3.3368  -2.8457
    -2.7937  -2.5541  -2.0864  -1.9588  -0.2521   0.6222   2.0408   2.4645
     4.2372   4.7589   5.4914   5.9844   6.4135   6.6492   6.8818   7.0880
     7.3938   8.2338

     the Fermi energy is     2.1657 ev

!    total energy              =   -2098.72963390 Ry
     estimated scf accuracy    <          2.3E-15 Ry
     smearing contrib. (-TS)   =      -0.00004763 Ry
     internal energy E=F+TS    =   -2098.72958628 Ry

     The total energy is F=E-TS. E is the sum of the following terms:
     one-electron contribution =  -21206.01914244 Ry
     hartree contribution      =   10655.95662197 Ry
     xc contribution           =    -218.04734710 Ry
     ewald contribution        =    8669.38028129 Ry

     convergence has been achieved in  32 iterations

     negative rho (up, down):  1.006E-04 0.000E+00

     Forces acting on atoms (cartesian axes, Ry/au):

     atom    1 type  1   force =    -0.00000312   -0.00000654    0.00018283
     atom    2 type  2   force =     0.00000107    0.00000279   -0.00028635
     atom    3 type  1   force =    -0.00000032   -0.00000065    0.00065165
     atom    4 type  2   force =    -0.00000207   -0.00000451   -0.00047092
     atom    5 type  1   force =     0.00000007   -0.00000020   -0.00031297
     atom    6 type  3   force =     0.00000436    0.00000910    0.00023577

     Total force =     0.000957     Total SCF correction =     0.000001


     Computing stress (Cartesian axis) and pressure


     negative rho (up, down):  1.006E-04 0.000E+00
          total   stress  (Ry/bohr**3)                   (kbar)     P=       -0.16
   0.00000266   0.00000001   0.00000002            0.39        0.00        0.00
   0.00000001   0.00000262   0.00000005            0.00        0.39        0.01
   0.00000002   0.00000005  -0.00000856            0.00        0.01       -1.26


     Writing output data file /scratch/as3359/Ta3C2O_loop/Ta.save/
 
     init_run     :     91.04s CPU     55.28s WALL (       2 calls)
     electrons    :  65610.29s CPU  33660.84s WALL (      19 calls)
     update_pot   :    514.80s CPU    316.98s WALL (      17 calls)
     forces       :    439.15s CPU    225.04s WALL (      19 calls)
     stress       :   1303.57s CPU    668.55s WALL (      19 calls)

     Called by init_run:
     wfcinit      :     35.74s CPU     18.36s WALL (       2 calls)
     potinit      :     16.00s CPU      8.05s WALL (       2 calls)
     hinit0       :     34.57s CPU     25.88s WALL (       2 calls)

     Called by electrons:
     c_bands      :  56581.90s CPU  28676.99s WALL (     801 calls)
     sum_band     :   6952.72s CPU   3726.94s WALL (     801 calls)
     v_of_rho     :    296.23s CPU    156.92s WALL (     820 calls)
     newd         :   1737.19s CPU   1080.71s WALL (     820 calls)
     mix_rho      :     54.86s CPU     29.51s WALL (     801 calls)

     Called by c_bands:
     init_us_2    :    672.95s CPU    337.31s WALL (  121508 calls)
     cegterg      :  54178.72s CPU  27466.80s WALL (   64375 calls)

     Called by *egterg:
     cdiaghg      :   2437.18s CPU   1242.44s WALL (  438071 calls)
     h_psi        :  38274.74s CPU  19473.85s WALL (  440424 calls)
     s_psi        :   2250.49s CPU   1126.73s WALL (  440424 calls)
     g_psi        :    284.09s CPU    142.79s WALL (  375901 calls)

     Called by h_psi:
     h_psi:calbec :   2002.04s CPU   1004.04s WALL (  440424 calls)
     vloc_psi     :  33471.29s CPU  17065.18s WALL (  440424 calls)
     add_vuspsi   :   2481.03s CPU   1242.45s WALL (  440424 calls)

     General routines
     calbec       :   2460.62s CPU   1234.33s WALL (  506728 calls)
     fft          :    157.18s CPU     84.67s WALL (   11114 calls)
     ffts         :      5.84s CPU      2.99s WALL (    1621 calls)
     fftw         :  32195.68s CPU  16430.27s WALL (30995052 calls)
     interpolate  :     18.11s CPU      9.27s WALL (     820 calls)
 
     Parallel routines
 
     PWSCF        :     18h53m CPU      9h42m WALL

 
   This run was terminated on:   0:41:56  25Mar2022            

=------------------------------------------------------------------------------=
   JOB DONE.
=------------------------------------------------------------------------------=
