
     Program PWSCF v.6.8 starts on  7Apr2022 at 15:48:49 

     This program is part of the open-source Quantum ESPRESSO suite
     for quantum simulation of materials; please cite
         "P. Giannozzi et al., J. Phys.:Condens. Matter 21 395502 (2009);
         "P. Giannozzi et al., J. Phys.:Condens. Matter 29 465901 (2017);
         "P. Giannozzi et al., J. Chem. Phys. 152 154105 (2020);
          URL http://www.quantum-espresso.org", 
     in publications or presentations arising from this work. More details at
     http://www.quantum-espresso.org/quote

     Parallel version (MPI & OpenMP), running on       4 processor cores
     Number of MPI processes:                 2
     Threads/MPI process:                     2

     MPI processes distributed on     1 nodes
     R & G space division:  proc/nbgrp/npool/nimage =       2
     125006 MiB available memory on the printing compute node when the environment starts
 
     Reading input from MoS2.scf.26.in
Warning: card  &CELL ignored
Warning: card     CELL_DYNAMICS='BFGS' ignored
Warning: card  / ignored

     Current dimensions of program PWSCF are:
     Max number of different atomic species (ntypx) = 10
     Max number of k-points (npk) =  40000
     Max angular momentum in pseudopotentials (lmaxx) =  4
     Message from routine iosys:
     restart disabled: needed files not found
     file Mo.pbesol-spn-kjpaw_psl.1.0.0.UPF: wavefunction(s)  4S 4D renormalized
     file S.pbesol-nl-kjpaw_psl.1.0.0.UPF: wavefunction(s)  3S renormalized

     Subspace diagonalization in iterative solution of the eigenvalue problem:
     a serial algorithm will be used

 
     Parallelization info
     --------------------
     sticks:   dense  smooth     PW     G-vecs:    dense   smooth      PW
     Min        1203     972    279               246775   176770   27455
     Max        1204     973    280               246804   176787   27474
     Sum        2407    1945    559               493579   353557   54929
 
     Using Slab Decomposition
 


     bravais-lattice index     =            0
     lattice parameter (alat)  =       6.0720  a.u.
     unit-cell volume          =     924.7995 (a.u.)^3
     number of atoms/cell      =            3
     number of atomic types    =            2
     number of electrons       =        26.00
     number of Kohn-Sham states=           13
     kinetic-energy cutoff     =     200.0000  Ry
     charge density cutoff     =    1000.0000  Ry
     scf convergence threshold =      1.0E-12
     mixing beta               =       0.7000
     number of iterations used =            8  plain     mixing
     Exchange-correlation= SLA  PW   PSX  PSC
                           (   1   4  10   8   0   0   0)

     celldm(1)=   6.072000  celldm(2)=   0.000000  celldm(3)=   0.000000
     celldm(4)=   0.000000  celldm(5)=   0.000000  celldm(6)=   0.000000

     crystal axes: (cart. coord. in units of alat)
               a(1) = (   0.976384  -0.000017   0.000000 )  
               a(2) = (  -0.487931   0.846187   0.000000 )  
               a(3) = (   0.000000   0.000000   5.000000 )  

     reciprocal axes: (cart. coord. in units 2 pi/alat)
               b(1) = (  1.024198  0.590577  0.000000 )  
               b(2) = (  0.000021  1.181785  0.000000 )  
               b(3) = (  0.000000  0.000000  0.200000 )  


     PseudoPot. # 1 for Mo read from file:
     /shared/home/as3359/pseudo/Mo.pbesol-spn-kjpaw_psl.1.0.0.UPF
     MD5 check sum: de57925cfc675213e43241dcc441eda8
     Pseudo is Projector augmented-wave + core cor, Zval = 14.0
     Generated using &quot;atomic&quot; code by A. Dal Corso  v.6.3
     Shape of augmentation charge: PSQ
     Using radial grid of 1229 points,  6 beta functions with: 
                l(1) =   0
                l(2) =   0
                l(3) =   1
                l(4) =   1
                l(5) =   2
                l(6) =   2
     Q(r) pseudized with 0 coefficients 


     PseudoPot. # 2 for S  read from file:
     /shared/home/as3359/pseudo/S.pbesol-nl-kjpaw_psl.1.0.0.UPF
     MD5 check sum: bf3db50ec3f960682bbc396f1aadd1dd
     Pseudo is Projector augmented-wave + core cor, Zval =  6.0
     Generated using &quot;atomic&quot; code by A. Dal Corso  v.6.3
     Shape of augmentation charge: PSQ
     Using radial grid of 1151 points,  4 beta functions with: 
                l(1) =   0
                l(2) =   0
                l(3) =   1
                l(4) =   1
     Q(r) pseudized with 0 coefficients 


     atomic species   valence    mass     pseudopotential
        Mo            14.00    95.94000     Mo( 1.00)
        S              6.00    32.06500     S ( 1.00)

     No symmetry found



   Cartesian axes

     site n.     atom                  positions (alat units)
         1           Mo  tau(   1) = (   0.0000000   0.0000000   1.6880765  )
         2           S   tau(   2) = (   0.4883508   0.2821722   2.1737857  )
         3           S   tau(   3) = (   0.4883508   0.2821722   1.2023670  )

     number of k points=   340

     Number of k-points >= 100: set verbosity='high' to print them.

     Dense  grid:   493579 G-vectors     FFT dimensions: (  60,  60, 320)

     Smooth grid:   353557 G-vectors     FFT dimensions: (  54,  54, 288)

     Estimated max dynamical RAM per process >       2.36 GB

     Estimated total dynamical RAM >       4.72 GB
     Cannot read rho : file not found

     Initial potential from superposition of free atoms

     starting charge   25.99914, renormalised to   26.00000

     negative rho (up, down):  7.764E-05 0.000E+00
     Message from routine qexsd_readschema :
     xml data file /scratch/as3359/Ta2C_ct_kpts/MoS2.save/data-file-schema.xml not fo
     Cannot read wfcs: file not found
     Starting wfcs are   18 randomized atomic wfcs
     Checking if some PAW data can be deallocated... 

     total cpu time spent up to now is       40.5 secs

     Self-consistent Calculation

     iteration #  1     ecut=   200.00 Ry     beta= 0.70
     Davidson diagonalization with overlap
     ethr =  1.00E-05,  avg # of iterations = 10.3

     negative rho (up, down):  2.438E-05 0.000E+00

     total cpu time spent up to now is      230.3 secs

     total energy              =    -489.68931946 Ry
     estimated scf accuracy    <       0.15090991 Ry

     iteration #  2     ecut=   200.00 Ry     beta= 0.70
     Davidson diagonalization with overlap
     ethr =  5.80E-04,  avg # of iterations =  5.0

     negative rho (up, down):  7.723E-06 0.000E+00

     total cpu time spent up to now is      327.0 secs

     total energy              =    -489.64850504 Ry
     estimated scf accuracy    <       0.55755987 Ry

     iteration #  3     ecut=   200.00 Ry     beta= 0.70
     Davidson diagonalization with overlap
     ethr =  5.80E-04,  avg # of iterations =  5.0

     negative rho (up, down):  3.383E-06 0.000E+00

     total cpu time spent up to now is      420.5 secs

     total energy              =    -489.75243919 Ry
     estimated scf accuracy    <       0.04174219 Ry

     iteration #  4     ecut=   200.00 Ry     beta= 0.70
     Davidson diagonalization with overlap
     ethr =  1.61E-04,  avg # of iterations =  2.3

     negative rho (up, down):  2.654E-06 0.000E+00

     total cpu time spent up to now is      488.0 secs

     total energy              =    -489.75487309 Ry
     estimated scf accuracy    <       0.00558726 Ry

     iteration #  5     ecut=   200.00 Ry     beta= 0.70
     Davidson diagonalization with overlap
     ethr =  2.15E-05,  avg # of iterations =  5.1

     negative rho (up, down):  2.650E-06 0.000E+00

     total cpu time spent up to now is      585.8 secs

     total energy              =    -489.75784847 Ry
     estimated scf accuracy    <       0.00837880 Ry

     iteration #  6     ecut=   200.00 Ry     beta= 0.70
     Davidson diagonalization with overlap
     ethr =  2.15E-05,  avg # of iterations =  1.9

     negative rho (up, down):  3.044E-06 0.000E+00

     total cpu time spent up to now is      647.1 secs

     total energy              =    -489.75673453 Ry
     estimated scf accuracy    <       0.00300999 Ry

     iteration #  7     ecut=   200.00 Ry     beta= 0.70
     Davidson diagonalization with overlap
     ethr =  1.16E-05,  avg # of iterations =  4.9

     negative rho (up, down):  3.179E-06 0.000E+00

     total cpu time spent up to now is      736.5 secs

     total energy              =    -489.75841479 Ry
     estimated scf accuracy    <       0.00246899 Ry

     iteration #  8     ecut=   200.00 Ry     beta= 0.70
     Davidson diagonalization with overlap
     ethr =  9.50E-06,  avg # of iterations =  1.0

     negative rho (up, down):  3.383E-06 0.000E+00

     total cpu time spent up to now is      793.1 secs

     total energy              =    -489.75794025 Ry
     estimated scf accuracy    <       0.00221778 Ry

     iteration #  9     ecut=   200.00 Ry     beta= 0.70
     Davidson diagonalization with overlap
     ethr =  8.53E-06,  avg # of iterations =  1.9

     negative rho (up, down):  3.407E-06 0.000E+00

     total cpu time spent up to now is      853.8 secs

     total energy              =    -489.75805969 Ry
     estimated scf accuracy    <       0.00057962 Ry

     iteration # 10     ecut=   200.00 Ry     beta= 0.70
     Davidson diagonalization with overlap
     ethr =  2.23E-06,  avg # of iterations =  1.6

     negative rho (up, down):  3.327E-06 0.000E+00

     total cpu time spent up to now is      913.1 secs

     total energy              =    -489.75804118 Ry
     estimated scf accuracy    <       0.00050988 Ry

     iteration # 11     ecut=   200.00 Ry     beta= 0.70
     Davidson diagonalization with overlap
     ethr =  1.96E-06,  avg # of iterations =  1.4

     negative rho (up, down):  3.321E-06 0.000E+00

     total cpu time spent up to now is      971.3 secs

     total energy              =    -489.75801671 Ry
     estimated scf accuracy    <       0.00028767 Ry

     iteration # 12     ecut=   200.00 Ry     beta= 0.70
     Davidson diagonalization with overlap
     ethr =  1.11E-06,  avg # of iterations =  3.3

     negative rho (up, down):  3.376E-06 0.000E+00

     total cpu time spent up to now is     1041.7 secs

     total energy              =    -489.75802195 Ry
     estimated scf accuracy    <       0.00005345 Ry

     iteration # 13     ecut=   200.00 Ry     beta= 0.70
     Davidson diagonalization with overlap
     ethr =  2.06E-07,  avg # of iterations =  6.1

     negative rho (up, down):  3.440E-06 0.000E+00

     total cpu time spent up to now is     1164.5 secs

     total energy              =    -489.75806444 Ry
     estimated scf accuracy    <       0.00036471 Ry

     iteration # 14     ecut=   200.00 Ry     beta= 0.70
     Davidson diagonalization with overlap
     ethr =  2.06E-07,  avg # of iterations =  2.5

     negative rho (up, down):  3.550E-06 0.000E+00

     total cpu time spent up to now is     1237.3 secs

     total energy              =    -489.75804475 Ry
     estimated scf accuracy    <       0.00014100 Ry

     iteration # 15     ecut=   200.00 Ry     beta= 0.70
     Davidson diagonalization with overlap
     ethr =  2.06E-07,  avg # of iterations =  4.1

     negative rho (up, down):  3.556E-06 0.000E+00

     total cpu time spent up to now is     1318.5 secs

     total energy              =    -489.75806026 Ry
     estimated scf accuracy    <       0.00000809 Ry

     iteration # 16     ecut=   200.00 Ry     beta= 0.70
     Davidson diagonalization with overlap
     ethr =  3.11E-08,  avg # of iterations =  2.9

     negative rho (up, down):  3.570E-06 0.000E+00

     total cpu time spent up to now is     1385.3 secs

     total energy              =    -489.75806201 Ry
     estimated scf accuracy    <       0.00000513 Ry

     iteration # 17     ecut=   200.00 Ry     beta= 0.70
     Davidson diagonalization with overlap
     ethr =  1.97E-08,  avg # of iterations =  1.6

     negative rho (up, down):  3.604E-06 0.000E+00

     total cpu time spent up to now is     1445.3 secs

     total energy              =    -489.75806017 Ry
     estimated scf accuracy    <       0.00000824 Ry

     iteration # 18     ecut=   200.00 Ry     beta= 0.70
     Davidson diagonalization with overlap
     ethr =  1.97E-08,  avg # of iterations =  2.2

     negative rho (up, down):  3.606E-06 0.000E+00

     total cpu time spent up to now is     1513.9 secs

     total energy              =    -489.75806070 Ry
     estimated scf accuracy    <       0.00000148 Ry

     iteration # 19     ecut=   200.00 Ry     beta= 0.70
     Davidson diagonalization with overlap
     ethr =  5.71E-09,  avg # of iterations =  3.0

     negative rho (up, down):  3.612E-06 0.000E+00

     total cpu time spent up to now is     1579.6 secs

     total energy              =    -489.75806077 Ry
     estimated scf accuracy    <       0.00000061 Ry

     iteration # 20     ecut=   200.00 Ry     beta= 0.70
     Davidson diagonalization with overlap
     ethr =  2.35E-09,  avg # of iterations =  3.3

     negative rho (up, down):  3.620E-06 0.000E+00

     total cpu time spent up to now is     1650.1 secs

     total energy              =    -489.75806083 Ry
     estimated scf accuracy    <       0.00000018 Ry

     iteration # 21     ecut=   200.00 Ry     beta= 0.70
     Davidson diagonalization with overlap
     ethr =  6.74E-10,  avg # of iterations =  4.2

     negative rho (up, down):  3.621E-06 0.000E+00

     total cpu time spent up to now is     1727.5 secs

     total energy              =    -489.75806087 Ry
     estimated scf accuracy    <       0.00000003 Ry

     iteration # 22     ecut=   200.00 Ry     beta= 0.70
     Davidson diagonalization with overlap
     ethr =  1.02E-10,  avg # of iterations =  3.4

     negative rho (up, down):  3.621E-06 0.000E+00

     total cpu time spent up to now is     1797.4 secs

     total energy              =    -489.75806087 Ry
     estimated scf accuracy    <       0.00000002 Ry

     iteration # 23     ecut=   200.00 Ry     beta= 0.70
     Davidson diagonalization with overlap
     ethr =  6.59E-11,  avg # of iterations =  1.8

     negative rho (up, down):  3.621E-06 0.000E+00

     total cpu time spent up to now is     1857.6 secs

     total energy              =    -489.75806087 Ry
     estimated scf accuracy    <          9.1E-09 Ry

     iteration # 24     ecut=   200.00 Ry     beta= 0.70
     Davidson diagonalization with overlap
     ethr =  3.52E-11,  avg # of iterations =  3.0

     negative rho (up, down):  3.621E-06 0.000E+00

     total cpu time spent up to now is     1924.8 secs

     total energy              =    -489.75806087 Ry
     estimated scf accuracy    <          2.1E-09 Ry

     iteration # 25     ecut=   200.00 Ry     beta= 0.70
     Davidson diagonalization with overlap
     ethr =  8.17E-12,  avg # of iterations =  4.2

     negative rho (up, down):  3.621E-06 0.000E+00

     total cpu time spent up to now is     2001.7 secs

     total energy              =    -489.75806087 Ry
     estimated scf accuracy    <          2.8E-10 Ry

     iteration # 26     ecut=   200.00 Ry     beta= 0.70
     Davidson diagonalization with overlap
     ethr =  1.07E-12,  avg # of iterations =  4.6

     negative rho (up, down):  3.621E-06 0.000E+00

     total cpu time spent up to now is     2089.1 secs

     total energy              =    -489.75806087 Ry
     estimated scf accuracy    <          2.3E-11 Ry

     iteration # 27     ecut=   200.00 Ry     beta= 0.70
     Davidson diagonalization with overlap
     ethr =  1.00E-13,  avg # of iterations =  5.9

     negative rho (up, down):  3.621E-06 0.000E+00

     total cpu time spent up to now is     2195.4 secs

     total energy              =    -489.75806087 Ry
     estimated scf accuracy    <          1.2E-10 Ry

     iteration # 28     ecut=   200.00 Ry     beta= 0.70
     Davidson diagonalization with overlap
     ethr =  1.00E-13,  avg # of iterations =  1.2

     negative rho (up, down):  3.621E-06 0.000E+00

     total cpu time spent up to now is     2253.1 secs

     total energy              =    -489.75806087 Ry
     estimated scf accuracy    <          9.4E-11 Ry

     iteration # 29     ecut=   200.00 Ry     beta= 0.70
     Davidson diagonalization with overlap
     ethr =  1.00E-13,  avg # of iterations =  3.4

     negative rho (up, down):  3.621E-06 0.000E+00

     total cpu time spent up to now is     2329.7 secs

     total energy              =    -489.75806087 Ry
     estimated scf accuracy    <          2.7E-11 Ry

     iteration # 30     ecut=   200.00 Ry     beta= 0.70
     Davidson diagonalization with overlap
     ethr =  1.00E-13,  avg # of iterations =  3.0

     negative rho (up, down):  3.621E-06 0.000E+00

     total cpu time spent up to now is     2402.7 secs

     total energy              =    -489.75806087 Ry
     estimated scf accuracy    <          2.8E-12 Ry

     iteration # 31     ecut=   200.00 Ry     beta= 0.70
     Davidson diagonalization with overlap
     ethr =  1.00E-13,  avg # of iterations =  1.0

     negative rho (up, down):  3.621E-06 0.000E+00

     total cpu time spent up to now is     2460.0 secs

     total energy              =    -489.75806087 Ry
     estimated scf accuracy    <          1.1E-12 Ry

     iteration # 32     ecut=   200.00 Ry     beta= 0.70
     Davidson diagonalization with overlap
     ethr =  1.00E-13,  avg # of iterations =  1.0

     negative rho (up, down):  3.621E-06 0.000E+00

     total cpu time spent up to now is     2517.1 secs

     End of self-consistent calculation

     Number of k-points >= 100: set verbosity='high' to print the bands.

     highest occupied level (ev):     0.3592

!    total energy              =    -489.75806087 Ry

     total all-electron energy =     -9688.215906 Ry
     estimated scf accuracy    <          2.9E-13 Ry

     The total energy is the sum of the following terms:
     one-electron contribution =    -813.90680367 Ry
     hartree contribution      =     410.77447580 Ry
     xc contribution           =     -29.52473914 Ry
     ewald contribution        =     255.78841210 Ry
     one-center paw contrib.   =    -312.88940596 Ry

     convergence has been achieved in  32 iterations

     negative rho (up, down):  3.621E-06 0.000E+00

     Forces acting on atoms (cartesian axes, Ry/au):

     atom    1 type  1   force =     0.00026875    0.00012900   -0.00000017
     atom    2 type  2   force =    -0.00013437   -0.00006450   -0.00032918
     atom    3 type  2   force =    -0.00013437   -0.00006450    0.00032935

     Total force =     0.000592     Total SCF correction =     0.000002


     Computing stress (Cartesian axis) and pressure


     negative rho (up, down):  3.621E-06 0.000E+00
          total   stress  (Ry/bohr**3)                   (kbar)     P=        0.69
   0.00000967  -0.00000085  -0.00000000            1.42       -0.13       -0.00
  -0.00000085   0.00000653  -0.00000000           -0.13        0.96       -0.00
  -0.00000000  -0.00000000  -0.00000215           -0.00       -0.00       -0.32


     Writing output data file /scratch/as3359/Ta2C_ct_kpts/MoS2.save/
 
     init_run     :     75.97s CPU     40.31s WALL (       1 calls)
     electrons    :   4882.49s CPU   2476.73s WALL (       1 calls)
     forces       :     18.16s CPU      9.21s WALL (       1 calls)
     stress       :     66.46s CPU     33.78s WALL (       1 calls)

     Called by init_run:
     wfcinit      :     65.39s CPU     33.37s WALL (       1 calls)
     potinit      :      3.03s CPU      1.55s WALL (       1 calls)
     hinit0       :      5.86s CPU      4.21s WALL (       1 calls)

     Called by electrons:
     c_bands      :   4118.70s CPU   2082.99s WALL (      32 calls)
     sum_band     :    720.84s CPU    367.88s WALL (      32 calls)
     v_of_rho     :     11.58s CPU      6.45s WALL (      33 calls)
     newd         :     20.12s CPU     13.17s WALL (      33 calls)
     PAW_pot      :      6.09s CPU      3.13s WALL (      33 calls)
     mix_rho      :      4.46s CPU      2.68s WALL (      32 calls)

     Called by c_bands:
     init_us_2    :    143.96s CPU     72.09s WALL (   22780 calls)
     cegterg      :   3886.53s CPU   1965.02s WALL (   10880 calls)

     Called by *egterg:
     cdiaghg      :     18.33s CPU      9.33s WALL (   47003 calls)
     h_psi        :   3404.92s CPU   1723.25s WALL (   47343 calls)
     s_psi        :    115.32s CPU     57.83s WALL (   47343 calls)
     g_psi        :     21.73s CPU     10.94s WALL (   36123 calls)

     Called by h_psi:
     h_psi:calbec :     94.67s CPU     47.55s WALL (   47343 calls)
     vloc_psi     :   3134.65s CPU   1587.59s WALL (   47343 calls)
     add_vuspsi   :    151.49s CPU     75.95s WALL (   47343 calls)

     General routines
     calbec       :    125.71s CPU     63.19s WALL (   59923 calls)
     fft          :      6.55s CPU      3.59s WALL (     452 calls)
     ffts         :      0.64s CPU      0.33s WALL (      65 calls)
     fftw         :   3176.29s CPU   1610.15s WALL (  938136 calls)
     interpolate  :      1.08s CPU      0.62s WALL (      33 calls)
 
     Parallel routines
 
     PWSCF        :      1h24m CPU  42m50.65s WALL

 
   This run was terminated on:  16:31:39   7Apr2022            

=------------------------------------------------------------------------------=
   JOB DONE.
=------------------------------------------------------------------------------=
