
     Program PWSCF v.6.8 starts on  7Apr2022 at 14:41:11 

     This program is part of the open-source Quantum ESPRESSO suite
     for quantum simulation of materials; please cite
         "P. Giannozzi et al., J. Phys.:Condens. Matter 21 395502 (2009);
         "P. Giannozzi et al., J. Phys.:Condens. Matter 29 465901 (2017);
         "P. Giannozzi et al., J. Chem. Phys. 152 154105 (2020);
          URL http://www.quantum-espresso.org", 
     in publications or presentations arising from this work. More details at
     http://www.quantum-espresso.org/quote

     Parallel version (MPI & OpenMP), running on       4 processor cores
     Number of MPI processes:                 2
     Threads/MPI process:                     2

     MPI processes distributed on     1 nodes
     R & G space division:  proc/nbgrp/npool/nimage =       2
     125015 MiB available memory on the printing compute node when the environment starts
 
     Reading input from MoS2.scf.22.in
Warning: card  &CELL ignored
Warning: card     CELL_DYNAMICS='BFGS' ignored
Warning: card  / ignored

     Current dimensions of program PWSCF are:
     Max number of different atomic species (ntypx) = 10
     Max number of k-points (npk) =  40000
     Max angular momentum in pseudopotentials (lmaxx) =  4
     Message from routine iosys:
     restart disabled: needed files not found
     file Mo.pbesol-spn-kjpaw_psl.1.0.0.UPF: wavefunction(s)  4S 4D renormalized
     file S.pbesol-nl-kjpaw_psl.1.0.0.UPF: wavefunction(s)  3S renormalized

     Subspace diagonalization in iterative solution of the eigenvalue problem:
     a serial algorithm will be used

 
     Parallelization info
     --------------------
     sticks:   dense  smooth     PW     G-vecs:    dense   smooth      PW
     Min        1203     972    279               246775   176770   27455
     Max        1204     973    280               246804   176787   27474
     Sum        2407    1945    559               493579   353557   54929
 
     Using Slab Decomposition
 


     bravais-lattice index     =            0
     lattice parameter (alat)  =       6.0720  a.u.
     unit-cell volume          =     924.7995 (a.u.)^3
     number of atoms/cell      =            3
     number of atomic types    =            2
     number of electrons       =        26.00
     number of Kohn-Sham states=           13
     kinetic-energy cutoff     =     200.0000  Ry
     charge density cutoff     =    1000.0000  Ry
     scf convergence threshold =      1.0E-12
     mixing beta               =       0.7000
     number of iterations used =            8  plain     mixing
     Exchange-correlation= SLA  PW   PSX  PSC
                           (   1   4  10   8   0   0   0)

     celldm(1)=   6.072000  celldm(2)=   0.000000  celldm(3)=   0.000000
     celldm(4)=   0.000000  celldm(5)=   0.000000  celldm(6)=   0.000000

     crystal axes: (cart. coord. in units of alat)
               a(1) = (   0.976384  -0.000017   0.000000 )  
               a(2) = (  -0.487931   0.846187   0.000000 )  
               a(3) = (   0.000000   0.000000   5.000000 )  

     reciprocal axes: (cart. coord. in units 2 pi/alat)
               b(1) = (  1.024198  0.590577  0.000000 )  
               b(2) = (  0.000021  1.181785  0.000000 )  
               b(3) = (  0.000000  0.000000  0.200000 )  


     PseudoPot. # 1 for Mo read from file:
     /shared/home/as3359/pseudo/Mo.pbesol-spn-kjpaw_psl.1.0.0.UPF
     MD5 check sum: de57925cfc675213e43241dcc441eda8
     Pseudo is Projector augmented-wave + core cor, Zval = 14.0
     Generated using &quot;atomic&quot; code by A. Dal Corso  v.6.3
     Shape of augmentation charge: PSQ
     Using radial grid of 1229 points,  6 beta functions with: 
                l(1) =   0
                l(2) =   0
                l(3) =   1
                l(4) =   1
                l(5) =   2
                l(6) =   2
     Q(r) pseudized with 0 coefficients 


     PseudoPot. # 2 for S  read from file:
     /shared/home/as3359/pseudo/S.pbesol-nl-kjpaw_psl.1.0.0.UPF
     MD5 check sum: bf3db50ec3f960682bbc396f1aadd1dd
     Pseudo is Projector augmented-wave + core cor, Zval =  6.0
     Generated using &quot;atomic&quot; code by A. Dal Corso  v.6.3
     Shape of augmentation charge: PSQ
     Using radial grid of 1151 points,  4 beta functions with: 
                l(1) =   0
                l(2) =   0
                l(3) =   1
                l(4) =   1
     Q(r) pseudized with 0 coefficients 


     atomic species   valence    mass     pseudopotential
        Mo            14.00    95.94000     Mo( 1.00)
        S              6.00    32.06500     S ( 1.00)

     No symmetry found



   Cartesian axes

     site n.     atom                  positions (alat units)
         1           Mo  tau(   1) = (   0.0000000   0.0000000   1.6880765  )
         2           S   tau(   2) = (   0.4883508   0.2821722   2.1737857  )
         3           S   tau(   3) = (   0.4883508   0.2821722   1.2023670  )

     number of k points=   244

     Number of k-points >= 100: set verbosity='high' to print them.

     Dense  grid:   493579 G-vectors     FFT dimensions: (  60,  60, 320)

     Smooth grid:   353557 G-vectors     FFT dimensions: (  54,  54, 288)

     Estimated max dynamical RAM per process >       1.95 GB

     Estimated total dynamical RAM >       3.90 GB
     Cannot read rho : file not found

     Initial potential from superposition of free atoms

     starting charge   25.99914, renormalised to   26.00000

     negative rho (up, down):  7.764E-05 0.000E+00
     Message from routine qexsd_readschema :
     xml data file /scratch/as3359/Ta2C_ct_kpts/MoS2.save/data-file-schema.xml not fo
     Cannot read wfcs: file not found
     Starting wfcs are   18 randomized atomic wfcs
     Checking if some PAW data can be deallocated... 

     total cpu time spent up to now is       31.0 secs

     Self-consistent Calculation

     iteration #  1     ecut=   200.00 Ry     beta= 0.70
     Davidson diagonalization with overlap
     ethr =  1.00E-05,  avg # of iterations = 10.3

     negative rho (up, down):  2.437E-05 0.000E+00

     total cpu time spent up to now is      167.1 secs

     total energy              =    -489.68932464 Ry
     estimated scf accuracy    <       0.15090544 Ry

     iteration #  2     ecut=   200.00 Ry     beta= 0.70
     Davidson diagonalization with overlap
     ethr =  5.80E-04,  avg # of iterations =  5.0

     negative rho (up, down):  7.717E-06 0.000E+00

     total cpu time spent up to now is      236.1 secs

     total energy              =    -489.64833737 Ry
     estimated scf accuracy    <       0.55839191 Ry

     iteration #  3     ecut=   200.00 Ry     beta= 0.70
     Davidson diagonalization with overlap
     ethr =  5.80E-04,  avg # of iterations =  5.0

     negative rho (up, down):  3.392E-06 0.000E+00

     total cpu time spent up to now is      302.9 secs

     total energy              =    -489.75233904 Ry
     estimated scf accuracy    <       0.04188074 Ry

     iteration #  4     ecut=   200.00 Ry     beta= 0.70
     Davidson diagonalization with overlap
     ethr =  1.61E-04,  avg # of iterations =  2.3

     negative rho (up, down):  2.667E-06 0.000E+00

     total cpu time spent up to now is      351.6 secs

     total energy              =    -489.75499803 Ry
     estimated scf accuracy    <       0.00540185 Ry

     iteration #  5     ecut=   200.00 Ry     beta= 0.70
     Davidson diagonalization with overlap
     ethr =  2.08E-05,  avg # of iterations =  5.1

     negative rho (up, down):  2.673E-06 0.000E+00

     total cpu time spent up to now is      421.3 secs

     total energy              =    -489.75783144 Ry
     estimated scf accuracy    <       0.00768258 Ry

     iteration #  6     ecut=   200.00 Ry     beta= 0.70
     Davidson diagonalization with overlap
     ethr =  2.08E-05,  avg # of iterations =  1.8

     negative rho (up, down):  3.076E-06 0.000E+00

     total cpu time spent up to now is      464.8 secs

     total energy              =    -489.75678784 Ry
     estimated scf accuracy    <       0.00270023 Ry

     iteration #  7     ecut=   200.00 Ry     beta= 0.70
     Davidson diagonalization with overlap
     ethr =  1.04E-05,  avg # of iterations =  5.2

     negative rho (up, down):  3.202E-06 0.000E+00

     total cpu time spent up to now is      530.7 secs

     total energy              =    -489.75830811 Ry
     estimated scf accuracy    <       0.00311775 Ry

     iteration #  8     ecut=   200.00 Ry     beta= 0.70
     Davidson diagonalization with overlap
     ethr =  1.04E-05,  avg # of iterations =  1.0

     negative rho (up, down):  3.346E-06 0.000E+00

     total cpu time spent up to now is      571.2 secs

     total energy              =    -489.75796361 Ry
     estimated scf accuracy    <       0.00227013 Ry

     iteration #  9     ecut=   200.00 Ry     beta= 0.70
     Davidson diagonalization with overlap
     ethr =  8.73E-06,  avg # of iterations =  1.8

     negative rho (up, down):  3.464E-06 0.000E+00

     total cpu time spent up to now is      614.6 secs

     total energy              =    -489.75786125 Ry
     estimated scf accuracy    <       0.00074957 Ry

     iteration # 10     ecut=   200.00 Ry     beta= 0.70
     Davidson diagonalization with overlap
     ethr =  2.88E-06,  avg # of iterations =  4.2

     negative rho (up, down):  3.505E-06 0.000E+00

     total cpu time spent up to now is      672.2 secs

     total energy              =    -489.75805637 Ry
     estimated scf accuracy    <       0.00001370 Ry

     iteration # 11     ecut=   200.00 Ry     beta= 0.70
     Davidson diagonalization with overlap
     ethr =  5.27E-08,  avg # of iterations =  5.3

     negative rho (up, down):  3.546E-06 0.000E+00

     total cpu time spent up to now is      742.2 secs

     total energy              =    -489.75806293 Ry
     estimated scf accuracy    <       0.00005166 Ry

     iteration # 12     ecut=   200.00 Ry     beta= 0.70
     Davidson diagonalization with overlap
     ethr =  5.27E-08,  avg # of iterations =  2.1

     negative rho (up, down):  3.587E-06 0.000E+00

     total cpu time spent up to now is      786.0 secs

     total energy              =    -489.75805422 Ry
     estimated scf accuracy    <       0.00002917 Ry

     iteration # 13     ecut=   200.00 Ry     beta= 0.70
     Davidson diagonalization with overlap
     ethr =  5.27E-08,  avg # of iterations =  4.4

     negative rho (up, down):  3.601E-06 0.000E+00

     total cpu time spent up to now is      845.9 secs

     total energy              =    -489.75806149 Ry
     estimated scf accuracy    <       0.00000119 Ry

     iteration # 14     ecut=   200.00 Ry     beta= 0.70
     Davidson diagonalization with overlap
     ethr =  4.57E-09,  avg # of iterations =  5.1

     negative rho (up, down):  3.607E-06 0.000E+00

     total cpu time spent up to now is      914.2 secs

     total energy              =    -489.75806156 Ry
     estimated scf accuracy    <       0.00000779 Ry

     iteration # 15     ecut=   200.00 Ry     beta= 0.70
     Davidson diagonalization with overlap
     ethr =  4.57E-09,  avg # of iterations =  1.1

     negative rho (up, down):  3.615E-06 0.000E+00

     total cpu time spent up to now is      954.7 secs

     total energy              =    -489.75806016 Ry
     estimated scf accuracy    <       0.00000592 Ry

     iteration # 16     ecut=   200.00 Ry     beta= 0.70
     Davidson diagonalization with overlap
     ethr =  4.57E-09,  avg # of iterations =  4.5

     negative rho (up, down):  3.619E-06 0.000E+00

     total cpu time spent up to now is     1014.7 secs

     total energy              =    -489.75806083 Ry
     estimated scf accuracy    <       0.00000016 Ry

     iteration # 17     ecut=   200.00 Ry     beta= 0.70
     Davidson diagonalization with overlap
     ethr =  6.25E-10,  avg # of iterations =  4.2

     negative rho (up, down):  3.620E-06 0.000E+00

     total cpu time spent up to now is     1069.9 secs

     total energy              =    -489.75806086 Ry
     estimated scf accuracy    <       0.00000001 Ry

     iteration # 18     ecut=   200.00 Ry     beta= 0.70
     Davidson diagonalization with overlap
     ethr =  5.25E-11,  avg # of iterations =  5.9

     negative rho (up, down):  3.620E-06 0.000E+00

     total cpu time spent up to now is     1143.1 secs

     total energy              =    -489.75806087 Ry
     estimated scf accuracy    <       0.00000003 Ry

     iteration # 19     ecut=   200.00 Ry     beta= 0.70
     Davidson diagonalization with overlap
     ethr =  5.25E-11,  avg # of iterations =  2.9

     negative rho (up, down):  3.621E-06 0.000E+00

     total cpu time spent up to now is     1193.8 secs

     total energy              =    -489.75806087 Ry
     estimated scf accuracy    <          4.1E-09 Ry

     iteration # 20     ecut=   200.00 Ry     beta= 0.70
     Davidson diagonalization with overlap
     ethr =  1.59E-11,  avg # of iterations =  4.5

     negative rho (up, down):  3.621E-06 0.000E+00

     total cpu time spent up to now is     1255.3 secs

     total energy              =    -489.75806087 Ry
     estimated scf accuracy    <          4.3E-10 Ry

     iteration # 21     ecut=   200.00 Ry     beta= 0.70
     Davidson diagonalization with overlap
     ethr =  1.64E-12,  avg # of iterations =  3.2

     negative rho (up, down):  3.621E-06 0.000E+00

     total cpu time spent up to now is     1303.0 secs

     total energy              =    -489.75806087 Ry
     estimated scf accuracy    <          6.3E-10 Ry

     iteration # 22     ecut=   200.00 Ry     beta= 0.70
     Davidson diagonalization with overlap
     ethr =  1.64E-12,  avg # of iterations =  2.2

     negative rho (up, down):  3.621E-06 0.000E+00

     total cpu time spent up to now is     1348.6 secs

     total energy              =    -489.75806087 Ry
     estimated scf accuracy    <          1.6E-10 Ry

     iteration # 23     ecut=   200.00 Ry     beta= 0.70
     Davidson diagonalization with overlap
     ethr =  6.04E-13,  avg # of iterations =  5.5

     negative rho (up, down):  3.621E-06 0.000E+00

     total cpu time spent up to now is     1414.0 secs

     total energy              =    -489.75806087 Ry
     estimated scf accuracy    <          2.0E-10 Ry

     iteration # 24     ecut=   200.00 Ry     beta= 0.70
     Davidson diagonalization with overlap
     ethr =  6.04E-13,  avg # of iterations =  1.0

     negative rho (up, down):  3.621E-06 0.000E+00

     total cpu time spent up to now is     1453.8 secs

     total energy              =    -489.75806087 Ry
     estimated scf accuracy    <          2.7E-10 Ry

     iteration # 25     ecut=   200.00 Ry     beta= 0.70
     Davidson diagonalization with overlap
     ethr =  6.04E-13,  avg # of iterations =  1.0

     negative rho (up, down):  3.621E-06 0.000E+00

     total cpu time spent up to now is     1493.8 secs

     total energy              =    -489.75806087 Ry
     estimated scf accuracy    <          1.9E-10 Ry

     iteration # 26     ecut=   200.00 Ry     beta= 0.70
     Davidson diagonalization with overlap
     ethr =  6.04E-13,  avg # of iterations =  1.7

     negative rho (up, down):  3.621E-06 0.000E+00

     total cpu time spent up to now is     1536.0 secs

     total energy              =    -489.75806087 Ry
     estimated scf accuracy    <          7.0E-11 Ry

     iteration # 27     ecut=   200.00 Ry     beta= 0.70
     Davidson diagonalization with overlap
     ethr =  2.68E-13,  avg # of iterations =  3.1

     negative rho (up, down):  3.621E-06 0.000E+00

     total cpu time spent up to now is     1583.6 secs

     total energy              =    -489.75806087 Ry
     estimated scf accuracy    <          1.5E-11 Ry

     iteration # 28     ecut=   200.00 Ry     beta= 0.70
     Davidson diagonalization with overlap
     ethr =  1.00E-13,  avg # of iterations =  3.8

     negative rho (up, down):  3.621E-06 0.000E+00

     total cpu time spent up to now is     1635.5 secs

     End of self-consistent calculation

     Number of k-points >= 100: set verbosity='high' to print the bands.

     highest occupied level (ev):     0.3502

!    total energy              =    -489.75806087 Ry

     total all-electron energy =     -9688.215906 Ry
     estimated scf accuracy    <          2.2E-13 Ry

     The total energy is the sum of the following terms:
     one-electron contribution =    -813.90678342 Ry
     hartree contribution      =     410.77445493 Ry
     xc contribution           =     -29.52473850 Ry
     ewald contribution        =     255.78841210 Ry
     one-center paw contrib.   =    -312.88940599 Ry

     convergence has been achieved in  28 iterations

     negative rho (up, down):  3.621E-06 0.000E+00

     Forces acting on atoms (cartesian axes, Ry/au):

     atom    1 type  1   force =     0.00026874    0.00012900   -0.00000060
     atom    2 type  2   force =    -0.00013437   -0.00006450   -0.00032847
     atom    3 type  2   force =    -0.00013437   -0.00006450    0.00032907

     Total force =     0.000591     Total SCF correction =     0.000001


     Computing stress (Cartesian axis) and pressure


     negative rho (up, down):  3.621E-06 0.000E+00
          total   stress  (Ry/bohr**3)                   (kbar)     P=        0.69
   0.00000967  -0.00000085  -0.00000000            1.42       -0.13       -0.00
  -0.00000085   0.00000653  -0.00000000           -0.13        0.96       -0.00
  -0.00000000  -0.00000000  -0.00000215           -0.00       -0.00       -0.32


     Writing output data file /scratch/as3359/Ta2C_ct_kpts/MoS2.save/
 
     init_run     :     57.46s CPU     30.78s WALL (       1 calls)
     electrons    :   3162.43s CPU   1604.59s WALL (       1 calls)
     forces       :     14.48s CPU      7.37s WALL (       1 calls)
     stress       :     50.55s CPU     25.78s WALL (       1 calls)

     Called by init_run:
     wfcinit      :     47.08s CPU     24.03s WALL (       1 calls)
     potinit      :      3.05s CPU      1.56s WALL (       1 calls)
     hinit0       :      5.84s CPU      4.21s WALL (       1 calls)

     Called by electrons:
     c_bands      :   2682.26s CPU   1355.93s WALL (      28 calls)
     sum_band     :    443.06s CPU    226.31s WALL (      28 calls)
     v_of_rho     :      9.96s CPU      5.55s WALL (      29 calls)
     newd         :     17.58s CPU     11.51s WALL (      29 calls)
     PAW_pot      :      5.22s CPU      2.68s WALL (      29 calls)
     mix_rho      :      3.91s CPU      2.34s WALL (      28 calls)

     Called by c_bands:
     init_us_2    :     89.45s CPU     44.79s WALL (   14396 calls)
     cegterg      :   2537.88s CPU   1282.79s WALL (    6832 calls)

     Called by *egterg:
     cdiaghg      :     12.51s CPU      6.36s WALL (   32010 calls)
     h_psi        :   2208.78s CPU   1117.55s WALL (   32254 calls)
     s_psi        :     78.02s CPU     39.12s WALL (   32254 calls)
     g_psi        :     14.71s CPU      7.41s WALL (   25178 calls)

     Called by h_psi:
     h_psi:calbec :     64.60s CPU     32.47s WALL (   32254 calls)
     vloc_psi     :   2028.93s CPU   1027.26s WALL (   32254 calls)
     add_vuspsi   :    100.22s CPU     50.23s WALL (   32254 calls)

     General routines
     calbec       :     83.63s CPU     42.05s WALL (   40306 calls)
     fft          :      5.72s CPU      3.16s WALL (     400 calls)
     ffts         :      0.55s CPU      0.28s WALL (      57 calls)
     fftw         :   2048.02s CPU   1037.80s WALL (  617702 calls)
     interpolate  :      0.98s CPU      0.57s WALL (      29 calls)
 
     Parallel routines
 
     PWSCF        :  54m53.39s CPU  27m56.25s WALL

 
   This run was terminated on:  15: 9: 7   7Apr2022            

=------------------------------------------------------------------------------=
   JOB DONE.
=------------------------------------------------------------------------------=
