
     Program PWSCF v.6.8 starts on  7Apr2022 at 15: 9: 9 

     This program is part of the open-source Quantum ESPRESSO suite
     for quantum simulation of materials; please cite
         "P. Giannozzi et al., J. Phys.:Condens. Matter 21 395502 (2009);
         "P. Giannozzi et al., J. Phys.:Condens. Matter 29 465901 (2017);
         "P. Giannozzi et al., J. Chem. Phys. 152 154105 (2020);
          URL http://www.quantum-espresso.org", 
     in publications or presentations arising from this work. More details at
     http://www.quantum-espresso.org/quote

     Parallel version (MPI & OpenMP), running on       4 processor cores
     Number of MPI processes:                 2
     Threads/MPI process:                     2

     MPI processes distributed on     1 nodes
     R & G space division:  proc/nbgrp/npool/nimage =       2
     125014 MiB available memory on the printing compute node when the environment starts
 
     Reading input from MoS2.scf.24.in
Warning: card  &CELL ignored
Warning: card     CELL_DYNAMICS='BFGS' ignored
Warning: card  / ignored

     Current dimensions of program PWSCF are:
     Max number of different atomic species (ntypx) = 10
     Max number of k-points (npk) =  40000
     Max angular momentum in pseudopotentials (lmaxx) =  4
     Message from routine iosys:
     restart disabled: needed files not found
     file Mo.pbesol-spn-kjpaw_psl.1.0.0.UPF: wavefunction(s)  4S 4D renormalized
     file S.pbesol-nl-kjpaw_psl.1.0.0.UPF: wavefunction(s)  3S renormalized

     Subspace diagonalization in iterative solution of the eigenvalue problem:
     a serial algorithm will be used

 
     Parallelization info
     --------------------
     sticks:   dense  smooth     PW     G-vecs:    dense   smooth      PW
     Min        1203     972    279               246775   176770   27455
     Max        1204     973    280               246804   176787   27474
     Sum        2407    1945    559               493579   353557   54929
 
     Using Slab Decomposition
 


     bravais-lattice index     =            0
     lattice parameter (alat)  =       6.0720  a.u.
     unit-cell volume          =     924.7995 (a.u.)^3
     number of atoms/cell      =            3
     number of atomic types    =            2
     number of electrons       =        26.00
     number of Kohn-Sham states=           13
     kinetic-energy cutoff     =     200.0000  Ry
     charge density cutoff     =    1000.0000  Ry
     scf convergence threshold =      1.0E-12
     mixing beta               =       0.7000
     number of iterations used =            8  plain     mixing
     Exchange-correlation= SLA  PW   PSX  PSC
                           (   1   4  10   8   0   0   0)

     celldm(1)=   6.072000  celldm(2)=   0.000000  celldm(3)=   0.000000
     celldm(4)=   0.000000  celldm(5)=   0.000000  celldm(6)=   0.000000

     crystal axes: (cart. coord. in units of alat)
               a(1) = (   0.976384  -0.000017   0.000000 )  
               a(2) = (  -0.487931   0.846187   0.000000 )  
               a(3) = (   0.000000   0.000000   5.000000 )  

     reciprocal axes: (cart. coord. in units 2 pi/alat)
               b(1) = (  1.024198  0.590577  0.000000 )  
               b(2) = (  0.000021  1.181785  0.000000 )  
               b(3) = (  0.000000  0.000000  0.200000 )  


     PseudoPot. # 1 for Mo read from file:
     /shared/home/as3359/pseudo/Mo.pbesol-spn-kjpaw_psl.1.0.0.UPF
     MD5 check sum: de57925cfc675213e43241dcc441eda8
     Pseudo is Projector augmented-wave + core cor, Zval = 14.0
     Generated using &quot;atomic&quot; code by A. Dal Corso  v.6.3
     Shape of augmentation charge: PSQ
     Using radial grid of 1229 points,  6 beta functions with: 
                l(1) =   0
                l(2) =   0
                l(3) =   1
                l(4) =   1
                l(5) =   2
                l(6) =   2
     Q(r) pseudized with 0 coefficients 


     PseudoPot. # 2 for S  read from file:
     /shared/home/as3359/pseudo/S.pbesol-nl-kjpaw_psl.1.0.0.UPF
     MD5 check sum: bf3db50ec3f960682bbc396f1aadd1dd
     Pseudo is Projector augmented-wave + core cor, Zval =  6.0
     Generated using &quot;atomic&quot; code by A. Dal Corso  v.6.3
     Shape of augmentation charge: PSQ
     Using radial grid of 1151 points,  4 beta functions with: 
                l(1) =   0
                l(2) =   0
                l(3) =   1
                l(4) =   1
     Q(r) pseudized with 0 coefficients 


     atomic species   valence    mass     pseudopotential
        Mo            14.00    95.94000     Mo( 1.00)
        S              6.00    32.06500     S ( 1.00)

     No symmetry found



   Cartesian axes

     site n.     atom                  positions (alat units)
         1           Mo  tau(   1) = (   0.0000000   0.0000000   1.6880765  )
         2           S   tau(   2) = (   0.4883508   0.2821722   2.1737857  )
         3           S   tau(   3) = (   0.4883508   0.2821722   1.2023670  )

     number of k points=   290

     Number of k-points >= 100: set verbosity='high' to print them.

     Dense  grid:   493579 G-vectors     FFT dimensions: (  60,  60, 320)

     Smooth grid:   353557 G-vectors     FFT dimensions: (  54,  54, 288)

     Estimated max dynamical RAM per process >       2.15 GB

     Estimated total dynamical RAM >       4.29 GB
     Cannot read rho : file not found

     Initial potential from superposition of free atoms

     starting charge   25.99914, renormalised to   26.00000

     negative rho (up, down):  7.764E-05 0.000E+00
     Message from routine qexsd_readschema :
     xml data file /scratch/as3359/Ta2C_ct_kpts/MoS2.save/data-file-schema.xml not fo
     Cannot read wfcs: file not found
     Starting wfcs are   18 randomized atomic wfcs
     Checking if some PAW data can be deallocated... 

     total cpu time spent up to now is       35.7 secs

     Self-consistent Calculation

     iteration #  1     ecut=   200.00 Ry     beta= 0.70
     Davidson diagonalization with overlap
     ethr =  1.00E-05,  avg # of iterations = 10.3

     negative rho (up, down):  2.438E-05 0.000E+00

     total cpu time spent up to now is      197.9 secs

     total energy              =    -489.68928849 Ry
     estimated scf accuracy    <       0.15094433 Ry

     iteration #  2     ecut=   200.00 Ry     beta= 0.70
     Davidson diagonalization with overlap
     ethr =  5.81E-04,  avg # of iterations =  5.0

     negative rho (up, down):  7.709E-06 0.000E+00

     total cpu time spent up to now is      281.2 secs

     total energy              =    -489.64719541 Ry
     estimated scf accuracy    <       0.56394172 Ry

     iteration #  3     ecut=   200.00 Ry     beta= 0.70
     Davidson diagonalization with overlap
     ethr =  5.81E-04,  avg # of iterations =  5.0

     negative rho (up, down):  3.361E-06 0.000E+00

     total cpu time spent up to now is      363.6 secs

     total energy              =    -489.75228105 Ry
     estimated scf accuracy    <       0.04272817 Ry

     iteration #  4     ecut=   200.00 Ry     beta= 0.70
     Davidson diagonalization with overlap
     ethr =  1.64E-04,  avg # of iterations =  2.3

     negative rho (up, down):  2.690E-06 0.000E+00

     total cpu time spent up to now is      422.9 secs

     total energy              =    -489.75487418 Ry
     estimated scf accuracy    <       0.00559570 Ry

     iteration #  5     ecut=   200.00 Ry     beta= 0.70
     Davidson diagonalization with overlap
     ethr =  2.15E-05,  avg # of iterations =  5.2

     negative rho (up, down):  2.668E-06 0.000E+00

     total cpu time spent up to now is      509.0 secs

     total energy              =    -489.75784504 Ry
     estimated scf accuracy    <       0.00797182 Ry

     iteration #  6     ecut=   200.00 Ry     beta= 0.70
     Davidson diagonalization with overlap
     ethr =  2.15E-05,  avg # of iterations =  1.8

     negative rho (up, down):  3.035E-06 0.000E+00

     total cpu time spent up to now is      562.3 secs

     total energy              =    -489.75682738 Ry
     estimated scf accuracy    <       0.00286031 Ry

     iteration #  7     ecut=   200.00 Ry     beta= 0.70
     Davidson diagonalization with overlap
     ethr =  1.10E-05,  avg # of iterations =  4.8

     negative rho (up, down):  3.194E-06 0.000E+00

     total cpu time spent up to now is      640.5 secs

     total energy              =    -489.75846282 Ry
     estimated scf accuracy    <       0.00217189 Ry

     iteration #  8     ecut=   200.00 Ry     beta= 0.70
     Davidson diagonalization with overlap
     ethr =  8.35E-06,  avg # of iterations =  1.0

     negative rho (up, down):  3.370E-06 0.000E+00

     total cpu time spent up to now is      690.1 secs

     total energy              =    -489.75795092 Ry
     estimated scf accuracy    <       0.00224200 Ry

     iteration #  9     ecut=   200.00 Ry     beta= 0.70
     Davidson diagonalization with overlap
     ethr =  8.35E-06,  avg # of iterations =  1.7

     negative rho (up, down):  3.385E-06 0.000E+00

     total cpu time spent up to now is      742.6 secs

     total energy              =    -489.75807122 Ry
     estimated scf accuracy    <       0.00065467 Ry

     iteration # 10     ecut=   200.00 Ry     beta= 0.70
     Davidson diagonalization with overlap
     ethr =  2.52E-06,  avg # of iterations =  1.2

     negative rho (up, down):  3.340E-06 0.000E+00

     total cpu time spent up to now is      794.1 secs

     total energy              =    -489.75803713 Ry
     estimated scf accuracy    <       0.00061866 Ry

     iteration # 11     ecut=   200.00 Ry     beta= 0.70
     Davidson diagonalization with overlap
     ethr =  2.38E-06,  avg # of iterations =  1.4

     negative rho (up, down):  3.441E-06 0.000E+00

     total cpu time spent up to now is      845.0 secs

     total energy              =    -489.75800793 Ry
     estimated scf accuracy    <       0.00033795 Ry

     iteration # 12     ecut=   200.00 Ry     beta= 0.70
     Davidson diagonalization with overlap
     ethr =  1.30E-06,  avg # of iterations =  3.4

     negative rho (up, down):  3.450E-06 0.000E+00

     total cpu time spent up to now is      906.0 secs

     total energy              =    -489.75801985 Ry
     estimated scf accuracy    <       0.00004797 Ry

     iteration # 13     ecut=   200.00 Ry     beta= 0.70
     Davidson diagonalization with overlap
     ethr =  1.85E-07,  avg # of iterations =  6.1

     negative rho (up, down):  3.446E-06 0.000E+00

     total cpu time spent up to now is     1006.9 secs

     total energy              =    -489.75807344 Ry
     estimated scf accuracy    <       0.00025865 Ry

     iteration # 14     ecut=   200.00 Ry     beta= 0.70
     Davidson diagonalization with overlap
     ethr =  1.85E-07,  avg # of iterations =  2.0

     negative rho (up, down):  3.495E-06 0.000E+00

     total cpu time spent up to now is     1062.7 secs

     total energy              =    -489.75804542 Ry
     estimated scf accuracy    <       0.00015129 Ry

     iteration # 15     ecut=   200.00 Ry     beta= 0.70
     Davidson diagonalization with overlap
     ethr =  1.85E-07,  avg # of iterations =  3.7

     negative rho (up, down):  3.527E-06 0.000E+00

     total cpu time spent up to now is     1131.0 secs

     total energy              =    -489.75805933 Ry
     estimated scf accuracy    <       0.00001136 Ry

     iteration # 16     ecut=   200.00 Ry     beta= 0.70
     Davidson diagonalization with overlap
     ethr =  4.37E-08,  avg # of iterations =  3.1

     negative rho (up, down):  3.545E-06 0.000E+00

     total cpu time spent up to now is     1190.4 secs

     total energy              =    -489.75806235 Ry
     estimated scf accuracy    <       0.00000375 Ry

     iteration # 17     ecut=   200.00 Ry     beta= 0.70
     Davidson diagonalization with overlap
     ethr =  1.44E-08,  avg # of iterations =  2.8

     negative rho (up, down):  3.543E-06 0.000E+00

     total cpu time spent up to now is     1249.2 secs

     total energy              =    -489.75806121 Ry
     estimated scf accuracy    <       0.00001059 Ry

     iteration # 18     ecut=   200.00 Ry     beta= 0.70
     Davidson diagonalization with overlap
     ethr =  1.44E-08,  avg # of iterations =  1.6

     negative rho (up, down):  3.583E-06 0.000E+00

     total cpu time spent up to now is     1300.9 secs

     total energy              =    -489.75806038 Ry
     estimated scf accuracy    <       0.00000604 Ry

     iteration # 19     ecut=   200.00 Ry     beta= 0.70
     Davidson diagonalization with overlap
     ethr =  1.44E-08,  avg # of iterations =  2.9

     negative rho (up, down):  3.606E-06 0.000E+00

     total cpu time spent up to now is     1361.0 secs

     total energy              =    -489.75806088 Ry
     estimated scf accuracy    <       0.00000148 Ry

     iteration # 20     ecut=   200.00 Ry     beta= 0.70
     Davidson diagonalization with overlap
     ethr =  5.69E-09,  avg # of iterations =  1.1

     negative rho (up, down):  3.619E-06 0.000E+00

     total cpu time spent up to now is     1410.3 secs

     total energy              =    -489.75806075 Ry
     estimated scf accuracy    <       0.00000143 Ry

     iteration # 21     ecut=   200.00 Ry     beta= 0.70
     Davidson diagonalization with overlap
     ethr =  5.49E-09,  avg # of iterations =  1.8

     negative rho (up, down):  3.625E-06 0.000E+00

     total cpu time spent up to now is     1463.6 secs

     total energy              =    -489.75806069 Ry
     estimated scf accuracy    <       0.00000066 Ry

     iteration # 22     ecut=   200.00 Ry     beta= 0.70
     Davidson diagonalization with overlap
     ethr =  2.53E-09,  avg # of iterations =  4.5

     negative rho (up, down):  3.620E-06 0.000E+00

     total cpu time spent up to now is     1536.1 secs

     total energy              =    -489.75806086 Ry
     estimated scf accuracy    <       0.00000002 Ry

     iteration # 23     ecut=   200.00 Ry     beta= 0.70
     Davidson diagonalization with overlap
     ethr =  7.44E-11,  avg # of iterations =  6.6

     negative rho (up, down):  3.621E-06 0.000E+00

     total cpu time spent up to now is     1623.1 secs

     total energy              =    -489.75806086 Ry
     estimated scf accuracy    <       0.00000006 Ry

     iteration # 24     ecut=   200.00 Ry     beta= 0.70
     Davidson diagonalization with overlap
     ethr =  7.44E-11,  avg # of iterations =  3.8

     negative rho (up, down):  3.622E-06 0.000E+00

     total cpu time spent up to now is     1690.7 secs

     total energy              =    -489.75806087 Ry
     estimated scf accuracy    <          3.2E-09 Ry

     iteration # 25     ecut=   200.00 Ry     beta= 0.70
     Davidson diagonalization with overlap
     ethr =  1.24E-11,  avg # of iterations =  5.7

     negative rho (up, down):  3.622E-06 0.000E+00

     total cpu time spent up to now is     1784.4 secs

     total energy              =    -489.75806087 Ry
     estimated scf accuracy    <       0.00000001 Ry

     iteration # 26     ecut=   200.00 Ry     beta= 0.70
     Davidson diagonalization with overlap
     ethr =  1.24E-11,  avg # of iterations =  1.0

     negative rho (up, down):  3.622E-06 0.000E+00

     total cpu time spent up to now is     1832.8 secs

     total energy              =    -489.75806087 Ry
     estimated scf accuracy    <          8.5E-09 Ry

     iteration # 27     ecut=   200.00 Ry     beta= 0.70
     Davidson diagonalization with overlap
     ethr =  1.24E-11,  avg # of iterations =  3.5

     negative rho (up, down):  3.621E-06 0.000E+00

     total cpu time spent up to now is     1899.0 secs

     total energy              =    -489.75806087 Ry
     estimated scf accuracy    <          1.4E-10 Ry

     iteration # 28     ecut=   200.00 Ry     beta= 0.70
     Davidson diagonalization with overlap
     ethr =  5.47E-13,  avg # of iterations =  7.0

     negative rho (up, down):  3.621E-06 0.000E+00

     total cpu time spent up to now is     2010.3 secs

     total energy              =    -489.75806087 Ry
     estimated scf accuracy    <          1.9E-09 Ry

     iteration # 29     ecut=   200.00 Ry     beta= 0.70
     Davidson diagonalization with overlap
     ethr =  5.47E-13,  avg # of iterations =  4.1

     negative rho (up, down):  3.621E-06 0.000E+00

     total cpu time spent up to now is     2080.8 secs

     total energy              =    -489.75806087 Ry
     estimated scf accuracy    <          5.7E-10 Ry

     iteration # 30     ecut=   200.00 Ry     beta= 0.70
     Davidson diagonalization with overlap
     ethr =  5.47E-13,  avg # of iterations =  4.5

     negative rho (up, down):  3.621E-06 0.000E+00

     total cpu time spent up to now is     2156.7 secs

     total energy              =    -489.75806087 Ry
     estimated scf accuracy    <          1.7E-11 Ry

     iteration # 31     ecut=   200.00 Ry     beta= 0.70
     Davidson diagonalization with overlap
     ethr =  1.00E-13,  avg # of iterations =  4.7

     negative rho (up, down):  3.621E-06 0.000E+00

     total cpu time spent up to now is     2233.8 secs

     total energy              =    -489.75806087 Ry
     estimated scf accuracy    <          7.9E-12 Ry

     iteration # 32     ecut=   200.00 Ry     beta= 0.70
     Davidson diagonalization with overlap
     ethr =  1.00E-13,  avg # of iterations =  1.0

     negative rho (up, down):  3.621E-06 0.000E+00

     total cpu time spent up to now is     2281.6 secs

     total energy              =    -489.75806087 Ry
     estimated scf accuracy    <          3.3E-12 Ry

     iteration # 33     ecut=   200.00 Ry     beta= 0.70
     Davidson diagonalization with overlap
     ethr =  1.00E-13,  avg # of iterations =  1.1

     negative rho (up, down):  3.621E-06 0.000E+00

     total cpu time spent up to now is     2329.5 secs

     End of self-consistent calculation

     Number of k-points >= 100: set verbosity='high' to print the bands.

     highest occupied level (ev):     0.3756

!    total energy              =    -489.75806087 Ry

     total all-electron energy =     -9688.215906 Ry
     estimated scf accuracy    <          2.8E-14 Ry

     The total energy is the sum of the following terms:
     one-electron contribution =    -813.90679046 Ry
     hartree contribution      =     410.77446219 Ry
     xc contribution           =     -29.52473871 Ry
     ewald contribution        =     255.78841210 Ry
     one-center paw contrib.   =    -312.88940599 Ry

     convergence has been achieved in  33 iterations

     negative rho (up, down):  3.621E-06 0.000E+00

     Forces acting on atoms (cartesian axes, Ry/au):

     atom    1 type  1   force =     0.00026875    0.00012900   -0.00000058
     atom    2 type  2   force =    -0.00013437   -0.00006451   -0.00032874
     atom    3 type  2   force =    -0.00013437   -0.00006450    0.00032932

     Total force =     0.000591     Total SCF correction =     0.000000


     Computing stress (Cartesian axis) and pressure


     negative rho (up, down):  3.621E-06 0.000E+00
          total   stress  (Ry/bohr**3)                   (kbar)     P=        0.69
   0.00000967  -0.00000085  -0.00000000            1.42       -0.13       -0.00
  -0.00000085   0.00000653  -0.00000000           -0.13        0.96       -0.00
  -0.00000000  -0.00000000  -0.00000215           -0.00       -0.00       -0.32


     Writing output data file /scratch/as3359/Ta2C_ct_kpts/MoS2.save/
 
     init_run     :     66.68s CPU     35.51s WALL (       1 calls)
     electrons    :   4521.03s CPU   2293.95s WALL (       1 calls)
     forces       :     16.27s CPU      8.26s WALL (       1 calls)
     stress       :     58.07s CPU     29.55s WALL (       1 calls)

     Called by init_run:
     wfcinit      :     56.24s CPU     28.69s WALL (       1 calls)
     potinit      :      3.05s CPU      1.55s WALL (       1 calls)
     hinit0       :      5.82s CPU      4.18s WALL (       1 calls)

     Called by electrons:
     c_bands      :   3837.39s CPU   1940.64s WALL (      33 calls)
     sum_band     :    639.36s CPU    326.55s WALL (      33 calls)
     v_of_rho     :     11.82s CPU      6.65s WALL (      34 calls)
     newd         :     20.75s CPU     13.57s WALL (      34 calls)
     PAW_pot      :      6.33s CPU      3.25s WALL (      34 calls)
     mix_rho      :      4.68s CPU      2.85s WALL (      33 calls)

     Called by c_bands:
     init_us_2    :    126.38s CPU     63.28s WALL (   20010 calls)
     cegterg      :   3632.98s CPU   1836.71s WALL (    9570 calls)

     Called by *egterg:
     cdiaghg      :     17.27s CPU      8.79s WALL (   43186 calls)
     h_psi        :   3163.78s CPU   1601.08s WALL (   43476 calls)
     s_psi        :    106.12s CPU     53.21s WALL (   43476 calls)
     g_psi        :     20.83s CPU     10.49s WALL (   33616 calls)

     Called by h_psi:
     h_psi:calbec :     90.77s CPU     45.62s WALL (   43476 calls)
     vloc_psi     :   2911.46s CPU   1474.41s WALL (   43476 calls)
     add_vuspsi   :    139.06s CPU     69.69s WALL (   43476 calls)

     General routines
     calbec       :    118.50s CPU     59.61s WALL (   54496 calls)
     fft          :      6.76s CPU      3.74s WALL (     465 calls)
     ffts         :      0.66s CPU      0.34s WALL (      67 calls)
     fftw         :   2937.20s CPU   1488.90s WALL (  864250 calls)
     interpolate  :      1.16s CPU      0.67s WALL (      34 calls)
 
     Parallel routines
 
     PWSCF        :      1h17m CPU  39m37.12s WALL

 
   This run was terminated on:  15:48:47   7Apr2022            

=------------------------------------------------------------------------------=
   JOB DONE.
=------------------------------------------------------------------------------=
