
     Program PWSCF v.6.8 starts on  7Apr2022 at 12:13:52 

     This program is part of the open-source Quantum ESPRESSO suite
     for quantum simulation of materials; please cite
         "P. Giannozzi et al., J. Phys.:Condens. Matter 21 395502 (2009);
         "P. Giannozzi et al., J. Phys.:Condens. Matter 29 465901 (2017);
         "P. Giannozzi et al., J. Chem. Phys. 152 154105 (2020);
          URL http://www.quantum-espresso.org", 
     in publications or presentations arising from this work. More details at
     http://www.quantum-espresso.org/quote

     Parallel version (MPI & OpenMP), running on       4 processor cores
     Number of MPI processes:                 2
     Threads/MPI process:                     2

     MPI processes distributed on     1 nodes
     R & G space division:  proc/nbgrp/npool/nimage =       2
     125217 MiB available memory on the printing compute node when the environment starts
 
     Reading input from MoS2.scf.10.in
Warning: card  &CELL ignored
Warning: card     CELL_DYNAMICS='BFGS' ignored
Warning: card  / ignored

     Current dimensions of program PWSCF are:
     Max number of different atomic species (ntypx) = 10
     Max number of k-points (npk) =  40000
     Max angular momentum in pseudopotentials (lmaxx) =  4
     Message from routine iosys:
     restart disabled: needed files not found
     file Mo.pbesol-spn-kjpaw_psl.1.0.0.UPF: wavefunction(s)  4S 4D renormalized
     file S.pbesol-nl-kjpaw_psl.1.0.0.UPF: wavefunction(s)  3S renormalized

     Subspace diagonalization in iterative solution of the eigenvalue problem:
     a serial algorithm will be used

 
     Parallelization info
     --------------------
     sticks:   dense  smooth     PW     G-vecs:    dense   smooth      PW
     Min        1203     972    279               246775   176770   27455
     Max        1204     973    280               246804   176787   27474
     Sum        2407    1945    559               493579   353557   54929
 
     Using Slab Decomposition
 


     bravais-lattice index     =            0
     lattice parameter (alat)  =       6.0720  a.u.
     unit-cell volume          =     924.7995 (a.u.)^3
     number of atoms/cell      =            3
     number of atomic types    =            2
     number of electrons       =        26.00
     number of Kohn-Sham states=           13
     kinetic-energy cutoff     =     200.0000  Ry
     charge density cutoff     =    1000.0000  Ry
     scf convergence threshold =      1.0E-12
     mixing beta               =       0.7000
     number of iterations used =            8  plain     mixing
     Exchange-correlation= SLA  PW   PSX  PSC
                           (   1   4  10   8   0   0   0)

     celldm(1)=   6.072000  celldm(2)=   0.000000  celldm(3)=   0.000000
     celldm(4)=   0.000000  celldm(5)=   0.000000  celldm(6)=   0.000000

     crystal axes: (cart. coord. in units of alat)
               a(1) = (   0.976384  -0.000017   0.000000 )  
               a(2) = (  -0.487931   0.846187   0.000000 )  
               a(3) = (   0.000000   0.000000   5.000000 )  

     reciprocal axes: (cart. coord. in units 2 pi/alat)
               b(1) = (  1.024198  0.590577  0.000000 )  
               b(2) = (  0.000021  1.181785  0.000000 )  
               b(3) = (  0.000000  0.000000  0.200000 )  


     PseudoPot. # 1 for Mo read from file:
     /shared/home/as3359/pseudo/Mo.pbesol-spn-kjpaw_psl.1.0.0.UPF
     MD5 check sum: de57925cfc675213e43241dcc441eda8
     Pseudo is Projector augmented-wave + core cor, Zval = 14.0
     Generated using &quot;atomic&quot; code by A. Dal Corso  v.6.3
     Shape of augmentation charge: PSQ
     Using radial grid of 1229 points,  6 beta functions with: 
                l(1) =   0
                l(2) =   0
                l(3) =   1
                l(4) =   1
                l(5) =   2
                l(6) =   2
     Q(r) pseudized with 0 coefficients 


     PseudoPot. # 2 for S  read from file:
     /shared/home/as3359/pseudo/S.pbesol-nl-kjpaw_psl.1.0.0.UPF
     MD5 check sum: bf3db50ec3f960682bbc396f1aadd1dd
     Pseudo is Projector augmented-wave + core cor, Zval =  6.0
     Generated using &quot;atomic&quot; code by A. Dal Corso  v.6.3
     Shape of augmentation charge: PSQ
     Using radial grid of 1151 points,  4 beta functions with: 
                l(1) =   0
                l(2) =   0
                l(3) =   1
                l(4) =   1
     Q(r) pseudized with 0 coefficients 


     atomic species   valence    mass     pseudopotential
        Mo            14.00    95.94000     Mo( 1.00)
        S              6.00    32.06500     S ( 1.00)

     No symmetry found



   Cartesian axes

     site n.     atom                  positions (alat units)
         1           Mo  tau(   1) = (   0.0000000   0.0000000   1.6880765  )
         2           S   tau(   2) = (   0.4883508   0.2821722   2.1737857  )
         3           S   tau(   3) = (   0.4883508   0.2821722   1.2023670  )

     number of k points=    52
                       cart. coord. in units 2pi/alat
        k(    1) = (   0.0000000   0.0000000   0.0000000), wk =   0.0200000
        k(    2) = (   0.0000021   0.1181785   0.0000000), wk =   0.0400000
        k(    3) = (   0.0000042   0.2363569   0.0000000), wk =   0.0400000
        k(    4) = (   0.0000063   0.3545354   0.0000000), wk =   0.0400000
        k(    5) = (   0.0000084   0.4727138   0.0000000), wk =   0.0400000
        k(    6) = (  -0.0000105  -0.5908923   0.0000000), wk =   0.0200000
        k(    7) = (   0.1024198   0.0590577   0.0000000), wk =   0.0400000
        k(    8) = (   0.1024219   0.1772361   0.0000000), wk =   0.0400000
        k(    9) = (   0.1024240   0.2954146   0.0000000), wk =   0.0400000
        k(   10) = (   0.1024260   0.4135930   0.0000000), wk =   0.0400000
        k(   11) = (   0.1024281   0.5317715   0.0000000), wk =   0.0400000
        k(   12) = (   0.1024093  -0.5318346   0.0000000), wk =   0.0400000
        k(   13) = (   0.1024114  -0.4136561   0.0000000), wk =   0.0400000
        k(   14) = (   0.1024135  -0.2954777   0.0000000), wk =   0.0400000
        k(   15) = (   0.1024156  -0.1772992   0.0000000), wk =   0.0400000
        k(   16) = (   0.1024177  -0.0591208   0.0000000), wk =   0.0400000
        k(   17) = (   0.2048396   0.1181153   0.0000000), wk =   0.0400000
        k(   18) = (   0.2048416   0.2362938   0.0000000), wk =   0.0400000
        k(   19) = (   0.2048437   0.3544722   0.0000000), wk =   0.0400000
        k(   20) = (   0.2048458   0.4726507   0.0000000), wk =   0.0400000
        k(   21) = (   0.2048479   0.5908291   0.0000000), wk =   0.0400000
        k(   22) = (   0.2048291  -0.4727769   0.0000000), wk =   0.0400000
        k(   23) = (   0.2048312  -0.3545985   0.0000000), wk =   0.0400000
        k(   24) = (   0.2048333  -0.2364200   0.0000000), wk =   0.0400000
        k(   25) = (   0.2048354  -0.1182416   0.0000000), wk =   0.0400000
        k(   26) = (   0.2048375  -0.0000631   0.0000000), wk =   0.0400000
        k(   27) = (   0.3072593   0.1771730   0.0000000), wk =   0.0400000
        k(   28) = (   0.3072614   0.2953514   0.0000000), wk =   0.0400000
        k(   29) = (   0.3072635   0.4135299   0.0000000), wk =   0.0400000
        k(   30) = (   0.3072656   0.5317084   0.0000000), wk =   0.0400000
        k(   31) = (   0.3072677   0.6498868   0.0000000), wk =   0.0400000
        k(   32) = (   0.3072489  -0.4137193   0.0000000), wk =   0.0400000
        k(   33) = (   0.3072510  -0.2955408   0.0000000), wk =   0.0400000
        k(   34) = (   0.3072531  -0.1773624   0.0000000), wk =   0.0400000
        k(   35) = (   0.3072551  -0.0591839   0.0000000), wk =   0.0400000
        k(   36) = (   0.3072572   0.0589945   0.0000000), wk =   0.0400000
        k(   37) = (   0.4096791   0.2362307   0.0000000), wk =   0.0400000
        k(   38) = (   0.4096812   0.3544091   0.0000000), wk =   0.0400000
        k(   39) = (   0.4096833   0.4725876   0.0000000), wk =   0.0400000
        k(   40) = (   0.4096854   0.5907660   0.0000000), wk =   0.0400000
        k(   41) = (   0.4096875   0.7089445   0.0000000), wk =   0.0400000
        k(   42) = (   0.4096687  -0.3546616   0.0000000), wk =   0.0400000
        k(   43) = (   0.4096707  -0.2364831   0.0000000), wk =   0.0400000
        k(   44) = (   0.4096728  -0.1183047   0.0000000), wk =   0.0400000
        k(   45) = (   0.4096749  -0.0001262   0.0000000), wk =   0.0400000
        k(   46) = (   0.4096770   0.1180522   0.0000000), wk =   0.0400000
        k(   47) = (  -0.5120989  -0.2952883   0.0000000), wk =   0.0200000
        k(   48) = (  -0.5120968  -0.1771099   0.0000000), wk =   0.0400000
        k(   49) = (  -0.5120947  -0.0589314   0.0000000), wk =   0.0400000
        k(   50) = (  -0.5120926   0.0592470   0.0000000), wk =   0.0400000
        k(   51) = (  -0.5120905   0.1774255   0.0000000), wk =   0.0400000
        k(   52) = (  -0.5121093  -0.8861806   0.0000000), wk =   0.0200000

     Dense  grid:   493579 G-vectors     FFT dimensions: (  60,  60, 320)

     Smooth grid:   353557 G-vectors     FFT dimensions: (  54,  54, 288)

     Estimated max dynamical RAM per process >       1.13 GB

     Estimated total dynamical RAM >       2.26 GB
     Cannot read rho : file not found

     Initial potential from superposition of free atoms

     starting charge   25.99914, renormalised to   26.00000

     negative rho (up, down):  7.764E-05 0.000E+00
     Message from routine qexsd_readschema :
     xml data file /scratch/as3359/Ta2C_ct_kpts/MoS2.save/data-file-schema.xml not fo
     Cannot read wfcs: file not found
     Starting wfcs are   18 randomized atomic wfcs
     Checking if some PAW data can be deallocated... 

     total cpu time spent up to now is       12.3 secs

     Self-consistent Calculation

     iteration #  1     ecut=   200.00 Ry     beta= 0.70
     Davidson diagonalization with overlap
     ethr =  1.00E-05,  avg # of iterations = 10.3

     negative rho (up, down):  2.437E-05 0.000E+00

     total cpu time spent up to now is       45.4 secs

     total energy              =    -489.68918411 Ry
     estimated scf accuracy    <       0.15106645 Ry

     iteration #  2     ecut=   200.00 Ry     beta= 0.70
     Davidson diagonalization with overlap
     ethr =  5.81E-04,  avg # of iterations =  5.1

     negative rho (up, down):  7.737E-06 0.000E+00

     total cpu time spent up to now is       63.2 secs

     total energy              =    -489.64535486 Ry
     estimated scf accuracy    <       0.57424983 Ry

     iteration #  3     ecut=   200.00 Ry     beta= 0.70
     Davidson diagonalization with overlap
     ethr =  5.81E-04,  avg # of iterations =  5.2

     negative rho (up, down):  3.365E-06 0.000E+00

     total cpu time spent up to now is       80.2 secs

     total energy              =    -489.75205431 Ry
     estimated scf accuracy    <       0.04293684 Ry

     iteration #  4     ecut=   200.00 Ry     beta= 0.70
     Davidson diagonalization with overlap
     ethr =  1.65E-04,  avg # of iterations =  2.5

     negative rho (up, down):  2.621E-06 0.000E+00

     total cpu time spent up to now is       92.8 secs

     total energy              =    -489.75484652 Ry
     estimated scf accuracy    <       0.00565157 Ry

     iteration #  5     ecut=   200.00 Ry     beta= 0.70
     Davidson diagonalization with overlap
     ethr =  2.17E-05,  avg # of iterations =  5.3

     negative rho (up, down):  2.680E-06 0.000E+00

     total cpu time spent up to now is      110.5 secs

     total energy              =    -489.75763338 Ry
     estimated scf accuracy    <       0.00791576 Ry

     iteration #  6     ecut=   200.00 Ry     beta= 0.70
     Davidson diagonalization with overlap
     ethr =  2.17E-05,  avg # of iterations =  1.9

     negative rho (up, down):  3.022E-06 0.000E+00

     total cpu time spent up to now is      122.4 secs

     total energy              =    -489.75716385 Ry
     estimated scf accuracy    <       0.00215703 Ry

     iteration #  7     ecut=   200.00 Ry     beta= 0.70
     Davidson diagonalization with overlap
     ethr =  8.30E-06,  avg # of iterations =  4.8

     negative rho (up, down):  3.253E-06 0.000E+00

     total cpu time spent up to now is      138.9 secs

     total energy              =    -489.75838859 Ry
     estimated scf accuracy    <       0.00120456 Ry

     iteration #  8     ecut=   200.00 Ry     beta= 0.70
     Davidson diagonalization with overlap
     ethr =  4.63E-06,  avg # of iterations =  1.6

     negative rho (up, down):  3.368E-06 0.000E+00

     total cpu time spent up to now is      150.0 secs

     total energy              =    -489.75792467 Ry
     estimated scf accuracy    <       0.00172404 Ry

     iteration #  9     ecut=   200.00 Ry     beta= 0.70
     Davidson diagonalization with overlap
     ethr =  4.63E-06,  avg # of iterations =  2.1

     negative rho (up, down):  3.470E-06 0.000E+00

     total cpu time spent up to now is      162.4 secs

     total energy              =    -489.75797234 Ry
     estimated scf accuracy    <       0.00035371 Ry

     iteration # 10     ecut=   200.00 Ry     beta= 0.70
     Davidson diagonalization with overlap
     ethr =  1.36E-06,  avg # of iterations =  4.3

     negative rho (up, down):  3.575E-06 0.000E+00

     total cpu time spent up to now is      177.3 secs

     total energy              =    -489.75806028 Ry
     estimated scf accuracy    <       0.00000423 Ry

     iteration # 11     ecut=   200.00 Ry     beta= 0.70
     Davidson diagonalization with overlap
     ethr =  1.63E-08,  avg # of iterations =  5.9

     negative rho (up, down):  3.566E-06 0.000E+00

     total cpu time spent up to now is      195.9 secs

     total energy              =    -489.75806374 Ry
     estimated scf accuracy    <       0.00002980 Ry

     iteration # 12     ecut=   200.00 Ry     beta= 0.70
     Davidson diagonalization with overlap
     ethr =  1.63E-08,  avg # of iterations =  3.1

     negative rho (up, down):  3.572E-06 0.000E+00

     total cpu time spent up to now is      209.6 secs

     total energy              =    -489.75806150 Ry
     estimated scf accuracy    <       0.00001213 Ry

     iteration # 13     ecut=   200.00 Ry     beta= 0.70
     Davidson diagonalization with overlap
     ethr =  1.63E-08,  avg # of iterations =  4.6

     negative rho (up, down):  3.622E-06 0.000E+00

     total cpu time spent up to now is      225.2 secs

     total energy              =    -489.75806332 Ry
     estimated scf accuracy    <       0.00000006 Ry

     iteration # 14     ecut=   200.00 Ry     beta= 0.70
     Davidson diagonalization with overlap
     ethr =  2.28E-10,  avg # of iterations =  9.0

     negative rho (up, down):  3.616E-06 0.000E+00

     total cpu time spent up to now is      253.9 secs

     total energy              =    -489.75806365 Ry
     estimated scf accuracy    <       0.00000238 Ry

     iteration # 15     ecut=   200.00 Ry     beta= 0.70
     Davidson diagonalization with overlap
     ethr =  2.28E-10,  avg # of iterations =  3.9

     negative rho (up, down):  3.619E-06 0.000E+00

     total cpu time spent up to now is      268.6 secs

     total energy              =    -489.75806330 Ry
     estimated scf accuracy    <       0.00000151 Ry

     iteration # 16     ecut=   200.00 Ry     beta= 0.70
     Davidson diagonalization with overlap
     ethr =  2.28E-10,  avg # of iterations =  6.3

     negative rho (up, down):  3.621E-06 0.000E+00

     total cpu time spent up to now is      289.7 secs

     total energy              =    -489.75806346 Ry
     estimated scf accuracy    <       0.00000001 Ry

     iteration # 17     ecut=   200.00 Ry     beta= 0.70
     Davidson diagonalization with overlap
     ethr =  4.37E-11,  avg # of iterations =  6.7

     negative rho (up, down):  3.621E-06 0.000E+00

     total cpu time spent up to now is      309.7 secs

     total energy              =    -489.75806347 Ry
     estimated scf accuracy    <       0.00000006 Ry

     iteration # 18     ecut=   200.00 Ry     beta= 0.70
     Davidson diagonalization with overlap
     ethr =  4.37E-11,  avg # of iterations =  2.5

     negative rho (up, down):  3.621E-06 0.000E+00

     total cpu time spent up to now is      322.6 secs

     total energy              =    -489.75806347 Ry
     estimated scf accuracy    <       0.00000002 Ry

     iteration # 19     ecut=   200.00 Ry     beta= 0.70
     Davidson diagonalization with overlap
     ethr =  4.37E-11,  avg # of iterations =  4.5

     negative rho (up, down):  3.621E-06 0.000E+00

     total cpu time spent up to now is      337.9 secs

     total energy              =    -489.75806347 Ry
     estimated scf accuracy    <          4.0E-11 Ry

     iteration # 20     ecut=   200.00 Ry     beta= 0.70
     Davidson diagonalization with overlap
     ethr =  1.53E-13,  avg # of iterations = 10.1

     negative rho (up, down):  3.621E-06 0.000E+00

     total cpu time spent up to now is      369.2 secs

     total energy              =    -489.75806347 Ry
     estimated scf accuracy    <          2.4E-09 Ry

     iteration # 21     ecut=   200.00 Ry     beta= 0.70
     Davidson diagonalization with overlap
     ethr =  1.53E-13,  avg # of iterations =  7.1

     negative rho (up, down):  3.621E-06 0.000E+00

     total cpu time spent up to now is      392.2 secs

     total energy              =    -489.75806347 Ry
     estimated scf accuracy    <          5.3E-11 Ry

     iteration # 22     ecut=   200.00 Ry     beta= 0.70
     Davidson diagonalization with overlap
     ethr =  1.53E-13,  avg # of iterations =  3.9

     negative rho (up, down):  3.621E-06 0.000E+00

     total cpu time spent up to now is      406.6 secs

     End of self-consistent calculation

          k = 0.0000 0.0000 0.0000 ( 44251 PWs)   bands (ev):

   -60.3492 -34.5532 -34.2856 -34.2843 -13.8551 -12.5034  -5.4142  -2.2345
    -2.2258  -1.4937  -1.0734  -1.0670   0.2791

          k = 0.0000 0.1182 0.0000 ( 44221 PWs)   bands (ev):

   -60.3448 -34.5447 -34.3283 -34.2939 -13.6978 -12.4385  -5.2386  -2.5700
    -2.0876  -2.0620  -1.3095  -0.7290   0.2128

          k = 0.0000 0.2364 0.0000 ( 44231 PWs)   bands (ev):

   -60.3334 -34.5225 -34.4389 -34.3191 -13.2607 -12.2587  -4.8527  -3.2450
    -2.9006  -1.8311  -1.6206  -0.7868  -0.1376

          k = 0.0000 0.3545 0.0000 ( 44191 PWs)   bands (ev):

   -60.3193 -34.5730 -34.4949 -34.3499 -12.6520 -12.0121  -4.8654  -3.7043
    -3.5674  -2.3423  -1.1810  -1.0649  -0.6190

          k = 0.0000 0.4727 0.0000 ( 44191 PWs)   bands (ev):

   -60.3078 -34.6796 -34.4725 -34.3748 -12.0737 -11.7870  -5.3453  -4.3385
    -3.6827  -2.6906  -1.4752  -0.6381  -0.5314

          k =-0.0000-0.5909 0.0000 ( 44138 PWs)   bands (ev):

   -60.3035 -34.7198 -34.4639 -34.3842 -11.8217 -11.6933  -5.5870  -4.5844
    -3.8029  -2.8124  -1.5697  -0.4917  -0.2949

          k = 0.1024 0.0591 0.0000 ( 44233 PWs)   bands (ev):

   -60.3448 -34.5447 -34.3276 -34.2947 -13.6977 -12.4383  -5.2385  -2.5668
    -2.0852  -2.0659  -1.3149  -0.7265   0.2134

          k = 0.1024 0.1772 0.0000 ( 44221 PWs)   bands (ev):

   -60.3369 -34.5294 -34.4016 -34.3147 -13.4002 -12.3155  -4.9453  -3.0600
    -2.5984  -1.8988  -1.7830  -0.5414   0.0033

          k = 0.1024 0.2954 0.0000 ( 44181 PWs)   bands (ev):

   -60.3242 -34.5164 -34.5045 -34.3502 -12.8740 -12.0990  -4.7056  -3.4945
    -3.2899  -2.5661  -1.4577  -0.7089  -0.4113

          k = 0.1024 0.4136 0.0000 ( 44177 PWs)   bands (ev):

   -60.3114 -34.6289 -34.4794 -34.3858 -12.2684 -11.8542  -5.0252  -4.1073
    -3.5260  -2.8156  -1.4079  -1.1531  -0.4013

          k = 0.1024 0.5318 0.0000 ( 44155 PWs)   bands (ev):

   -60.3034 -34.6975 -34.4639 -34.4078 -11.8329 -11.6840  -5.3822  -4.6274
    -3.7055  -2.8503  -1.4938  -1.2723  -0.1006

          k = 0.1024-0.5318 0.0000 ( 44151 PWs)   bands (ev):

   -60.3034 -34.6976 -34.4639 -34.4078 -11.8327 -11.6839  -5.3825  -4.6272
    -3.7055  -2.8510  -1.4931  -1.2712  -0.1018

          k = 0.1024-0.4137 0.0000 ( 44179 PWs)   bands (ev):

   -60.3114 -34.6291 -34.4794 -34.3858 -12.2680 -11.8540  -5.0257  -4.1071
    -3.5262  -2.8168  -1.4057  -1.1520  -0.4037

          k = 0.1024-0.2955 0.0000 ( 44183 PWs)   bands (ev):

   -60.3242 -34.5166 -34.5044 -34.3502 -12.8736 -12.0988  -4.7056  -3.4942
    -3.2904  -2.5662  -1.4570  -0.7082  -0.4131

          k = 0.1024-0.1773 0.0000 ( 44225 PWs)   bands (ev):

   -60.3369 -34.5294 -34.4015 -34.3150 -13.3999 -12.3154  -4.9450  -3.0582
    -2.5995  -1.8978  -1.7853  -0.5412   0.0030

          k = 0.1024-0.0591 0.0000 ( 44231 PWs)   bands (ev):

   -60.3448 -34.5447 -34.3273 -34.2951 -13.6975 -12.4383  -5.2384  -2.5638
    -2.0856  -2.0693  -1.3148  -0.7263   0.2135

          k = 0.2048 0.1181 0.0000 ( 44231 PWs)   bands (ev):

   -60.3334 -34.5225 -34.4383 -34.3200 -13.2602 -12.2579  -4.8525  -3.2426
    -2.8979  -1.8371  -1.6244  -0.7857  -0.1353

          k = 0.2048 0.2363 0.0000 ( 44186 PWs)   bands (ev):

   -60.3241 -34.5161 -34.5044 -34.3507 -12.8737 -12.0984  -4.7057  -3.4928
    -3.2877  -2.5701  -1.4599  -0.7090  -0.4100

          k = 0.2048 0.3545 0.0000 ( 44177 PWs)   bands (ev):

   -60.3127 -34.5951 -34.4820 -34.4051 -12.3418 -11.8760  -4.8107  -3.9481
    -3.3766  -3.0450  -1.9054  -0.8586  -0.3974

          k = 0.2048 0.4727 0.0000 ( 44134 PWs)   bands (ev):

   -60.3034 -34.6505 -34.4639 -34.4570 -11.8505 -11.6685  -4.9776  -4.6904
    -3.4020  -2.9399  -2.3487  -1.3203  -0.1255

          k = 0.2048 0.5908 0.0000 ( 44128 PWs)   bands (ev):

   -60.2999 -34.6699 -34.4784 -34.4569 -11.6431 -11.5806  -5.0154  -4.9786
    -3.6336  -2.7912  -2.3831  -1.6085   0.1328

          k = 0.2048-0.4728 0.0000 ( 44137 PWs)   bands (ev):

   -60.3034 -34.6507 -34.4638 -34.4570 -11.8499 -11.6683  -4.9785  -4.6902
    -3.4025  -2.9411  -2.3468  -1.3194  -0.1272

          k = 0.2048-0.3546 0.0000 ( 44163 PWs)   bands (ev):

   -60.3127 -34.5954 -34.4820 -34.4052 -12.3408 -11.8757  -4.8114  -3.9478
    -3.3761  -3.0464  -1.9041  -0.8577  -0.3997

          k = 0.2048-0.2364 0.0000 ( 44180 PWs)   bands (ev):

   -60.3241 -34.5162 -34.5044 -34.3510 -12.8729 -12.0981  -4.7055  -3.4912
    -3.2879  -2.5709  -1.4610  -0.7084  -0.4115

          k = 0.2048-0.1182 0.0000 ( 44237 PWs)   bands (ev):

   -60.3334 -34.5224 -34.4381 -34.3204 -13.2598 -12.2577  -4.8522  -3.2404
    -2.8981  -1.8381  -1.6274  -0.7849  -0.1353

          k = 0.2048-0.0001 0.0000 ( 44227 PWs)   bands (ev):

   -60.3369 -34.5293 -34.4010 -34.3157 -13.3995 -12.3149  -4.9448  -3.0571
    -2.5979  -1.9009  -1.7876  -0.5407   0.0042

          k = 0.3073 0.1772 0.0000 ( 44181 PWs)   bands (ev):

   -60.3192 -34.5726 -34.4948 -34.3510 -12.6511 -12.0105  -4.8654  -3.7030
    -3.5652  -2.3489  -1.1797  -1.0690  -0.6159

          k = 0.3073 0.2954 0.0000 ( 44175 PWs)   bands (ev):

   -60.3113 -34.6286 -34.4793 -34.3867 -12.2677 -11.8526  -5.0246  -4.1070
    -3.5245  -2.8199  -1.4101  -1.1526  -0.4005

          k = 0.3073 0.4135 0.0000 ( 44130 PWs)   bands (ev):

   -60.3034 -34.6502 -34.4638 -34.4575 -11.8501 -11.6675  -4.9770  -4.6911
    -3.4013  -2.9414  -2.3507  -1.3197  -0.1247

          k = 0.3073 0.5317 0.0000 ( 44086 PWs)   bands (ev):

   -60.2985 -34.6306 -34.5346 -34.4542 -11.5731 -11.5349  -5.1408  -4.6065
    -3.5524  -3.1375  -2.6872  -1.7121   0.2568

          k = 0.3073 0.6499 0.0000 ( 44092 PWs)   bands (ev):

   -60.2985 -34.6308 -34.5346 -34.4542 -11.5726 -11.5347  -5.1409  -4.6072
    -3.5526  -3.1366  -2.6878  -1.7119   0.2562

          k = 0.3072-0.4137 0.0000 ( 44134 PWs)   bands (ev):

   -60.3033 -34.6505 -34.4638 -34.4577 -11.8489 -11.6671  -4.9778  -4.6910
    -3.4004  -2.9429  -2.3506  -1.3193  -0.1261

          k = 0.3073-0.2955 0.0000 ( 44177 PWs)   bands (ev):

   -60.3113 -34.6287 -34.4792 -34.3871 -12.2664 -11.8521  -5.0249  -4.1067
    -3.5227  -2.8221  -1.4106  -1.1520  -0.4026

          k = 0.3073-0.1774 0.0000 ( 44177 PWs)   bands (ev):

   -60.3192 -34.5726 -34.4947 -34.3514 -12.6501 -12.0101  -4.8652  -3.7028
    -3.5629  -2.3508  -1.1793  -1.0718  -0.6161

          k = 0.3073-0.0592 0.0000 ( 44181 PWs)   bands (ev):

   -60.3241 -34.5162 -34.5043 -34.3513 -12.8724 -12.0974  -4.7055  -3.4921
    -3.2891  -2.5708  -1.4600  -0.7082  -0.4117

          k = 0.3073 0.0590 0.0000 ( 44182 PWs)   bands (ev):

   -60.3241 -34.5163 -34.5043 -34.3511 -12.8727 -12.0975  -4.7057  -3.4935
    -3.2894  -2.5701  -1.4581  -0.7082  -0.4120

          k = 0.4097 0.2362 0.0000 ( 44197 PWs)   bands (ev):

   -60.3077 -34.6793 -34.4723 -34.3759 -12.0724 -11.7845  -5.3445  -4.3392
    -3.6819  -2.6975  -1.4727  -0.6433  -0.5278

          k = 0.4097 0.3544 0.0000 ( 44143 PWs)   bands (ev):

   -60.3034 -34.6973 -34.4638 -34.4088 -11.8317 -11.6815  -5.3809  -4.6289
    -3.7054  -2.8553  -1.4916  -1.2752  -0.0992

          k = 0.4097 0.4726 0.0000 ( 44122 PWs)   bands (ev):

   -60.2998 -34.6697 -34.4791 -34.4568 -11.6422 -11.5788  -5.0150  -4.9805
    -3.6334  -2.7940  -2.3851  -1.6065   0.1334

          k = 0.4097 0.5908 0.0000 ( 44083 PWs)   bands (ev):

   -60.2984 -34.6308 -34.5349 -34.4542 -11.5720 -11.5339  -5.1419  -4.6084
    -3.5515  -3.1370  -2.6888  -1.7109   0.2552

          k = 0.4097 0.7089 0.0000 ( 44130 PWs)   bands (ev):

   -60.2998 -34.6698 -34.4794 -34.4568 -11.6412 -11.5784  -5.0152  -4.9806
    -3.6325  -2.7947  -2.3864  -1.6068   0.1335

          k = 0.4097-0.3547 0.0000 ( 44151 PWs)   bands (ev):

   -60.3033 -34.6974 -34.4637 -34.4093 -11.8302 -11.6809  -5.3811  -4.6287
    -3.7042  -2.8575  -1.4915  -1.2765  -0.1000

          k = 0.4097-0.2365 0.0000 ( 44195 PWs)   bands (ev):

   -60.3077 -34.6794 -34.4722 -34.3764 -12.0709 -11.7838  -5.3443  -4.3389
    -3.6802  -2.6999  -1.4726  -0.6462  -0.5276

          k = 0.4097-0.1183 0.0000 ( 44189 PWs)   bands (ev):

   -60.3112 -34.6289 -34.4792 -34.3872 -12.2659 -11.8514  -5.0259  -4.1080
    -3.5229  -2.8219  -1.4087  -1.1516  -0.4044

          k = 0.4097-0.0001 0.0000 ( 44163 PWs)   bands (ev):

   -60.3126 -34.5955 -34.4819 -34.4056 -12.3398 -11.8742  -4.8127  -3.9501
    -3.3766  -3.0468  -1.9015  -0.8573  -0.4017

          k = 0.4097 0.1181 0.0000 ( 44189 PWs)   bands (ev):

   -60.3113 -34.6289 -34.4793 -34.3868 -12.2667 -11.8518  -5.0261  -4.1082
    -3.5249  -2.8209  -1.4060  -1.1510  -0.4047

          k =-0.5121-0.2953 0.0000 ( 44146 PWs)   bands (ev):

   -60.3033 -34.7196 -34.4637 -34.3854 -11.8202 -11.6903  -5.5857  -4.5861
    -3.8030  -2.8194  -1.5666  -0.4975  -0.2910

          k =-0.5121-0.1771 0.0000 ( 44143 PWs)   bands (ev):

   -60.3033 -34.6974 -34.4637 -34.4088 -11.8313 -11.6812  -5.3819  -4.6293
    -3.7053  -2.8561  -1.4906  -1.2734  -0.1016

          k =-0.5121-0.0589 0.0000 ( 44135 PWs)   bands (ev):

   -60.3033 -34.6507 -34.4637 -34.4576 -11.8487 -11.6663  -4.9797  -4.6926
    -3.4018  -2.9430  -2.3468  -1.3181  -0.1288

          k =-0.5121 0.0592 0.0000 ( 44140 PWs)   bands (ev):

   -60.3033 -34.6506 -34.4637 -34.4578 -11.8481 -11.6661  -4.9796  -4.6927
    -3.4004  -2.9432  -2.3487  -1.3186  -0.1285

          k =-0.5121 0.1774 0.0000 ( 44143 PWs)   bands (ev):

   -60.3033 -34.6975 -34.4636 -34.4093 -11.8299 -11.6806  -5.3817  -4.6293
    -3.7040  -2.8575  -1.4911  -1.2758  -0.1012

          k =-0.5121-0.8862 0.0000 ( 44154 PWs)   bands (ev):

   -60.3033 -34.7197 -34.4636 -34.3859 -11.8186 -11.6896  -5.5855  -4.5858
    -3.8018  -2.8221  -1.5665  -0.5005  -0.2902

     highest occupied level (ev):     0.2791

!    total energy              =    -489.75806347 Ry

     total all-electron energy =     -9688.215909 Ry
     estimated scf accuracy    <          1.1E-13 Ry

     The total energy is the sum of the following terms:
     one-electron contribution =    -813.90683177 Ry
     hartree contribution      =     410.77449819 Ry
     xc contribution           =     -29.52473690 Ry
     ewald contribution        =     255.78841210 Ry
     one-center paw contrib.   =    -312.88940510 Ry

     convergence has been achieved in  22 iterations

     negative rho (up, down):  3.621E-06 0.000E+00

     Forces acting on atoms (cartesian axes, Ry/au):

     atom    1 type  1   force =     0.00026874    0.00012903   -0.00000051
     atom    2 type  2   force =    -0.00013437   -0.00006452   -0.00033708
     atom    3 type  2   force =    -0.00013436   -0.00006452    0.00033759

     Total force =     0.000601     Total SCF correction =     0.000002


     Computing stress (Cartesian axis) and pressure


     negative rho (up, down):  3.621E-06 0.000E+00
          total   stress  (Ry/bohr**3)                   (kbar)     P=        0.69
   0.00000969  -0.00000085   0.00000000            1.43       -0.13        0.00
  -0.00000085   0.00000654  -0.00000000           -0.13        0.96       -0.00
   0.00000000  -0.00000000  -0.00000220            0.00       -0.00       -0.32


     Writing output data file /scratch/as3359/Ta2C_ct_kpts/MoS2.save/
 
     init_run     :     21.16s CPU     12.10s WALL (       1 calls)
     electrons    :    770.41s CPU    394.38s WALL (       1 calls)
     forces       :      8.52s CPU      4.38s WALL (       1 calls)
     stress       :     23.99s CPU     12.37s WALL (       1 calls)

     Called by init_run:
     wfcinit      :     10.84s CPU      5.54s WALL (       1 calls)
     potinit      :      3.13s CPU      1.60s WALL (       1 calls)
     hinit0       :      6.07s CPU      4.30s WALL (       1 calls)

     Called by electrons:
     c_bands      :    642.45s CPU    324.77s WALL (      22 calls)
     sum_band     :     95.09s CPU     50.08s WALL (      22 calls)
     v_of_rho     :      9.10s CPU      5.03s WALL (      23 calls)
     newd         :     15.83s CPU     10.13s WALL (      23 calls)
     PAW_pot      :      4.41s CPU      2.29s WALL (      23 calls)
     mix_rho      :      3.36s CPU      1.99s WALL (      22 calls)

     Called by c_bands:
     init_us_2    :     17.39s CPU      8.71s WALL (    2444 calls)
     cegterg      :    614.83s CPU    310.76s WALL (    1144 calls)

     Called by *egterg:
     cdiaghg      :      3.13s CPU      1.60s WALL (    6902 calls)
     h_psi        :    521.86s CPU    264.03s WALL (    6954 calls)
     s_psi        :     22.07s CPU     11.06s WALL (    6954 calls)
     g_psi        :      3.66s CPU      1.84s WALL (    5758 calls)

     Called by h_psi:
     h_psi:calbec :     17.00s CPU      8.55s WALL (    6954 calls)
     vloc_psi     :    472.15s CPU    239.05s WALL (    6954 calls)
     add_vuspsi   :     28.33s CPU     14.19s WALL (    6954 calls)

     General routines
     calbec       :     21.26s CPU     10.70s WALL (    8358 calls)
     fft          :      5.15s CPU      2.85s WALL (     322 calls)
     ffts         :      0.50s CPU      0.26s WALL (      45 calls)
     fftw         :    451.73s CPU    228.95s WALL (  126956 calls)
     interpolate  :      0.91s CPU      0.53s WALL (      23 calls)
 
     Parallel routines
 
     PWSCF        :  13m46.21s CPU   7m 5.16s WALL

 
   This run was terminated on:  12:20:57   7Apr2022            

=------------------------------------------------------------------------------=
   JOB DONE.
=------------------------------------------------------------------------------=
