
     Program PWSCF v.6.8 starts on  7Apr2022 at 17:19:54 

     This program is part of the open-source Quantum ESPRESSO suite
     for quantum simulation of materials; please cite
         "P. Giannozzi et al., J. Phys.:Condens. Matter 21 395502 (2009);
         "P. Giannozzi et al., J. Phys.:Condens. Matter 29 465901 (2017);
         "P. Giannozzi et al., J. Chem. Phys. 152 154105 (2020);
          URL http://www.quantum-espresso.org", 
     in publications or presentations arising from this work. More details at
     http://www.quantum-espresso.org/quote

     Parallel version (MPI & OpenMP), running on       4 processor cores
     Number of MPI processes:                 2
     Threads/MPI process:                     2

     MPI processes distributed on     1 nodes
     R & G space division:  proc/nbgrp/npool/nimage =       2
     124998 MiB available memory on the printing compute node when the environment starts
 
     Reading input from MoS2.scf.30.in
Warning: card  &CELL ignored
Warning: card     CELL_DYNAMICS='BFGS' ignored
Warning: card  / ignored

     Current dimensions of program PWSCF are:
     Max number of different atomic species (ntypx) = 10
     Max number of k-points (npk) =  40000
     Max angular momentum in pseudopotentials (lmaxx) =  4
     Message from routine iosys:
     restart disabled: needed files not found
     file Mo.pbesol-spn-kjpaw_psl.1.0.0.UPF: wavefunction(s)  4S 4D renormalized
     file S.pbesol-nl-kjpaw_psl.1.0.0.UPF: wavefunction(s)  3S renormalized

     Subspace diagonalization in iterative solution of the eigenvalue problem:
     a serial algorithm will be used

 
     Parallelization info
     --------------------
     sticks:   dense  smooth     PW     G-vecs:    dense   smooth      PW
     Min        1203     972    279               246775   176770   27455
     Max        1204     973    280               246804   176787   27474
     Sum        2407    1945    559               493579   353557   54929
 
     Using Slab Decomposition
 


     bravais-lattice index     =            0
     lattice parameter (alat)  =       6.0720  a.u.
     unit-cell volume          =     924.7995 (a.u.)^3
     number of atoms/cell      =            3
     number of atomic types    =            2
     number of electrons       =        26.00
     number of Kohn-Sham states=           13
     kinetic-energy cutoff     =     200.0000  Ry
     charge density cutoff     =    1000.0000  Ry
     scf convergence threshold =      1.0E-12
     mixing beta               =       0.7000
     number of iterations used =            8  plain     mixing
     Exchange-correlation= SLA  PW   PSX  PSC
                           (   1   4  10   8   0   0   0)

     celldm(1)=   6.072000  celldm(2)=   0.000000  celldm(3)=   0.000000
     celldm(4)=   0.000000  celldm(5)=   0.000000  celldm(6)=   0.000000

     crystal axes: (cart. coord. in units of alat)
               a(1) = (   0.976384  -0.000017   0.000000 )  
               a(2) = (  -0.487931   0.846187   0.000000 )  
               a(3) = (   0.000000   0.000000   5.000000 )  

     reciprocal axes: (cart. coord. in units 2 pi/alat)
               b(1) = (  1.024198  0.590577  0.000000 )  
               b(2) = (  0.000021  1.181785  0.000000 )  
               b(3) = (  0.000000  0.000000  0.200000 )  


     PseudoPot. # 1 for Mo read from file:
     /shared/home/as3359/pseudo/Mo.pbesol-spn-kjpaw_psl.1.0.0.UPF
     MD5 check sum: de57925cfc675213e43241dcc441eda8
     Pseudo is Projector augmented-wave + core cor, Zval = 14.0
     Generated using &quot;atomic&quot; code by A. Dal Corso  v.6.3
     Shape of augmentation charge: PSQ
     Using radial grid of 1229 points,  6 beta functions with: 
                l(1) =   0
                l(2) =   0
                l(3) =   1
                l(4) =   1
                l(5) =   2
                l(6) =   2
     Q(r) pseudized with 0 coefficients 


     PseudoPot. # 2 for S  read from file:
     /shared/home/as3359/pseudo/S.pbesol-nl-kjpaw_psl.1.0.0.UPF
     MD5 check sum: bf3db50ec3f960682bbc396f1aadd1dd
     Pseudo is Projector augmented-wave + core cor, Zval =  6.0
     Generated using &quot;atomic&quot; code by A. Dal Corso  v.6.3
     Shape of augmentation charge: PSQ
     Using radial grid of 1151 points,  4 beta functions with: 
                l(1) =   0
                l(2) =   0
                l(3) =   1
                l(4) =   1
     Q(r) pseudized with 0 coefficients 


     atomic species   valence    mass     pseudopotential
        Mo            14.00    95.94000     Mo( 1.00)
        S              6.00    32.06500     S ( 1.00)

     No symmetry found



   Cartesian axes

     site n.     atom                  positions (alat units)
         1           Mo  tau(   1) = (   0.0000000   0.0000000   1.6880765  )
         2           S   tau(   2) = (   0.4883508   0.2821722   2.1737857  )
         3           S   tau(   3) = (   0.4883508   0.2821722   1.2023670  )

     number of k points=   452

     Number of k-points >= 100: set verbosity='high' to print them.

     Dense  grid:   493579 G-vectors     FFT dimensions: (  60,  60, 320)

     Smooth grid:   353557 G-vectors     FFT dimensions: (  54,  54, 288)

     Estimated max dynamical RAM per process >       2.84 GB

     Estimated total dynamical RAM >       5.68 GB
     Cannot read rho : file not found

     Initial potential from superposition of free atoms

     starting charge   25.99914, renormalised to   26.00000

     negative rho (up, down):  7.764E-05 0.000E+00
     Message from routine qexsd_readschema :
     xml data file /scratch/as3359/Ta2C_ct_kpts/MoS2.save/data-file-schema.xml not fo
     Cannot read wfcs: file not found
     Starting wfcs are   18 randomized atomic wfcs
     Checking if some PAW data can be deallocated... 

     total cpu time spent up to now is       52.5 secs

     Self-consistent Calculation

     iteration #  1     ecut=   200.00 Ry     beta= 0.70
     Davidson diagonalization with overlap
     ethr =  1.00E-05,  avg # of iterations = 10.3

     negative rho (up, down):  2.439E-05 0.000E+00

     total cpu time spent up to now is      307.5 secs

     total energy              =    -489.68933185 Ry
     estimated scf accuracy    <       0.15089792 Ry

     iteration #  2     ecut=   200.00 Ry     beta= 0.70
     Davidson diagonalization with overlap
     ethr =  5.80E-04,  avg # of iterations =  5.0

     negative rho (up, down):  7.728E-06 0.000E+00

     total cpu time spent up to now is      436.4 secs

     total energy              =    -489.64827073 Ry
     estimated scf accuracy    <       0.55848718 Ry

     iteration #  3     ecut=   200.00 Ry     beta= 0.70
     Davidson diagonalization with overlap
     ethr =  5.80E-04,  avg # of iterations =  4.9

     negative rho (up, down):  3.374E-06 0.000E+00

     total cpu time spent up to now is      561.9 secs

     total energy              =    -489.75246901 Ry
     estimated scf accuracy    <       0.04191314 Ry

     iteration #  4     ecut=   200.00 Ry     beta= 0.70
     Davidson diagonalization with overlap
     ethr =  1.61E-04,  avg # of iterations =  2.3

     negative rho (up, down):  2.711E-06 0.000E+00

     total cpu time spent up to now is      651.8 secs

     total energy              =    -489.75490089 Ry
     estimated scf accuracy    <       0.00558950 Ry

     iteration #  5     ecut=   200.00 Ry     beta= 0.70
     Davidson diagonalization with overlap
     ethr =  2.15E-05,  avg # of iterations =  5.1

     negative rho (up, down):  2.676E-06 0.000E+00

     total cpu time spent up to now is      783.6 secs

     total energy              =    -489.75784621 Ry
     estimated scf accuracy    <       0.00831552 Ry

     iteration #  6     ecut=   200.00 Ry     beta= 0.70
     Davidson diagonalization with overlap
     ethr =  2.15E-05,  avg # of iterations =  1.8

     negative rho (up, down):  3.017E-06 0.000E+00

     total cpu time spent up to now is      865.4 secs

     total energy              =    -489.75683883 Ry
     estimated scf accuracy    <       0.00297871 Ry

     iteration #  7     ecut=   200.00 Ry     beta= 0.70
     Davidson diagonalization with overlap
     ethr =  1.15E-05,  avg # of iterations =  4.7

     negative rho (up, down):  3.190E-06 0.000E+00

     total cpu time spent up to now is      983.9 secs

     total energy              =    -489.75846418 Ry
     estimated scf accuracy    <       0.00184418 Ry

     iteration #  8     ecut=   200.00 Ry     beta= 0.70
     Davidson diagonalization with overlap
     ethr =  7.09E-06,  avg # of iterations =  1.0

     negative rho (up, down):  3.325E-06 0.000E+00

     total cpu time spent up to now is     1059.6 secs

     total energy              =    -489.75801889 Ry
     estimated scf accuracy    <       0.00212685 Ry

     iteration #  9     ecut=   200.00 Ry     beta= 0.70
     Davidson diagonalization with overlap
     ethr =  7.09E-06,  avg # of iterations =  1.4

     negative rho (up, down):  3.326E-06 0.000E+00

     total cpu time spent up to now is     1137.6 secs

     total energy              =    -489.75807711 Ry
     estimated scf accuracy    <       0.00084922 Ry

     iteration # 10     ecut=   200.00 Ry     beta= 0.70
     Davidson diagonalization with overlap
     ethr =  3.27E-06,  avg # of iterations =  1.0

     negative rho (up, down):  3.380E-06 0.000E+00

     total cpu time spent up to now is     1213.8 secs

     total energy              =    -489.75797961 Ry
     estimated scf accuracy    <       0.00073311 Ry

     iteration # 11     ecut=   200.00 Ry     beta= 0.70
     Davidson diagonalization with overlap
     ethr =  2.82E-06,  avg # of iterations =  3.0

     negative rho (up, down):  3.532E-06 0.000E+00

     total cpu time spent up to now is     1303.2 secs

     total energy              =    -489.75800460 Ry
     estimated scf accuracy    <       0.00013297 Ry

     iteration # 12     ecut=   200.00 Ry     beta= 0.70
     Davidson diagonalization with overlap
     ethr =  5.11E-07,  avg # of iterations =  4.6

     negative rho (up, down):  3.585E-06 0.000E+00

     total cpu time spent up to now is     1425.3 secs

     total energy              =    -489.75806197 Ry
     estimated scf accuracy    <       0.00003405 Ry

     iteration # 13     ecut=   200.00 Ry     beta= 0.70
     Davidson diagonalization with overlap
     ethr =  1.31E-07,  avg # of iterations =  1.3

     negative rho (up, down):  3.591E-06 0.000E+00

     total cpu time spent up to now is     1502.9 secs

     total energy              =    -489.75805927 Ry
     estimated scf accuracy    <       0.00002026 Ry

     iteration # 14     ecut=   200.00 Ry     beta= 0.70
     Davidson diagonalization with overlap
     ethr =  7.79E-08,  avg # of iterations =  2.2

     negative rho (up, down):  3.608E-06 0.000E+00

     total cpu time spent up to now is     1587.8 secs

     total energy              =    -489.75806036 Ry
     estimated scf accuracy    <       0.00000575 Ry

     iteration # 15     ecut=   200.00 Ry     beta= 0.70
     Davidson diagonalization with overlap
     ethr =  2.21E-08,  avg # of iterations =  2.6

     negative rho (up, down):  3.646E-06 0.000E+00

     total cpu time spent up to now is     1674.6 secs

     total energy              =    -489.75805957 Ry
     estimated scf accuracy    <       0.00000274 Ry

     iteration # 16     ecut=   200.00 Ry     beta= 0.70
     Davidson diagonalization with overlap
     ethr =  1.06E-08,  avg # of iterations =  5.5

     negative rho (up, down):  3.650E-06 0.000E+00

     total cpu time spent up to now is     1804.4 secs

     total energy              =    -489.75806139 Ry
     estimated scf accuracy    <       0.00000424 Ry

     iteration # 17     ecut=   200.00 Ry     beta= 0.70
     Davidson diagonalization with overlap
     ethr =  1.06E-08,  avg # of iterations =  1.0

     negative rho (up, down):  3.655E-06 0.000E+00

     total cpu time spent up to now is     1879.7 secs

     total energy              =    -489.75806106 Ry
     estimated scf accuracy    <       0.00000352 Ry

     iteration # 18     ecut=   200.00 Ry     beta= 0.70
     Davidson diagonalization with overlap
     ethr =  1.06E-08,  avg # of iterations =  1.0

     negative rho (up, down):  3.687E-06 0.000E+00

     total cpu time spent up to now is     1954.7 secs

     total energy              =    -489.75805979 Ry
     estimated scf accuracy    <       0.00000222 Ry

     iteration # 19     ecut=   200.00 Ry     beta= 0.70
     Davidson diagonalization with overlap
     ethr =  8.54E-09,  avg # of iterations =  5.0

     negative rho (up, down):  3.648E-06 0.000E+00

     total cpu time spent up to now is     2076.7 secs

     total energy              =    -489.75806109 Ry
     estimated scf accuracy    <       0.00000422 Ry

     iteration # 20     ecut=   200.00 Ry     beta= 0.70
     Davidson diagonalization with overlap
     ethr =  8.54E-09,  avg # of iterations =  1.4

     negative rho (up, down):  3.622E-06 0.000E+00

     total cpu time spent up to now is     2153.7 secs

     total energy              =    -489.75806054 Ry
     estimated scf accuracy    <       0.00000274 Ry

     iteration # 21     ecut=   200.00 Ry     beta= 0.70
     Davidson diagonalization with overlap
     ethr =  8.54E-09,  avg # of iterations =  3.3

     negative rho (up, down):  3.621E-06 0.000E+00

     total cpu time spent up to now is     2249.2 secs

     total energy              =    -489.75806080 Ry
     estimated scf accuracy    <       0.00000046 Ry

     iteration # 22     ecut=   200.00 Ry     beta= 0.70
     Davidson diagonalization with overlap
     ethr =  1.76E-09,  avg # of iterations =  3.7

     negative rho (up, down):  3.620E-06 0.000E+00

     total cpu time spent up to now is     2346.8 secs

     total energy              =    -489.75806083 Ry
     estimated scf accuracy    <       0.00000012 Ry

     iteration # 23     ecut=   200.00 Ry     beta= 0.70
     Davidson diagonalization with overlap
     ethr =  4.80E-10,  avg # of iterations =  4.2

     negative rho (up, down):  3.623E-06 0.000E+00

     total cpu time spent up to now is     2455.9 secs

     total energy              =    -489.75806087 Ry
     estimated scf accuracy    <       0.00000003 Ry

     iteration # 24     ecut=   200.00 Ry     beta= 0.70
     Davidson diagonalization with overlap
     ethr =  1.19E-10,  avg # of iterations =  2.4

     negative rho (up, down):  3.622E-06 0.000E+00

     total cpu time spent up to now is     2544.7 secs

     total energy              =    -489.75806087 Ry
     estimated scf accuracy    <       0.00000003 Ry

     iteration # 25     ecut=   200.00 Ry     beta= 0.70
     Davidson diagonalization with overlap
     ethr =  1.09E-10,  avg # of iterations =  1.7

     negative rho (up, down):  3.621E-06 0.000E+00

     total cpu time spent up to now is     2624.3 secs

     total energy              =    -489.75806087 Ry
     estimated scf accuracy    <       0.00000002 Ry

     iteration # 26     ecut=   200.00 Ry     beta= 0.70
     Davidson diagonalization with overlap
     ethr =  7.72E-11,  avg # of iterations =  1.9

     negative rho (up, down):  3.621E-06 0.000E+00

     total cpu time spent up to now is     2706.4 secs

     total energy              =    -489.75806087 Ry
     estimated scf accuracy    <          6.8E-09 Ry

     iteration # 27     ecut=   200.00 Ry     beta= 0.70
     Davidson diagonalization with overlap
     ethr =  2.63E-11,  avg # of iterations =  3.1

     negative rho (up, down):  3.621E-06 0.000E+00

     total cpu time spent up to now is     2798.2 secs

     total energy              =    -489.75806087 Ry
     estimated scf accuracy    <          1.7E-09 Ry

     iteration # 28     ecut=   200.00 Ry     beta= 0.70
     Davidson diagonalization with overlap
     ethr =  6.43E-12,  avg # of iterations =  4.5

     negative rho (up, down):  3.621E-06 0.000E+00

     total cpu time spent up to now is     2913.3 secs

     total energy              =    -489.75806087 Ry
     estimated scf accuracy    <          9.6E-11 Ry

     iteration # 29     ecut=   200.00 Ry     beta= 0.70
     Davidson diagonalization with overlap
     ethr =  3.68E-13,  avg # of iterations =  5.5

     negative rho (up, down):  3.621E-06 0.000E+00

     total cpu time spent up to now is     3046.0 secs

     total energy              =    -489.75806087 Ry
     estimated scf accuracy    <          5.0E-10 Ry

     iteration # 30     ecut=   200.00 Ry     beta= 0.70
     Davidson diagonalization with overlap
     ethr =  3.68E-13,  avg # of iterations =  1.0

     negative rho (up, down):  3.621E-06 0.000E+00

     total cpu time spent up to now is     3120.4 secs

     total energy              =    -489.75806087 Ry
     estimated scf accuracy    <          5.0E-10 Ry

     iteration # 31     ecut=   200.00 Ry     beta= 0.70
     Davidson diagonalization with overlap
     ethr =  3.68E-13,  avg # of iterations =  4.5

     negative rho (up, down):  3.621E-06 0.000E+00

     total cpu time spent up to now is     3242.4 secs

     total energy              =    -489.75806087 Ry
     estimated scf accuracy    <          3.0E-11 Ry

     iteration # 32     ecut=   200.00 Ry     beta= 0.70
     Davidson diagonalization with overlap
     ethr =  1.17E-13,  avg # of iterations =  3.2

     negative rho (up, down):  3.621E-06 0.000E+00

     total cpu time spent up to now is     3339.0 secs

     total energy              =    -489.75806087 Ry
     estimated scf accuracy    <          1.1E-11 Ry

     iteration # 33     ecut=   200.00 Ry     beta= 0.70
     Davidson diagonalization with overlap
     ethr =  1.00E-13,  avg # of iterations =  4.4

     negative rho (up, down):  3.621E-06 0.000E+00

     total cpu time spent up to now is     3453.5 secs

     total energy              =    -489.75806087 Ry
     estimated scf accuracy    <          1.3E-10 Ry

     iteration # 34     ecut=   200.00 Ry     beta= 0.70
     Davidson diagonalization with overlap
     ethr =  1.00E-13,  avg # of iterations =  2.1

     negative rho (up, down):  3.621E-06 0.000E+00

     total cpu time spent up to now is     3537.0 secs

     total energy              =    -489.75806087 Ry
     estimated scf accuracy    <          8.5E-11 Ry

     iteration # 35     ecut=   200.00 Ry     beta= 0.70
     Davidson diagonalization with overlap
     ethr =  1.00E-13,  avg # of iterations =  4.2

     negative rho (up, down):  3.621E-06 0.000E+00

     total cpu time spent up to now is     3645.3 secs

     total energy              =    -489.75806087 Ry
     estimated scf accuracy    <          1.3E-11 Ry

     iteration # 36     ecut=   200.00 Ry     beta= 0.70
     Davidson diagonalization with overlap
     ethr =  1.00E-13,  avg # of iterations =  1.0

     negative rho (up, down):  3.621E-06 0.000E+00

     total cpu time spent up to now is     3718.9 secs

     total energy              =    -489.75806087 Ry
     estimated scf accuracy    <          9.7E-12 Ry

     iteration # 37     ecut=   200.00 Ry     beta= 0.70
     Davidson diagonalization with overlap
     ethr =  1.00E-13,  avg # of iterations =  1.1

     negative rho (up, down):  3.621E-06 0.000E+00

     total cpu time spent up to now is     3793.3 secs

     total energy              =    -489.75806087 Ry
     estimated scf accuracy    <          3.4E-12 Ry

     iteration # 38     ecut=   200.00 Ry     beta= 0.70
     Davidson diagonalization with overlap
     ethr =  1.00E-13,  avg # of iterations =  2.1

     negative rho (up, down):  3.621E-06 0.000E+00

     total cpu time spent up to now is     3876.1 secs

     total energy              =    -489.75806087 Ry
     estimated scf accuracy    <          5.5E-12 Ry

     iteration # 39     ecut=   200.00 Ry     beta= 0.70
     Davidson diagonalization with overlap
     ethr =  1.00E-13,  avg # of iterations =  1.0

     negative rho (up, down):  3.621E-06 0.000E+00

     total cpu time spent up to now is     3949.8 secs

     total energy              =    -489.75806087 Ry
     estimated scf accuracy    <          3.1E-12 Ry

     iteration # 40     ecut=   200.00 Ry     beta= 0.70
     Davidson diagonalization with overlap
     ethr =  1.00E-13,  avg # of iterations =  1.0

     negative rho (up, down):  3.621E-06 0.000E+00

     total cpu time spent up to now is     4023.3 secs

     total energy              =    -489.75806087 Ry
     estimated scf accuracy    <          1.1E-12 Ry

     iteration # 41     ecut=   200.00 Ry     beta= 0.70
     Davidson diagonalization with overlap
     ethr =  1.00E-13,  avg # of iterations =  1.0

     negative rho (up, down):  3.621E-06 0.000E+00

     total cpu time spent up to now is     4096.9 secs

     End of self-consistent calculation

     Number of k-points >= 100: set verbosity='high' to print the bands.

     highest occupied level (ev):     0.3756

!    total energy              =    -489.75806087 Ry

     total all-electron energy =     -9688.215906 Ry
     estimated scf accuracy    <          9.3E-13 Ry

     The total energy is the sum of the following terms:
     one-electron contribution =    -813.90678816 Ry
     hartree contribution      =     410.77445974 Ry
     xc contribution           =     -29.52473863 Ry
     ewald contribution        =     255.78841210 Ry
     one-center paw contrib.   =    -312.88940593 Ry

     convergence has been achieved in  41 iterations

     negative rho (up, down):  3.621E-06 0.000E+00

     Forces acting on atoms (cartesian axes, Ry/au):

     atom    1 type  1   force =     0.00026875    0.00012900   -0.00000110
     atom    2 type  2   force =    -0.00013437   -0.00006450   -0.00032853
     atom    3 type  2   force =    -0.00013437   -0.00006450    0.00032963

     Total force =     0.000592     Total SCF correction =     0.000006


     Computing stress (Cartesian axis) and pressure


     negative rho (up, down):  3.621E-06 0.000E+00
          total   stress  (Ry/bohr**3)                   (kbar)     P=        0.69
   0.00000967  -0.00000085   0.00000000            1.42       -0.13        0.00
  -0.00000085   0.00000653   0.00000000           -0.13        0.96        0.00
   0.00000000   0.00000000  -0.00000215            0.00        0.00       -0.32


     Writing output data file /scratch/as3359/Ta2C_ct_kpts/MoS2.save/
 
     init_run     :     99.26s CPU     52.34s WALL (       1 calls)
     electrons    :   7980.68s CPU   4044.44s WALL (       1 calls)
     forces       :     21.86s CPU     11.07s WALL (       1 calls)
     stress       :     83.72s CPU     42.48s WALL (       1 calls)

     Called by init_run:
     wfcinit      :     88.38s CPU     45.09s WALL (       1 calls)
     potinit      :      3.08s CPU      1.57s WALL (       1 calls)
     hinit0       :      5.90s CPU      4.27s WALL (       1 calls)

     Called by electrons:
     c_bands      :   6725.65s CPU   3400.54s WALL (      41 calls)
     sum_band     :   1200.25s CPU    610.97s WALL (      41 calls)
     v_of_rho     :     14.53s CPU      8.08s WALL (      42 calls)
     newd         :     25.53s CPU     16.70s WALL (      42 calls)
     PAW_pot      :      7.71s CPU      3.95s WALL (      42 calls)
     mix_rho      :      5.84s CPU      3.44s WALL (      41 calls)

     Called by c_bands:
     init_us_2    :    242.80s CPU    121.58s WALL (   38420 calls)
     cegterg      :   6330.67s CPU   3199.88s WALL (   18532 calls)

     Called by *egterg:
     cdiaghg      :     28.60s CPU     14.57s WALL (   73629 calls)
     h_psi        :   5551.54s CPU   2808.75s WALL (   74081 calls)
     s_psi        :    185.93s CPU     93.21s WALL (   74081 calls)
     g_psi        :     35.15s CPU     17.69s WALL (   55097 calls)

     Called by h_psi:
     h_psi:calbec :    154.65s CPU     77.73s WALL (   74081 calls)
     vloc_psi     :   5115.04s CPU   2589.64s WALL (   74081 calls)
     add_vuspsi   :    243.63s CPU    122.12s WALL (   74081 calls)

     General routines
     calbec       :    205.51s CPU    103.34s WALL (   94873 calls)
     fft          :      7.85s CPU      4.29s WALL (     569 calls)
     ffts         :      0.80s CPU      0.41s WALL (      83 calls)
     fftw         :   5216.02s CPU   2643.19s WALL ( 1549110 calls)
     interpolate  :      1.38s CPU      0.78s WALL (      42 calls)
 
     Parallel routines
 
     PWSCF        :      2h16m CPU      1h 9m WALL

 
   This run was terminated on:  18:29:19   7Apr2022            

=------------------------------------------------------------------------------=
   JOB DONE.
=------------------------------------------------------------------------------=
