
     Program PWSCF v.6.8 starts on  7Apr2022 at 13: 9:19 

     This program is part of the open-source Quantum ESPRESSO suite
     for quantum simulation of materials; please cite
         "P. Giannozzi et al., J. Phys.:Condens. Matter 21 395502 (2009);
         "P. Giannozzi et al., J. Phys.:Condens. Matter 29 465901 (2017);
         "P. Giannozzi et al., J. Chem. Phys. 152 154105 (2020);
          URL http://www.quantum-espresso.org", 
     in publications or presentations arising from this work. More details at
     http://www.quantum-espresso.org/quote

     Parallel version (MPI & OpenMP), running on       4 processor cores
     Number of MPI processes:                 2
     Threads/MPI process:                     2

     MPI processes distributed on     1 nodes
     R & G space division:  proc/nbgrp/npool/nimage =       2
     125256 MiB available memory on the printing compute node when the environment starts
 
     Reading input from MoS2.scf.16.in
Warning: card  &CELL ignored
Warning: card     CELL_DYNAMICS='BFGS' ignored
Warning: card  / ignored

     Current dimensions of program PWSCF are:
     Max number of different atomic species (ntypx) = 10
     Max number of k-points (npk) =  40000
     Max angular momentum in pseudopotentials (lmaxx) =  4
     file Mo.pbesol-spn-kjpaw_psl.1.0.0.UPF: wavefunction(s)  4S 4D renormalized
     file S.pbesol-nl-kjpaw_psl.1.0.0.UPF: wavefunction(s)  3S renormalized

     Subspace diagonalization in iterative solution of the eigenvalue problem:
     a serial algorithm will be used

 
     Parallelization info
     --------------------
     sticks:   dense  smooth     PW     G-vecs:    dense   smooth      PW
     Min        1203     972    279               246775   176770   27455
     Max        1204     973    280               246804   176787   27474
     Sum        2407    1945    559               493579   353557   54929
 
     Using Slab Decomposition
 


     bravais-lattice index     =            0
     lattice parameter (alat)  =       6.0720  a.u.
     unit-cell volume          =     924.7995 (a.u.)^3
     number of atoms/cell      =            3
     number of atomic types    =            2
     number of electrons       =        26.00
     number of Kohn-Sham states=           13
     kinetic-energy cutoff     =     200.0000  Ry
     charge density cutoff     =    1000.0000  Ry
     scf convergence threshold =      1.0E-12
     mixing beta               =       0.7000
     number of iterations used =            8  plain     mixing
     Exchange-correlation= SLA  PW   PSX  PSC
                           (   1   4  10   8   0   0   0)

     celldm(1)=   6.072000  celldm(2)=   0.000000  celldm(3)=   0.000000
     celldm(4)=   0.000000  celldm(5)=   0.000000  celldm(6)=   0.000000

     crystal axes: (cart. coord. in units of alat)
               a(1) = (   0.976384  -0.000017   0.000000 )  
               a(2) = (  -0.487931   0.846187   0.000000 )  
               a(3) = (   0.000000   0.000000   5.000000 )  

     reciprocal axes: (cart. coord. in units 2 pi/alat)
               b(1) = (  1.024198  0.590577  0.000000 )  
               b(2) = (  0.000021  1.181785  0.000000 )  
               b(3) = (  0.000000  0.000000  0.200000 )  


     PseudoPot. # 1 for Mo read from file:
     /shared/home/as3359/pseudo/Mo.pbesol-spn-kjpaw_psl.1.0.0.UPF
     MD5 check sum: de57925cfc675213e43241dcc441eda8
     Pseudo is Projector augmented-wave + core cor, Zval = 14.0
     Generated using &quot;atomic&quot; code by A. Dal Corso  v.6.3
     Shape of augmentation charge: PSQ
     Using radial grid of 1229 points,  6 beta functions with: 
                l(1) =   0
                l(2) =   0
                l(3) =   1
                l(4) =   1
                l(5) =   2
                l(6) =   2
     Q(r) pseudized with 0 coefficients 


     PseudoPot. # 2 for S  read from file:
     /shared/home/as3359/pseudo/S.pbesol-nl-kjpaw_psl.1.0.0.UPF
     MD5 check sum: bf3db50ec3f960682bbc396f1aadd1dd
     Pseudo is Projector augmented-wave + core cor, Zval =  6.0
     Generated using &quot;atomic&quot; code by A. Dal Corso  v.6.3
     Shape of augmentation charge: PSQ
     Using radial grid of 1151 points,  4 beta functions with: 
                l(1) =   0
                l(2) =   0
                l(3) =   1
                l(4) =   1
     Q(r) pseudized with 0 coefficients 


     atomic species   valence    mass     pseudopotential
        Mo            14.00    95.94000     Mo( 1.00)
        S              6.00    32.06500     S ( 1.00)

     No symmetry found



   Cartesian axes

     site n.     atom                  positions (alat units)
         1           Mo  tau(   1) = (   0.0000000   0.0000000   1.6880765  )
         2           S   tau(   2) = (   0.4883508   0.2821722   2.1737857  )
         3           S   tau(   3) = (   0.4883508   0.2821722   1.2023670  )

     number of k points=   130

     Number of k-points >= 100: set verbosity='high' to print them.

     Dense  grid:   493579 G-vectors     FFT dimensions: (  60,  60, 320)

     Smooth grid:   353557 G-vectors     FFT dimensions: (  54,  54, 288)

     Estimated max dynamical RAM per process >       1.46 GB

     Estimated total dynamical RAM >       2.92 GB

     Atomic positions and unit cell read from directory:
     /scratch/as3359/Ta2C_ct_kpts/MoS2.save/
     Message from routine qexsd_readschema :
     xml data file /scratch/as3359/Ta2C_ct_kpts/MoS2.save/data-file-schema.xml not fo
     Nothing found: using input atomic positions and unit cell

     Cannot read rho : file not found

     Initial potential from superposition of free atoms

     starting charge   25.99914, renormalised to   26.00000

     negative rho (up, down):  7.764E-05 0.000E+00
     Message from routine qexsd_readschema :
     xml data file /scratch/as3359/Ta2C_ct_kpts/MoS2.save/data-file-schema.xml not fo
     Cannot read wfcs: file not found
     Starting wfcs are   18 randomized atomic wfcs
     Checking if some PAW data can be deallocated... 

     total cpu time spent up to now is       20.5 secs

     Self-consistent Calculation

     iteration #  1     ecut=   200.00 Ry     beta= 0.70
     Davidson diagonalization with overlap
     ethr =  1.00E-05,  avg # of iterations = 10.3

     negative rho (up, down):  2.437E-05 0.000E+00

     total cpu time spent up to now is       98.4 secs

     total energy              =    -489.68931464 Ry
     estimated scf accuracy    <       0.15091052 Ry

     iteration #  2     ecut=   200.00 Ry     beta= 0.70
     Davidson diagonalization with overlap
     ethr =  5.80E-04,  avg # of iterations =  5.0

     negative rho (up, down):  7.716E-06 0.000E+00

     total cpu time spent up to now is      138.3 secs

     total energy              =    -489.64822548 Ry
     estimated scf accuracy    <       0.55917188 Ry

     iteration #  3     ecut=   200.00 Ry     beta= 0.70
     Davidson diagonalization with overlap
     ethr =  5.80E-04,  avg # of iterations =  4.9

     negative rho (up, down):  3.369E-06 0.000E+00

     total cpu time spent up to now is      177.2 secs

     total energy              =    -489.75237521 Ry
     estimated scf accuracy    <       0.04293014 Ry

     iteration #  4     ecut=   200.00 Ry     beta= 0.70
     Davidson diagonalization with overlap
     ethr =  1.65E-04,  avg # of iterations =  2.3

     negative rho (up, down):  2.630E-06 0.000E+00

     total cpu time spent up to now is      205.0 secs

     total energy              =    -489.75480922 Ry
     estimated scf accuracy    <       0.00573562 Ry

     iteration #  5     ecut=   200.00 Ry     beta= 0.70
     Davidson diagonalization with overlap
     ethr =  2.21E-05,  avg # of iterations =  5.0

     negative rho (up, down):  2.607E-06 0.000E+00

     total cpu time spent up to now is      245.7 secs

     total energy              =    -489.75798080 Ry
     estimated scf accuracy    <       0.00878715 Ry

     iteration #  6     ecut=   200.00 Ry     beta= 0.70
     Davidson diagonalization with overlap
     ethr =  2.21E-05,  avg # of iterations =  1.7

     negative rho (up, down):  2.933E-06 0.000E+00

     total cpu time spent up to now is      270.3 secs

     total energy              =    -489.75657161 Ry
     estimated scf accuracy    <       0.00366603 Ry

     iteration #  7     ecut=   200.00 Ry     beta= 0.70
     Davidson diagonalization with overlap
     ethr =  1.41E-05,  avg # of iterations =  4.6

     negative rho (up, down):  3.127E-06 0.000E+00

     total cpu time spent up to now is      306.3 secs

     total energy              =    -489.75840708 Ry
     estimated scf accuracy    <       0.00232238 Ry

     iteration #  8     ecut=   200.00 Ry     beta= 0.70
     Davidson diagonalization with overlap
     ethr =  8.93E-06,  avg # of iterations =  1.0

     negative rho (up, down):  3.325E-06 0.000E+00

     total cpu time spent up to now is      329.7 secs

     total energy              =    -489.75804080 Ry
     estimated scf accuracy    <       0.00213614 Ry

     iteration #  9     ecut=   200.00 Ry     beta= 0.70
     Davidson diagonalization with overlap
     ethr =  8.22E-06,  avg # of iterations =  1.3

     negative rho (up, down):  3.321E-06 0.000E+00

     total cpu time spent up to now is      353.7 secs

     total energy              =    -489.75809464 Ry
     estimated scf accuracy    <       0.00087816 Ry

     iteration # 10     ecut=   200.00 Ry     beta= 0.70
     Davidson diagonalization with overlap
     ethr =  3.38E-06,  avg # of iterations =  1.1

     negative rho (up, down):  3.389E-06 0.000E+00

     total cpu time spent up to now is      377.3 secs

     total energy              =    -489.75797465 Ry
     estimated scf accuracy    <       0.00079616 Ry

     iteration # 11     ecut=   200.00 Ry     beta= 0.70
     Davidson diagonalization with overlap
     ethr =  3.06E-06,  avg # of iterations =  2.9

     negative rho (up, down):  3.565E-06 0.000E+00

     total cpu time spent up to now is      404.8 secs

     total energy              =    -489.75800618 Ry
     estimated scf accuracy    <       0.00013338 Ry

     iteration # 12     ecut=   200.00 Ry     beta= 0.70
     Davidson diagonalization with overlap
     ethr =  5.13E-07,  avg # of iterations =  4.6

     negative rho (up, down):  3.594E-06 0.000E+00

     total cpu time spent up to now is      442.3 secs

     total energy              =    -489.75806233 Ry
     estimated scf accuracy    <       0.00003199 Ry

     iteration # 13     ecut=   200.00 Ry     beta= 0.70
     Davidson diagonalization with overlap
     ethr =  1.23E-07,  avg # of iterations =  1.2

     negative rho (up, down):  3.636E-06 0.000E+00

     total cpu time spent up to now is      466.1 secs

     total energy              =    -489.75805626 Ry
     estimated scf accuracy    <       0.00002032 Ry

     iteration # 14     ecut=   200.00 Ry     beta= 0.70
     Davidson diagonalization with overlap
     ethr =  7.82E-08,  avg # of iterations =  3.6

     negative rho (up, down):  3.655E-06 0.000E+00

     total cpu time spent up to now is      497.4 secs

     total energy              =    -489.75806096 Ry
     estimated scf accuracy    <       0.00000048 Ry

     iteration # 15     ecut=   200.00 Ry     beta= 0.70
     Davidson diagonalization with overlap
     ethr =  1.84E-09,  avg # of iterations =  6.3

     negative rho (up, down):  3.658E-06 0.000E+00

     total cpu time spent up to now is      544.8 secs

     total energy              =    -489.75806040 Ry
     estimated scf accuracy    <       0.00000556 Ry

     iteration # 16     ecut=   200.00 Ry     beta= 0.70
     Davidson diagonalization with overlap
     ethr =  1.84E-09,  avg # of iterations =  5.5

     negative rho (up, down):  3.667E-06 0.000E+00

     total cpu time spent up to now is      586.2 secs

     total energy              =    -489.75806091 Ry
     estimated scf accuracy    <       0.00000024 Ry

     iteration # 17     ecut=   200.00 Ry     beta= 0.70
     Davidson diagonalization with overlap
     ethr =  9.18E-10,  avg # of iterations =  2.0

     negative rho (up, down):  3.664E-06 0.000E+00

     total cpu time spent up to now is      611.6 secs

     total energy              =    -489.75806094 Ry
     estimated scf accuracy    <       0.00000015 Ry

     iteration # 18     ecut=   200.00 Ry     beta= 0.70
     Davidson diagonalization with overlap
     ethr =  5.67E-10,  avg # of iterations =  1.0

     negative rho (up, down):  3.647E-06 0.000E+00

     total cpu time spent up to now is      634.9 secs

     total energy              =    -489.75806093 Ry
     estimated scf accuracy    <       0.00000017 Ry

     iteration # 19     ecut=   200.00 Ry     beta= 0.70
     Davidson diagonalization with overlap
     ethr =  5.67E-10,  avg # of iterations =  4.5

     negative rho (up, down):  3.625E-06 0.000E+00

     total cpu time spent up to now is      669.7 secs

     total energy              =    -489.75806093 Ry
     estimated scf accuracy    <       0.00000064 Ry

     iteration # 20     ecut=   200.00 Ry     beta= 0.70
     Davidson diagonalization with overlap
     ethr =  5.67E-10,  avg # of iterations =  1.3

     negative rho (up, down):  3.622E-06 0.000E+00

     total cpu time spent up to now is      693.6 secs

     total energy              =    -489.75806082 Ry
     estimated scf accuracy    <       0.00000047 Ry

     iteration # 21     ecut=   200.00 Ry     beta= 0.70
     Davidson diagonalization with overlap
     ethr =  5.67E-10,  avg # of iterations =  4.3

     negative rho (up, down):  3.623E-06 0.000E+00

     total cpu time spent up to now is      728.2 secs

     total energy              =    -489.75806088 Ry
     estimated scf accuracy    <          7.4E-09 Ry

     iteration # 22     ecut=   200.00 Ry     beta= 0.70
     Davidson diagonalization with overlap
     ethr =  2.86E-11,  avg # of iterations =  5.9

     negative rho (up, down):  3.622E-06 0.000E+00

     total cpu time spent up to now is      773.5 secs

     total energy              =    -489.75806088 Ry
     estimated scf accuracy    <       0.00000002 Ry

     iteration # 23     ecut=   200.00 Ry     beta= 0.70
     Davidson diagonalization with overlap
     ethr =  2.86E-11,  avg # of iterations =  2.3

     negative rho (up, down):  3.622E-06 0.000E+00

     total cpu time spent up to now is      802.0 secs

     total energy              =    -489.75806088 Ry
     estimated scf accuracy    <          3.8E-09 Ry

     iteration # 24     ecut=   200.00 Ry     beta= 0.70
     Davidson diagonalization with overlap
     ethr =  1.47E-11,  avg # of iterations =  5.8

     negative rho (up, down):  3.622E-06 0.000E+00

     total cpu time spent up to now is      841.4 secs

     total energy              =    -489.75806088 Ry
     estimated scf accuracy    <          7.6E-09 Ry

     iteration # 25     ecut=   200.00 Ry     beta= 0.70
     Davidson diagonalization with overlap
     ethr =  1.47E-11,  avg # of iterations =  1.0

     negative rho (up, down):  3.621E-06 0.000E+00

     total cpu time spent up to now is      864.6 secs

     total energy              =    -489.75806088 Ry
     estimated scf accuracy    <          6.8E-09 Ry

     iteration # 26     ecut=   200.00 Ry     beta= 0.70
     Davidson diagonalization with overlap
     ethr =  1.47E-11,  avg # of iterations =  2.7

     negative rho (up, down):  3.621E-06 0.000E+00

     total cpu time spent up to now is      893.1 secs

     total energy              =    -489.75806088 Ry
     estimated scf accuracy    <          1.1E-09 Ry

     iteration # 27     ecut=   200.00 Ry     beta= 0.70
     Davidson diagonalization with overlap
     ethr =  4.11E-12,  avg # of iterations =  2.1

     negative rho (up, down):  3.621E-06 0.000E+00

     total cpu time spent up to now is      918.5 secs

     total energy              =    -489.75806088 Ry
     estimated scf accuracy    <          6.4E-10 Ry

     iteration # 28     ecut=   200.00 Ry     beta= 0.70
     Davidson diagonalization with overlap
     ethr =  2.46E-12,  avg # of iterations =  2.4

     negative rho (up, down):  3.621E-06 0.000E+00

     total cpu time spent up to now is      944.5 secs

     total energy              =    -489.75806088 Ry
     estimated scf accuracy    <          3.2E-10 Ry

     iteration # 29     ecut=   200.00 Ry     beta= 0.70
     Davidson diagonalization with overlap
     ethr =  1.24E-12,  avg # of iterations =  1.3

     negative rho (up, down):  3.621E-06 0.000E+00

     total cpu time spent up to now is      968.3 secs

     total energy              =    -489.75806088 Ry
     estimated scf accuracy    <          3.0E-10 Ry

     iteration # 30     ecut=   200.00 Ry     beta= 0.70
     Davidson diagonalization with overlap
     ethr =  1.16E-12,  avg # of iterations =  1.0

     negative rho (up, down):  3.621E-06 0.000E+00

     total cpu time spent up to now is      991.7 secs

     total energy              =    -489.75806088 Ry
     estimated scf accuracy    <          3.0E-10 Ry

     iteration # 31     ecut=   200.00 Ry     beta= 0.70
     Davidson diagonalization with overlap
     ethr =  1.14E-12,  avg # of iterations =  2.8

     negative rho (up, down):  3.621E-06 0.000E+00

     total cpu time spent up to now is     1019.0 secs

     total energy              =    -489.75806088 Ry
     estimated scf accuracy    <          6.2E-11 Ry

     iteration # 32     ecut=   200.00 Ry     beta= 0.70
     Davidson diagonalization with overlap
     ethr =  2.39E-13,  avg # of iterations =  3.0

     negative rho (up, down):  3.621E-06 0.000E+00

     total cpu time spent up to now is     1047.0 secs

     total energy              =    -489.75806088 Ry
     estimated scf accuracy    <          3.5E-11 Ry

     iteration # 33     ecut=   200.00 Ry     beta= 0.70
     Davidson diagonalization with overlap
     ethr =  1.36E-13,  avg # of iterations =  4.9

     negative rho (up, down):  3.621E-06 0.000E+00

     total cpu time spent up to now is     1084.3 secs

     total energy              =    -489.75806088 Ry
     estimated scf accuracy    <          2.3E-11 Ry

     iteration # 34     ecut=   200.00 Ry     beta= 0.70
     Davidson diagonalization with overlap
     ethr =  1.00E-13,  avg # of iterations =  1.0

     negative rho (up, down):  3.621E-06 0.000E+00

     total cpu time spent up to now is     1107.6 secs

     total energy              =    -489.75806088 Ry
     estimated scf accuracy    <          2.2E-11 Ry

     iteration # 35     ecut=   200.00 Ry     beta= 0.70
     Davidson diagonalization with overlap
     ethr =  1.00E-13,  avg # of iterations =  2.3

     negative rho (up, down):  3.621E-06 0.000E+00

     total cpu time spent up to now is     1135.2 secs

     End of self-consistent calculation

     Number of k-points >= 100: set verbosity='high' to print the bands.

     highest occupied level (ev):     0.3277

!    total energy              =    -489.75806088 Ry

     total all-electron energy =     -9688.215906 Ry
     estimated scf accuracy    <          7.7E-13 Ry

     The total energy is the sum of the following terms:
     one-electron contribution =    -813.90677924 Ry
     hartree contribution      =     410.77445051 Ry
     xc contribution           =     -29.52473828 Ry
     ewald contribution        =     255.78841210 Ry
     one-center paw contrib.   =    -312.88940597 Ry

     convergence has been achieved in  35 iterations

     negative rho (up, down):  3.621E-06 0.000E+00

     Forces acting on atoms (cartesian axes, Ry/au):

     atom    1 type  1   force =     0.00026874    0.00012900   -0.00000075
     atom    2 type  2   force =    -0.00013437   -0.00006450   -0.00032847
     atom    3 type  2   force =    -0.00013437   -0.00006450    0.00032922

     Total force =     0.000591     Total SCF correction =     0.000002


     Computing stress (Cartesian axis) and pressure


     negative rho (up, down):  3.621E-06 0.000E+00
          total   stress  (Ry/bohr**3)                   (kbar)     P=        0.69
   0.00000967  -0.00000085   0.00000000            1.42       -0.13        0.00
  -0.00000085   0.00000653  -0.00000000           -0.13        0.96       -0.00
   0.00000000  -0.00000000  -0.00000215            0.00       -0.00       -0.32


     Writing output data file /scratch/as3359/Ta2C_ct_kpts/MoS2.save/
 
     init_run     :     36.79s CPU     20.21s WALL (       1 calls)
     electrons    :   2188.76s CPU   1114.93s WALL (       1 calls)
     forces       :     11.09s CPU      5.69s WALL (       1 calls)
     stress       :     35.37s CPU     18.12s WALL (       1 calls)

     Called by init_run:
     wfcinit      :     26.39s CPU     13.50s WALL (       1 calls)
     potinit      :      3.10s CPU      1.60s WALL (       1 calls)
     hinit0       :      5.96s CPU      4.30s WALL (       1 calls)

     Called by electrons:
     c_bands      :   1818.09s CPU    919.50s WALL (      35 calls)
     sum_band     :    320.29s CPU    165.11s WALL (      35 calls)
     v_of_rho     :     13.54s CPU      7.55s WALL (      36 calls)
     newd         :     23.64s CPU     15.39s WALL (      36 calls)
     PAW_pot      :      6.79s CPU      3.54s WALL (      36 calls)
     mix_rho      :      5.45s CPU      3.24s WALL (      35 calls)

     Called by c_bands:
     init_us_2    :     63.22s CPU     31.65s WALL (    9490 calls)
     cegterg      :   1715.34s CPU    867.32s WALL (    4550 calls)

     Called by *egterg:
     cdiaghg      :      7.94s CPU      4.05s WALL (   19215 calls)
     h_psi        :   1488.27s CPU    753.22s WALL (   19345 calls)
     s_psi        :     53.01s CPU     26.58s WALL (   19345 calls)
     g_psi        :      9.52s CPU      4.79s WALL (   14665 calls)

     Called by h_psi:
     h_psi:calbec :     46.59s CPU     23.41s WALL (   19345 calls)
     vloc_psi     :   1356.37s CPU    686.99s WALL (   19345 calls)
     add_vuspsi   :     72.37s CPU     36.27s WALL (   19345 calls)

     General routines
     calbec       :     61.03s CPU     30.69s WALL (   24545 calls)
     fft          :      7.82s CPU      4.34s WALL (     491 calls)
     ffts         :      0.75s CPU      0.39s WALL (      71 calls)
     fftw         :   1351.95s CPU    685.42s WALL (  396020 calls)
     interpolate  :      1.36s CPU      0.78s WALL (      36 calls)
 
     Parallel routines
 
     PWSCF        :  37m56.93s CPU  19m23.56s WALL

 
   This run was terminated on:  13:28:43   7Apr2022            

=------------------------------------------------------------------------------=
   JOB DONE.
=------------------------------------------------------------------------------=
