
     Program PWSCF v.6.8 starts on  7Apr2022 at 14:12:30 

     This program is part of the open-source Quantum ESPRESSO suite
     for quantum simulation of materials; please cite
         "P. Giannozzi et al., J. Phys.:Condens. Matter 21 395502 (2009);
         "P. Giannozzi et al., J. Phys.:Condens. Matter 29 465901 (2017);
         "P. Giannozzi et al., J. Chem. Phys. 152 154105 (2020);
          URL http://www.quantum-espresso.org", 
     in publications or presentations arising from this work. More details at
     http://www.quantum-espresso.org/quote

     Parallel version (MPI & OpenMP), running on       4 processor cores
     Number of MPI processes:                 2
     Threads/MPI process:                     2

     MPI processes distributed on     1 nodes
     R & G space division:  proc/nbgrp/npool/nimage =       2
     125255 MiB available memory on the printing compute node when the environment starts
 
     Reading input from MoS2.scf.20.in
Warning: card  &CELL ignored
Warning: card     CELL_DYNAMICS='BFGS' ignored
Warning: card  / ignored

     Current dimensions of program PWSCF are:
     Max number of different atomic species (ntypx) = 10
     Max number of k-points (npk) =  40000
     Max angular momentum in pseudopotentials (lmaxx) =  4
     file Mo.pbesol-spn-kjpaw_psl.1.0.0.UPF: wavefunction(s)  4S 4D renormalized
     file S.pbesol-nl-kjpaw_psl.1.0.0.UPF: wavefunction(s)  3S renormalized

     Subspace diagonalization in iterative solution of the eigenvalue problem:
     a serial algorithm will be used

 
     Parallelization info
     --------------------
     sticks:   dense  smooth     PW     G-vecs:    dense   smooth      PW
     Min        1203     972    279               246775   176770   27455
     Max        1204     973    280               246804   176787   27474
     Sum        2407    1945    559               493579   353557   54929
 
     Using Slab Decomposition
 


     bravais-lattice index     =            0
     lattice parameter (alat)  =       6.0720  a.u.
     unit-cell volume          =     924.7995 (a.u.)^3
     number of atoms/cell      =            3
     number of atomic types    =            2
     number of electrons       =        26.00
     number of Kohn-Sham states=           13
     kinetic-energy cutoff     =     200.0000  Ry
     charge density cutoff     =    1000.0000  Ry
     scf convergence threshold =      1.0E-12
     mixing beta               =       0.7000
     number of iterations used =            8  plain     mixing
     Exchange-correlation= SLA  PW   PSX  PSC
                           (   1   4  10   8   0   0   0)

     celldm(1)=   6.072000  celldm(2)=   0.000000  celldm(3)=   0.000000
     celldm(4)=   0.000000  celldm(5)=   0.000000  celldm(6)=   0.000000

     crystal axes: (cart. coord. in units of alat)
               a(1) = (   0.976384  -0.000017   0.000000 )  
               a(2) = (  -0.487931   0.846187   0.000000 )  
               a(3) = (   0.000000   0.000000   5.000000 )  

     reciprocal axes: (cart. coord. in units 2 pi/alat)
               b(1) = (  1.024198  0.590577  0.000000 )  
               b(2) = (  0.000021  1.181785  0.000000 )  
               b(3) = (  0.000000  0.000000  0.200000 )  


     PseudoPot. # 1 for Mo read from file:
     /shared/home/as3359/pseudo/Mo.pbesol-spn-kjpaw_psl.1.0.0.UPF
     MD5 check sum: de57925cfc675213e43241dcc441eda8
     Pseudo is Projector augmented-wave + core cor, Zval = 14.0
     Generated using &quot;atomic&quot; code by A. Dal Corso  v.6.3
     Shape of augmentation charge: PSQ
     Using radial grid of 1229 points,  6 beta functions with: 
                l(1) =   0
                l(2) =   0
                l(3) =   1
                l(4) =   1
                l(5) =   2
                l(6) =   2
     Q(r) pseudized with 0 coefficients 


     PseudoPot. # 2 for S  read from file:
     /shared/home/as3359/pseudo/S.pbesol-nl-kjpaw_psl.1.0.0.UPF
     MD5 check sum: bf3db50ec3f960682bbc396f1aadd1dd
     Pseudo is Projector augmented-wave + core cor, Zval =  6.0
     Generated using &quot;atomic&quot; code by A. Dal Corso  v.6.3
     Shape of augmentation charge: PSQ
     Using radial grid of 1151 points,  4 beta functions with: 
                l(1) =   0
                l(2) =   0
                l(3) =   1
                l(4) =   1
     Q(r) pseudized with 0 coefficients 


     atomic species   valence    mass     pseudopotential
        Mo            14.00    95.94000     Mo( 1.00)
        S              6.00    32.06500     S ( 1.00)

     No symmetry found



   Cartesian axes

     site n.     atom                  positions (alat units)
         1           Mo  tau(   1) = (   0.0000000   0.0000000   1.6880765  )
         2           S   tau(   2) = (   0.4883508   0.2821722   2.1737857  )
         3           S   tau(   3) = (   0.4883508   0.2821722   1.2023670  )

     number of k points=   202

     Number of k-points >= 100: set verbosity='high' to print them.

     Dense  grid:   493579 G-vectors     FFT dimensions: (  60,  60, 320)

     Smooth grid:   353557 G-vectors     FFT dimensions: (  54,  54, 288)

     Estimated max dynamical RAM per process >       1.77 GB

     Estimated total dynamical RAM >       3.54 GB

     Atomic positions and unit cell read from directory:
     /scratch/as3359/Ta2C_ct_kpts/MoS2.save/
     Message from routine qexsd_readschema :
     xml data file /scratch/as3359/Ta2C_ct_kpts/MoS2.save/data-file-schema.xml not fo
     Nothing found: using input atomic positions and unit cell

     Cannot read rho : file not found

     Initial potential from superposition of free atoms

     starting charge   25.99914, renormalised to   26.00000

     negative rho (up, down):  7.764E-05 0.000E+00
     Message from routine qexsd_readschema :
     xml data file /scratch/as3359/Ta2C_ct_kpts/MoS2.save/data-file-schema.xml not fo
     Cannot read wfcs: file not found
     Starting wfcs are   18 randomized atomic wfcs
     Checking if some PAW data can be deallocated... 

     total cpu time spent up to now is       27.6 secs

     Self-consistent Calculation

     iteration #  1     ecut=   200.00 Ry     beta= 0.70
     Davidson diagonalization with overlap
     ethr =  1.00E-05,  avg # of iterations = 10.3

     negative rho (up, down):  2.440E-05 0.000E+00

     total cpu time spent up to now is      144.4 secs

     total energy              =    -489.68926744 Ry
     estimated scf accuracy    <       0.15097304 Ry

     iteration #  2     ecut=   200.00 Ry     beta= 0.70
     Davidson diagonalization with overlap
     ethr =  5.81E-04,  avg # of iterations =  5.0

     negative rho (up, down):  7.708E-06 0.000E+00

     total cpu time spent up to now is      204.2 secs

     total energy              =    -489.64659448 Ry
     estimated scf accuracy    <       0.56720047 Ry

     iteration #  3     ecut=   200.00 Ry     beta= 0.70
     Davidson diagonalization with overlap
     ethr =  5.81E-04,  avg # of iterations =  5.0

     negative rho (up, down):  3.324E-06 0.000E+00

     total cpu time spent up to now is      261.5 secs

     total energy              =    -489.75260716 Ry
     estimated scf accuracy    <       0.04089615 Ry

     iteration #  4     ecut=   200.00 Ry     beta= 0.70
     Davidson diagonalization with overlap
     ethr =  1.57E-04,  avg # of iterations =  2.3

     negative rho (up, down):  2.696E-06 0.000E+00

     total cpu time spent up to now is      302.9 secs

     total energy              =    -489.75479789 Ry
     estimated scf accuracy    <       0.00585836 Ry

     iteration #  5     ecut=   200.00 Ry     beta= 0.70
     Davidson diagonalization with overlap
     ethr =  2.25E-05,  avg # of iterations =  5.0

     negative rho (up, down):  2.668E-06 0.000E+00

     total cpu time spent up to now is      361.8 secs

     total energy              =    -489.75781340 Ry
     estimated scf accuracy    <       0.00808596 Ry

     iteration #  6     ecut=   200.00 Ry     beta= 0.70
     Davidson diagonalization with overlap
     ethr =  2.25E-05,  avg # of iterations =  1.8

     negative rho (up, down):  2.833E-06 0.000E+00

     total cpu time spent up to now is      399.1 secs

     total energy              =    -489.75722576 Ry
     estimated scf accuracy    <       0.00281272 Ry

     iteration #  7     ecut=   200.00 Ry     beta= 0.70
     Davidson diagonalization with overlap
     ethr =  1.08E-05,  avg # of iterations =  4.4

     negative rho (up, down):  3.163E-06 0.000E+00

     total cpu time spent up to now is      449.5 secs

     total energy              =    -489.75828623 Ry
     estimated scf accuracy    <       0.00034199 Ry

     iteration #  8     ecut=   200.00 Ry     beta= 0.70
     Davidson diagonalization with overlap
     ethr =  1.32E-06,  avg # of iterations =  5.5

     negative rho (up, down):  3.308E-06 0.000E+00

     total cpu time spent up to now is      507.5 secs

     total energy              =    -489.75807952 Ry
     estimated scf accuracy    <       0.00277614 Ry

     iteration #  9     ecut=   200.00 Ry     beta= 0.70
     Davidson diagonalization with overlap
     ethr =  1.32E-06,  avg # of iterations =  3.6

     negative rho (up, down):  3.502E-06 0.000E+00

     total cpu time spent up to now is      552.9 secs

     total energy              =    -489.75791261 Ry
     estimated scf accuracy    <       0.00103101 Ry

     iteration # 10     ecut=   200.00 Ry     beta= 0.70
     Davidson diagonalization with overlap
     ethr =  1.32E-06,  avg # of iterations =  4.3

     negative rho (up, down):  3.540E-06 0.000E+00

     total cpu time spent up to now is      604.0 secs

     total energy              =    -489.75804629 Ry
     estimated scf accuracy    <       0.00002129 Ry

     iteration # 11     ecut=   200.00 Ry     beta= 0.70
     Davidson diagonalization with overlap
     ethr =  8.19E-08,  avg # of iterations =  5.5

     negative rho (up, down):  3.561E-06 0.000E+00

     total cpu time spent up to now is      664.2 secs

     total energy              =    -489.75806498 Ry
     estimated scf accuracy    <       0.00001522 Ry

     iteration # 12     ecut=   200.00 Ry     beta= 0.70
     Davidson diagonalization with overlap
     ethr =  5.85E-08,  avg # of iterations =  1.4

     negative rho (up, down):  3.598E-06 0.000E+00

     total cpu time spent up to now is      699.3 secs

     total energy              =    -489.75805840 Ry
     estimated scf accuracy    <       0.00002272 Ry

     iteration # 13     ecut=   200.00 Ry     beta= 0.70
     Davidson diagonalization with overlap
     ethr =  5.85E-08,  avg # of iterations =  2.9

     negative rho (up, down):  3.609E-06 0.000E+00

     total cpu time spent up to now is      742.4 secs

     total energy              =    -489.75805928 Ry
     estimated scf accuracy    <       0.00000229 Ry

     iteration # 14     ecut=   200.00 Ry     beta= 0.70
     Davidson diagonalization with overlap
     ethr =  8.80E-09,  avg # of iterations =  5.8

     negative rho (up, down):  3.616E-06 0.000E+00

     total cpu time spent up to now is      806.4 secs

     total energy              =    -489.75806051 Ry
     estimated scf accuracy    <       0.00000735 Ry

     iteration # 15     ecut=   200.00 Ry     beta= 0.70
     Davidson diagonalization with overlap
     ethr =  8.80E-09,  avg # of iterations =  2.9

     negative rho (up, down):  3.620E-06 0.000E+00

     total cpu time spent up to now is      849.8 secs

     total energy              =    -489.75806043 Ry
     estimated scf accuracy    <       0.00000170 Ry

     iteration # 16     ecut=   200.00 Ry     beta= 0.70
     Davidson diagonalization with overlap
     ethr =  6.53E-09,  avg # of iterations =  4.4

     negative rho (up, down):  3.620E-06 0.000E+00

     total cpu time spent up to now is      899.4 secs

     total energy              =    -489.75806086 Ry
     estimated scf accuracy    <       0.00000006 Ry

     iteration # 17     ecut=   200.00 Ry     beta= 0.70
     Davidson diagonalization with overlap
     ethr =  2.47E-10,  avg # of iterations =  4.2

     negative rho (up, down):  3.621E-06 0.000E+00

     total cpu time spent up to now is      947.3 secs

     total energy              =    -489.75806087 Ry
     estimated scf accuracy    <       0.00000007 Ry

     iteration # 18     ecut=   200.00 Ry     beta= 0.70
     Davidson diagonalization with overlap
     ethr =  2.47E-10,  avg # of iterations =  1.3

     negative rho (up, down):  3.621E-06 0.000E+00

     total cpu time spent up to now is      981.8 secs

     total energy              =    -489.75806087 Ry
     estimated scf accuracy    <       0.00000005 Ry

     iteration # 19     ecut=   200.00 Ry     beta= 0.70
     Davidson diagonalization with overlap
     ethr =  1.88E-10,  avg # of iterations =  1.0

     negative rho (up, down):  3.621E-06 0.000E+00

     total cpu time spent up to now is     1015.4 secs

     total energy              =    -489.75806086 Ry
     estimated scf accuracy    <       0.00000004 Ry

     iteration # 20     ecut=   200.00 Ry     beta= 0.70
     Davidson diagonalization with overlap
     ethr =  1.62E-10,  avg # of iterations =  3.2

     negative rho (up, down):  3.621E-06 0.000E+00

     total cpu time spent up to now is     1057.9 secs

     total energy              =    -489.75806087 Ry
     estimated scf accuracy    <          1.9E-09 Ry

     iteration # 21     ecut=   200.00 Ry     beta= 0.70
     Davidson diagonalization with overlap
     ethr =  7.20E-12,  avg # of iterations =  4.9

     negative rho (up, down):  3.621E-06 0.000E+00

     total cpu time spent up to now is     1113.1 secs

     total energy              =    -489.75806087 Ry
     estimated scf accuracy    <          3.7E-11 Ry

     iteration # 22     ecut=   200.00 Ry     beta= 0.70
     Davidson diagonalization with overlap
     ethr =  1.42E-13,  avg # of iterations =  5.9

     negative rho (up, down):  3.621E-06 0.000E+00

     total cpu time spent up to now is     1180.9 secs

     total energy              =    -489.75806087 Ry
     estimated scf accuracy    <          2.1E-10 Ry

     iteration # 23     ecut=   200.00 Ry     beta= 0.70
     Davidson diagonalization with overlap
     ethr =  1.42E-13,  avg # of iterations =  4.3

     negative rho (up, down):  3.621E-06 0.000E+00

     total cpu time spent up to now is     1230.1 secs

     total energy              =    -489.75806087 Ry
     estimated scf accuracy    <          5.1E-10 Ry

     iteration # 24     ecut=   200.00 Ry     beta= 0.70
     Davidson diagonalization with overlap
     ethr =  1.42E-13,  avg # of iterations =  7.8

     negative rho (up, down):  3.622E-06 0.000E+00

     total cpu time spent up to now is     1314.6 secs

     total energy              =    -489.75806087 Ry
     estimated scf accuracy    <          5.1E-09 Ry

     iteration # 25     ecut=   200.00 Ry     beta= 0.70
     Davidson diagonalization with overlap
     ethr =  1.42E-13,  avg # of iterations =  6.7

     negative rho (up, down):  3.621E-06 0.000E+00

     total cpu time spent up to now is     1388.5 secs

     total energy              =    -489.75806087 Ry
     estimated scf accuracy    <       0.00000001 Ry

     iteration # 26     ecut=   200.00 Ry     beta= 0.70
     Davidson diagonalization with overlap
     ethr =  1.42E-13,  avg # of iterations =  8.5

     negative rho (up, down):  3.621E-06 0.000E+00

     total cpu time spent up to now is     1481.2 secs

     total energy              =    -489.75806087 Ry
     estimated scf accuracy    <          1.3E-09 Ry

     iteration # 27     ecut=   200.00 Ry     beta= 0.70
     Davidson diagonalization with overlap
     ethr =  1.42E-13,  avg # of iterations =  4.8

     negative rho (up, down):  3.621E-06 0.000E+00

     total cpu time spent up to now is     1534.8 secs

     total energy              =    -489.75806087 Ry
     estimated scf accuracy    <          5.1E-10 Ry

     iteration # 28     ecut=   200.00 Ry     beta= 0.70
     Davidson diagonalization with overlap
     ethr =  1.42E-13,  avg # of iterations =  5.0

     negative rho (up, down):  3.621E-06 0.000E+00

     total cpu time spent up to now is     1589.0 secs

     total energy              =    -489.75806087 Ry
     estimated scf accuracy    <          1.5E-10 Ry

     iteration # 29     ecut=   200.00 Ry     beta= 0.70
     Davidson diagonalization with overlap
     ethr =  1.42E-13,  avg # of iterations =  4.7

     negative rho (up, down):  3.621E-06 0.000E+00

     total cpu time spent up to now is     1641.3 secs

     total energy              =    -489.75806087 Ry
     estimated scf accuracy    <          7.3E-12 Ry

     iteration # 30     ecut=   200.00 Ry     beta= 0.70
     Davidson diagonalization with overlap
     ethr =  1.00E-13,  avg # of iterations =  2.6

     negative rho (up, down):  3.621E-06 0.000E+00

     total cpu time spent up to now is     1681.8 secs

     End of self-consistent calculation

     Number of k-points >= 100: set verbosity='high' to print the bands.

     highest occupied level (ev):     0.3486

!    total energy              =    -489.75806087 Ry

     total all-electron energy =     -9688.215906 Ry
     estimated scf accuracy    <          9.0E-15 Ry

     The total energy is the sum of the following terms:
     one-electron contribution =    -813.90679102 Ry
     hartree contribution      =     410.77446275 Ry
     xc contribution           =     -29.52473869 Ry
     ewald contribution        =     255.78841210 Ry
     one-center paw contrib.   =    -312.88940601 Ry

     convergence has been achieved in  30 iterations

     negative rho (up, down):  3.621E-06 0.000E+00

     Forces acting on atoms (cartesian axes, Ry/au):

     atom    1 type  1   force =     0.00026874    0.00012900   -0.00000061
     atom    2 type  2   force =    -0.00013437   -0.00006450   -0.00032858
     atom    3 type  2   force =    -0.00013437   -0.00006450    0.00032918

     Total force =     0.000591     Total SCF correction =     0.000000


     Computing stress (Cartesian axis) and pressure


     negative rho (up, down):  3.621E-06 0.000E+00
          total   stress  (Ry/bohr**3)                   (kbar)     P=        0.69
   0.00000967  -0.00000085  -0.00000000            1.42       -0.13       -0.00
  -0.00000085   0.00000653  -0.00000000           -0.13        0.96       -0.00
  -0.00000000  -0.00000000  -0.00000215           -0.00       -0.00       -0.32


     Writing output data file /scratch/as3359/Ta2C_ct_kpts/MoS2.save/
 
     init_run     :     50.57s CPU     27.33s WALL (       1 calls)
     electrons    :   3258.41s CPU   1654.43s WALL (       1 calls)
     forces       :     13.37s CPU      6.84s WALL (       1 calls)
     stress       :     46.28s CPU     23.61s WALL (       1 calls)

     Called by init_run:
     wfcinit      :     40.15s CPU     20.51s WALL (       1 calls)
     potinit      :      3.10s CPU      1.61s WALL (       1 calls)
     hinit0       :      5.92s CPU      4.29s WALL (       1 calls)

     Called by electrons:
     c_bands      :   2812.68s CPU   1422.26s WALL (      30 calls)
     sum_band     :    405.33s CPU    207.70s WALL (      30 calls)
     v_of_rho     :     10.78s CPU      6.02s WALL (      31 calls)
     newd         :     18.94s CPU     12.38s WALL (      31 calls)
     PAW_pot      :      5.86s CPU      3.06s WALL (      31 calls)
     mix_rho      :      4.21s CPU      2.55s WALL (      30 calls)

     Called by c_bands:
     init_us_2    :     80.44s CPU     40.28s WALL (   12726 calls)
     cegterg      :   2683.02s CPU   1356.16s WALL (    6060 calls)

     Called by *egterg:
     cdiaghg      :     13.67s CPU      6.97s WALL (   33347 calls)
     h_psi        :   2316.32s CPU   1172.03s WALL (   33549 calls)
     s_psi        :     80.09s CPU     40.18s WALL (   33549 calls)
     g_psi        :     16.37s CPU      8.24s WALL (   27287 calls)

     Called by h_psi:
     h_psi:calbec :     66.23s CPU     33.28s WALL (   33549 calls)
     vloc_psi     :   2127.99s CPU   1077.48s WALL (   33549 calls)
     add_vuspsi   :    105.56s CPU     52.91s WALL (   33549 calls)

     General routines
     calbec       :     83.10s CPU     41.78s WALL (   40619 calls)
     fft          :      5.94s CPU      3.31s WALL (     426 calls)
     ffts         :      0.59s CPU      0.31s WALL (      61 calls)
     fftw         :   2095.09s CPU   1061.78s WALL (  618838 calls)
     interpolate  :      1.05s CPU      0.62s WALL (      31 calls)
 
     Parallel routines
 
     PWSCF        :  56m16.09s CPU  28m39.16s WALL

 
   This run was terminated on:  14:41: 9   7Apr2022            

=------------------------------------------------------------------------------=
   JOB DONE.
=------------------------------------------------------------------------------=
