
     Program PWSCF v.6.8 starts on  7Apr2022 at 12:33:45 

     This program is part of the open-source Quantum ESPRESSO suite
     for quantum simulation of materials; please cite
         "P. Giannozzi et al., J. Phys.:Condens. Matter 21 395502 (2009);
         "P. Giannozzi et al., J. Phys.:Condens. Matter 29 465901 (2017);
         "P. Giannozzi et al., J. Chem. Phys. 152 154105 (2020);
          URL http://www.quantum-espresso.org", 
     in publications or presentations arising from this work. More details at
     http://www.quantum-espresso.org/quote

     Parallel version (MPI & OpenMP), running on       4 processor cores
     Number of MPI processes:                 2
     Threads/MPI process:                     2

     MPI processes distributed on     1 nodes
     R & G space division:  proc/nbgrp/npool/nimage =       2
     125207 MiB available memory on the printing compute node when the environment starts
 
     Reading input from MoS2.scf.14.in
Warning: card  &CELL ignored
Warning: card     CELL_DYNAMICS='BFGS' ignored
Warning: card  / ignored

     Current dimensions of program PWSCF are:
     Max number of different atomic species (ntypx) = 10
     Max number of k-points (npk) =  40000
     Max angular momentum in pseudopotentials (lmaxx) =  4
     Message from routine iosys:
     restart disabled: needed files not found
     file Mo.pbesol-spn-kjpaw_psl.1.0.0.UPF: wavefunction(s)  4S 4D renormalized
     file S.pbesol-nl-kjpaw_psl.1.0.0.UPF: wavefunction(s)  3S renormalized

     Subspace diagonalization in iterative solution of the eigenvalue problem:
     a serial algorithm will be used

 
     Parallelization info
     --------------------
     sticks:   dense  smooth     PW     G-vecs:    dense   smooth      PW
     Min        1203     972    279               246775   176770   27455
     Max        1204     973    280               246804   176787   27474
     Sum        2407    1945    559               493579   353557   54929
 
     Using Slab Decomposition
 


     bravais-lattice index     =            0
     lattice parameter (alat)  =       6.0720  a.u.
     unit-cell volume          =     924.7995 (a.u.)^3
     number of atoms/cell      =            3
     number of atomic types    =            2
     number of electrons       =        26.00
     number of Kohn-Sham states=           13
     kinetic-energy cutoff     =     200.0000  Ry
     charge density cutoff     =    1000.0000  Ry
     scf convergence threshold =      1.0E-12
     mixing beta               =       0.7000
     number of iterations used =            8  plain     mixing
     Exchange-correlation= SLA  PW   PSX  PSC
                           (   1   4  10   8   0   0   0)

     celldm(1)=   6.072000  celldm(2)=   0.000000  celldm(3)=   0.000000
     celldm(4)=   0.000000  celldm(5)=   0.000000  celldm(6)=   0.000000

     crystal axes: (cart. coord. in units of alat)
               a(1) = (   0.976384  -0.000017   0.000000 )  
               a(2) = (  -0.487931   0.846187   0.000000 )  
               a(3) = (   0.000000   0.000000   5.000000 )  

     reciprocal axes: (cart. coord. in units 2 pi/alat)
               b(1) = (  1.024198  0.590577  0.000000 )  
               b(2) = (  0.000021  1.181785  0.000000 )  
               b(3) = (  0.000000  0.000000  0.200000 )  


     PseudoPot. # 1 for Mo read from file:
     /shared/home/as3359/pseudo/Mo.pbesol-spn-kjpaw_psl.1.0.0.UPF
     MD5 check sum: de57925cfc675213e43241dcc441eda8
     Pseudo is Projector augmented-wave + core cor, Zval = 14.0
     Generated using &quot;atomic&quot; code by A. Dal Corso  v.6.3
     Shape of augmentation charge: PSQ
     Using radial grid of 1229 points,  6 beta functions with: 
                l(1) =   0
                l(2) =   0
                l(3) =   1
                l(4) =   1
                l(5) =   2
                l(6) =   2
     Q(r) pseudized with 0 coefficients 


     PseudoPot. # 2 for S  read from file:
     /shared/home/as3359/pseudo/S.pbesol-nl-kjpaw_psl.1.0.0.UPF
     MD5 check sum: bf3db50ec3f960682bbc396f1aadd1dd
     Pseudo is Projector augmented-wave + core cor, Zval =  6.0
     Generated using &quot;atomic&quot; code by A. Dal Corso  v.6.3
     Shape of augmentation charge: PSQ
     Using radial grid of 1151 points,  4 beta functions with: 
                l(1) =   0
                l(2) =   0
                l(3) =   1
                l(4) =   1
     Q(r) pseudized with 0 coefficients 


     atomic species   valence    mass     pseudopotential
        Mo            14.00    95.94000     Mo( 1.00)
        S              6.00    32.06500     S ( 1.00)

     No symmetry found



   Cartesian axes

     site n.     atom                  positions (alat units)
         1           Mo  tau(   1) = (   0.0000000   0.0000000   1.6880765  )
         2           S   tau(   2) = (   0.4883508   0.2821722   2.1737857  )
         3           S   tau(   3) = (   0.4883508   0.2821722   1.2023670  )

     number of k points=   100

     Number of k-points >= 100: set verbosity='high' to print them.

     Dense  grid:   493579 G-vectors     FFT dimensions: (  60,  60, 320)

     Smooth grid:   353557 G-vectors     FFT dimensions: (  54,  54, 288)

     Estimated max dynamical RAM per process >       1.33 GB

     Estimated total dynamical RAM >       2.67 GB
     Cannot read rho : file not found

     Initial potential from superposition of free atoms

     starting charge   25.99914, renormalised to   26.00000

     negative rho (up, down):  7.764E-05 0.000E+00
     Message from routine qexsd_readschema :
     xml data file /scratch/as3359/Ta2C_ct_kpts/MoS2.save/data-file-schema.xml not fo
     Cannot read wfcs: file not found
     Starting wfcs are   18 randomized atomic wfcs
     Checking if some PAW data can be deallocated... 

     total cpu time spent up to now is       17.6 secs

     Self-consistent Calculation

     iteration #  1     ecut=   200.00 Ry     beta= 0.70
     Davidson diagonalization with overlap
     ethr =  1.00E-05,  avg # of iterations = 10.4

     negative rho (up, down):  2.440E-05 0.000E+00

     total cpu time spent up to now is       81.3 secs

     total energy              =    -489.68934056 Ry
     estimated scf accuracy    <       0.15087570 Ry

     iteration #  2     ecut=   200.00 Ry     beta= 0.70
     Davidson diagonalization with overlap
     ethr =  5.80E-04,  avg # of iterations =  5.0

     negative rho (up, down):  7.745E-06 0.000E+00

     total cpu time spent up to now is      114.1 secs

     total energy              =    -489.64699849 Ry
     estimated scf accuracy    <       0.56491602 Ry

     iteration #  3     ecut=   200.00 Ry     beta= 0.70
     Davidson diagonalization with overlap
     ethr =  5.80E-04,  avg # of iterations =  5.1

     negative rho (up, down):  3.433E-06 0.000E+00

     total cpu time spent up to now is      146.1 secs

     total energy              =    -489.75172439 Ry
     estimated scf accuracy    <       0.04665482 Ry

     iteration #  4     ecut=   200.00 Ry     beta= 0.70
     Davidson diagonalization with overlap
     ethr =  1.79E-04,  avg # of iterations =  2.5

     negative rho (up, down):  2.476E-06 0.000E+00

     total cpu time spent up to now is      169.5 secs

     total energy              =    -489.75484297 Ry
     estimated scf accuracy    <       0.00544399 Ry

     iteration #  5     ecut=   200.00 Ry     beta= 0.70
     Davidson diagonalization with overlap
     ethr =  2.09E-05,  avg # of iterations =  5.3

     negative rho (up, down):  2.542E-06 0.000E+00

     total cpu time spent up to now is      203.0 secs

     total energy              =    -489.75790373 Ry
     estimated scf accuracy    <       0.00833496 Ry

     iteration #  6     ecut=   200.00 Ry     beta= 0.70
     Davidson diagonalization with overlap
     ethr =  2.09E-05,  avg # of iterations =  1.8

     negative rho (up, down):  2.850E-06 0.000E+00

     total cpu time spent up to now is      223.6 secs

     total energy              =    -489.75718946 Ry
     estimated scf accuracy    <       0.00321223 Ry

     iteration #  7     ecut=   200.00 Ry     beta= 0.70
     Davidson diagonalization with overlap
     ethr =  1.24E-05,  avg # of iterations =  4.3

     negative rho (up, down):  3.247E-06 0.000E+00

     total cpu time spent up to now is      251.0 secs

     total energy              =    -489.75820704 Ry
     estimated scf accuracy    <       0.00020529 Ry

     iteration #  8     ecut=   200.00 Ry     beta= 0.70
     Davidson diagonalization with overlap
     ethr =  7.90E-07,  avg # of iterations =  5.9

     negative rho (up, down):  3.325E-06 0.000E+00

     total cpu time spent up to now is      288.8 secs

     total energy              =    -489.75799281 Ry
     estimated scf accuracy    <       0.00280101 Ry

     iteration #  9     ecut=   200.00 Ry     beta= 0.70
     Davidson diagonalization with overlap
     ethr =  7.90E-07,  avg # of iterations =  4.2

     negative rho (up, down):  3.536E-06 0.000E+00

     total cpu time spent up to now is      317.8 secs

     total energy              =    -489.75797326 Ry
     estimated scf accuracy    <       0.00065037 Ry

     iteration # 10     ecut=   200.00 Ry     beta= 0.70
     Davidson diagonalization with overlap
     ethr =  7.90E-07,  avg # of iterations =  4.5

     negative rho (up, down):  3.557E-06 0.000E+00

     total cpu time spent up to now is      347.3 secs

     total energy              =    -489.75805056 Ry
     estimated scf accuracy    <       0.00002081 Ry

     iteration # 11     ecut=   200.00 Ry     beta= 0.70
     Davidson diagonalization with overlap
     ethr =  8.00E-08,  avg # of iterations =  5.0

     negative rho (up, down):  3.570E-06 0.000E+00

     total cpu time spent up to now is      379.2 secs

     total energy              =    -489.75806229 Ry
     estimated scf accuracy    <       0.00000373 Ry

     iteration # 12     ecut=   200.00 Ry     beta= 0.70
     Davidson diagonalization with overlap
     ethr =  1.43E-08,  avg # of iterations =  4.8

     negative rho (up, down):  3.605E-06 0.000E+00

     total cpu time spent up to now is      407.8 secs

     total energy              =    -489.75805890 Ry
     estimated scf accuracy    <       0.00001522 Ry

     iteration # 13     ecut=   200.00 Ry     beta= 0.70
     Davidson diagonalization with overlap
     ethr =  1.43E-08,  avg # of iterations =  4.2

     negative rho (up, down):  3.622E-06 0.000E+00

     total cpu time spent up to now is      436.5 secs

     total energy              =    -489.75806047 Ry
     estimated scf accuracy    <       0.00000030 Ry

     iteration # 14     ecut=   200.00 Ry     beta= 0.70
     Davidson diagonalization with overlap
     ethr =  1.15E-09,  avg # of iterations =  8.0

     negative rho (up, down):  3.621E-06 0.000E+00

     total cpu time spent up to now is      485.5 secs

     total energy              =    -489.75805941 Ry
     estimated scf accuracy    <       0.00001016 Ry

     iteration # 15     ecut=   200.00 Ry     beta= 0.70
     Davidson diagonalization with overlap
     ethr =  1.15E-09,  avg # of iterations =  7.3

     negative rho (up, down):  3.621E-06 0.000E+00

     total cpu time spent up to now is      528.7 secs

     total energy              =    -489.75806085 Ry
     estimated scf accuracy    <       0.00000002 Ry

     iteration # 16     ecut=   200.00 Ry     beta= 0.70
     Davidson diagonalization with overlap
     ethr =  8.27E-11,  avg # of iterations =  6.6

     negative rho (up, down):  3.622E-06 0.000E+00

     total cpu time spent up to now is      569.6 secs

     total energy              =    -489.75806075 Ry
     estimated scf accuracy    <       0.00000057 Ry

     iteration # 17     ecut=   200.00 Ry     beta= 0.70
     Davidson diagonalization with overlap
     ethr =  8.27E-11,  avg # of iterations =  6.7

     negative rho (up, down):  3.621E-06 0.000E+00

     total cpu time spent up to now is      610.7 secs

     total energy              =    -489.75806082 Ry
     estimated scf accuracy    <          3.7E-10 Ry

     iteration # 18     ecut=   200.00 Ry     beta= 0.70
     Davidson diagonalization with overlap
     ethr =  1.41E-12,  avg # of iterations =  5.9

     negative rho (up, down):  3.621E-06 0.000E+00

     total cpu time spent up to now is      646.1 secs

     total energy              =    -489.75806082 Ry
     estimated scf accuracy    <          2.2E-10 Ry

     iteration # 19     ecut=   200.00 Ry     beta= 0.70
     Davidson diagonalization with overlap
     ethr =  8.64E-13,  avg # of iterations =  1.1

     negative rho (up, down):  3.621E-06 0.000E+00

     total cpu time spent up to now is      665.7 secs

     total energy              =    -489.75806082 Ry
     estimated scf accuracy    <          2.6E-10 Ry

     iteration # 20     ecut=   200.00 Ry     beta= 0.70
     Davidson diagonalization with overlap
     ethr =  8.64E-13,  avg # of iterations =  1.0

     negative rho (up, down):  3.621E-06 0.000E+00

     total cpu time spent up to now is      685.2 secs

     total energy              =    -489.75806082 Ry
     estimated scf accuracy    <          1.4E-10 Ry

     iteration # 21     ecut=   200.00 Ry     beta= 0.70
     Davidson diagonalization with overlap
     ethr =  5.35E-13,  avg # of iterations =  1.1

     negative rho (up, down):  3.621E-06 0.000E+00

     total cpu time spent up to now is      705.0 secs

     total energy              =    -489.75806082 Ry
     estimated scf accuracy    <          7.9E-11 Ry

     iteration # 22     ecut=   200.00 Ry     beta= 0.70
     Davidson diagonalization with overlap
     ethr =  3.05E-13,  avg # of iterations =  3.0

     negative rho (up, down):  3.621E-06 0.000E+00

     total cpu time spent up to now is      727.8 secs

     total energy              =    -489.75806082 Ry
     estimated scf accuracy    <          2.1E-11 Ry

     iteration # 23     ecut=   200.00 Ry     beta= 0.70
     Davidson diagonalization with overlap
     ethr =  1.00E-13,  avg # of iterations =  4.6

     negative rho (up, down):  3.621E-06 0.000E+00

     total cpu time spent up to now is      758.3 secs

     total energy              =    -489.75806082 Ry
     estimated scf accuracy    <          3.9E-12 Ry

     iteration # 24     ecut=   200.00 Ry     beta= 0.70
     Davidson diagonalization with overlap
     ethr =  1.00E-13,  avg # of iterations =  1.0

     negative rho (up, down):  3.621E-06 0.000E+00

     total cpu time spent up to now is      777.8 secs

     total energy              =    -489.75806082 Ry
     estimated scf accuracy    <          3.7E-12 Ry

     iteration # 25     ecut=   200.00 Ry     beta= 0.70
     Davidson diagonalization with overlap
     ethr =  1.00E-13,  avg # of iterations =  1.0

     negative rho (up, down):  3.621E-06 0.000E+00

     total cpu time spent up to now is      797.1 secs

     total energy              =    -489.75806082 Ry
     estimated scf accuracy    <          1.2E-12 Ry

     iteration # 26     ecut=   200.00 Ry     beta= 0.70
     Davidson diagonalization with overlap
     ethr =  1.00E-13,  avg # of iterations =  1.0

     negative rho (up, down):  3.621E-06 0.000E+00

     total cpu time spent up to now is      816.4 secs

     End of self-consistent calculation

     Number of k-points >= 100: set verbosity='high' to print the bands.

     highest occupied level (ev):     0.3237

!    total energy              =    -489.75806082 Ry

     total all-electron energy =     -9688.215906 Ry
     estimated scf accuracy    <          4.5E-13 Ry

     The total energy is the sum of the following terms:
     one-electron contribution =    -813.90678128 Ry
     hartree contribution      =     410.77445285 Ry
     xc contribution           =     -29.52473851 Ry
     ewald contribution        =     255.78841210 Ry
     one-center paw contrib.   =    -312.88940599 Ry

     convergence has been achieved in  26 iterations

     negative rho (up, down):  3.621E-06 0.000E+00

     Forces acting on atoms (cartesian axes, Ry/au):

     atom    1 type  1   force =     0.00026875    0.00012900   -0.00000062
     atom    2 type  2   force =    -0.00013437   -0.00006450   -0.00032840
     atom    3 type  2   force =    -0.00013437   -0.00006450    0.00032901

     Total force =     0.000591     Total SCF correction =     0.000002


     Computing stress (Cartesian axis) and pressure


     negative rho (up, down):  3.621E-06 0.000E+00
          total   stress  (Ry/bohr**3)                   (kbar)     P=        0.69
   0.00000967  -0.00000085  -0.00000000            1.42       -0.13       -0.00
  -0.00000085   0.00000653  -0.00000000           -0.13        0.96       -0.00
  -0.00000000  -0.00000000  -0.00000215           -0.00       -0.00       -0.32


     Writing output data file /scratch/as3359/Ta2C_ct_kpts/MoS2.save/
 
     init_run     :     31.42s CPU     17.40s WALL (       1 calls)
     electrons    :   1568.99s CPU    798.95s WALL (       1 calls)
     forces       :     10.41s CPU      5.33s WALL (       1 calls)
     stress       :     31.74s CPU     16.28s WALL (       1 calls)

     Called by init_run:
     wfcinit      :     20.95s CPU     10.71s WALL (       1 calls)
     potinit      :      3.16s CPU      1.62s WALL (       1 calls)
     hinit0       :      6.00s CPU      4.32s WALL (       1 calls)

     Called by electrons:
     c_bands      :   1332.17s CPU    673.33s WALL (      26 calls)
     sum_band     :    198.07s CPU    102.45s WALL (      26 calls)
     v_of_rho     :     10.57s CPU      5.87s WALL (      27 calls)
     newd         :     18.45s CPU     11.88s WALL (      27 calls)
     PAW_pot      :      5.28s CPU      2.77s WALL (      27 calls)
     mix_rho      :      4.09s CPU      2.43s WALL (      26 calls)

     Called by c_bands:
     init_us_2    :     38.99s CPU     19.52s WALL (    5500 calls)
     cegterg      :   1269.85s CPU    641.74s WALL (    2600 calls)

     Called by *egterg:
     cdiaghg      :      6.11s CPU      3.12s WALL (   13747 calls)
     h_psi        :   1083.97s CPU    548.37s WALL (   13847 calls)
     s_psi        :     42.61s CPU     21.35s WALL (   13847 calls)
     g_psi        :      7.30s CPU      3.67s WALL (   11147 calls)

     Called by h_psi:
     h_psi:calbec :     34.95s CPU     17.56s WALL (   13847 calls)
     vloc_psi     :    984.89s CPU    498.64s WALL (   13847 calls)
     add_vuspsi   :     55.42s CPU     27.77s WALL (   13847 calls)

     General routines
     calbec       :     44.08s CPU     22.16s WALL (   16947 calls)
     fft          :      5.90s CPU      3.28s WALL (     374 calls)
     ffts         :      0.61s CPU      0.32s WALL (      53 calls)
     fftw         :    948.17s CPU    480.51s WALL (  264632 calls)
     interpolate  :      1.05s CPU      0.61s WALL (      27 calls)
 
     Parallel routines
 
     PWSCF        :  27m26.50s CPU  14m 1.54s WALL

 
   This run was terminated on:  12:47:47   7Apr2022            

=------------------------------------------------------------------------------=
   JOB DONE.
=------------------------------------------------------------------------------=
