
     Program PWSCF v.6.8 starts on  7Apr2022 at 12: 8:14 

     This program is part of the open-source Quantum ESPRESSO suite
     for quantum simulation of materials; please cite
         "P. Giannozzi et al., J. Phys.:Condens. Matter 21 395502 (2009);
         "P. Giannozzi et al., J. Phys.:Condens. Matter 29 465901 (2017);
         "P. Giannozzi et al., J. Chem. Phys. 152 154105 (2020);
          URL http://www.quantum-espresso.org", 
     in publications or presentations arising from this work. More details at
     http://www.quantum-espresso.org/quote

     Parallel version (MPI & OpenMP), running on       4 processor cores
     Number of MPI processes:                 2
     Threads/MPI process:                     2

     MPI processes distributed on     1 nodes
     R & G space division:  proc/nbgrp/npool/nimage =       2
     125258 MiB available memory on the printing compute node when the environment starts
 
     Reading input from MoS2.scf.8.in
Warning: card  &CELL ignored
Warning: card     CELL_DYNAMICS='BFGS' ignored
Warning: card  / ignored

     Current dimensions of program PWSCF are:
     Max number of different atomic species (ntypx) = 10
     Max number of k-points (npk) =  40000
     Max angular momentum in pseudopotentials (lmaxx) =  4
     file Mo.pbesol-spn-kjpaw_psl.1.0.0.UPF: wavefunction(s)  4S 4D renormalized
     file S.pbesol-nl-kjpaw_psl.1.0.0.UPF: wavefunction(s)  3S renormalized

     Subspace diagonalization in iterative solution of the eigenvalue problem:
     a serial algorithm will be used

 
     Parallelization info
     --------------------
     sticks:   dense  smooth     PW     G-vecs:    dense   smooth      PW
     Min        1203     972    279               246775   176770   27455
     Max        1204     973    280               246804   176787   27474
     Sum        2407    1945    559               493579   353557   54929
 
     Using Slab Decomposition
 


     bravais-lattice index     =            0
     lattice parameter (alat)  =       6.0720  a.u.
     unit-cell volume          =     924.7995 (a.u.)^3
     number of atoms/cell      =            3
     number of atomic types    =            2
     number of electrons       =        26.00
     number of Kohn-Sham states=           13
     kinetic-energy cutoff     =     200.0000  Ry
     charge density cutoff     =    1000.0000  Ry
     scf convergence threshold =      1.0E-12
     mixing beta               =       0.7000
     number of iterations used =            8  plain     mixing
     Exchange-correlation= SLA  PW   PSX  PSC
                           (   1   4  10   8   0   0   0)

     celldm(1)=   6.072000  celldm(2)=   0.000000  celldm(3)=   0.000000
     celldm(4)=   0.000000  celldm(5)=   0.000000  celldm(6)=   0.000000

     crystal axes: (cart. coord. in units of alat)
               a(1) = (   0.976384  -0.000017   0.000000 )  
               a(2) = (  -0.487931   0.846187   0.000000 )  
               a(3) = (   0.000000   0.000000   5.000000 )  

     reciprocal axes: (cart. coord. in units 2 pi/alat)
               b(1) = (  1.024198  0.590577  0.000000 )  
               b(2) = (  0.000021  1.181785  0.000000 )  
               b(3) = (  0.000000  0.000000  0.200000 )  


     PseudoPot. # 1 for Mo read from file:
     /shared/home/as3359/pseudo/Mo.pbesol-spn-kjpaw_psl.1.0.0.UPF
     MD5 check sum: de57925cfc675213e43241dcc441eda8
     Pseudo is Projector augmented-wave + core cor, Zval = 14.0
     Generated using &quot;atomic&quot; code by A. Dal Corso  v.6.3
     Shape of augmentation charge: PSQ
     Using radial grid of 1229 points,  6 beta functions with: 
                l(1) =   0
                l(2) =   0
                l(3) =   1
                l(4) =   1
                l(5) =   2
                l(6) =   2
     Q(r) pseudized with 0 coefficients 


     PseudoPot. # 2 for S  read from file:
     /shared/home/as3359/pseudo/S.pbesol-nl-kjpaw_psl.1.0.0.UPF
     MD5 check sum: bf3db50ec3f960682bbc396f1aadd1dd
     Pseudo is Projector augmented-wave + core cor, Zval =  6.0
     Generated using &quot;atomic&quot; code by A. Dal Corso  v.6.3
     Shape of augmentation charge: PSQ
     Using radial grid of 1151 points,  4 beta functions with: 
                l(1) =   0
                l(2) =   0
                l(3) =   1
                l(4) =   1
     Q(r) pseudized with 0 coefficients 


     atomic species   valence    mass     pseudopotential
        Mo            14.00    95.94000     Mo( 1.00)
        S              6.00    32.06500     S ( 1.00)

     No symmetry found



   Cartesian axes

     site n.     atom                  positions (alat units)
         1           Mo  tau(   1) = (   0.0000000   0.0000000   1.6880765  )
         2           S   tau(   2) = (   0.4883508   0.2821722   2.1737857  )
         3           S   tau(   3) = (   0.4883508   0.2821722   1.2023670  )

     number of k points=    34
                       cart. coord. in units 2pi/alat
        k(    1) = (   0.0000000   0.0000000   0.0000000), wk =   0.0312500
        k(    2) = (   0.0000026   0.1477231   0.0000000), wk =   0.0625000
        k(    3) = (   0.0000052   0.2954461   0.0000000), wk =   0.0625000
        k(    4) = (   0.0000078   0.4431692   0.0000000), wk =   0.0625000
        k(    5) = (  -0.0000105  -0.5908923   0.0000000), wk =   0.0312500
        k(    6) = (   0.1280247   0.0738221   0.0000000), wk =   0.0625000
        k(    7) = (   0.1280273   0.2215451   0.0000000), wk =   0.0625000
        k(    8) = (   0.1280299   0.3692682   0.0000000), wk =   0.0625000
        k(    9) = (   0.1280326   0.5169913   0.0000000), wk =   0.0625000
        k(   10) = (   0.1280143  -0.5170702   0.0000000), wk =   0.0625000
        k(   11) = (   0.1280169  -0.3693471   0.0000000), wk =   0.0625000
        k(   12) = (   0.1280195  -0.2216240   0.0000000), wk =   0.0625000
        k(   13) = (   0.1280221  -0.0739010   0.0000000), wk =   0.0625000
        k(   14) = (   0.2560494   0.1476442   0.0000000), wk =   0.0625000
        k(   15) = (   0.2560521   0.2953672   0.0000000), wk =   0.0625000
        k(   16) = (   0.2560547   0.4430903   0.0000000), wk =   0.0625000
        k(   17) = (   0.2560573   0.5908134   0.0000000), wk =   0.0625000
        k(   18) = (   0.2560390  -0.4432481   0.0000000), wk =   0.0625000
        k(   19) = (   0.2560416  -0.2955250   0.0000000), wk =   0.0625000
        k(   20) = (   0.2560442  -0.1478020   0.0000000), wk =   0.0625000
        k(   21) = (   0.2560468  -0.0000789   0.0000000), wk =   0.0625000
        k(   22) = (   0.3840742   0.2214662   0.0000000), wk =   0.0625000
        k(   23) = (   0.3840768   0.3691893   0.0000000), wk =   0.0625000
        k(   24) = (   0.3840794   0.5169124   0.0000000), wk =   0.0625000
        k(   25) = (   0.3840820   0.6646354   0.0000000), wk =   0.0625000
        k(   26) = (   0.3840637  -0.3694260   0.0000000), wk =   0.0625000
        k(   27) = (   0.3840663  -0.2217030   0.0000000), wk =   0.0625000
        k(   28) = (   0.3840689  -0.0739799   0.0000000), wk =   0.0625000
        k(   29) = (   0.3840716   0.0737432   0.0000000), wk =   0.0625000
        k(   30) = (  -0.5120989  -0.2952883   0.0000000), wk =   0.0312500
        k(   31) = (  -0.5120963  -0.1475653   0.0000000), wk =   0.0625000
        k(   32) = (  -0.5120937   0.0001578   0.0000000), wk =   0.0625000
        k(   33) = (  -0.5120910   0.1478809   0.0000000), wk =   0.0625000
        k(   34) = (  -0.5121093  -0.8861806   0.0000000), wk =   0.0312500

     Dense  grid:   493579 G-vectors     FFT dimensions: (  60,  60, 320)

     Smooth grid:   353557 G-vectors     FFT dimensions: (  54,  54, 288)

     Estimated max dynamical RAM per process >       1.05 GB

     Estimated total dynamical RAM >       2.10 GB

     Atomic positions and unit cell read from directory:
     /scratch/as3359/Ta2C_ct_kpts/MoS2.save/
     Message from routine qexsd_readschema :
     xml data file /scratch/as3359/Ta2C_ct_kpts/MoS2.save/data-file-schema.xml not fo
     Nothing found: using input atomic positions and unit cell

     Cannot read rho : file not found

     Initial potential from superposition of free atoms

     starting charge   25.99914, renormalised to   26.00000

     negative rho (up, down):  7.764E-05 0.000E+00
     Message from routine qexsd_readschema :
     xml data file /scratch/as3359/Ta2C_ct_kpts/MoS2.save/data-file-schema.xml not fo
     Cannot read wfcs: file not found
     Starting wfcs are   18 randomized atomic wfcs
     Checking if some PAW data can be deallocated... 

     total cpu time spent up to now is       10.7 secs

     Self-consistent Calculation

     iteration #  1     ecut=   200.00 Ry     beta= 0.70
     Davidson diagonalization with overlap
     ethr =  1.00E-05,  avg # of iterations = 10.4

     negative rho (up, down):  2.442E-05 0.000E+00

     total cpu time spent up to now is       33.2 secs

     total energy              =    -489.68928185 Ry
     estimated scf accuracy    <       0.15093404 Ry

     iteration #  2     ecut=   200.00 Ry     beta= 0.70
     Davidson diagonalization with overlap
     ethr =  5.81E-04,  avg # of iterations =  5.1

     negative rho (up, down):  7.851E-06 0.000E+00

     total cpu time spent up to now is       45.0 secs

     total energy              =    -489.64903837 Ry
     estimated scf accuracy    <       0.55440472 Ry

     iteration #  3     ecut=   200.00 Ry     beta= 0.70
     Davidson diagonalization with overlap
     ethr =  5.81E-04,  avg # of iterations =  5.1

     negative rho (up, down):  3.521E-06 0.000E+00

     total cpu time spent up to now is       56.7 secs

     total energy              =    -489.75247814 Ry
     estimated scf accuracy    <       0.04238440 Ry

     iteration #  4     ecut=   200.00 Ry     beta= 0.70
     Davidson diagonalization with overlap
     ethr =  1.63E-04,  avg # of iterations =  2.3

     negative rho (up, down):  2.666E-06 0.000E+00

     total cpu time spent up to now is       65.3 secs

     total energy              =    -489.75466806 Ry
     estimated scf accuracy    <       0.00589926 Ry

     iteration #  5     ecut=   200.00 Ry     beta= 0.70
     Davidson diagonalization with overlap
     ethr =  2.27E-05,  avg # of iterations =  5.0

     negative rho (up, down):  2.637E-06 0.000E+00

     total cpu time spent up to now is       77.8 secs

     total energy              =    -489.75797893 Ry
     estimated scf accuracy    <       0.00931873 Ry

     iteration #  6     ecut=   200.00 Ry     beta= 0.70
     Davidson diagonalization with overlap
     ethr =  2.27E-05,  avg # of iterations =  1.7

     negative rho (up, down):  2.726E-06 0.000E+00

     total cpu time spent up to now is       85.6 secs

     total energy              =    -489.75725893 Ry
     estimated scf accuracy    <       0.00393988 Ry

     iteration #  7     ecut=   200.00 Ry     beta= 0.70
     Davidson diagonalization with overlap
     ethr =  1.52E-05,  avg # of iterations =  3.3

     negative rho (up, down):  3.088E-06 0.000E+00

     total cpu time spent up to now is       94.9 secs

     total energy              =    -489.75791493 Ry
     estimated scf accuracy    <       0.00007431 Ry

     iteration #  8     ecut=   200.00 Ry     beta= 0.70
     Davidson diagonalization with overlap
     ethr =  2.86E-07,  avg # of iterations =  8.3

     negative rho (up, down):  3.250E-06 0.000E+00

     total cpu time spent up to now is      112.7 secs

     total energy              =    -489.75797606 Ry
     estimated scf accuracy    <       0.00327010 Ry

     iteration #  9     ecut=   200.00 Ry     beta= 0.70
     Davidson diagonalization with overlap
     ethr =  2.86E-07,  avg # of iterations =  5.5

     negative rho (up, down):  3.492E-06 0.000E+00

     total cpu time spent up to now is      126.0 secs

     total energy              =    -489.75800454 Ry
     estimated scf accuracy    <       0.00058167 Ry

     iteration # 10     ecut=   200.00 Ry     beta= 0.70
     Davidson diagonalization with overlap
     ethr =  2.86E-07,  avg # of iterations =  4.5

     negative rho (up, down):  3.559E-06 0.000E+00

     total cpu time spent up to now is      136.7 secs

     total energy              =    -489.75803274 Ry
     estimated scf accuracy    <       0.00007315 Ry

     iteration # 11     ecut=   200.00 Ry     beta= 0.70
     Davidson diagonalization with overlap
     ethr =  2.81E-07,  avg # of iterations =  2.9

     negative rho (up, down):  3.570E-06 0.000E+00

     total cpu time spent up to now is      145.4 secs

     total energy              =    -489.75803752 Ry
     estimated scf accuracy    <       0.00001137 Ry

     iteration # 12     ecut=   200.00 Ry     beta= 0.70
     Davidson diagonalization with overlap
     ethr =  4.37E-08,  avg # of iterations =  5.3

     negative rho (up, down):  3.586E-06 0.000E+00

     total cpu time spent up to now is      157.3 secs

     total energy              =    -489.75804252 Ry
     estimated scf accuracy    <       0.00000238 Ry

     iteration # 13     ecut=   200.00 Ry     beta= 0.70
     Davidson diagonalization with overlap
     ethr =  9.14E-09,  avg # of iterations =  2.4

     negative rho (up, down):  3.617E-06 0.000E+00

     total cpu time spent up to now is      166.1 secs

     total energy              =    -489.75804269 Ry
     estimated scf accuracy    <       0.00000023 Ry

     iteration # 14     ecut=   200.00 Ry     beta= 0.70
     Davidson diagonalization with overlap
     ethr =  8.98E-10,  avg # of iterations =  5.8

     negative rho (up, down):  3.620E-06 0.000E+00

     total cpu time spent up to now is      179.2 secs

     total energy              =    -489.75804282 Ry
     estimated scf accuracy    <       0.00000071 Ry

     iteration # 15     ecut=   200.00 Ry     beta= 0.70
     Davidson diagonalization with overlap
     ethr =  8.98E-10,  avg # of iterations =  3.0

     negative rho (up, down):  3.620E-06 0.000E+00

     total cpu time spent up to now is      188.7 secs

     total energy              =    -489.75804282 Ry
     estimated scf accuracy    <       0.00000013 Ry

     iteration # 16     ecut=   200.00 Ry     beta= 0.70
     Davidson diagonalization with overlap
     ethr =  4.94E-10,  avg # of iterations =  4.9

     negative rho (up, down):  3.621E-06 0.000E+00

     total cpu time spent up to now is      199.7 secs

     total energy              =    -489.75804287 Ry
     estimated scf accuracy    <       0.00000003 Ry

     iteration # 17     ecut=   200.00 Ry     beta= 0.70
     Davidson diagonalization with overlap
     ethr =  1.14E-10,  avg # of iterations =  1.6

     negative rho (up, down):  3.621E-06 0.000E+00

     total cpu time spent up to now is      207.5 secs

     total energy              =    -489.75804286 Ry
     estimated scf accuracy    <       0.00000003 Ry

     iteration # 18     ecut=   200.00 Ry     beta= 0.70
     Davidson diagonalization with overlap
     ethr =  9.86E-11,  avg # of iterations =  2.4

     negative rho (up, down):  3.621E-06 0.000E+00

     total cpu time spent up to now is      216.1 secs

     total energy              =    -489.75804287 Ry
     estimated scf accuracy    <          3.9E-09 Ry

     iteration # 19     ecut=   200.00 Ry     beta= 0.70
     Davidson diagonalization with overlap
     ethr =  1.50E-11,  avg # of iterations =  4.3

     negative rho (up, down):  3.620E-06 0.000E+00

     total cpu time spent up to now is      226.3 secs

     total energy              =    -489.75804287 Ry
     estimated scf accuracy    <          2.5E-11 Ry

     iteration # 20     ecut=   200.00 Ry     beta= 0.70
     Davidson diagonalization with overlap
     ethr =  1.00E-13,  avg # of iterations =  9.6

     negative rho (up, down):  3.621E-06 0.000E+00

     total cpu time spent up to now is      246.4 secs

     total energy              =    -489.75804287 Ry
     estimated scf accuracy    <          3.0E-09 Ry

     iteration # 21     ecut=   200.00 Ry     beta= 0.70
     Davidson diagonalization with overlap
     ethr =  1.00E-13,  avg # of iterations =  7.6

     negative rho (up, down):  3.621E-06 0.000E+00

     total cpu time spent up to now is      262.2 secs

     total energy              =    -489.75804287 Ry
     estimated scf accuracy    <          4.5E-10 Ry

     iteration # 22     ecut=   200.00 Ry     beta= 0.70
     Davidson diagonalization with overlap
     ethr =  1.00E-13,  avg # of iterations =  7.6

     negative rho (up, down):  3.621E-06 0.000E+00

     total cpu time spent up to now is      278.6 secs

     total energy              =    -489.75804287 Ry
     estimated scf accuracy    <          2.8E-10 Ry

     iteration # 23     ecut=   200.00 Ry     beta= 0.70
     Davidson diagonalization with overlap
     ethr =  1.00E-13,  avg # of iterations =  2.1

     negative rho (up, down):  3.621E-06 0.000E+00

     total cpu time spent up to now is      286.9 secs

     total energy              =    -489.75804287 Ry
     estimated scf accuracy    <          1.9E-10 Ry

     iteration # 24     ecut=   200.00 Ry     beta= 0.70
     Davidson diagonalization with overlap
     ethr =  1.00E-13,  avg # of iterations =  5.0

     negative rho (up, down):  3.621E-06 0.000E+00

     total cpu time spent up to now is      298.0 secs

     total energy              =    -489.75804287 Ry
     estimated scf accuracy    <          1.6E-11 Ry

     iteration # 25     ecut=   200.00 Ry     beta= 0.70
     Davidson diagonalization with overlap
     ethr =  1.00E-13,  avg # of iterations =  2.1

     negative rho (up, down):  3.621E-06 0.000E+00

     total cpu time spent up to now is      306.2 secs

     total energy              =    -489.75804287 Ry
     estimated scf accuracy    <          3.7E-12 Ry

     iteration # 26     ecut=   200.00 Ry     beta= 0.70
     Davidson diagonalization with overlap
     ethr =  1.00E-13,  avg # of iterations =  1.0

     negative rho (up, down):  3.621E-06 0.000E+00

     total cpu time spent up to now is      313.6 secs

     total energy              =    -489.75804287 Ry
     estimated scf accuracy    <          2.9E-12 Ry

     iteration # 27     ecut=   200.00 Ry     beta= 0.70
     Davidson diagonalization with overlap
     ethr =  1.00E-13,  avg # of iterations =  1.4

     negative rho (up, down):  3.621E-06 0.000E+00

     total cpu time spent up to now is      321.2 secs

     End of self-consistent calculation

          k = 0.0000 0.0000 0.0000 ( 44251 PWs)   bands (ev):

   -60.3495 -34.5537 -34.2859 -34.2846 -13.8552 -12.5036  -5.4144  -2.2347
    -2.2260  -1.4938  -1.0737  -1.0672   0.2789

          k = 0.0000 0.1477 0.0000 ( 44203 PWs)   bands (ev):

   -60.3429 -34.5407 -34.3513 -34.2994 -13.6120 -12.4032  -5.1487  -2.7316
    -2.2869  -1.9735  -1.4274  -0.6868   0.1606

          k = 0.0000 0.2954 0.0000 ( 44191 PWs)   bands (ev):

   -60.3267 -34.5092 -34.5066 -34.3348 -12.9679 -12.1393  -4.7597  -3.4845
    -3.3109  -2.1007  -1.3426  -0.9771  -0.4116

          k = 0.0000 0.4432 0.0000 ( 44193 PWs)   bands (ev):

   -60.3105 -34.6583 -34.4775 -34.3700 -12.2001 -11.8353  -5.2280  -4.2085
    -3.6390  -2.6235  -1.4206  -0.7212  -0.6080

          k =-0.0000-0.5909 0.0000 ( 44138 PWs)   bands (ev):

   -60.3038 -34.7201 -34.4643 -34.3845 -11.8218 -11.6934  -5.5872  -4.5846
    -3.8031  -2.8126  -1.5698  -0.4919  -0.2951

          k = 0.1280 0.0738 0.0000 ( 44202 PWs)   bands (ev):

   -60.3429 -34.5407 -34.3506 -34.3002 -13.6118 -12.4029  -5.1486  -2.7286
    -2.2842  -1.9774  -1.4330  -0.6847   0.1616

          k = 0.1280 0.2215 0.0000 ( 44209 PWs)   bands (ev):

   -60.3315 -34.5184 -34.4540 -34.3322 -13.1668 -12.2191  -4.7739  -3.3233
    -2.8736  -2.3162  -1.6136  -0.5337  -0.1961

          k = 0.1280 0.3693 0.0000 ( 44189 PWs)   bands (ev):

   -60.3153 -34.5916 -34.4868 -34.3833 -12.4475 -11.9237  -4.8446  -3.8428
    -3.4767  -2.8759  -1.5718  -0.9205  -0.4409

          k = 0.1280 0.5170 0.0000 ( 44139 PWs)   bands (ev):

   -60.3038 -34.6866 -34.4643 -34.4199 -11.8380 -11.6799  -5.2812  -4.6457
    -3.6504  -2.8724  -1.5495  -1.4517  -0.0958

          k = 0.1280-0.5171 0.0000 ( 44137 PWs)   bands (ev):

   -60.3038 -34.6867 -34.4643 -34.4199 -11.8377 -11.6798  -5.2816  -4.6455
    -3.6505  -2.8733  -1.5483  -1.4509  -0.0972

          k = 0.1280-0.3693 0.0000 ( 44187 PWs)   bands (ev):

   -60.3153 -34.5918 -34.4868 -34.3833 -12.4469 -11.9235  -4.8451  -3.8427
    -3.4768  -2.8770  -1.5697  -0.9194  -0.4434

          k = 0.1280-0.2216 0.0000 ( 44209 PWs)   bands (ev):

   -60.3314 -34.5184 -34.4540 -34.3324 -13.1663 -12.2190  -4.7736  -3.3222
    -2.8748  -2.3154  -1.6150  -0.5333  -0.1969

          k = 0.1280-0.0739 0.0000 ( 44203 PWs)   bands (ev):

   -60.3428 -34.5406 -34.3503 -34.3006 -13.6116 -12.4028  -5.1484  -2.7259
    -2.2846  -1.9807  -1.4331  -0.6843   0.1617

          k = 0.2560 0.1476 0.0000 ( 44184 PWs)   bands (ev):

   -60.3267 -34.5091 -34.5061 -34.3358 -12.9672 -12.1381  -4.7597  -3.4822
    -3.3088  -2.1069  -1.3465  -0.9762  -0.4088

          k = 0.2561 0.2954 0.0000 ( 44181 PWs)   bands (ev):

   -60.3152 -34.5913 -34.4868 -34.3839 -12.4470 -11.9228  -4.8444  -3.8419
    -3.4752  -2.8792  -1.5736  -0.9204  -0.4402

          k = 0.2561 0.4431 0.0000 ( 44135 PWs)   bands (ev):

   -60.3038 -34.6400 -34.4686 -34.4643 -11.8535 -11.6656  -4.8957  -4.7009
    -3.2618  -2.9581  -2.6206  -1.2850  -0.1376

          k = 0.2561 0.5908 0.0000 ( 44096 PWs)   bands (ev):

   -60.2990 -34.6454 -34.5184 -34.4550 -11.5791 -11.5418  -5.1156  -4.7338
    -3.6216  -2.8949  -2.7018  -1.7061   0.2443

          k = 0.2560-0.4432 0.0000 ( 44135 PWs)   bands (ev):

   -60.3037 -34.6403 -34.4686 -34.4643 -11.8525 -11.6653  -4.8967  -4.7008
    -3.2622  -2.9594  -2.6188  -1.2843  -0.1392

          k = 0.2560-0.2955 0.0000 ( 44181 PWs)   bands (ev):

   -60.3152 -34.5915 -34.4867 -34.3843 -12.4459 -11.9223  -4.8447  -3.8416
    -3.4735  -2.8809  -1.5738  -0.9198  -0.4425

          k = 0.2560-0.1478 0.0000 ( 44186 PWs)   bands (ev):

   -60.3266 -34.5091 -34.5060 -34.3362 -12.9665 -12.1378  -4.7594  -3.4800
    -3.3087  -2.1085  -1.3493  -0.9755  -0.4089

          k = 0.2560-0.0001 0.0000 ( 44221 PWs)   bands (ev):

   -60.3314 -34.5183 -34.4537 -34.3330 -13.1658 -12.2182  -4.7733  -3.3219
    -2.8738  -2.3180  -1.6163  -0.5331  -0.1957

          k = 0.3841 0.2215 0.0000 ( 44203 PWs)   bands (ev):

   -60.3105 -34.6580 -34.4774 -34.3711 -12.1989 -11.8329  -5.2274  -4.2088
    -3.6377  -2.6303  -1.4184  -0.7261  -0.6045

          k = 0.3841 0.3692 0.0000 ( 44155 PWs)   bands (ev):

   -60.3037 -34.6863 -34.4642 -34.4209 -11.8369 -11.6777  -5.2800  -4.6471
    -3.6502  -2.8765  -1.5523  -1.4500  -0.0944

          k = 0.3841 0.5169 0.0000 ( 44084 PWs)   bands (ev):

   -60.2990 -34.6452 -34.5189 -34.4550 -11.5784 -11.5407  -5.1170  -4.7338
    -3.6211  -2.8963  -2.7035  -1.7047   0.2444

          k = 0.3841 0.6646 0.0000 ( 44090 PWs)   bands (ev):

   -60.2989 -34.6453 -34.5190 -34.4549 -11.5778 -11.5404  -5.1171  -4.7341
    -3.6204  -2.8970  -2.7040  -1.7048   0.2444

          k = 0.3841-0.3694 0.0000 ( 44163 PWs)   bands (ev):

   -60.3037 -34.6864 -34.4641 -34.4213 -11.8355 -11.6771  -5.2803  -4.6470
    -3.6490  -2.8784  -1.5534  -1.4498  -0.0953

          k = 0.3841-0.2217 0.0000 ( 44195 PWs)   bands (ev):

   -60.3104 -34.6580 -34.4773 -34.3716 -12.1976 -11.8323  -5.2272  -4.2085
    -3.6358  -2.6327  -1.4182  -0.7289  -0.6045

          k = 0.3841-0.0740 0.0000 ( 44177 PWs)   bands (ev):

   -60.3152 -34.5916 -34.4866 -34.3844 -12.4452 -11.9214  -4.8457  -3.8435
    -3.4743  -2.8805  -1.5713  -0.9194  -0.4442

          k = 0.3841 0.0737 0.0000 ( 44183 PWs)   bands (ev):

   -60.3152 -34.5917 -34.4867 -34.3841 -12.4457 -11.9217  -4.8458  -3.8436
    -3.4760  -2.8799  -1.5692  -0.9190  -0.4445

          k =-0.5121-0.2953 0.0000 ( 44146 PWs)   bands (ev):

   -60.3037 -34.7199 -34.4642 -34.3857 -11.8204 -11.6904  -5.5859  -4.5862
    -3.8031  -2.8196  -1.5667  -0.4977  -0.2912

          k =-0.5121-0.1476 0.0000 ( 44142 PWs)   bands (ev):

   -60.3037 -34.6865 -34.4642 -34.4209 -11.8363 -11.6772  -5.2814  -4.6477
    -3.6500  -2.8776  -1.5501  -1.4488  -0.0974

          k =-0.5121 0.0002 0.0000 ( 44137 PWs)   bands (ev):

   -60.3037 -34.6404 -34.4690 -34.4642 -11.8515 -11.6638  -4.8985  -4.7029
    -3.2623  -2.9603  -2.6170  -1.2834  -0.1414

          k =-0.5121 0.1479 0.0000 ( 44148 PWs)   bands (ev):

   -60.3037 -34.6865 -34.4641 -34.4213 -11.8351 -11.6767  -5.2812  -4.6478
    -3.6487  -2.8785  -1.5525  -1.4494  -0.0969

          k =-0.5121-0.8862 0.0000 ( 44154 PWs)   bands (ev):

   -60.3036 -34.7200 -34.4641 -34.3862 -11.8187 -11.6897  -5.5857  -4.5859
    -3.8020  -2.8223  -1.5666  -0.5007  -0.2905

     highest occupied level (ev):     0.2789

!    total energy              =    -489.75804287 Ry

     total all-electron energy =     -9688.215888 Ry
     estimated scf accuracy    <          2.9E-15 Ry

     The total energy is the sum of the following terms:
     one-electron contribution =    -813.90636253 Ry
     hartree contribution      =     410.77406025 Ry
     xc contribution           =     -29.52474086 Ry
     ewald contribution        =     255.78841210 Ry
     one-center paw contrib.   =    -312.88941183 Ry

     convergence has been achieved in  27 iterations

     negative rho (up, down):  3.621E-06 0.000E+00

     Forces acting on atoms (cartesian axes, Ry/au):

     atom    1 type  1   force =     0.00026878    0.00012875   -0.00000059
     atom    2 type  2   force =    -0.00013439   -0.00006437   -0.00031702
     atom    3 type  2   force =    -0.00013439   -0.00006438    0.00031761

     Total force =     0.000578     Total SCF correction =     0.000000


     Computing stress (Cartesian axis) and pressure


     negative rho (up, down):  3.621E-06 0.000E+00
          total   stress  (Ry/bohr**3)                   (kbar)     P=        0.70
   0.00000972  -0.00000085   0.00000000            1.43       -0.13        0.00
  -0.00000085   0.00000658  -0.00000000           -0.13        0.97       -0.00
   0.00000000  -0.00000000  -0.00000207            0.00       -0.00       -0.31


     Writing output data file /scratch/as3359/Ta2C_ct_kpts/MoS2.save/
 
     init_run     :     17.56s CPU     10.26s WALL (       1 calls)
     electrons    :    601.85s CPU    310.71s WALL (       1 calls)
     forces       :      7.80s CPU      4.04s WALL (       1 calls)
     stress       :     21.08s CPU     10.91s WALL (       1 calls)

     Called by init_run:
     wfcinit      :      7.22s CPU      3.69s WALL (       1 calls)
     potinit      :      3.15s CPU      1.63s WALL (       1 calls)
     hinit0       :      6.12s CPU      4.29s WALL (       1 calls)

     Called by electrons:
     c_bands      :    478.42s CPU    242.16s WALL (      27 calls)
     sum_band     :     82.74s CPU     44.33s WALL (      27 calls)
     v_of_rho     :     11.18s CPU      6.19s WALL (      28 calls)
     newd         :     19.21s CPU     12.31s WALL (      28 calls)
     PAW_pot      :      5.45s CPU      2.85s WALL (      28 calls)
     mix_rho      :      4.32s CPU      2.51s WALL (      27 calls)

     Called by c_bands:
     init_us_2    :     13.90s CPU      6.97s WALL (    1938 calls)
     cegterg      :    456.29s CPU    230.80s WALL (     918 calls)

     Called by *egterg:
     cdiaghg      :      2.21s CPU      1.13s WALL (    5000 calls)
     h_psi        :    387.86s CPU    196.35s WALL (    5034 calls)
     s_psi        :     15.20s CPU      7.62s WALL (    5034 calls)
     g_psi        :      2.64s CPU      1.33s WALL (    4082 calls)

     Called by h_psi:
     h_psi:calbec :     12.33s CPU      6.20s WALL (    5034 calls)
     vloc_psi     :    352.13s CPU    178.38s WALL (    5034 calls)
     add_vuspsi   :     20.14s CPU     10.09s WALL (    5034 calls)

     General routines
     calbec       :     15.44s CPU      7.77s WALL (    6122 calls)
     fft          :      6.26s CPU      3.45s WALL (     387 calls)
     ffts         :      0.62s CPU      0.33s WALL (      55 calls)
     fftw         :    338.55s CPU    171.68s WALL (   95292 calls)
     interpolate  :      1.12s CPU      0.66s WALL (      28 calls)
 
     Parallel routines
 
     PWSCF        :  10m49.96s CPU   5m37.64s WALL

 
   This run was terminated on:  12:13:51   7Apr2022            

=------------------------------------------------------------------------------=
   JOB DONE.
=------------------------------------------------------------------------------=
