
     Program PWSCF v.6.8 starts on  7Apr2022 at 13:28:44 

     This program is part of the open-source Quantum ESPRESSO suite
     for quantum simulation of materials; please cite
         "P. Giannozzi et al., J. Phys.:Condens. Matter 21 395502 (2009);
         "P. Giannozzi et al., J. Phys.:Condens. Matter 29 465901 (2017);
         "P. Giannozzi et al., J. Chem. Phys. 152 154105 (2020);
          URL http://www.quantum-espresso.org", 
     in publications or presentations arising from this work. More details at
     http://www.quantum-espresso.org/quote

     Parallel version (MPI & OpenMP), running on       4 processor cores
     Number of MPI processes:                 2
     Threads/MPI process:                     2

     MPI processes distributed on     1 nodes
     R & G space division:  proc/nbgrp/npool/nimage =       2
     125029 MiB available memory on the printing compute node when the environment starts
 
     Reading input from MoS2.scf.18.in
Warning: card  &CELL ignored
Warning: card     CELL_DYNAMICS='BFGS' ignored
Warning: card  / ignored

     Current dimensions of program PWSCF are:
     Max number of different atomic species (ntypx) = 10
     Max number of k-points (npk) =  40000
     Max angular momentum in pseudopotentials (lmaxx) =  4
     Message from routine iosys:
     restart disabled: needed files not found
     file Mo.pbesol-spn-kjpaw_psl.1.0.0.UPF: wavefunction(s)  4S 4D renormalized
     file S.pbesol-nl-kjpaw_psl.1.0.0.UPF: wavefunction(s)  3S renormalized

     Subspace diagonalization in iterative solution of the eigenvalue problem:
     a serial algorithm will be used

 
     Parallelization info
     --------------------
     sticks:   dense  smooth     PW     G-vecs:    dense   smooth      PW
     Min        1203     972    279               246775   176770   27455
     Max        1204     973    280               246804   176787   27474
     Sum        2407    1945    559               493579   353557   54929
 
     Using Slab Decomposition
 


     bravais-lattice index     =            0
     lattice parameter (alat)  =       6.0720  a.u.
     unit-cell volume          =     924.7995 (a.u.)^3
     number of atoms/cell      =            3
     number of atomic types    =            2
     number of electrons       =        26.00
     number of Kohn-Sham states=           13
     kinetic-energy cutoff     =     200.0000  Ry
     charge density cutoff     =    1000.0000  Ry
     scf convergence threshold =      1.0E-12
     mixing beta               =       0.7000
     number of iterations used =            8  plain     mixing
     Exchange-correlation= SLA  PW   PSX  PSC
                           (   1   4  10   8   0   0   0)

     celldm(1)=   6.072000  celldm(2)=   0.000000  celldm(3)=   0.000000
     celldm(4)=   0.000000  celldm(5)=   0.000000  celldm(6)=   0.000000

     crystal axes: (cart. coord. in units of alat)
               a(1) = (   0.976384  -0.000017   0.000000 )  
               a(2) = (  -0.487931   0.846187   0.000000 )  
               a(3) = (   0.000000   0.000000   5.000000 )  

     reciprocal axes: (cart. coord. in units 2 pi/alat)
               b(1) = (  1.024198  0.590577  0.000000 )  
               b(2) = (  0.000021  1.181785  0.000000 )  
               b(3) = (  0.000000  0.000000  0.200000 )  


     PseudoPot. # 1 for Mo read from file:
     /shared/home/as3359/pseudo/Mo.pbesol-spn-kjpaw_psl.1.0.0.UPF
     MD5 check sum: de57925cfc675213e43241dcc441eda8
     Pseudo is Projector augmented-wave + core cor, Zval = 14.0
     Generated using &quot;atomic&quot; code by A. Dal Corso  v.6.3
     Shape of augmentation charge: PSQ
     Using radial grid of 1229 points,  6 beta functions with: 
                l(1) =   0
                l(2) =   0
                l(3) =   1
                l(4) =   1
                l(5) =   2
                l(6) =   2
     Q(r) pseudized with 0 coefficients 


     PseudoPot. # 2 for S  read from file:
     /shared/home/as3359/pseudo/S.pbesol-nl-kjpaw_psl.1.0.0.UPF
     MD5 check sum: bf3db50ec3f960682bbc396f1aadd1dd
     Pseudo is Projector augmented-wave + core cor, Zval =  6.0
     Generated using &quot;atomic&quot; code by A. Dal Corso  v.6.3
     Shape of augmentation charge: PSQ
     Using radial grid of 1151 points,  4 beta functions with: 
                l(1) =   0
                l(2) =   0
                l(3) =   1
                l(4) =   1
     Q(r) pseudized with 0 coefficients 


     atomic species   valence    mass     pseudopotential
        Mo            14.00    95.94000     Mo( 1.00)
        S              6.00    32.06500     S ( 1.00)

     No symmetry found



   Cartesian axes

     site n.     atom                  positions (alat units)
         1           Mo  tau(   1) = (   0.0000000   0.0000000   1.6880765  )
         2           S   tau(   2) = (   0.4883508   0.2821722   2.1737857  )
         3           S   tau(   3) = (   0.4883508   0.2821722   1.2023670  )

     number of k points=   164

     Number of k-points >= 100: set verbosity='high' to print them.

     Dense  grid:   493579 G-vectors     FFT dimensions: (  60,  60, 320)

     Smooth grid:   353557 G-vectors     FFT dimensions: (  54,  54, 288)

     Estimated max dynamical RAM per process >       1.61 GB

     Estimated total dynamical RAM >       3.21 GB
     Cannot read rho : file not found

     Initial potential from superposition of free atoms

     starting charge   25.99914, renormalised to   26.00000

     negative rho (up, down):  7.764E-05 0.000E+00
     Message from routine qexsd_readschema :
     xml data file /scratch/as3359/Ta2C_ct_kpts/MoS2.save/data-file-schema.xml not fo
     Cannot read wfcs: file not found
     Starting wfcs are   18 randomized atomic wfcs
     Checking if some PAW data can be deallocated... 

     total cpu time spent up to now is       23.5 secs

     Self-consistent Calculation

     iteration #  1     ecut=   200.00 Ry     beta= 0.70
     Davidson diagonalization with overlap
     ethr =  1.00E-05,  avg # of iterations = 10.4

     negative rho (up, down):  2.440E-05 0.000E+00

     total cpu time spent up to now is      120.4 secs

     total energy              =    -489.68930998 Ry
     estimated scf accuracy    <       0.15092427 Ry

     iteration #  2     ecut=   200.00 Ry     beta= 0.70
     Davidson diagonalization with overlap
     ethr =  5.80E-04,  avg # of iterations =  5.0

     negative rho (up, down):  7.767E-06 0.000E+00

     total cpu time spent up to now is      170.0 secs

     total energy              =    -489.64689566 Ry
     estimated scf accuracy    <       0.56546601 Ry

     iteration #  3     ecut=   200.00 Ry     beta= 0.70
     Davidson diagonalization with overlap
     ethr =  5.80E-04,  avg # of iterations =  5.0

     negative rho (up, down):  3.416E-06 0.000E+00

     total cpu time spent up to now is      218.0 secs

     total energy              =    -489.75206636 Ry
     estimated scf accuracy    <       0.04457029 Ry

     iteration #  4     ecut=   200.00 Ry     beta= 0.70
     Davidson diagonalization with overlap
     ethr =  1.71E-04,  avg # of iterations =  2.4

     negative rho (up, down):  2.629E-06 0.000E+00

     total cpu time spent up to now is      252.5 secs

     total energy              =    -489.75488253 Ry
     estimated scf accuracy    <       0.00552266 Ry

     iteration #  5     ecut=   200.00 Ry     beta= 0.70
     Davidson diagonalization with overlap
     ethr =  2.12E-05,  avg # of iterations =  5.2

     negative rho (up, down):  2.632E-06 0.000E+00

     total cpu time spent up to now is      302.9 secs

     total energy              =    -489.75791012 Ry
     estimated scf accuracy    <       0.00831818 Ry

     iteration #  6     ecut=   200.00 Ry     beta= 0.70
     Davidson diagonalization with overlap
     ethr =  2.12E-05,  avg # of iterations =  1.8

     negative rho (up, down):  2.939E-06 0.000E+00

     total cpu time spent up to now is      333.9 secs

     total energy              =    -489.75692807 Ry
     estimated scf accuracy    <       0.00319899 Ry

     iteration #  7     ecut=   200.00 Ry     beta= 0.70
     Davidson diagonalization with overlap
     ethr =  1.23E-05,  avg # of iterations =  4.5

     negative rho (up, down):  3.180E-06 0.000E+00

     total cpu time spent up to now is      377.6 secs

     total energy              =    -489.75840155 Ry
     estimated scf accuracy    <       0.00105091 Ry

     iteration #  8     ecut=   200.00 Ry     beta= 0.70
     Davidson diagonalization with overlap
     ethr =  4.04E-06,  avg # of iterations =  2.8

     negative rho (up, down):  3.298E-06 0.000E+00

     total cpu time spent up to now is      412.0 secs

     total energy              =    -489.75808513 Ry
     estimated scf accuracy    <       0.00211274 Ry

     iteration #  9     ecut=   200.00 Ry     beta= 0.70
     Davidson diagonalization with overlap
     ethr =  4.04E-06,  avg # of iterations =  1.6

     negative rho (up, down):  3.452E-06 0.000E+00

     total cpu time spent up to now is      442.3 secs

     total energy              =    -489.75781860 Ry
     estimated scf accuracy    <       0.00103759 Ry

     iteration # 10     ecut=   200.00 Ry     beta= 0.70
     Davidson diagonalization with overlap
     ethr =  3.99E-06,  avg # of iterations =  3.7

     negative rho (up, down):  3.517E-06 0.000E+00

     total cpu time spent up to now is      481.8 secs

     total energy              =    -489.75805478 Ry
     estimated scf accuracy    <       0.00001617 Ry

     iteration # 11     ecut=   200.00 Ry     beta= 0.70
     Davidson diagonalization with overlap
     ethr =  6.22E-08,  avg # of iterations =  5.6

     negative rho (up, down):  3.551E-06 0.000E+00

     total cpu time spent up to now is      534.2 secs

     total energy              =    -489.75806091 Ry
     estimated scf accuracy    <       0.00007259 Ry

     iteration # 12     ecut=   200.00 Ry     beta= 0.70
     Davidson diagonalization with overlap
     ethr =  6.22E-08,  avg # of iterations =  2.9

     negative rho (up, down):  3.582E-06 0.000E+00

     total cpu time spent up to now is      569.9 secs

     total energy              =    -489.75805590 Ry
     estimated scf accuracy    <       0.00002857 Ry

     iteration # 13     ecut=   200.00 Ry     beta= 0.70
     Davidson diagonalization with overlap
     ethr =  6.22E-08,  avg # of iterations =  3.9

     negative rho (up, down):  3.612E-06 0.000E+00

     total cpu time spent up to now is      611.0 secs

     total energy              =    -489.75806045 Ry
     estimated scf accuracy    <       0.00000012 Ry

     iteration # 14     ecut=   200.00 Ry     beta= 0.70
     Davidson diagonalization with overlap
     ethr =  4.76E-10,  avg # of iterations =  9.5

     negative rho (up, down):  3.613E-06 0.000E+00

     total cpu time spent up to now is      696.5 secs

     total energy              =    -489.75806048 Ry
     estimated scf accuracy    <       0.00000657 Ry

     iteration # 15     ecut=   200.00 Ry     beta= 0.70
     Davidson diagonalization with overlap
     ethr =  4.76E-10,  avg # of iterations =  6.4

     negative rho (up, down):  3.620E-06 0.000E+00

     total cpu time spent up to now is      758.3 secs

     total energy              =    -489.75806076 Ry
     estimated scf accuracy    <       0.00000050 Ry

     iteration # 16     ecut=   200.00 Ry     beta= 0.70
     Davidson diagonalization with overlap
     ethr =  4.76E-10,  avg # of iterations =  5.4

     negative rho (up, down):  3.620E-06 0.000E+00

     total cpu time spent up to now is      806.7 secs

     total energy              =    -489.75806087 Ry
     estimated scf accuracy    <       0.00000002 Ry

     iteration # 17     ecut=   200.00 Ry     beta= 0.70
     Davidson diagonalization with overlap
     ethr =  8.83E-11,  avg # of iterations =  3.0

     negative rho (up, down):  3.621E-06 0.000E+00

     total cpu time spent up to now is      842.8 secs

     total energy              =    -489.75806087 Ry
     estimated scf accuracy    <          6.1E-09 Ry

     iteration # 18     ecut=   200.00 Ry     beta= 0.70
     Davidson diagonalization with overlap
     ethr =  2.36E-11,  avg # of iterations =  4.5

     negative rho (up, down):  3.621E-06 0.000E+00

     total cpu time spent up to now is      883.5 secs

     total energy              =    -489.75806087 Ry
     estimated scf accuracy    <          3.8E-11 Ry

     iteration # 19     ecut=   200.00 Ry     beta= 0.70
     Davidson diagonalization with overlap
     ethr =  1.45E-13,  avg # of iterations =  6.7

     negative rho (up, down):  3.621E-06 0.000E+00

     total cpu time spent up to now is      941.9 secs

     total energy              =    -489.75806087 Ry
     estimated scf accuracy    <          1.8E-10 Ry

     iteration # 20     ecut=   200.00 Ry     beta= 0.70
     Davidson diagonalization with overlap
     ethr =  1.45E-13,  avg # of iterations =  1.0

     negative rho (up, down):  3.621E-06 0.000E+00

     total cpu time spent up to now is      970.5 secs

     total energy              =    -489.75806087 Ry
     estimated scf accuracy    <          1.9E-10 Ry

     iteration # 21     ecut=   200.00 Ry     beta= 0.70
     Davidson diagonalization with overlap
     ethr =  1.45E-13,  avg # of iterations =  7.9

     negative rho (up, down):  3.621E-06 0.000E+00

     total cpu time spent up to now is     1039.9 secs

     total energy              =    -489.75806087 Ry
     estimated scf accuracy    <          9.5E-10 Ry

     iteration # 22     ecut=   200.00 Ry     beta= 0.70
     Davidson diagonalization with overlap
     ethr =  1.45E-13,  avg # of iterations =  1.1

     negative rho (up, down):  3.621E-06 0.000E+00

     total cpu time spent up to now is     1068.7 secs

     total energy              =    -489.75806087 Ry
     estimated scf accuracy    <          9.5E-10 Ry

     iteration # 23     ecut=   200.00 Ry     beta= 0.70
     Davidson diagonalization with overlap
     ethr =  1.45E-13,  avg # of iterations =  2.0

     negative rho (up, down):  3.621E-06 0.000E+00

     total cpu time spent up to now is     1101.0 secs

     total energy              =    -489.75806087 Ry
     estimated scf accuracy    <          8.0E-10 Ry

     iteration # 24     ecut=   200.00 Ry     beta= 0.70
     Davidson diagonalization with overlap
     ethr =  1.45E-13,  avg # of iterations =  4.7

     negative rho (up, down):  3.621E-06 0.000E+00

     total cpu time spent up to now is     1145.7 secs

     total energy              =    -489.75806087 Ry
     estimated scf accuracy    <          2.4E-10 Ry

     iteration # 25     ecut=   200.00 Ry     beta= 0.70
     Davidson diagonalization with overlap
     ethr =  1.45E-13,  avg # of iterations =  1.1

     negative rho (up, down):  3.621E-06 0.000E+00

     total cpu time spent up to now is     1174.5 secs

     total energy              =    -489.75806087 Ry
     estimated scf accuracy    <          2.1E-10 Ry

     iteration # 26     ecut=   200.00 Ry     beta= 0.70
     Davidson diagonalization with overlap
     ethr =  1.45E-13,  avg # of iterations =  1.5

     negative rho (up, down):  3.621E-06 0.000E+00

     total cpu time spent up to now is     1204.4 secs

     total energy              =    -489.75806087 Ry
     estimated scf accuracy    <          1.6E-10 Ry

     iteration # 27     ecut=   200.00 Ry     beta= 0.70
     Davidson diagonalization with overlap
     ethr =  1.45E-13,  avg # of iterations =  1.2

     negative rho (up, down):  3.621E-06 0.000E+00

     total cpu time spent up to now is     1233.6 secs

     total energy              =    -489.75806087 Ry
     estimated scf accuracy    <          1.3E-10 Ry

     iteration # 28     ecut=   200.00 Ry     beta= 0.70
     Davidson diagonalization with overlap
     ethr =  1.45E-13,  avg # of iterations =  6.1

     negative rho (up, down):  3.621E-06 0.000E+00

     total cpu time spent up to now is     1283.0 secs

     total energy              =    -489.75806087 Ry
     estimated scf accuracy    <          6.3E-12 Ry

     iteration # 29     ecut=   200.00 Ry     beta= 0.70
     Davidson diagonalization with overlap
     ethr =  1.00E-13,  avg # of iterations =  1.0

     negative rho (up, down):  3.621E-06 0.000E+00

     total cpu time spent up to now is     1311.6 secs

     total energy              =    -489.75806087 Ry
     estimated scf accuracy    <          5.8E-12 Ry

     iteration # 30     ecut=   200.00 Ry     beta= 0.70
     Davidson diagonalization with overlap
     ethr =  1.00E-13,  avg # of iterations =  1.0

     negative rho (up, down):  3.621E-06 0.000E+00

     total cpu time spent up to now is     1340.2 secs

     total energy              =    -489.75806087 Ry
     estimated scf accuracy    <          2.1E-12 Ry

     iteration # 31     ecut=   200.00 Ry     beta= 0.70
     Davidson diagonalization with overlap
     ethr =  1.00E-13,  avg # of iterations =  1.0

     negative rho (up, down):  3.621E-06 0.000E+00

     total cpu time spent up to now is     1368.7 secs

     End of self-consistent calculation

     Number of k-points >= 100: set verbosity='high' to print the bands.

     highest occupied level (ev):     0.3756

!    total energy              =    -489.75806087 Ry

     total all-electron energy =     -9688.215906 Ry
     estimated scf accuracy    <          5.9E-13 Ry

     The total energy is the sum of the following terms:
     one-electron contribution =    -813.90680855 Ry
     hartree contribution      =     410.77448092 Ry
     xc contribution           =     -29.52473937 Ry
     ewald contribution        =     255.78841210 Ry
     one-center paw contrib.   =    -312.88940598 Ry

     convergence has been achieved in  31 iterations

     negative rho (up, down):  3.621E-06 0.000E+00

     Forces acting on atoms (cartesian axes, Ry/au):

     atom    1 type  1   force =     0.00026875    0.00012900   -0.00000082
     atom    2 type  2   force =    -0.00013438   -0.00006450   -0.00032895
     atom    3 type  2   force =    -0.00013437   -0.00006450    0.00032977

     Total force =     0.000592     Total SCF correction =     0.000002


     Computing stress (Cartesian axis) and pressure


     negative rho (up, down):  3.621E-06 0.000E+00
          total   stress  (Ry/bohr**3)                   (kbar)     P=        0.69
   0.00000967  -0.00000085   0.00000000            1.42       -0.13        0.00
  -0.00000085   0.00000653  -0.00000000           -0.13        0.96       -0.00
   0.00000000  -0.00000000  -0.00000215            0.00       -0.00       -0.32


     Writing output data file /scratch/as3359/Ta2C_ct_kpts/MoS2.save/
 
     init_run     :     42.90s CPU     23.33s WALL (       1 calls)
     electrons    :   2648.11s CPU   1345.34s WALL (       1 calls)
     forces       :     12.27s CPU      6.28s WALL (       1 calls)
     stress       :     40.56s CPU     20.77s WALL (       1 calls)

     Called by init_run:
     wfcinit      :     32.65s CPU     16.69s WALL (       1 calls)
     potinit      :      3.07s CPU      1.57s WALL (       1 calls)
     hinit0       :      5.81s CPU      4.20s WALL (       1 calls)

     Called by electrons:
     c_bands      :   2253.54s CPU   1138.99s WALL (      31 calls)
     sum_band     :    350.42s CPU    179.97s WALL (      31 calls)
     v_of_rho     :     11.91s CPU      6.60s WALL (      32 calls)
     newd         :     20.95s CPU     13.59s WALL (      32 calls)
     PAW_pot      :      5.83s CPU      2.99s WALL (      32 calls)
     mix_rho      :      4.83s CPU      2.84s WALL (      31 calls)

     Called by c_bands:
     init_us_2    :     71.03s CPU     35.57s WALL (   10660 calls)
     cegterg      :   2140.09s CPU   1081.56s WALL (    5084 calls)

     Called by *egterg:
     cdiaghg      :     10.17s CPU      5.19s WALL (   24764 calls)
     h_psi        :   1843.32s CPU    932.59s WALL (   24928 calls)
     s_psi        :     68.86s CPU     34.51s WALL (   24928 calls)
     g_psi        :     12.38s CPU      6.23s WALL (   19680 calls)

     Called by h_psi:
     h_psi:calbec :     56.47s CPU     28.36s WALL (   24928 calls)
     vloc_psi     :   1678.98s CPU    850.11s WALL (   24928 calls)
     add_vuspsi   :     92.46s CPU     46.34s WALL (   24928 calls)

     General routines
     calbec       :     72.04s CPU     36.21s WALL (   30832 calls)
     fft          :      6.41s CPU      3.55s WALL (     439 calls)
     ffts         :      0.67s CPU      0.35s WALL (      63 calls)
     fftw         :   1645.73s CPU    834.15s WALL (  487286 calls)
     interpolate  :      1.14s CPU      0.66s WALL (      32 calls)
 
     Parallel routines
 
     PWSCF        :  45m49.68s CPU  23m21.02s WALL

 
   This run was terminated on:  13:52: 5   7Apr2022            

=------------------------------------------------------------------------------=
   JOB DONE.
=------------------------------------------------------------------------------=
