
     Program PWSCF v.6.8 starts on  7Apr2022 at 16:31:41 

     This program is part of the open-source Quantum ESPRESSO suite
     for quantum simulation of materials; please cite
         "P. Giannozzi et al., J. Phys.:Condens. Matter 21 395502 (2009);
         "P. Giannozzi et al., J. Phys.:Condens. Matter 29 465901 (2017);
         "P. Giannozzi et al., J. Chem. Phys. 152 154105 (2020);
          URL http://www.quantum-espresso.org", 
     in publications or presentations arising from this work. More details at
     http://www.quantum-espresso.org/quote

     Parallel version (MPI & OpenMP), running on       4 processor cores
     Number of MPI processes:                 2
     Threads/MPI process:                     2

     MPI processes distributed on     1 nodes
     R & G space division:  proc/nbgrp/npool/nimage =       2
     125004 MiB available memory on the printing compute node when the environment starts
 
     Reading input from MoS2.scf.28.in
Warning: card  &CELL ignored
Warning: card     CELL_DYNAMICS='BFGS' ignored
Warning: card  / ignored

     Current dimensions of program PWSCF are:
     Max number of different atomic species (ntypx) = 10
     Max number of k-points (npk) =  40000
     Max angular momentum in pseudopotentials (lmaxx) =  4
     Message from routine iosys:
     restart disabled: needed files not found
     file Mo.pbesol-spn-kjpaw_psl.1.0.0.UPF: wavefunction(s)  4S 4D renormalized
     file S.pbesol-nl-kjpaw_psl.1.0.0.UPF: wavefunction(s)  3S renormalized

     Subspace diagonalization in iterative solution of the eigenvalue problem:
     a serial algorithm will be used

 
     Parallelization info
     --------------------
     sticks:   dense  smooth     PW     G-vecs:    dense   smooth      PW
     Min        1203     972    279               246775   176770   27455
     Max        1204     973    280               246804   176787   27474
     Sum        2407    1945    559               493579   353557   54929
 
     Using Slab Decomposition
 


     bravais-lattice index     =            0
     lattice parameter (alat)  =       6.0720  a.u.
     unit-cell volume          =     924.7995 (a.u.)^3
     number of atoms/cell      =            3
     number of atomic types    =            2
     number of electrons       =        26.00
     number of Kohn-Sham states=           13
     kinetic-energy cutoff     =     200.0000  Ry
     charge density cutoff     =    1000.0000  Ry
     scf convergence threshold =      1.0E-12
     mixing beta               =       0.7000
     number of iterations used =            8  plain     mixing
     Exchange-correlation= SLA  PW   PSX  PSC
                           (   1   4  10   8   0   0   0)

     celldm(1)=   6.072000  celldm(2)=   0.000000  celldm(3)=   0.000000
     celldm(4)=   0.000000  celldm(5)=   0.000000  celldm(6)=   0.000000

     crystal axes: (cart. coord. in units of alat)
               a(1) = (   0.976384  -0.000017   0.000000 )  
               a(2) = (  -0.487931   0.846187   0.000000 )  
               a(3) = (   0.000000   0.000000   5.000000 )  

     reciprocal axes: (cart. coord. in units 2 pi/alat)
               b(1) = (  1.024198  0.590577  0.000000 )  
               b(2) = (  0.000021  1.181785  0.000000 )  
               b(3) = (  0.000000  0.000000  0.200000 )  


     PseudoPot. # 1 for Mo read from file:
     /shared/home/as3359/pseudo/Mo.pbesol-spn-kjpaw_psl.1.0.0.UPF
     MD5 check sum: de57925cfc675213e43241dcc441eda8
     Pseudo is Projector augmented-wave + core cor, Zval = 14.0
     Generated using &quot;atomic&quot; code by A. Dal Corso  v.6.3
     Shape of augmentation charge: PSQ
     Using radial grid of 1229 points,  6 beta functions with: 
                l(1) =   0
                l(2) =   0
                l(3) =   1
                l(4) =   1
                l(5) =   2
                l(6) =   2
     Q(r) pseudized with 0 coefficients 


     PseudoPot. # 2 for S  read from file:
     /shared/home/as3359/pseudo/S.pbesol-nl-kjpaw_psl.1.0.0.UPF
     MD5 check sum: bf3db50ec3f960682bbc396f1aadd1dd
     Pseudo is Projector augmented-wave + core cor, Zval =  6.0
     Generated using &quot;atomic&quot; code by A. Dal Corso  v.6.3
     Shape of augmentation charge: PSQ
     Using radial grid of 1151 points,  4 beta functions with: 
                l(1) =   0
                l(2) =   0
                l(3) =   1
                l(4) =   1
     Q(r) pseudized with 0 coefficients 


     atomic species   valence    mass     pseudopotential
        Mo            14.00    95.94000     Mo( 1.00)
        S              6.00    32.06500     S ( 1.00)

     No symmetry found



   Cartesian axes

     site n.     atom                  positions (alat units)
         1           Mo  tau(   1) = (   0.0000000   0.0000000   1.6880765  )
         2           S   tau(   2) = (   0.4883508   0.2821722   2.1737857  )
         3           S   tau(   3) = (   0.4883508   0.2821722   1.2023670  )

     number of k points=   394

     Number of k-points >= 100: set verbosity='high' to print them.

     Dense  grid:   493579 G-vectors     FFT dimensions: (  60,  60, 320)

     Smooth grid:   353557 G-vectors     FFT dimensions: (  54,  54, 288)

     Estimated max dynamical RAM per process >       2.59 GB

     Estimated total dynamical RAM >       5.18 GB
     Cannot read rho : file not found

     Initial potential from superposition of free atoms

     starting charge   25.99914, renormalised to   26.00000

     negative rho (up, down):  7.764E-05 0.000E+00
     Message from routine qexsd_readschema :
     xml data file /scratch/as3359/Ta2C_ct_kpts/MoS2.save/data-file-schema.xml not fo
     Cannot read wfcs: file not found
     Starting wfcs are   18 randomized atomic wfcs
     Checking if some PAW data can be deallocated... 

     total cpu time spent up to now is       46.7 secs

     Self-consistent Calculation

     iteration #  1     ecut=   200.00 Ry     beta= 0.70
     Davidson diagonalization with overlap
     ethr =  1.00E-05,  avg # of iterations = 10.3

     negative rho (up, down):  2.438E-05 0.000E+00

     total cpu time spent up to now is      268.3 secs

     total energy              =    -489.68930937 Ry
     estimated scf accuracy    <       0.15092468 Ry

     iteration #  2     ecut=   200.00 Ry     beta= 0.70
     Davidson diagonalization with overlap
     ethr =  5.80E-04,  avg # of iterations =  5.0

     negative rho (up, down):  7.738E-06 0.000E+00

     total cpu time spent up to now is      381.6 secs

     total energy              =    -489.64742338 Ry
     estimated scf accuracy    <       0.56272299 Ry

     iteration #  3     ecut=   200.00 Ry     beta= 0.70
     Davidson diagonalization with overlap
     ethr =  5.80E-04,  avg # of iterations =  5.0

     negative rho (up, down):  3.383E-06 0.000E+00

     total cpu time spent up to now is      490.3 secs

     total energy              =    -489.75216733 Ry
     estimated scf accuracy    <       0.04321013 Ry

     iteration #  4     ecut=   200.00 Ry     beta= 0.70
     Davidson diagonalization with overlap
     ethr =  1.66E-04,  avg # of iterations =  2.3

     negative rho (up, down):  2.651E-06 0.000E+00

     total cpu time spent up to now is      568.6 secs

     total energy              =    -489.75488088 Ry
     estimated scf accuracy    <       0.00553159 Ry

     iteration #  5     ecut=   200.00 Ry     beta= 0.70
     Davidson diagonalization with overlap
     ethr =  2.13E-05,  avg # of iterations =  5.2

     negative rho (up, down):  2.652E-06 0.000E+00

     total cpu time spent up to now is      682.1 secs

     total energy              =    -489.75784524 Ry
     estimated scf accuracy    <       0.00810369 Ry

     iteration #  6     ecut=   200.00 Ry     beta= 0.70
     Davidson diagonalization with overlap
     ethr =  2.13E-05,  avg # of iterations =  1.8

     negative rho (up, down):  2.888E-06 0.000E+00

     total cpu time spent up to now is      752.3 secs

     total energy              =    -489.75713858 Ry
     estimated scf accuracy    <       0.00291263 Ry

     iteration #  7     ecut=   200.00 Ry     beta= 0.70
     Davidson diagonalization with overlap
     ethr =  1.12E-05,  avg # of iterations =  4.4

     negative rho (up, down):  3.189E-06 0.000E+00

     total cpu time spent up to now is      849.9 secs

     total energy              =    -489.75831920 Ry
     estimated scf accuracy    <       0.00051802 Ry

     iteration #  8     ecut=   200.00 Ry     beta= 0.70
     Davidson diagonalization with overlap
     ethr =  1.99E-06,  avg # of iterations =  4.6

     negative rho (up, down):  3.317E-06 0.000E+00

     total cpu time spent up to now is      951.0 secs

     total energy              =    -489.75803701 Ry
     estimated scf accuracy    <       0.00252051 Ry

     iteration #  9     ecut=   200.00 Ry     beta= 0.70
     Davidson diagonalization with overlap
     ethr =  1.99E-06,  avg # of iterations =  2.9

     negative rho (up, down):  3.506E-06 0.000E+00

     total cpu time spent up to now is     1033.8 secs

     total energy              =    -489.75790487 Ry
     estimated scf accuracy    <       0.00087794 Ry

     iteration # 10     ecut=   200.00 Ry     beta= 0.70
     Davidson diagonalization with overlap
     ethr =  1.99E-06,  avg # of iterations =  4.1

     negative rho (up, down):  3.543E-06 0.000E+00

     total cpu time spent up to now is     1128.4 secs

     total energy              =    -489.75805089 Ry
     estimated scf accuracy    <       0.00000284 Ry

     iteration # 11     ecut=   200.00 Ry     beta= 0.70
     Davidson diagonalization with overlap
     ethr =  1.09E-08,  avg # of iterations =  7.9

     negative rho (up, down):  3.562E-06 0.000E+00

     total cpu time spent up to now is     1297.5 secs

     total energy              =    -489.75806605 Ry
     estimated scf accuracy    <       0.00003854 Ry

     iteration # 12     ecut=   200.00 Ry     beta= 0.70
     Davidson diagonalization with overlap
     ethr =  1.09E-08,  avg # of iterations =  1.0

     negative rho (up, down):  3.598E-06 0.000E+00

     total cpu time spent up to now is     1362.9 secs

     total energy              =    -489.75805326 Ry
     estimated scf accuracy    <       0.00003678 Ry

     iteration # 13     ecut=   200.00 Ry     beta= 0.70
     Davidson diagonalization with overlap
     ethr =  1.09E-08,  avg # of iterations =  6.1

     negative rho (up, down):  3.611E-06 0.000E+00

     total cpu time spent up to now is     1497.1 secs

     total energy              =    -489.75806125 Ry
     estimated scf accuracy    <       0.00000376 Ry

     iteration # 14     ecut=   200.00 Ry     beta= 0.70
     Davidson diagonalization with overlap
     ethr =  1.09E-08,  avg # of iterations =  1.0

     negative rho (up, down):  3.621E-06 0.000E+00

     total cpu time spent up to now is     1562.3 secs

     total energy              =    -489.75806014 Ry
     estimated scf accuracy    <       0.00000309 Ry

     iteration # 15     ecut=   200.00 Ry     beta= 0.70
     Davidson diagonalization with overlap
     ethr =  1.09E-08,  avg # of iterations =  2.9

     negative rho (up, down):  3.621E-06 0.000E+00

     total cpu time spent up to now is     1648.6 secs

     total energy              =    -489.75806086 Ry
     estimated scf accuracy    <       0.00000007 Ry

     iteration # 16     ecut=   200.00 Ry     beta= 0.70
     Davidson diagonalization with overlap
     ethr =  2.56E-10,  avg # of iterations =  5.5

     negative rho (up, down):  3.621E-06 0.000E+00

     total cpu time spent up to now is     1759.6 secs

     total energy              =    -489.75806087 Ry
     estimated scf accuracy    <       0.00000022 Ry

     iteration # 17     ecut=   200.00 Ry     beta= 0.70
     Davidson diagonalization with overlap
     ethr =  2.56E-10,  avg # of iterations =  2.0

     negative rho (up, down):  3.621E-06 0.000E+00

     total cpu time spent up to now is     1831.9 secs

     total energy              =    -489.75806085 Ry
     estimated scf accuracy    <       0.00000012 Ry

     iteration # 18     ecut=   200.00 Ry     beta= 0.70
     Davidson diagonalization with overlap
     ethr =  2.56E-10,  avg # of iterations =  4.1

     negative rho (up, down):  3.621E-06 0.000E+00

     total cpu time spent up to now is     1925.0 secs

     total energy              =    -489.75806087 Ry
     estimated scf accuracy    <          1.7E-10 Ry

     iteration # 19     ecut=   200.00 Ry     beta= 0.70
     Davidson diagonalization with overlap
     ethr =  6.43E-13,  avg # of iterations = 11.8

     negative rho (up, down):  3.621E-06 0.000E+00

     total cpu time spent up to now is     2163.4 secs

     total energy              =    -489.75806087 Ry
     estimated scf accuracy    <       0.00000004 Ry

     iteration # 20     ecut=   200.00 Ry     beta= 0.70
     Davidson diagonalization with overlap
     ethr =  6.43E-13,  avg # of iterations =  8.5

     negative rho (up, down):  3.621E-06 0.000E+00

     total cpu time spent up to now is     2340.4 secs

     total energy              =    -489.75806087 Ry
     estimated scf accuracy    <          3.2E-09 Ry

     iteration # 21     ecut=   200.00 Ry     beta= 0.70
     Davidson diagonalization with overlap
     ethr =  6.43E-13,  avg # of iterations =  5.6

     negative rho (up, down):  3.621E-06 0.000E+00

     total cpu time spent up to now is     2458.7 secs

     total energy              =    -489.75806087 Ry
     estimated scf accuracy    <          3.1E-10 Ry

     iteration # 22     ecut=   200.00 Ry     beta= 0.70
     Davidson diagonalization with overlap
     ethr =  6.43E-13,  avg # of iterations =  2.4

     negative rho (up, down):  3.621E-06 0.000E+00

     total cpu time spent up to now is     2535.9 secs

     total energy              =    -489.75806087 Ry
     estimated scf accuracy    <          9.7E-11 Ry

     iteration # 23     ecut=   200.00 Ry     beta= 0.70
     Davidson diagonalization with overlap
     ethr =  3.74E-13,  avg # of iterations =  1.0

     negative rho (up, down):  3.621E-06 0.000E+00

     total cpu time spent up to now is     2601.4 secs

     total energy              =    -489.75806087 Ry
     estimated scf accuracy    <          8.2E-11 Ry

     iteration # 24     ecut=   200.00 Ry     beta= 0.70
     Davidson diagonalization with overlap
     ethr =  3.16E-13,  avg # of iterations =  1.0

     negative rho (up, down):  3.621E-06 0.000E+00

     total cpu time spent up to now is     2666.9 secs

     total energy              =    -489.75806087 Ry
     estimated scf accuracy    <          7.8E-11 Ry

     iteration # 25     ecut=   200.00 Ry     beta= 0.70
     Davidson diagonalization with overlap
     ethr =  2.99E-13,  avg # of iterations =  3.1

     negative rho (up, down):  3.621E-06 0.000E+00

     total cpu time spent up to now is     2747.5 secs

     total energy              =    -489.75806087 Ry
     estimated scf accuracy    <          7.0E-12 Ry

     iteration # 26     ecut=   200.00 Ry     beta= 0.70
     Davidson diagonalization with overlap
     ethr =  1.00E-13,  avg # of iterations =  3.7

     negative rho (up, down):  3.621E-06 0.000E+00

     total cpu time spent up to now is     2829.8 secs

     End of self-consistent calculation

     Number of k-points >= 100: set verbosity='high' to print the bands.

     highest occupied level (ev):     0.3600

!    total energy              =    -489.75806087 Ry

     total all-electron energy =     -9688.215906 Ry
     estimated scf accuracy    <          4.4E-14 Ry

     The total energy is the sum of the following terms:
     one-electron contribution =    -813.90679791 Ry
     hartree contribution      =     410.77446985 Ry
     xc contribution           =     -29.52473898 Ry
     ewald contribution        =     255.78841210 Ry
     one-center paw contrib.   =    -312.88940593 Ry

     convergence has been achieved in  26 iterations

     negative rho (up, down):  3.621E-06 0.000E+00

     Forces acting on atoms (cartesian axes, Ry/au):

     atom    1 type  1   force =     0.00026875    0.00012900   -0.00000057
     atom    2 type  2   force =    -0.00013437   -0.00006450   -0.00032899
     atom    3 type  2   force =    -0.00013438   -0.00006450    0.00032956

     Total force =     0.000592     Total SCF correction =     0.000000


     Computing stress (Cartesian axis) and pressure


     negative rho (up, down):  3.621E-06 0.000E+00
          total   stress  (Ry/bohr**3)                   (kbar)     P=        0.69
   0.00000967  -0.00000085   0.00000000            1.42       -0.13        0.00
  -0.00000085   0.00000653  -0.00000000           -0.13        0.96       -0.00
   0.00000000  -0.00000000  -0.00000215            0.00       -0.00       -0.32


     Writing output data file /scratch/as3359/Ta2C_ct_kpts/MoS2.save/
 
     init_run     :     87.97s CPU     46.48s WALL (       1 calls)
     electrons    :   5493.10s CPU   2783.20s WALL (       1 calls)
     forces       :     20.03s CPU     10.16s WALL (       1 calls)
     stress       :     74.20s CPU     37.70s WALL (       1 calls)

     Called by init_run:
     wfcinit      :     77.19s CPU     39.35s WALL (       1 calls)
     potinit      :      3.08s CPU      1.57s WALL (       1 calls)
     hinit0       :      5.91s CPU      4.27s WALL (       1 calls)

     Called by electrons:
     c_bands      :   4789.62s CPU   2421.51s WALL (      26 calls)
     sum_band     :    668.72s CPU    340.73s WALL (      26 calls)
     v_of_rho     :      9.35s CPU      5.20s WALL (      27 calls)
     newd         :     16.49s CPU     10.75s WALL (      27 calls)
     PAW_pot      :      4.96s CPU      2.55s WALL (      27 calls)
     mix_rho      :      3.58s CPU      2.17s WALL (      26 calls)

     Called by c_bands:
     init_us_2    :    137.09s CPU     68.66s WALL (   21670 calls)
     cegterg      :   4569.32s CPU   2309.24s WALL (   10244 calls)

     Called by *egterg:
     cdiaghg      :     22.63s CPU     11.53s WALL (   54908 calls)
     h_psi        :   3954.79s CPU   2000.79s WALL (   55302 calls)
     s_psi        :    136.45s CPU     68.41s WALL (   55302 calls)
     g_psi        :     28.42s CPU     14.31s WALL (   44664 calls)

     Called by h_psi:
     h_psi:calbec :    120.56s CPU     60.66s WALL (   55302 calls)
     vloc_psi     :   3627.54s CPU   1836.46s WALL (   55302 calls)
     add_vuspsi   :    179.80s CPU     90.12s WALL (   55302 calls)

     General routines
     calbec       :    152.57s CPU     76.81s WALL (   67516 calls)
     fft          :      5.57s CPU      3.07s WALL (     374 calls)
     ffts         :      0.53s CPU      0.27s WALL (      53 calls)
     fftw         :   3583.00s CPU   1815.56s WALL ( 1062256 calls)
     interpolate  :      0.90s CPU      0.52s WALL (      27 calls)
 
     Parallel routines
 
     PWSCF        :      1h34m CPU  48m10.71s WALL

 
   This run was terminated on:  17:19:52   7Apr2022            

=------------------------------------------------------------------------------=
   JOB DONE.
=------------------------------------------------------------------------------=
