
     Program PWSCF v.6.8 starts on  6Apr2022 at 13: 2:37 

     This program is part of the open-source Quantum ESPRESSO suite
     for quantum simulation of materials; please cite
         "P. Giannozzi et al., J. Phys.:Condens. Matter 21 395502 (2009);
         "P. Giannozzi et al., J. Phys.:Condens. Matter 29 465901 (2017);
         "P. Giannozzi et al., J. Chem. Phys. 152 154105 (2020);
          URL http://www.quantum-espresso.org", 
     in publications or presentations arising from this work. More details at
     http://www.quantum-espresso.org/quote

     Parallel version (MPI & OpenMP), running on       4 processor cores
     Number of MPI processes:                 2
     Threads/MPI process:                     2

     MPI processes distributed on     1 nodes
     R & G space division:  proc/nbgrp/npool/nimage =       2
     124671 MiB available memory on the printing compute node when the environment starts
 
     Waiting for input...
     Reading input from standard input

     Current dimensions of program PWSCF are:
     Max number of different atomic species (ntypx) = 10
     Max number of k-points (npk) =  40000
     Max angular momentum in pseudopotentials (lmaxx) =  4
     file Ta.pbesol-spfn-rrkjus_psl.1.0.0.UPF: wavefunction(s)  5S 5P renormalized

     Subspace diagonalization in iterative solution of the eigenvalue problem:
     a serial algorithm will be used

 
     Parallelization info
     --------------------
     sticks:   dense  smooth     PW     G-vecs:    dense   smooth      PW
     Min         337     276     90                69730    49933    9188
     Max         340     277     91                69735    49936    9193
     Sum         677     553    181               139465    99869   18381
 
     Using Slab Decomposition
 


     bravais-lattice index     =            0
     lattice parameter (alat)  =       5.5500  a.u.
     unit-cell volume          =    1590.9767 (a.u.)^3
     number of atoms/cell      =            3
     number of atomic types    =            2
     number of electrons       =        58.00
     number of Kohn-Sham states=           35
     kinetic-energy cutoff     =      60.0000  Ry
     charge density cutoff     =     300.0000  Ry
     scf convergence threshold =      1.0E-12
     mixing beta               =       0.7000
     number of iterations used =            8  plain     mixing
     Exchange-correlation= PBESOL
                           (   1   4  10   8   0   0   0)

     celldm(1)=   5.550000  celldm(2)=   0.000000  celldm(3)=   0.000000
     celldm(4)=   0.000000  celldm(5)=   0.000000  celldm(6)=   0.000000

     crystal axes: (cart. coord. in units of alat)
               a(1) = (   1.034755   0.000332   0.000000 )  
               a(2) = (  -0.516415   0.899223   0.000000 )  
               a(3) = (   0.000000   0.000000  10.000000 )  

     reciprocal axes: (cart. coord. in units 2 pi/alat)
               b(1) = (  0.966234  0.554899  0.000000 )  
               b(2) = ( -0.000357  1.111867  0.000000 )  
               b(3) = (  0.000000  0.000000  0.100000 )  


     PseudoPot. # 1 for Ta read from file:
     /shared/home/as3359/pseudo/Ta.pbesol-spfn-rrkjus_psl.1.0.0.UPF
     MD5 check sum: f099565ffaca9b150a52e9412a28e20b
     Pseudo is Ultrasoft + core correction, Zval = 27.0
     Generated using &quot;atomic&quot; code by A. Dal Corso  v.6.3
     Using radial grid of 1273 points,  8 beta functions with: 
                l(1) =   0
                l(2) =   0
                l(3) =   1
                l(4) =   1
                l(5) =   2
                l(6) =   2
                l(7) =   3
                l(8) =   3
     Q(r) pseudized with 0 coefficients 


     PseudoPot. # 2 for C  read from file:
     /shared/home/as3359/pseudo/C.pbesol-n-rrkjus_psl.1.0.0.UPF
     MD5 check sum: 05995be603a8a7c99da3dc4413f31573
     Pseudo is Ultrasoft + core correction, Zval =  4.0
     Generated using &quot;atomic&quot; code by A. Dal Corso  v.6.3MaX
     Using radial grid of 1073 points,  4 beta functions with: 
                l(1) =   0
                l(2) =   0
                l(3) =   1
                l(4) =   1
     Q(r) pseudized with 0 coefficients 


     atomic species   valence    mass     pseudopotential
        Ta            27.00   180.94788     Ta( 1.00)
        C              4.00    12.01070     C ( 1.00)

     No symmetry found



   Cartesian axes

     site n.     atom                  positions (alat units)
         1           C   tau(   1) = (   0.0000000   0.0000000   0.0000000  )
         2           Ta  tau(   2) = (   0.5175488   0.3007354  -0.4118949  )
         3           Ta  tau(   3) = (   0.0008549   0.5988783   0.4118273  )

     number of k points=    74  Marzari-Vanderbilt smearing, width (Ry)=  0.0010
                       cart. coord. in units 2pi/alat
        k(    1) = (   0.0000000   0.0000000   0.0000000), wk =   0.0138889
        k(    2) = (  -0.0000297   0.0926556   0.0000000), wk =   0.0277778
        k(    3) = (  -0.0000594   0.1853111   0.0000000), wk =   0.0277778
        k(    4) = (  -0.0000892   0.2779667   0.0000000), wk =   0.0277778
        k(    5) = (  -0.0001189   0.3706222   0.0000000), wk =   0.0277778
        k(    6) = (  -0.0001486   0.4632778   0.0000000), wk =   0.0277778
        k(    7) = (   0.0001783  -0.5559333   0.0000000), wk =   0.0138889
        k(    8) = (   0.0805195   0.0462416   0.0000000), wk =   0.0277778
        k(    9) = (   0.0804898   0.1388972   0.0000000), wk =   0.0277778
        k(   10) = (   0.0804601   0.2315527   0.0000000), wk =   0.0277778
        k(   11) = (   0.0804304   0.3242083   0.0000000), wk =   0.0277778
        k(   12) = (   0.0804007   0.4168638   0.0000000), wk =   0.0277778
        k(   13) = (   0.0803709   0.5095194   0.0000000), wk =   0.0277778
        k(   14) = (   0.0806978  -0.5096917   0.0000000), wk =   0.0277778
        k(   15) = (   0.0806681  -0.4170361   0.0000000), wk =   0.0277778
        k(   16) = (   0.0806384  -0.3243806   0.0000000), wk =   0.0277778
        k(   17) = (   0.0806087  -0.2317250   0.0000000), wk =   0.0277778
        k(   18) = (   0.0805790  -0.1390695   0.0000000), wk =   0.0277778
        k(   19) = (   0.0805492  -0.0464139   0.0000000), wk =   0.0277778
        k(   20) = (   0.1610391   0.0924832   0.0000000), wk =   0.0277778
        k(   21) = (   0.1610093   0.1851388   0.0000000), wk =   0.0277778
        k(   22) = (   0.1609796   0.2777943   0.0000000), wk =   0.0277778
        k(   23) = (   0.1609499   0.3704499   0.0000000), wk =   0.0277778
        k(   24) = (   0.1609202   0.4631054   0.0000000), wk =   0.0277778
        k(   25) = (   0.1608905   0.5557610   0.0000000), wk =   0.0277778
        k(   26) = (   0.1612174  -0.4634501   0.0000000), wk =   0.0277778
        k(   27) = (   0.1611876  -0.3707945   0.0000000), wk =   0.0277778
        k(   28) = (   0.1611579  -0.2781390   0.0000000), wk =   0.0277778
        k(   29) = (   0.1611282  -0.1854834   0.0000000), wk =   0.0277778
        k(   30) = (   0.1610985  -0.0928279   0.0000000), wk =   0.0277778
        k(   31) = (   0.1610688  -0.0001723   0.0000000), wk =   0.0277778
        k(   32) = (   0.2415586   0.1387248   0.0000000), wk =   0.0277778
        k(   33) = (   0.2415289   0.2313804   0.0000000), wk =   0.0277778
        k(   34) = (   0.2414991   0.3240359   0.0000000), wk =   0.0277778
        k(   35) = (   0.2414694   0.4166915   0.0000000), wk =   0.0277778
        k(   36) = (   0.2414397   0.5093470   0.0000000), wk =   0.0277778
        k(   37) = (   0.2414100   0.6020026   0.0000000), wk =   0.0277778
        k(   38) = (   0.2417369  -0.4172085   0.0000000), wk =   0.0277778
        k(   39) = (   0.2417072  -0.3245529   0.0000000), wk =   0.0277778
        k(   40) = (   0.2416775  -0.2318974   0.0000000), wk =   0.0277778
        k(   41) = (   0.2416477  -0.1392418   0.0000000), wk =   0.0277778
        k(   42) = (   0.2416180  -0.0465863   0.0000000), wk =   0.0277778
        k(   43) = (   0.2415883   0.0460693   0.0000000), wk =   0.0277778
        k(   44) = (   0.3220781   0.1849664   0.0000000), wk =   0.0277778
        k(   45) = (   0.3220484   0.2776220   0.0000000), wk =   0.0277778
        k(   46) = (   0.3220187   0.3702775   0.0000000), wk =   0.0277778
        k(   47) = (   0.3219889   0.4629331   0.0000000), wk =   0.0277778
        k(   48) = (   0.3219592   0.5555886   0.0000000), wk =   0.0277778
        k(   49) = (   0.3219295   0.6482442   0.0000000), wk =   0.0277778
        k(   50) = (   0.3222564  -0.3709669   0.0000000), wk =   0.0277778
        k(   51) = (   0.3222267  -0.2783113   0.0000000), wk =   0.0277778
        k(   52) = (   0.3221970  -0.1856558   0.0000000), wk =   0.0277778
        k(   53) = (   0.3221673  -0.0930002   0.0000000), wk =   0.0277778
        k(   54) = (   0.3221375  -0.0003447   0.0000000), wk =   0.0277778
        k(   55) = (   0.3221078   0.0923109   0.0000000), wk =   0.0277778
        k(   56) = (   0.4025976   0.2312080   0.0000000), wk =   0.0277778
        k(   57) = (   0.4025679   0.3238636   0.0000000), wk =   0.0277778
        k(   58) = (   0.4025382   0.4165191   0.0000000), wk =   0.0277778
        k(   59) = (   0.4025085   0.5091747   0.0000000), wk =   0.0277778
        k(   60) = (   0.4024788   0.6018302   0.0000000), wk =   0.0277778
        k(   61) = (   0.4024490   0.6944858   0.0000000), wk =   0.0277778
        k(   62) = (   0.4027759  -0.3247253   0.0000000), wk =   0.0277778
        k(   63) = (   0.4027462  -0.2320697   0.0000000), wk =   0.0277778
        k(   64) = (   0.4027165  -0.1394142   0.0000000), wk =   0.0277778
        k(   65) = (   0.4026868  -0.0467586   0.0000000), wk =   0.0277778
        k(   66) = (   0.4026571   0.0458969   0.0000000), wk =   0.0277778
        k(   67) = (   0.4026274   0.1385525   0.0000000), wk =   0.0277778
        k(   68) = (  -0.4831172  -0.2774496   0.0000000), wk =   0.0138889
        k(   69) = (  -0.4831469  -0.1847941   0.0000000), wk =   0.0277778
        k(   70) = (  -0.4831766  -0.0921385   0.0000000), wk =   0.0277778
        k(   71) = (  -0.4832063   0.0005170   0.0000000), wk =   0.0277778
        k(   72) = (  -0.4832360   0.0931726   0.0000000), wk =   0.0277778
        k(   73) = (  -0.4832658   0.1858281   0.0000000), wk =   0.0277778
        k(   74) = (  -0.4829388  -0.8333830   0.0000000), wk =   0.0138889

     Dense  grid:   139465 G-vectors     FFT dimensions: (  32,  32, 320)

     Smooth grid:    99869 G-vectors     FFT dimensions: (  30,  30, 288)

     Estimated max dynamical RAM per process >     925.06 MB

     Estimated total dynamical RAM >       1.81 GB

     Check: negative core charge=   -0.000001

     Initial potential from superposition of free atoms

     starting charge   57.99842, renormalised to   58.00000

     negative rho (up, down):  8.387E-04 0.000E+00
     Starting wfcs are   38 randomized atomic wfcs

     total cpu time spent up to now is        7.2 secs

     Self-consistent Calculation

     iteration #  1     ecut=    60.00 Ry     beta= 0.70
     Davidson diagonalization with overlap
     ethr =  1.00E-02,  avg # of iterations =  2.2

     negative rho (up, down):  7.530E-04 0.000E+00

     total cpu time spent up to now is       19.8 secs

     total energy              =   -1372.44249284 Ry
     estimated scf accuracy    <       1.30524669 Ry

     iteration #  2     ecut=    60.00 Ry     beta= 0.70
     Davidson diagonalization with overlap
     ethr =  2.25E-03,  avg # of iterations = 12.3

     total cpu time spent up to now is       39.8 secs

     total energy              =   -1370.52577822 Ry
     estimated scf accuracy    <      17.94560637 Ry

     iteration #  3     ecut=    60.00 Ry     beta= 0.70
     Davidson diagonalization with overlap
     ethr =  2.25E-03,  avg # of iterations =  9.1

     total cpu time spent up to now is       58.1 secs

     total energy              =   -1373.20960551 Ry
     estimated scf accuracy    <       0.36436425 Ry

     iteration #  4     ecut=    60.00 Ry     beta= 0.70
     Davidson diagonalization with overlap
     ethr =  6.28E-04,  avg # of iterations =  3.1

     total cpu time spent up to now is       71.0 secs

     total energy              =   -1373.23071981 Ry
     estimated scf accuracy    <       0.55887092 Ry

     iteration #  5     ecut=    60.00 Ry     beta= 0.70
     Davidson diagonalization with overlap
     ethr =  6.28E-04,  avg # of iterations =  1.4

     total cpu time spent up to now is       82.2 secs

     total energy              =   -1373.25186555 Ry
     estimated scf accuracy    <       0.40248571 Ry

     iteration #  6     ecut=    60.00 Ry     beta= 0.70
     Davidson diagonalization with overlap
     ethr =  6.28E-04,  avg # of iterations =  1.0

     total cpu time spent up to now is       93.1 secs

     total energy              =   -1373.25572183 Ry
     estimated scf accuracy    <       0.03794519 Ry

     iteration #  7     ecut=    60.00 Ry     beta= 0.70
     Davidson diagonalization with overlap
     ethr =  6.54E-05,  avg # of iterations =  3.0

     total cpu time spent up to now is      104.9 secs

     total energy              =   -1373.24827811 Ry
     estimated scf accuracy    <       0.02451936 Ry

     iteration #  8     ecut=    60.00 Ry     beta= 0.70
     Davidson diagonalization with overlap
     ethr =  4.23E-05,  avg # of iterations =  2.1

     total cpu time spent up to now is      116.5 secs

     total energy              =   -1373.24846278 Ry
     estimated scf accuracy    <       0.01232477 Ry

     iteration #  9     ecut=    60.00 Ry     beta= 0.70
     Davidson diagonalization with overlap
     ethr =  2.12E-05,  avg # of iterations =  1.3

     total cpu time spent up to now is      127.7 secs

     total energy              =   -1373.24816314 Ry
     estimated scf accuracy    <       0.00304631 Ry

     iteration # 10     ecut=    60.00 Ry     beta= 0.70
     Davidson diagonalization with overlap
     ethr =  5.25E-06,  avg # of iterations =  3.7

     negative rho (up, down):  2.669E-03 0.000E+00

     total cpu time spent up to now is      139.8 secs

     total energy              =   -1373.24728932 Ry
     estimated scf accuracy    <       0.00178517 Ry

     iteration # 11     ecut=    60.00 Ry     beta= 0.70
     Davidson diagonalization with overlap
     ethr =  3.08E-06,  avg # of iterations =  4.0

     negative rho (up, down):  6.531E-04 0.000E+00

     total cpu time spent up to now is      152.7 secs

     total energy              =   -1373.24751070 Ry
     estimated scf accuracy    <       0.00064403 Ry

     iteration # 12     ecut=    60.00 Ry     beta= 0.70
     Davidson diagonalization with overlap
     ethr =  1.11E-06,  avg # of iterations =  1.6
     Minimization algorithm failed to find Fermi energy: reverting to bisection
     Possible cause: smearing is larger than the electronic band-gap.

     negative rho (up, down):  7.658E-04 0.000E+00

     total cpu time spent up to now is      164.0 secs

     total energy              =   -1373.24754097 Ry
     estimated scf accuracy    <       0.00004155 Ry

     iteration # 13     ecut=    60.00 Ry     beta= 0.70
     Davidson diagonalization with overlap
     ethr =  7.16E-08,  avg # of iterations =  1.9
     Minimization algorithm failed to find Fermi energy: reverting to bisection
     Possible cause: smearing is larger than the electronic band-gap.

     negative rho (up, down):  8.075E-04 0.000E+00

     total cpu time spent up to now is      175.5 secs

     total energy              =   -1373.24754244 Ry
     estimated scf accuracy    <       0.00000484 Ry

     iteration # 14     ecut=    60.00 Ry     beta= 0.70
     Davidson diagonalization with overlap
     ethr =  8.35E-09,  avg # of iterations =  2.2
     Minimization algorithm failed to find Fermi energy: reverting to bisection
     Possible cause: smearing is larger than the electronic band-gap.

     negative rho (up, down):  8.239E-04 0.000E+00

     total cpu time spent up to now is      187.6 secs

     total energy              =   -1373.24754285 Ry
     estimated scf accuracy    <       0.00001612 Ry

     iteration # 15     ecut=    60.00 Ry     beta= 0.70
     Davidson diagonalization with overlap
     ethr =  8.35E-09,  avg # of iterations =  1.0
     Minimization algorithm failed to find Fermi energy: reverting to bisection
     Possible cause: smearing is larger than the electronic band-gap.

     negative rho (up, down):  8.296E-04 0.000E+00

     total cpu time spent up to now is      198.6 secs

     total energy              =   -1373.24754311 Ry
     estimated scf accuracy    <       0.00000009 Ry

     iteration # 16     ecut=    60.00 Ry     beta= 0.70
     Davidson diagonalization with overlap
     ethr =  1.60E-10,  avg # of iterations =  4.0
     Minimization algorithm failed to find Fermi energy: reverting to bisection
     Possible cause: smearing is larger than the electronic band-gap.

     negative rho (up, down):  8.287E-04 0.000E+00

     total cpu time spent up to now is      212.0 secs

     total energy              =   -1373.24754313 Ry
     estimated scf accuracy    <       0.00000002 Ry

     iteration # 17     ecut=    60.00 Ry     beta= 0.70
     Davidson diagonalization with overlap
     ethr =  4.11E-11,  avg # of iterations =  2.4
     Minimization algorithm failed to find Fermi energy: reverting to bisection
     Possible cause: smearing is larger than the electronic band-gap.

     negative rho (up, down):  8.290E-04 0.000E+00

     total cpu time spent up to now is      225.7 secs

     total energy              =   -1373.24754313 Ry
     estimated scf accuracy    <          5.9E-09 Ry

     iteration # 18     ecut=    60.00 Ry     beta= 0.70
     Davidson diagonalization with overlap
     ethr =  1.02E-11,  avg # of iterations =  2.0
     Minimization algorithm failed to find Fermi energy: reverting to bisection
     Possible cause: smearing is larger than the electronic band-gap.

     negative rho (up, down):  8.289E-04 0.000E+00

     total cpu time spent up to now is      237.8 secs

     total energy              =   -1373.24754313 Ry
     estimated scf accuracy    <          1.5E-09 Ry

     iteration # 19     ecut=    60.00 Ry     beta= 0.70
     Davidson diagonalization with overlap
     ethr =  2.58E-12,  avg # of iterations =  2.0
     Minimization algorithm failed to find Fermi energy: reverting to bisection
     Possible cause: smearing is larger than the electronic band-gap.

     negative rho (up, down):  8.290E-04 0.000E+00

     total cpu time spent up to now is      249.4 secs

     total energy              =   -1373.24754313 Ry
     estimated scf accuracy    <          8.6E-11 Ry

     iteration # 20     ecut=    60.00 Ry     beta= 0.70
     Davidson diagonalization with overlap
     ethr =  1.48E-13,  avg # of iterations =  4.0
     Minimization algorithm failed to find Fermi energy: reverting to bisection
     Possible cause: smearing is larger than the electronic band-gap.

     negative rho (up, down):  8.290E-04 0.000E+00

     total cpu time spent up to now is      264.1 secs

     total energy              =   -1373.24754313 Ry
     estimated scf accuracy    <          2.6E-11 Ry

     iteration # 21     ecut=    60.00 Ry     beta= 0.70
     Davidson diagonalization with overlap
     ethr =  1.00E-13,  avg # of iterations =  1.6
     Minimization algorithm failed to find Fermi energy: reverting to bisection
     Possible cause: smearing is larger than the electronic band-gap.

     negative rho (up, down):  8.290E-04 0.000E+00

     total cpu time spent up to now is      275.4 secs

     total energy              =   -1373.24754313 Ry
     estimated scf accuracy    <          9.3E-12 Ry

     iteration # 22     ecut=    60.00 Ry     beta= 0.70
     Davidson diagonalization with overlap
     ethr =  1.00E-13,  avg # of iterations =  1.0
     Minimization algorithm failed to find Fermi energy: reverting to bisection
     Possible cause: smearing is larger than the electronic band-gap.

     negative rho (up, down):  8.290E-04 0.000E+00

     total cpu time spent up to now is      286.3 secs

     total energy              =   -1373.24754313 Ry
     estimated scf accuracy    <          2.2E-12 Ry

     iteration # 23     ecut=    60.00 Ry     beta= 0.70
     Davidson diagonalization with overlap
     ethr =  1.00E-13,  avg # of iterations =  1.0
     Minimization algorithm failed to find Fermi energy: reverting to bisection
     Possible cause: smearing is larger than the electronic band-gap.

     negative rho (up, down):  8.290E-04 0.000E+00

     total cpu time spent up to now is      297.1 secs

     End of self-consistent calculation

          k = 0.0000 0.0000 0.0000 ( 12419 PWs)   bands (ev):

   -68.3289 -68.2808 -35.3543 -34.7493 -34.4462 -34.4437 -34.3806 -34.3762
   -20.0444 -20.0311 -20.0072 -20.0059 -20.0015 -20.0012 -19.9746 -19.9738
   -19.9681 -19.9680 -19.9565 -19.9516 -19.8910 -19.8892 -13.3075  -7.7354
    -4.4404  -4.3931  -2.0053  -1.0111  -0.8064  -0.2809  -0.2115   1.7027
     1.7139   2.7937   2.8492

          k =-0.0000 0.0927 0.0000 ( 12387 PWs)   bands (ev):

   -68.3251 -68.2784 -35.3417 -34.7547 -34.4932 -34.4597 -34.4244 -34.3823
   -20.0430 -20.0302 -20.0079 -20.0070 -20.0015 -20.0001 -19.9754 -19.9742
   -19.9684 -19.9675 -19.9538 -19.9488 -19.8934 -19.8920 -13.1930  -7.5149
    -4.7644  -4.3577  -1.9060  -1.1813  -0.6204  -0.5276  -0.0348   1.3804
     1.6024   2.7980   3.0695

          k =-0.0001 0.1853 0.0000 ( 12438 PWs)   bands (ev):

   -68.3146 -68.2720 -35.3076 -34.7837 -34.6066 -34.5407 -34.5009 -34.4012
   -20.0392 -20.0279 -20.0114 -20.0083 -20.0023 -19.9976 -19.9791 -19.9734
   -19.9692 -19.9657 -19.9463 -19.9417 -19.9010 -19.9000 -12.8909  -6.9321
    -5.4220  -4.2910  -1.8945  -1.5488  -1.0660  -0.0964   0.4532   1.1927
     1.6463   2.8742   3.3967

          k =-0.0001 0.2780 0.0000 ( 12458 PWs)   bands (ev):

   -68.2997 -68.2637 -35.2643 -34.8894 -34.7029 -34.6797 -34.5536 -34.4301
   -20.0351 -20.0246 -20.0156 -20.0096 -20.0037 -19.9953 -19.9831 -19.9717
   -19.9701 -19.9628 -19.9358 -19.9320 -19.9110 -19.9098 -12.5094  -6.5086
    -5.7313  -4.2749  -2.5198  -1.6223  -1.1165   0.5448   1.1315   1.3617
     2.2163   2.9707   3.5723

          k =-0.0001 0.3706 0.0000 ( 12478 PWs)   bands (ev):

   -68.2841 -68.2560 -35.2347 -35.0464 -34.8179 -34.7255 -34.6039 -34.4608
   -20.0333 -20.0204 -20.0186 -20.0111 -20.0060 -19.9943 -19.9854 -19.9708
   -19.9694 -19.9596 -19.9251 -19.9222 -19.9207 -19.9185 -12.1733  -6.8796
    -5.2611  -4.3309  -3.1544  -1.2965  -0.7686   1.2066   1.7997   1.9498
     2.8850   3.2222   3.6519

          k =-0.0001 0.4633 0.0000 ( 12489 PWs)   bands (ev):

   -68.2717 -68.2514 -35.2390 -35.1650 -34.8753 -34.7505 -34.6397 -34.4838
   -20.0335 -20.0197 -20.0172 -20.0124 -20.0083 -19.9945 -19.9859 -19.9712
   -19.9672 -19.9570 -19.9276 -19.9241 -19.9171 -19.9150 -11.9628  -7.1922
    -5.0339  -4.4051  -3.5519  -0.5291  -0.2709   1.7403   2.1473   2.7254
     2.7874   3.6830   4.3927

          k = 0.0002-0.5559 0.0000 ( 12496 PWs)   bands (ev):

   -68.2667 -68.2501 -35.2525 -35.2053 -34.8841 -34.7620 -34.6527 -34.4924
   -20.0339 -20.0196 -20.0166 -20.0129 -20.0089 -19.9947 -19.9857 -19.9713
   -19.9664 -19.9559 -19.9301 -19.9260 -19.9140 -19.9126 -11.8942  -7.2992
    -5.0007  -4.4375  -3.6844  -0.0437  -0.0157   1.8642   2.1880   2.9171
     3.0012   3.8585   4.9379

          k = 0.0805 0.0462 0.0000 ( 12392 PWs)   bands (ev):

   -68.3251 -68.2784 -35.3416 -34.7548 -34.4912 -34.4622 -34.4216 -34.3856
   -20.0429 -20.0302 -20.0082 -20.0068 -20.0013 -20.0003 -19.9758 -19.9738
   -19.9685 -19.9674 -19.9538 -19.9488 -19.8935 -19.8921 -13.1924  -7.5140
    -4.7426  -4.3830  -1.9045  -1.1804  -0.6216  -0.4980  -0.0688   1.3810
     1.5905   2.8365   3.0445

          k = 0.0805 0.1389 0.0000 ( 12396 PWs)   bands (ev):

   -68.3179 -68.2740 -35.3182 -34.7704 -34.5616 -34.5345 -34.4612 -34.4057
   -20.0403 -20.0287 -20.0096 -20.0087 -20.0016 -19.9986 -19.9779 -19.9738
   -19.9687 -19.9665 -19.9486 -19.9440 -19.8985 -19.8974 -12.9842  -7.1040
    -5.2194  -4.3621  -1.8056  -1.3736  -0.9957  -0.2999   0.2414   1.3024
     1.4599   3.0367   3.2391

          k = 0.0805 0.2316 0.0000 ( 12429 PWs)   bands (ev):

   -68.3052 -68.2667 -35.2789 -34.8304 -34.6715 -34.6446 -34.5202 -34.4378
   -20.0359 -20.0261 -20.0132 -20.0105 -20.0022 -19.9964 -19.9817 -19.9730
   -19.9688 -19.9645 -19.9397 -19.9355 -19.9074 -19.9065 -12.6419  -6.4508
    -5.7752  -4.4378  -2.0440  -1.5422  -1.2182   0.2042   0.3958   1.5729
     1.8988   2.9903   3.7673

          k = 0.0804 0.3242 0.0000 ( 12476 PWs)   bands (ev):

   -68.2900 -68.2587 -35.2404 -34.9647 -34.7832 -34.7112 -34.5860 -34.4720
   -20.0324 -20.0227 -20.0169 -20.0119 -20.0039 -19.9950 -19.9849 -19.9720
   -19.9683 -19.9617 -19.9292 -19.9259 -19.9173 -19.9159 -12.2833  -6.5471
    -5.4804  -4.5587  -2.6918  -1.2701  -1.1390   0.6244   0.9338   2.1910
     2.6361   3.0954   4.0892

          k = 0.0804 0.4169 0.0000 ( 12475 PWs)   bands (ev):

   -68.2758 -68.2527 -35.2254 -35.1027 -34.8573 -34.7504 -34.6363 -34.5022
   -20.0317 -20.0191 -20.0185 -20.0126 -20.0066 -19.9948 -19.9863 -19.9712
   -19.9674 -19.9589 -19.9259 -19.9233 -19.9196 -19.9172 -12.0127  -6.9389
    -5.0565  -4.6512  -3.1343  -0.8254  -0.6744   1.0888   1.7444   2.2939
     3.2200   3.9068   4.2633

          k = 0.0804 0.5095 0.0000 ( 12517 PWs)   bands (ev):

   -68.2667 -68.2501 -35.2347 -35.1828 -34.8762 -34.7787 -34.6622 -34.5199
   -20.0322 -20.0196 -20.0164 -20.0128 -20.0087 -19.9952 -19.9864 -19.9709
   -19.9667 -19.9570 -19.9308 -19.9272 -19.9141 -19.9126 -11.8765  -7.1491
    -4.9500  -4.7125  -3.3415  -0.2525  -0.1822   1.4806   2.0573   2.3765
     3.7565   3.9543   5.0303

          k = 0.0807-0.5097 0.0000 ( 12519 PWs)   bands (ev):

   -68.2666 -68.2501 -35.2351 -35.1830 -34.8766 -34.7785 -34.6619 -34.5198
   -20.0322 -20.0195 -20.0166 -20.0129 -20.0084 -19.9952 -19.9864 -19.9709
   -19.9667 -19.9570 -19.9308 -19.9272 -19.9140 -19.9126 -11.8762  -7.1497
    -4.9511  -4.7110  -3.3431  -0.2525  -0.1824   1.4782   2.0586   2.3730
     3.7650   3.9509   5.0351

          k = 0.0807-0.4170 0.0000 ( 12484 PWs)   bands (ev):

   -68.2757 -68.2526 -35.2260 -35.1036 -34.8587 -34.7501 -34.6354 -34.5017
   -20.0317 -20.0190 -20.0186 -20.0131 -20.0062 -19.9947 -19.9864 -19.9714
   -19.9672 -19.9589 -19.9259 -19.9234 -19.9195 -19.9173 -12.0120  -6.9405
    -5.0567  -4.6505  -3.1384  -0.8223  -0.6765   1.0864   1.7380   2.2960
     3.2339   3.9066   4.2644

          k = 0.0806-0.3244 0.0000 ( 12482 PWs)   bands (ev):

   -68.2898 -68.2586 -35.2405 -34.9662 -34.7852 -34.7115 -34.5846 -34.4713
   -20.0324 -20.0225 -20.0170 -20.0123 -20.0037 -19.9948 -19.9851 -19.9722
   -19.9681 -19.9617 -19.9292 -19.9258 -19.9174 -19.9159 -12.2822  -6.5485
    -5.4792  -4.5599  -2.6960  -1.2692  -1.1375   0.6232   0.9293   2.1962
     2.6365   3.1009   4.0887

          k = 0.0806-0.2317 0.0000 ( 12427 PWs)   bands (ev):

   -68.3051 -68.2666 -35.2788 -34.8313 -34.6724 -34.6466 -34.5190 -34.4371
   -20.0358 -20.0260 -20.0136 -20.0105 -20.0021 -19.9962 -19.9820 -19.9730
   -19.9687 -19.9644 -19.9396 -19.9355 -19.9074 -19.9065 -12.6408  -6.4494
    -5.7741  -4.4410  -2.0459  -1.5405  -1.2178   0.1956   0.4026   1.5727
     1.8914   2.9949   3.7707

          k = 0.0806-0.1391 0.0000 ( 12399 PWs)   bands (ev):

   -68.3178 -68.2740 -35.3180 -34.7706 -34.5631 -34.5350 -34.4611 -34.4053
   -20.0402 -20.0286 -20.0105 -20.0080 -20.0017 -19.9983 -19.9784 -19.9734
   -19.9688 -19.9663 -19.9486 -19.9440 -19.8986 -19.8975 -12.9833  -7.1024
    -5.2123  -4.3721  -1.8043  -1.3724  -0.9892  -0.3030   0.2333   1.2975
     1.4558   3.0372   3.2468

          k = 0.0805-0.0464 0.0000 ( 12391 PWs)   bands (ev):

   -68.3250 -68.2784 -35.3415 -34.7548 -34.4918 -34.4619 -34.4219 -34.3856
   -20.0429 -20.0302 -20.0086 -20.0063 -20.0016 -20.0000 -19.9762 -19.9735
   -19.9685 -19.9673 -19.9538 -19.9488 -19.8935 -19.8921 -13.1920  -7.5134
    -4.7298  -4.3976  -1.9034  -1.1798  -0.6199  -0.4818  -0.0899   1.3817
     1.5828   2.8552   3.0331

          k = 0.1610 0.0925 0.0000 ( 12446 PWs)   bands (ev):

   -68.3144 -68.2719 -35.3071 -34.7837 -34.6052 -34.5390 -34.5042 -34.4050
   -20.0391 -20.0279 -20.0118 -20.0080 -20.0021 -19.9977 -19.9796 -19.9731
   -19.9693 -19.9655 -19.9462 -19.9416 -19.9012 -19.9001 -12.8888  -6.9291
    -5.4051  -4.3177  -1.8854  -1.5488  -1.0597  -0.0916   0.4255   1.1959
     1.6281   2.9135   3.3767

          k = 0.1610 0.1851 0.0000 ( 12440 PWs)   bands (ev):

   -68.3051 -68.2666 -35.2786 -34.8301 -34.6708 -34.6447 -34.5215 -34.4403
   -20.0358 -20.0262 -20.0136 -20.0102 -20.0022 -19.9964 -19.9820 -19.9728
   -19.9689 -19.9643 -19.9396 -19.9355 -19.9074 -19.9066 -12.6405  -6.4484
    -5.7674  -4.4525  -2.0332  -1.5455  -1.2233   0.2088   0.3949   1.5571
     1.9040   2.9977   3.7638

          k = 0.1610 0.2778 0.0000 ( 12471 PWs)   bands (ev):

   -68.2919 -68.2596 -35.2426 -34.9139 -34.7905 -34.6967 -34.5669 -34.5016
   -20.0311 -20.0242 -20.0149 -20.0140 -20.0025 -19.9957 -19.9848 -19.9727
   -19.9666 -19.9634 -19.9306 -19.9271 -19.9159 -19.9156 -12.3208  -6.1747
    -5.7421  -4.7914  -2.1929  -1.7001  -0.6682  -0.2413   0.7575   2.2814
     2.5896   2.9790   4.5906

          k = 0.1609 0.3704 0.0000 ( 12500 PWs)   bands (ev):

   -68.2779 -68.2535 -35.2149 -35.0216 -34.8712 -34.7387 -34.6342 -34.5531
   -20.0277 -20.0217 -20.0169 -20.0146 -20.0042 -19.9959 -19.9870 -19.9719
   -19.9651 -19.9620 -19.9252 -19.9243 -19.9209 -19.9185 -12.0304  -6.5123
    -5.1876  -5.0111  -2.4563  -1.3852  -0.6928   0.1651   1.3915   2.3130
     3.3567   3.6855   5.2158

          k = 0.1609 0.4631 0.0000 ( 12511 PWs)   bands (ev):

   -68.2665 -68.2500 -35.2025 -35.1164 -34.8853 -34.7976 -34.6770 -34.5873
   -20.0279 -20.0196 -20.0166 -20.0131 -20.0070 -19.9965 -19.9878 -19.9705
   -19.9661 -19.9598 -19.9317 -19.9296 -19.9142 -19.9125 -11.8404  -6.7654
    -5.2052  -4.8288  -2.6269  -0.7802  -0.5812   0.6350   2.0593   2.2975
     3.6827   4.1351   5.6887

          k = 0.1609 0.5558 0.0000 ( 12531 PWs)   bands (ev):

   -68.2617 -68.2494 -35.1953 -35.1595 -34.8563 -34.8523 -34.6880 -34.5998
   -20.0284 -20.0195 -20.0152 -20.0124 -20.0084 -19.9968 -19.9881 -19.9695
   -19.9671 -19.9589 -19.9342 -19.9316 -19.9114 -19.9104 -11.7760  -6.8588
    -5.2324  -4.7800  -2.6941  -0.4362  -0.3819   0.7639   2.2833   2.4356
     3.7407   3.9615   5.9457

          k = 0.1612-0.4635 0.0000 ( 12517 PWs)   bands (ev):

   -68.2664 -68.2500 -35.2038 -35.1177 -34.8869 -34.7967 -34.6765 -34.5864
   -20.0279 -20.0196 -20.0167 -20.0134 -20.0066 -19.9963 -19.9880 -19.9707
   -19.9659 -19.9598 -19.9317 -19.9297 -19.9141 -19.9124 -11.8395  -6.7678
    -5.2059  -4.8290  -2.6298  -0.7848  -0.5789   0.6344   2.0593   2.2982
     3.6801   4.1530   5.6930

          k = 0.1612-0.3708 0.0000 ( 12506 PWs)   bands (ev):

   -68.2777 -68.2533 -35.2157 -35.0244 -34.8730 -34.7392 -34.6329 -34.5517
   -20.0277 -20.0217 -20.0168 -20.0151 -20.0039 -19.9955 -19.9872 -19.9721
   -19.9650 -19.9621 -19.9252 -19.9243 -19.9208 -19.9184 -12.0287  -6.5156
    -5.1853  -5.0144  -2.4616  -1.3885  -0.6883   0.1632   1.3913   2.3174
     3.3618   3.6929   5.2178

          k = 0.1612-0.2781 0.0000 ( 12477 PWs)   bands (ev):

   -68.2917 -68.2595 -35.2426 -34.9165 -34.7926 -34.6979 -34.5660 -34.5003
   -20.0308 -20.0242 -20.0158 -20.0136 -20.0025 -19.9952 -19.9853 -19.9728
   -19.9666 -19.9633 -19.9305 -19.9271 -19.9160 -19.9157 -12.3187  -6.1752
    -5.7393  -4.7966  -2.1956  -1.7008  -0.6697  -0.2411   0.7592   2.2844
     2.5888   2.9815   4.5942

          k = 0.1611-0.1855 0.0000 ( 12446 PWs)   bands (ev):

   -68.3049 -68.2664 -35.2783 -34.8312 -34.6723 -34.6466 -34.5211 -34.4400
   -20.0355 -20.0261 -20.0144 -20.0098 -20.0025 -19.9960 -19.9825 -19.9727
   -19.9689 -19.9642 -19.9396 -19.9354 -19.9075 -19.9068 -12.6385  -6.4448
    -5.7625  -4.4634  -2.0278  -1.5470  -1.2258   0.2023   0.4010   1.5481
     1.8993   3.0050   3.7665

          k = 0.1611-0.0928 0.0000 ( 12458 PWs)   bands (ev):

   -68.3143 -68.2718 -35.3069 -34.7838 -34.6061 -34.5399 -34.5044 -34.4052
   -20.0389 -20.0279 -20.0125 -20.0074 -20.0026 -19.9974 -19.9801 -19.9727
   -19.9694 -19.9654 -19.9462 -19.9416 -19.9012 -19.9002 -12.8876  -6.9267
    -5.3961  -4.3318  -1.8792  -1.5491  -1.0567  -0.0889   0.4095   1.1968
     1.6169   2.9325   3.3683

          k = 0.1611-0.0002 0.0000 ( 12392 PWs)   bands (ev):

   -68.3177 -68.2739 -35.3177 -34.7708 -34.5631 -34.5342 -34.4622 -34.4078
   -20.0401 -20.0286 -20.0108 -20.0078 -20.0015 -19.9985 -19.9788 -19.9732
   -19.9688 -19.9662 -19.9485 -19.9439 -19.8986 -19.8976 -12.9817  -7.1003
    -5.1983  -4.3919  -1.8023  -1.3703  -0.9765  -0.3126   0.2220   1.2937
     1.4480   3.0380   3.2604

          k = 0.2416 0.1387 0.0000 ( 12468 PWs)   bands (ev):

   -68.2993 -68.2634 -35.2635 -34.8895 -34.7027 -34.6791 -34.5579 -34.4345
   -20.0348 -20.0246 -20.0160 -20.0094 -20.0036 -19.9953 -19.9837 -19.9714
   -19.9702 -19.9625 -19.9357 -19.9319 -19.9112 -19.9101 -12.5056  -6.5019
    -5.7222  -4.3036  -2.5098  -1.6250  -1.1160   0.5538   1.1147   1.3664
     2.1973   3.0081   3.5539

          k = 0.2415 0.2314 0.0000 ( 12477 PWs)   bands (ev):

   -68.2896 -68.2585 -35.2397 -34.9642 -34.7835 -34.7107 -34.5897 -34.4758
   -20.0321 -20.0228 -20.0173 -20.0116 -20.0040 -19.9950 -19.9853 -19.9718
   -19.9685 -19.9614 -19.9291 -19.9257 -19.9175 -19.9162 -12.2804  -6.5399
    -5.4777  -4.5800  -2.6832  -1.2711  -1.1437   0.6318   0.9441   2.1818
     2.6439   3.0846   4.0900

          k = 0.2415 0.3240 0.0000 ( 12492 PWs)   bands (ev):

   -68.2777 -68.2534 -35.2147 -35.0210 -34.8720 -34.7382 -34.6362 -34.5550
   -20.0274 -20.0219 -20.0173 -20.0142 -20.0042 -19.9959 -19.9871 -19.9719
   -19.9655 -19.9616 -19.9252 -19.9244 -19.9209 -19.9184 -12.0288  -6.5080
    -5.1964  -5.0139  -2.4540  -1.3818  -0.6984   0.1747   1.3972   2.3154
     3.3520   3.6824   5.2170

          k = 0.2415 0.4167 0.0000 ( 12495 PWs)   bands (ev):

   -68.2663 -68.2500 -35.1881 -35.0536 -34.9380 -34.7710 -34.6903 -34.6329
   -20.0232 -20.0222 -20.0161 -20.0140 -20.0056 -19.9974 -19.9887 -19.9706
   -19.9642 -19.9624 -19.9318 -19.9312 -19.9140 -19.9123 -11.8214  -6.4652
    -5.5343  -4.7653  -1.9005  -1.4703  -0.7737   0.3389   1.9336   2.3548
     3.6772   4.1245   5.9909

          k = 0.2414 0.5093 0.0000 ( 12545 PWs)   bands (ev):

   -68.2582 -68.2494 -35.1498 -35.0948 -34.9576 -34.8193 -34.7100 -34.6798
   -20.0245 -20.0190 -20.0151 -20.0116 -20.0078 -19.9986 -19.9899 -19.9685
   -19.9663 -19.9616 -19.9361 -19.9350 -19.9101 -19.9092 -11.7066  -6.4697
    -5.7137  -4.6055  -1.8175  -0.9761  -0.7445   0.4004   2.3638   2.4337
     3.5628   3.6915   6.0653

          k = 0.2414 0.6020 0.0000 ( 12549 PWs)   bands (ev):

   -68.2581 -68.2494 -35.1512 -35.0958 -34.9574 -34.8194 -34.7102 -34.6788
   -20.0247 -20.0190 -20.0149 -20.0119 -20.0076 -19.9984 -19.9900 -19.9688
   -19.9661 -19.9617 -19.9362 -19.9351 -19.9100 -19.9091 -11.7060  -6.4715
    -5.7141  -4.6066  -1.8178  -0.9835  -0.7399   0.4016   2.3671   2.4330
     3.5529   3.7109   6.0708

          k = 0.2417-0.4172 0.0000 ( 12500 PWs)   bands (ev):

   -68.2660 -68.2498 -35.1898 -35.0571 -34.9379 -34.7721 -34.6896 -34.6312
   -20.0235 -20.0220 -20.0157 -20.0145 -20.0055 -19.9969 -19.9891 -19.9708
   -19.9641 -19.9623 -19.9318 -19.9313 -19.9139 -19.9123 -11.8197  -6.4684
    -5.5368  -4.7671  -1.9042  -1.4753  -0.7700   0.3418   1.9364   2.3579
     3.6736   4.1460   5.9862

          k = 0.2417-0.3246 0.0000 ( 12494 PWs)   bands (ev):

   -68.2774 -68.2532 -35.2155 -35.0241 -34.8740 -34.7390 -34.6356 -34.5539
   -20.0270 -20.0221 -20.0176 -20.0142 -20.0043 -19.9953 -19.9876 -19.9721
   -19.9656 -19.9614 -19.9253 -19.9245 -19.9207 -19.9183 -12.0263  -6.5087
    -5.1986  -5.0181  -2.4571  -1.3841  -0.6977   0.1778   1.4001   2.3212
     3.3548   3.6881   5.2185

          k = 0.2417-0.2319 0.0000 ( 12491 PWs)   bands (ev):

   -68.2893 -68.2583 -35.2397 -34.9663 -34.7862 -34.7113 -34.5896 -34.4759
   -20.0315 -20.0228 -20.0180 -20.0113 -20.0042 -19.9945 -19.9859 -19.9719
   -19.9685 -19.9612 -19.9290 -19.9256 -19.9176 -19.9163 -12.2776  -6.5367
    -5.4746  -4.5920  -2.6816  -1.2716  -1.1456   0.6337   0.9450   2.1819
     2.6488   3.0834   4.0901

          k = 0.2416-0.1392 0.0000 ( 12470 PWs)   bands (ev):

   -68.2991 -68.2633 -35.2632 -34.8904 -34.7039 -34.6799 -34.5586 -34.4351
   -20.0343 -20.0246 -20.0167 -20.0088 -20.0042 -19.9949 -19.9843 -19.9712
   -19.9704 -19.9623 -19.9357 -19.9318 -19.9113 -19.9102 -12.5035  -6.4968
    -5.7175  -4.3182  -2.5033  -1.6269  -1.1168   0.5589   1.1049   1.3673
     2.1862   3.0266   3.5455

          k = 0.2416-0.0466 0.0000 ( 12439 PWs)   bands (ev):

   -68.3047 -68.2663 -35.2779 -34.8325 -34.6727 -34.6473 -34.5218 -34.4406
   -20.0354 -20.0260 -20.0146 -20.0098 -20.0022 -19.9961 -19.9828 -19.9727
   -19.9687 -19.9641 -19.9395 -19.9354 -19.9076 -19.9068 -12.6365  -6.4429
    -5.7610  -4.4700  -2.0307  -1.5455  -1.2246   0.1829   0.4171   1.5509
     1.8878   3.0111   3.7752

          k = 0.2416 0.0461 0.0000 ( 12445 PWs)   bands (ev):

   -68.3048 -68.2664 -35.2781 -34.8324 -34.6721 -34.6474 -34.5211 -34.4403
   -20.0356 -20.0260 -20.0141 -20.0103 -20.0019 -19.9963 -19.9826 -19.9728
   -19.9687 -19.9642 -19.9395 -19.9354 -19.9076 -19.9068 -12.6373  -6.4450
    -5.7648  -4.4624  -2.0381  -1.5423  -1.2216   0.1808   0.4179   1.5597
     1.8852   3.0085   3.7759

          k = 0.3221 0.1850 0.0000 ( 12478 PWs)   bands (ev):

   -68.2835 -68.2557 -35.2341 -35.0468 -34.8184 -34.7256 -34.6091 -34.4657
   -20.0329 -20.0204 -20.0190 -20.0110 -20.0059 -19.9943 -19.9860 -19.9711
   -19.9691 -19.9592 -19.9249 -19.9219 -19.9209 -19.9189 -12.1683  -6.8741
    -5.2595  -4.3620  -3.1476  -1.2939  -0.7648   1.2213   1.8039   1.9423
     2.9156   3.2124   3.6343

          k = 0.3220 0.2776 0.0000 ( 12496 PWs)   bands (ev):

   -68.2752 -68.2524 -35.2254 -35.1023 -34.8574 -34.7508 -34.6410 -34.5068
   -20.0313 -20.0195 -20.0186 -20.0123 -20.0068 -19.9949 -19.9867 -19.9713
   -19.9675 -19.9584 -19.9262 -19.9237 -19.9194 -19.9170 -12.0086  -6.9342
    -5.0589  -4.6768  -3.1293  -0.8221  -0.6671   1.1022   1.7597   2.2999
     3.2115   3.8991   4.2645

          k = 0.3220 0.3703 0.0000 ( 12513 PWs)   bands (ev):

   -68.2660 -68.2499 -35.2032 -35.1157 -34.8863 -34.7978 -34.6798 -34.5901
   -20.0276 -20.0198 -20.0168 -20.0129 -20.0071 -19.9965 -19.9881 -19.9705
   -19.9664 -19.9592 -19.9318 -19.9299 -19.9140 -19.9123 -11.8376  -6.7628
    -5.2203  -4.8343  -2.6312  -0.7674  -0.5727   0.6436   2.0672   2.3040
     3.6853   4.1277   5.6897

          k = 0.3220 0.4629 0.0000 ( 12538 PWs)   bands (ev):

   -68.2578 -68.2494 -35.1509 -35.0942 -34.9585 -34.8193 -34.7113 -34.6805
   -20.0245 -20.0189 -20.0152 -20.0115 -20.0078 -19.9986 -19.9900 -19.9685
   -19.9667 -19.9612 -19.9361 -19.9352 -19.9099 -19.9091 -11.7051  -6.4690
    -5.7206  -4.6095  -1.8336  -0.9570  -0.7377   0.4027   2.3671   2.4390
     3.5681   3.6876   6.0665

          k = 0.3220 0.5556 0.0000 ( 12581 PWs)   bands (ev):

   -68.2522 -68.2517 -35.0810 -35.0767 -35.0439 -34.8214 -34.7231 -34.7222
   -20.0242 -20.0162 -20.0159 -20.0094 -20.0092 -19.9996 -19.9913 -19.9673
   -19.9668 -19.9627 -19.9377 -19.9375 -19.9083 -19.9081 -11.6546  -6.1276
    -6.1269  -4.5036  -1.1794  -1.0506  -1.0380   0.3163   2.4070   2.4101
     3.3978   3.4281   6.5879

          k = 0.3219 0.6482 0.0000 ( 12534 PWs)   bands (ev):

   -68.2576 -68.2494 -35.1534 -35.0958 -34.9579 -34.8203 -34.7115 -34.6791
   -20.0248 -20.0184 -20.0152 -20.0116 -20.0080 -19.9981 -19.9905 -19.9688
   -19.9666 -19.9610 -19.9362 -19.9353 -19.9098 -19.9090 -11.7038  -6.4700
    -5.7247  -4.6123  -1.8416  -0.9546  -0.7297   0.4052   2.3715   2.4415
     3.5617   3.7039   6.0717

          k = 0.3223-0.3710 0.0000 ( 12509 PWs)   bands (ev):

   -68.2656 -68.2497 -35.2054 -35.1177 -34.8879 -34.7978 -34.6801 -34.5895
   -20.0274 -20.0198 -20.0170 -20.0128 -20.0073 -19.9959 -19.9888 -19.9708
   -19.9664 -19.9590 -19.9318 -19.9300 -19.9138 -19.9121 -11.8352  -6.7631
    -5.2287  -4.8365  -2.6356  -0.7657  -0.5670   0.6473   2.0715   2.3081
     3.6853   4.1407   5.6934

          k = 0.3222-0.2783 0.0000 ( 12501 PWs)   bands (ev):

   -68.2748 -68.2522 -35.2265 -35.1042 -34.8595 -34.7511 -34.6416 -34.5073
   -20.0308 -20.0200 -20.0187 -20.0120 -20.0070 -19.9943 -19.9875 -19.9716
   -19.9674 -19.9582 -19.9263 -19.9239 -19.9192 -19.9169 -12.0057  -6.9324
    -5.0591  -4.6893  -3.1299  -0.8182  -0.6660   1.1056   1.7619   2.3056
     3.2212   3.8949   4.2656

          k = 0.3222-0.1857 0.0000 ( 12480 PWs)   bands (ev):

   -68.2832 -68.2555 -35.2342 -35.0482 -34.8200 -34.7261 -34.6103 -34.4667
   -20.0322 -20.0204 -20.0197 -20.0103 -20.0066 -19.9939 -19.9867 -19.9713
   -19.9690 -19.9590 -19.9247 -19.9218 -19.9211 -19.9190 -12.1656  -6.8701
    -5.2574  -4.3779  -3.1434  -1.2934  -0.7636   1.2285   1.8068   1.9368
     2.9309   3.2071   3.6253

          k = 0.3222-0.0930 0.0000 ( 12491 PWs)   bands (ev):

   -68.2891 -68.2582 -35.2397 -34.9685 -34.7875 -34.7118 -34.5890 -34.4757
   -20.0315 -20.0227 -20.0181 -20.0116 -20.0039 -19.9945 -19.9862 -19.9722
   -19.9681 -19.9612 -19.9289 -19.9255 -19.9177 -19.9164 -12.2756  -6.5397
    -5.4734  -4.5944  -2.6890  -1.2710  -1.1431   0.6316   0.9347   2.1931
     2.6531   3.0938   4.0898

          k = 0.3221-0.0003 0.0000 ( 12469 PWs)   bands (ev):

   -68.2913 -68.2593 -35.2422 -34.9199 -34.7936 -34.6988 -34.5669 -34.5013
   -20.0306 -20.0241 -20.0161 -20.0137 -20.0021 -19.9953 -19.9857 -19.9729
   -19.9663 -19.9631 -19.9303 -19.9269 -19.9162 -19.9159 -12.3147  -6.1771
    -5.7361  -4.8070  -2.2006  -1.7034  -0.6728  -0.2390   0.7600   2.2922
     2.5914   2.9871   4.6026

          k = 0.3221 0.0923 0.0000 ( 12493 PWs)   bands (ev):

   -68.2893 -68.2583 -35.2398 -34.9678 -34.7868 -34.7115 -34.5877 -34.4750
   -20.0320 -20.0226 -20.0175 -20.0123 -20.0034 -19.9949 -19.9857 -19.9723
   -19.9679 -19.9613 -19.9290 -19.9256 -19.9177 -19.9163 -12.2772  -6.5444
    -5.4753  -4.5835  -2.6947  -1.2696  -1.1396   0.6285   0.9295   2.1982
     2.6486   3.1006   4.0892

          k = 0.4026 0.2312 0.0000 ( 12478 PWs)   bands (ev):

   -68.2709 -68.2510 -35.2404 -35.1648 -34.8749 -34.7513 -34.6455 -34.4893
   -20.0331 -20.0200 -20.0172 -20.0124 -20.0082 -19.9945 -19.9864 -19.9716
   -19.9670 -19.9564 -19.9279 -19.9246 -19.9166 -19.9146 -11.9572  -7.1894
    -5.0397  -4.4381  -3.5463  -0.5181  -0.2607   1.7543   2.1634   2.7130
     2.8073   3.6806   4.3936

          k = 0.4026 0.3239 0.0000 ( 12518 PWs)   bands (ev):

   -68.2658 -68.2499 -35.2371 -35.1817 -34.8753 -34.7803 -34.6670 -34.5248
   -20.0318 -20.0199 -20.0164 -20.0126 -20.0087 -19.9952 -19.9869 -19.9712
   -19.9666 -19.9564 -19.9311 -19.9276 -19.9137 -19.9122 -11.8716  -7.1472
    -4.9570  -4.7389  -3.3417  -0.2388  -0.1687   1.4968   2.0593   2.3933
     3.7539   3.9541   5.0394

          k = 0.4025 0.4165 0.0000 ( 12532 PWs)   bands (ev):

   -68.2609 -68.2493 -35.1987 -35.1581 -34.8561 -34.8539 -34.6907 -34.6027
   -20.0281 -20.0196 -20.0153 -20.0124 -20.0083 -19.9968 -19.9885 -19.9699
   -19.9670 -19.9583 -19.9343 -19.9320 -19.9111 -19.9102 -11.7720  -6.8593
    -5.2487  -4.7881  -2.7036  -0.4236  -0.3650   0.7712   2.2868   2.4495
     3.7401   3.9717   5.9504

          k = 0.4025 0.5092 0.0000 ( 12543 PWs)   bands (ev):

   -68.2575 -68.2494 -35.1534 -35.0975 -34.9569 -34.8200 -34.7115 -34.6790
   -20.0246 -20.0189 -20.0150 -20.0121 -20.0075 -19.9984 -19.9903 -19.9693
   -19.9659 -19.9612 -19.9362 -19.9353 -19.9098 -19.9090 -11.7032  -6.4752
    -5.7211  -4.6131  -1.8345  -0.9793  -0.7244   0.4051   2.3738   2.4409
     3.5401   3.7428   6.0795

          k = 0.4025 0.6018 0.0000 ( 12536 PWs)   bands (ev):

   -68.2573 -68.2494 -35.1545 -35.0980 -34.9565 -34.8209 -34.7116 -34.6786
   -20.0248 -20.0184 -20.0152 -20.0119 -20.0078 -19.9981 -19.9906 -19.9692
   -19.9661 -19.9610 -19.9362 -19.9353 -19.9097 -19.9089 -11.7025  -6.4744
    -5.7248  -4.6147  -1.8423  -0.9695  -0.7210   0.4065   2.3749   2.4441
     3.5434   3.7400   6.0799

          k = 0.4024 0.6945 0.0000 ( 12532 PWs)   bands (ev):

   -68.2605 -68.2492 -35.2017 -35.1583 -34.8564 -34.8549 -34.6914 -34.6027
   -20.0281 -20.0194 -20.0154 -20.0120 -20.0088 -19.9963 -19.9892 -19.9701
   -19.9671 -19.9581 -19.9343 -19.9320 -19.9110 -19.9101 -11.7701  -6.8586
    -5.2573  -4.7914  -2.7079  -0.4166  -0.3569   0.7755   2.2878   2.4576
     3.7446   3.9719   5.9531

          k = 0.4028-0.3247 0.0000 ( 12514 PWs)   bands (ev):

   -68.2653 -68.2496 -35.2399 -35.1825 -34.8762 -34.7809 -34.6682 -34.5258
   -20.0314 -20.0201 -20.0165 -20.0121 -20.0090 -19.9947 -19.9878 -19.9715
   -19.9665 -19.9562 -19.9311 -19.9278 -19.9135 -19.9120 -11.8688  -7.1457
    -4.9602  -4.7514  -3.3428  -0.2322  -0.1621   1.5018   2.0620   2.3996
     3.7649   3.9473   5.0490

          k = 0.4027-0.2321 0.0000 ( 12492 PWs)   bands (ev):

   -68.2704 -68.2508 -35.2422 -35.1658 -34.8758 -34.7520 -34.6471 -34.4906
   -20.0326 -20.0205 -20.0172 -20.0117 -20.0088 -19.9940 -19.9873 -19.9719
   -19.9669 -19.9562 -19.9280 -19.9247 -19.9165 -19.9145 -11.9543  -7.1867
    -5.0411  -4.4551  -3.5429  -0.5130  -0.2557   1.7606   2.1717   2.7096
     2.8155   3.6797   4.3941

          k = 0.4027-0.1394 0.0000 ( 12497 PWs)   bands (ev):

   -68.2746 -68.2521 -35.2272 -35.1058 -34.8605 -34.7512 -34.6410 -34.5070
   -20.0308 -20.0199 -20.0186 -20.0124 -20.0067 -19.9943 -19.9876 -19.9719
   -19.9670 -19.9581 -19.9263 -19.9239 -19.9192 -19.9168 -12.0042  -6.9357
    -5.0600  -4.6879  -3.1374  -0.8135  -0.6705   1.0993   1.7483   2.3124
     3.2487   3.8959   4.2676

          k = 0.4027-0.0468 0.0000 ( 12510 PWs)   bands (ev):

   -68.2770 -68.2530 -35.2162 -35.0283 -34.8746 -34.7400 -34.6353 -34.5535
   -20.0270 -20.0220 -20.0177 -20.0146 -20.0040 -19.9953 -19.9880 -19.9724
   -19.9651 -19.9613 -19.9254 -19.9247 -19.9206 -19.9182 -12.0229  -6.5161
    -5.1945  -5.0252  -2.4667  -1.3918  -0.6890   0.1726   1.3971   2.3324
     3.3651   3.7055   5.2230

          k = 0.4027 0.0459 0.0000 ( 12516 PWs)   bands (ev):

   -68.2771 -68.2531 -35.2161 -35.0279 -34.8744 -34.7397 -34.6345 -34.5533
   -20.0274 -20.0217 -20.0173 -20.0152 -20.0037 -19.9955 -19.9878 -19.9724
   -19.9649 -19.9616 -19.9254 -19.9247 -19.9206 -19.9182 -12.0238  -6.5187
    -5.1900  -5.0242  -2.4688  -1.3928  -0.6852   0.1676   1.3941   2.3309
     3.3674   3.7072   5.2235

          k = 0.4026 0.1386 0.0000 ( 12493 PWs)   bands (ev):

   -68.2749 -68.2523 -35.2266 -35.1049 -34.8598 -34.7505 -34.6395 -34.5060
   -20.0313 -20.0193 -20.0187 -20.0131 -20.0061 -19.9947 -19.9869 -19.9718
   -19.9669 -19.9584 -19.9263 -19.9238 -19.9193 -19.9169 -12.0064  -6.9391
    -5.0600  -4.6746  -3.1409  -0.8143  -0.6735   1.0935   1.7399   2.3088
     3.2529   3.8999   4.2678

          k =-0.4831-0.2774 0.0000 ( 12510 PWs)   bands (ev):

   -68.2657 -68.2498 -35.2556 -35.2041 -34.8829 -34.7633 -34.6586 -34.4980
   -20.0336 -20.0199 -20.0167 -20.0128 -20.0088 -19.9948 -19.9863 -19.9717
   -19.9662 -19.9554 -19.9304 -19.9266 -19.9136 -19.9122 -11.8886  -7.2975
    -5.0095  -4.4711  -3.6792  -0.0275  -0.0024   1.8669   2.2189   2.9300
     2.9823   3.8696   4.9502

          k =-0.4831-0.1848 0.0000 ( 12522 PWs)   bands (ev):

   -68.2657 -68.2498 -35.2380 -35.1824 -34.8760 -34.7800 -34.6665 -34.5245
   -20.0319 -20.0198 -20.0167 -20.0129 -20.0083 -19.9952 -19.9870 -19.9714
   -19.9664 -19.9564 -19.9311 -19.9277 -19.9137 -19.9122 -11.8708  -7.1492
    -4.9609  -4.7341  -3.3463  -0.2396  -0.1692   1.4879   2.0655   2.3826
     3.7782   3.9453   5.0531

          k =-0.4832-0.0921 0.0000 ( 12531 PWs)   bands (ev):

   -68.2656 -68.2498 -35.2058 -35.1193 -34.8880 -34.7969 -34.6790 -34.5887
   -20.0276 -20.0197 -20.0169 -20.0135 -20.0065 -19.9963 -19.9885 -19.9711
   -19.9657 -19.9593 -19.9319 -19.9301 -19.9139 -19.9122 -11.8347  -6.7705
    -5.2219  -4.8353  -2.6397  -0.7820  -0.5666   0.6398   2.0652   2.3092
     3.6775   4.1809   5.7020

          k =-0.4832 0.0005 0.0000 ( 12519 PWs)   bands (ev):

   -68.2655 -68.2497 -35.1915 -35.0621 -34.9363 -34.7733 -34.6901 -34.6308
   -20.0235 -20.0218 -20.0157 -20.0150 -20.0053 -19.9969 -19.9895 -19.9712
   -19.9637 -19.9621 -19.9320 -19.9316 -19.9138 -19.9122 -11.8161  -6.4764
    -5.5406  -4.7718  -1.9124  -1.4849  -0.7622   0.3447   1.9394   2.3679
     3.6663   4.1882   5.9813

          k =-0.4832 0.0932 0.0000 ( 12523 PWs)   bands (ev):

   -68.2654 -68.2497 -35.2068 -35.1200 -34.8881 -34.7979 -34.6798 -34.5890
   -20.0274 -20.0197 -20.0170 -20.0131 -20.0070 -19.9959 -19.9890 -19.9712
   -19.9659 -19.9590 -19.9319 -19.9301 -19.9137 -19.9121 -11.8332  -6.7684
    -5.2297  -4.8373  -2.6411  -0.7756  -0.5631   0.6441   2.0696   2.3128
     3.6800   4.1761   5.7015

          k =-0.4833 0.1858 0.0000 ( 12518 PWs)   bands (ev):

   -68.2653 -68.2496 -35.2404 -35.1830 -34.8764 -34.7809 -34.6680 -34.5256
   -20.0314 -20.0201 -20.0166 -20.0123 -20.0089 -19.9947 -19.9878 -19.9717
   -19.9664 -19.9562 -19.9312 -19.9278 -19.9135 -19.9120 -11.8682  -7.1471
    -4.9630  -4.7481  -3.3457  -0.2329  -0.1625   1.4953   2.0671   2.3924
     3.7812   3.9415   5.0579

          k =-0.4829-0.8334 0.0000 ( 12512 PWs)   bands (ev):

   -68.2652 -68.2496 -35.2585 -35.2045 -34.8832 -34.7642 -34.6604 -34.4994
   -20.0331 -20.0203 -20.0168 -20.0122 -20.0092 -19.9943 -19.9873 -19.9721
   -19.9660 -19.9551 -19.9305 -19.9268 -19.9134 -19.9121 -11.8857  -7.2953
    -5.0124  -4.4885  -3.6760  -0.0194   0.0045   1.8684   2.2335   2.9381
     2.9735   3.8760   4.9576

     the Fermi energy is    -0.2275 ev

!    total energy              =   -1373.24754313 Ry
     estimated scf accuracy    <          8.7E-14 Ry
     smearing contrib. (-TS)   =       0.00001440 Ry
     internal energy E=F+TS    =   -1373.24755753 Ry

     The total energy is F=E-TS. E is the sum of the following terms:
     one-electron contribution =  -10883.55324019 Ry
     hartree contribution      =    5469.94743995 Ry
     xc contribution           =    -138.76806780 Ry
     ewald contribution        =    4179.12631051 Ry

     convergence has been achieved in  23 iterations

     negative rho (up, down):  8.290E-04 0.000E+00

     Forces acting on atoms (cartesian axes, Ry/au):

     atom    1 type  2   force =     0.00007373    0.00006797   -0.00006190
     atom    2 type  1   force =    -0.00018368    0.00005336   -0.00007906
     atom    3 type  1   force =     0.00010995   -0.00012133    0.00014096

     Total force =     0.000322     Total SCF correction =     0.000003


     Computing stress (Cartesian axis) and pressure


     negative rho (up, down):  8.290E-04 0.000E+00
          total   stress  (Ry/bohr**3)                   (kbar)     P=       -0.88
   0.00000286   0.00000122   0.00000042            0.42        0.18        0.06
   0.00000122   0.00000347  -0.00000024            0.18        0.51       -0.04
   0.00000042  -0.00000024  -0.00002432            0.06       -0.04       -3.58


     Writing output data file /scratch/as3359/Ta2C_looping/Ta.save/
 
     init_run     :     12.78s CPU      7.05s WALL (       1 calls)
     electrons    :    564.91s CPU    289.94s WALL (       1 calls)
     forces       :      3.97s CPU      2.06s WALL (       1 calls)
     stress       :     14.18s CPU      7.33s WALL (       1 calls)

     Called by init_run:
     wfcinit      :      9.26s CPU      4.76s WALL (       1 calls)
     potinit      :      0.78s CPU      0.40s WALL (       1 calls)
     hinit0       :      2.15s CPU      1.50s WALL (       1 calls)

     Called by electrons:
     c_bands      :    453.92s CPU    230.19s WALL (      23 calls)
     sum_band     :     96.13s CPU     50.71s WALL (      23 calls)
     v_of_rho     :      2.08s CPU      1.08s WALL (      24 calls)
     newd         :     12.44s CPU      7.83s WALL (      24 calls)
     mix_rho      :      0.64s CPU      0.34s WALL (      23 calls)

     Called by c_bands:
     init_us_2    :     10.47s CPU      5.26s WALL (    3626 calls)
     cegterg      :    418.72s CPU    212.38s WALL (    1702 calls)

     Called by *egterg:
     cdiaghg      :     13.71s CPU      7.01s WALL (    6718 calls)
     h_psi        :    348.36s CPU    176.99s WALL (    6792 calls)
     s_psi        :     11.58s CPU      5.81s WALL (    6792 calls)
     g_psi        :      1.78s CPU      0.89s WALL (    5016 calls)

     Called by h_psi:
     h_psi:calbec :     10.79s CPU      5.44s WALL (    6792 calls)
     vloc_psi     :    321.45s CPU    163.45s WALL (    6792 calls)
     add_vuspsi   :     13.87s CPU      6.97s WALL (    6792 calls)

     General routines
     calbec       :     15.37s CPU      7.75s WALL (    8864 calls)
     fft          :      1.26s CPU      0.64s WALL (     335 calls)
     ffts         :      0.12s CPU      0.06s WALL (      47 calls)
     fftw         :    342.81s CPU    174.36s WALL (  335762 calls)
     interpolate  :      0.18s CPU      0.10s WALL (      24 calls)
 
     Parallel routines
 
     PWSCF        :   9m57.63s CPU   5m 8.03s WALL

 
   This run was terminated on:  13: 7:45   6Apr2022            

=------------------------------------------------------------------------------=
   JOB DONE.
=------------------------------------------------------------------------------=
