
     Program PWSCF v.6.8 starts on  6Apr2022 at 12:28:19 

     This program is part of the open-source Quantum ESPRESSO suite
     for quantum simulation of materials; please cite
         "P. Giannozzi et al., J. Phys.:Condens. Matter 21 395502 (2009);
         "P. Giannozzi et al., J. Phys.:Condens. Matter 29 465901 (2017);
         "P. Giannozzi et al., J. Chem. Phys. 152 154105 (2020);
          URL http://www.quantum-espresso.org", 
     in publications or presentations arising from this work. More details at
     http://www.quantum-espresso.org/quote

     Parallel version (MPI & OpenMP), running on       4 processor cores
     Number of MPI processes:                 2
     Threads/MPI process:                     2

     MPI processes distributed on     1 nodes
     R & G space division:  proc/nbgrp/npool/nimage =       2
     125245 MiB available memory on the printing compute node when the environment starts
 
     Reading input from Ta2C.vcrelax.in

     Current dimensions of program PWSCF are:
     Max number of different atomic species (ntypx) = 10
     Max number of k-points (npk) =  40000
     Max angular momentum in pseudopotentials (lmaxx) =  4
     file Ta.pbesol-spfn-rrkjus_psl.1.0.0.UPF: wavefunction(s)  5S 5P renormalized

     Subspace diagonalization in iterative solution of the eigenvalue problem:
     a serial algorithm will be used

 
     Parallelization info
     --------------------
     sticks:   dense  smooth     PW     G-vecs:    dense   smooth      PW
     Min         337     274     89                69622    49839    9176
     Max         338     275     92                69657    49846    9177
     Sum         675     549    181               139279    99685   18353
 
     Using Slab Decomposition
 


     bravais-lattice index     =            0
     lattice parameter (alat)  =       5.5500  a.u.
     unit-cell volume          =    1588.7844 (a.u.)^3
     number of atoms/cell      =            3
     number of atomic types    =            2
     number of electrons       =        58.00
     number of Kohn-Sham states=           35
     kinetic-energy cutoff     =      60.0000  Ry
     charge density cutoff     =     300.0000  Ry
     scf convergence threshold =      1.0E-12
     mixing beta               =       0.7000
     number of iterations used =            8  plain     mixing
     energy convergence thresh.=      1.0E-04
     force convergence thresh. =      1.0E-03
     press convergence thresh. =      5.0E-01
     Exchange-correlation= PBESOL
                           (   1   4  10   8   0   0   0)
     nstep                     =           50


     celldm(1)=   5.550000  celldm(2)=   0.000000  celldm(3)=   0.000000
     celldm(4)=   0.000000  celldm(5)=   0.000000  celldm(6)=   0.000000

     crystal axes: (cart. coord. in units of alat)
               a(1) = (   1.034114   0.000203   0.000000 )  
               a(2) = (  -0.516207   0.898604   0.000000 )  
               a(3) = (   0.000000   0.000000  10.000000 )  

     reciprocal axes: (cart. coord. in units 2 pi/alat)
               b(1) = (  0.966902  0.555441  0.000000 )  
               b(2) = ( -0.000219  1.112711  0.000000 )  
               b(3) = (  0.000000  0.000000  0.100000 )  


     PseudoPot. # 1 for Ta read from file:
     /shared/home/as3359/pseudo/Ta.pbesol-spfn-rrkjus_psl.1.0.0.UPF
     MD5 check sum: f099565ffaca9b150a52e9412a28e20b
     Pseudo is Ultrasoft + core correction, Zval = 27.0
     Generated using &quot;atomic&quot; code by A. Dal Corso  v.6.3
     Using radial grid of 1273 points,  8 beta functions with: 
                l(1) =   0
                l(2) =   0
                l(3) =   1
                l(4) =   1
                l(5) =   2
                l(6) =   2
                l(7) =   3
                l(8) =   3
     Q(r) pseudized with 0 coefficients 


     PseudoPot. # 2 for C  read from file:
     /shared/home/as3359/pseudo/C.pbesol-n-rrkjus_psl.1.0.0.UPF
     MD5 check sum: 05995be603a8a7c99da3dc4413f31573
     Pseudo is Ultrasoft + core correction, Zval =  4.0
     Generated using &quot;atomic&quot; code by A. Dal Corso  v.6.3MaX
     Using radial grid of 1073 points,  4 beta functions with: 
                l(1) =   0
                l(2) =   0
                l(3) =   1
                l(4) =   1
     Q(r) pseudized with 0 coefficients 


     atomic species   valence    mass     pseudopotential
        Ta            27.00   180.94788     Ta( 1.00)
        C              4.00    12.01070     C ( 1.00)

     No symmetry found



   Cartesian axes

     site n.     atom                  positions (alat units)
         1           C   tau(   1) = (   0.0000000   0.0000000   0.0000000  )
         2           Ta  tau(   2) = (   0.5174615   0.3004190  -0.4127129  )
         3           Ta  tau(   3) = (   0.0007158   0.5986355   0.4125272  )

     number of k points=    74  Marzari-Vanderbilt smearing, width (Ry)=  0.0010
                       cart. coord. in units 2pi/alat
        k(    1) = (   0.0000000   0.0000000   0.0000000), wk =   0.0138889
        k(    2) = (  -0.0000182   0.0927259   0.0000000), wk =   0.0277778
        k(    3) = (  -0.0000364   0.1854519   0.0000000), wk =   0.0277778
        k(    4) = (  -0.0000547   0.2781778   0.0000000), wk =   0.0277778
        k(    5) = (  -0.0000729   0.3709037   0.0000000), wk =   0.0277778
        k(    6) = (  -0.0000911   0.4636296   0.0000000), wk =   0.0277778
        k(    7) = (   0.0001093  -0.5563556   0.0000000), wk =   0.0138889
        k(    8) = (   0.0805752   0.0462867   0.0000000), wk =   0.0277778
        k(    9) = (   0.0805570   0.1390127   0.0000000), wk =   0.0277778
        k(   10) = (   0.0805388   0.2317386   0.0000000), wk =   0.0277778
        k(   11) = (   0.0805205   0.3244645   0.0000000), wk =   0.0277778
        k(   12) = (   0.0805023   0.4171904   0.0000000), wk =   0.0277778
        k(   13) = (   0.0804841   0.5099164   0.0000000), wk =   0.0277778
        k(   14) = (   0.0806845  -0.5100688   0.0000000), wk =   0.0277778
        k(   15) = (   0.0806663  -0.4173429   0.0000000), wk =   0.0277778
        k(   16) = (   0.0806481  -0.3246170   0.0000000), wk =   0.0277778
        k(   17) = (   0.0806298  -0.2318910   0.0000000), wk =   0.0277778
        k(   18) = (   0.0806116  -0.1391651   0.0000000), wk =   0.0277778
        k(   19) = (   0.0805934  -0.0464392   0.0000000), wk =   0.0277778
        k(   20) = (   0.1611504   0.0925735   0.0000000), wk =   0.0277778
        k(   21) = (   0.1611322   0.1852994   0.0000000), wk =   0.0277778
        k(   22) = (   0.1611139   0.2780253   0.0000000), wk =   0.0277778
        k(   23) = (   0.1610957   0.3707513   0.0000000), wk =   0.0277778
        k(   24) = (   0.1610775   0.4634772   0.0000000), wk =   0.0277778
        k(   25) = (   0.1610593   0.5562031   0.0000000), wk =   0.0277778
        k(   26) = (   0.1612597  -0.4637821   0.0000000), wk =   0.0277778
        k(   27) = (   0.1612415  -0.3710561   0.0000000), wk =   0.0277778
        k(   28) = (   0.1612232  -0.2783302   0.0000000), wk =   0.0277778
        k(   29) = (   0.1612050  -0.1856043   0.0000000), wk =   0.0277778
        k(   30) = (   0.1611868  -0.0928784   0.0000000), wk =   0.0277778
        k(   31) = (   0.1611686  -0.0001524   0.0000000), wk =   0.0277778
        k(   32) = (   0.2417256   0.1388602   0.0000000), wk =   0.0277778
        k(   33) = (   0.2417073   0.2315862   0.0000000), wk =   0.0277778
        k(   34) = (   0.2416891   0.3243121   0.0000000), wk =   0.0277778
        k(   35) = (   0.2416709   0.4170380   0.0000000), wk =   0.0277778
        k(   36) = (   0.2416527   0.5097639   0.0000000), wk =   0.0277778
        k(   37) = (   0.2416345   0.6024899   0.0000000), wk =   0.0277778
        k(   38) = (   0.2418349  -0.4174953   0.0000000), wk =   0.0277778
        k(   39) = (   0.2418166  -0.3247694   0.0000000), wk =   0.0277778
        k(   40) = (   0.2417984  -0.2320435   0.0000000), wk =   0.0277778
        k(   41) = (   0.2417802  -0.1393175   0.0000000), wk =   0.0277778
        k(   42) = (   0.2417620  -0.0465916   0.0000000), wk =   0.0277778
        k(   43) = (   0.2417438   0.0461343   0.0000000), wk =   0.0277778
        k(   44) = (   0.3223007   0.1851470   0.0000000), wk =   0.0277778
        k(   45) = (   0.3222825   0.2778729   0.0000000), wk =   0.0277778
        k(   46) = (   0.3222643   0.3705988   0.0000000), wk =   0.0277778
        k(   47) = (   0.3222461   0.4633248   0.0000000), wk =   0.0277778
        k(   48) = (   0.3222279   0.5560507   0.0000000), wk =   0.0277778
        k(   49) = (   0.3222097   0.6487766   0.0000000), wk =   0.0277778
        k(   50) = (   0.3224100  -0.3712086   0.0000000), wk =   0.0277778
        k(   51) = (   0.3223918  -0.2784827   0.0000000), wk =   0.0277778
        k(   52) = (   0.3223736  -0.1857567   0.0000000), wk =   0.0277778
        k(   53) = (   0.3223554  -0.0930308   0.0000000), wk =   0.0277778
        k(   54) = (   0.3223372  -0.0003049   0.0000000), wk =   0.0277778
        k(   55) = (   0.3223190   0.0924210   0.0000000), wk =   0.0277778
        k(   56) = (   0.4028759   0.2314337   0.0000000), wk =   0.0277778
        k(   57) = (   0.4028577   0.3241596   0.0000000), wk =   0.0277778
        k(   58) = (   0.4028395   0.4168856   0.0000000), wk =   0.0277778
        k(   59) = (   0.4028213   0.5096115   0.0000000), wk =   0.0277778
        k(   60) = (   0.4028031   0.6023374   0.0000000), wk =   0.0277778
        k(   61) = (   0.4027848   0.6950633   0.0000000), wk =   0.0277778
        k(   62) = (   0.4029852  -0.3249218   0.0000000), wk =   0.0277778
        k(   63) = (   0.4029670  -0.2321959   0.0000000), wk =   0.0277778
        k(   64) = (   0.4029488  -0.1394700   0.0000000), wk =   0.0277778
        k(   65) = (   0.4029306  -0.0467441   0.0000000), wk =   0.0277778
        k(   66) = (   0.4029124   0.0459819   0.0000000), wk =   0.0277778
        k(   67) = (   0.4028941   0.1387078   0.0000000), wk =   0.0277778
        k(   68) = (  -0.4834511  -0.2777205   0.0000000), wk =   0.0138889
        k(   69) = (  -0.4834693  -0.1849945   0.0000000), wk =   0.0277778
        k(   70) = (  -0.4834875  -0.0922686   0.0000000), wk =   0.0277778
        k(   71) = (  -0.4835058   0.0004573   0.0000000), wk =   0.0277778
        k(   72) = (  -0.4835240   0.0931832   0.0000000), wk =   0.0277778
        k(   73) = (  -0.4835422   0.1859092   0.0000000), wk =   0.0277778
        k(   74) = (  -0.4833418  -0.8340760   0.0000000), wk =   0.0138889

     Dense  grid:   139279 G-vectors     FFT dimensions: (  32,  32, 320)

     Smooth grid:    99685 G-vectors     FFT dimensions: (  30,  30, 288)

     Estimated max dynamical RAM per process >     930.68 MB

     Estimated total dynamical RAM >       1.82 GB

     Check: negative core charge=   -0.000001

     Initial potential from superposition of free atoms

     starting charge   57.99842, renormalised to   58.00000

     negative rho (up, down):  8.408E-04 0.000E+00
     Starting wfcs are   38 randomized atomic wfcs

     total cpu time spent up to now is        9.8 secs

     Self-consistent Calculation

     iteration #  1     ecut=    60.00 Ry     beta= 0.70
     Davidson diagonalization with overlap
     ethr =  1.00E-02,  avg # of iterations =  2.3

     negative rho (up, down):  7.567E-04 0.000E+00

     total cpu time spent up to now is       22.9 secs

     total energy              =   -1372.44673045 Ry
     estimated scf accuracy    <       1.29967303 Ry

     iteration #  2     ecut=    60.00 Ry     beta= 0.70
     Davidson diagonalization with overlap
     ethr =  2.24E-03,  avg # of iterations = 12.1

     total cpu time spent up to now is       43.5 secs

     total energy              =   -1370.59182021 Ry
     estimated scf accuracy    <      17.36876849 Ry

     iteration #  3     ecut=    60.00 Ry     beta= 0.70
     Davidson diagonalization with overlap
     ethr =  2.24E-03,  avg # of iterations =  8.5

     total cpu time spent up to now is       62.1 secs

     total energy              =   -1373.21224443 Ry
     estimated scf accuracy    <       0.35307026 Ry

     iteration #  4     ecut=    60.00 Ry     beta= 0.70
     Davidson diagonalization with overlap
     ethr =  6.09E-04,  avg # of iterations =  3.2

     total cpu time spent up to now is       75.3 secs

     total energy              =   -1373.24218457 Ry
     estimated scf accuracy    <       0.22557073 Ry

     iteration #  5     ecut=    60.00 Ry     beta= 0.70
     Davidson diagonalization with overlap
     ethr =  3.89E-04,  avg # of iterations =  2.8

     total cpu time spent up to now is       87.4 secs

     total energy              =   -1373.24125234 Ry
     estimated scf accuracy    <       0.74628712 Ry

     iteration #  6     ecut=    60.00 Ry     beta= 0.70
     Davidson diagonalization with overlap
     ethr =  3.89E-04,  avg # of iterations =  1.1

     total cpu time spent up to now is       98.5 secs

     total energy              =   -1373.25506784 Ry
     estimated scf accuracy    <       0.03604979 Ry

     iteration #  7     ecut=    60.00 Ry     beta= 0.70
     Davidson diagonalization with overlap
     ethr =  6.22E-05,  avg # of iterations =  2.9

     total cpu time spent up to now is      110.3 secs

     total energy              =   -1373.24821189 Ry
     estimated scf accuracy    <       0.02146851 Ry

     iteration #  8     ecut=    60.00 Ry     beta= 0.70
     Davidson diagonalization with overlap
     ethr =  3.70E-05,  avg # of iterations =  2.3

     total cpu time spent up to now is      122.3 secs

     total energy              =   -1373.24848637 Ry
     estimated scf accuracy    <       0.00416195 Ry

     iteration #  9     ecut=    60.00 Ry     beta= 0.70
     Davidson diagonalization with overlap
     ethr =  7.18E-06,  avg # of iterations =  3.0

     total cpu time spent up to now is      134.4 secs

     total energy              =   -1373.24799011 Ry
     estimated scf accuracy    <       0.00269346 Ry

     iteration # 10     ecut=    60.00 Ry     beta= 0.70
     Davidson diagonalization with overlap
     ethr =  4.64E-06,  avg # of iterations =  2.2

     negative rho (up, down):  3.559E-03 0.000E+00

     total cpu time spent up to now is      146.0 secs

     total energy              =   -1373.24725255 Ry
     estimated scf accuracy    <       0.00153370 Ry

     iteration # 11     ecut=    60.00 Ry     beta= 0.70
     Davidson diagonalization with overlap
     ethr =  2.64E-06,  avg # of iterations =  4.2

     negative rho (up, down):  6.960E-04 0.000E+00

     total cpu time spent up to now is      159.4 secs

     total energy              =   -1373.24744440 Ry
     estimated scf accuracy    <       0.00014470 Ry

     iteration # 12     ecut=    60.00 Ry     beta= 0.70
     Davidson diagonalization with overlap
     ethr =  2.49E-07,  avg # of iterations =  2.3

     negative rho (up, down):  7.766E-04 0.000E+00

     total cpu time spent up to now is      171.3 secs

     total energy              =   -1373.24746731 Ry
     estimated scf accuracy    <       0.00002425 Ry

     iteration # 13     ecut=    60.00 Ry     beta= 0.70
     Davidson diagonalization with overlap
     ethr =  4.18E-08,  avg # of iterations =  1.5

     negative rho (up, down):  8.165E-04 0.000E+00

     total cpu time spent up to now is      182.7 secs

     total energy              =   -1373.24746854 Ry
     estimated scf accuracy    <       0.00000855 Ry

     iteration # 14     ecut=    60.00 Ry     beta= 0.70
     Davidson diagonalization with overlap
     ethr =  1.47E-08,  avg # of iterations =  2.0

     negative rho (up, down):  8.292E-04 0.000E+00

     total cpu time spent up to now is      194.4 secs

     total energy              =   -1373.24746899 Ry
     estimated scf accuracy    <       0.00001223 Ry

     iteration # 15     ecut=    60.00 Ry     beta= 0.70
     Davidson diagonalization with overlap
     ethr =  1.47E-08,  avg # of iterations =  1.0

     negative rho (up, down):  8.321E-04 0.000E+00

     total cpu time spent up to now is      205.6 secs

     total energy              =   -1373.24746920 Ry
     estimated scf accuracy    <       0.00000023 Ry

     iteration # 16     ecut=    60.00 Ry     beta= 0.70
     Davidson diagonalization with overlap
     ethr =  3.99E-10,  avg # of iterations =  2.6

     negative rho (up, down):  8.302E-04 0.000E+00

     total cpu time spent up to now is      217.7 secs

     total energy              =   -1373.24746919 Ry
     estimated scf accuracy    <       0.00000004 Ry

     iteration # 17     ecut=    60.00 Ry     beta= 0.70
     Davidson diagonalization with overlap
     ethr =  6.93E-11,  avg # of iterations =  3.7

     negative rho (up, down):  8.320E-04 0.000E+00

     total cpu time spent up to now is      233.6 secs

     total energy              =   -1373.24746920 Ry
     estimated scf accuracy    <       0.00000007 Ry

     iteration # 18     ecut=    60.00 Ry     beta= 0.70
     Davidson diagonalization with overlap
     ethr =  6.93E-11,  avg # of iterations =  2.9

     negative rho (up, down):  8.316E-04 0.000E+00

     total cpu time spent up to now is      246.5 secs

     total energy              =   -1373.24746921 Ry
     estimated scf accuracy    <          1.4E-09 Ry

     iteration # 19     ecut=    60.00 Ry     beta= 0.70
     Davidson diagonalization with overlap
     ethr =  2.48E-12,  avg # of iterations =  4.1

     negative rho (up, down):  8.319E-04 0.000E+00

     total cpu time spent up to now is      261.4 secs

     total energy              =   -1373.24746921 Ry
     estimated scf accuracy    <          3.8E-10 Ry

     iteration # 20     ecut=    60.00 Ry     beta= 0.70
     Davidson diagonalization with overlap
     ethr =  6.62E-13,  avg # of iterations =  2.2

     negative rho (up, down):  8.318E-04 0.000E+00

     total cpu time spent up to now is      274.9 secs

     total energy              =   -1373.24746921 Ry
     estimated scf accuracy    <          5.9E-11 Ry

     iteration # 21     ecut=    60.00 Ry     beta= 0.70
     Davidson diagonalization with overlap
     ethr =  1.02E-13,  avg # of iterations =  2.1

     negative rho (up, down):  8.318E-04 0.000E+00

     total cpu time spent up to now is      288.3 secs

     total energy              =   -1373.24746921 Ry
     estimated scf accuracy    <          1.2E-11 Ry

     iteration # 22     ecut=    60.00 Ry     beta= 0.70
     Davidson diagonalization with overlap
     ethr =  1.00E-13,  avg # of iterations =  1.0

     negative rho (up, down):  8.318E-04 0.000E+00

     total cpu time spent up to now is      299.2 secs

     End of self-consistent calculation

          k = 0.0000 0.0000 0.0000 ( 12407 PWs)   bands (ev):

   -68.3239 -68.2763 -35.3485 -34.7470 -34.4382 -34.4358 -34.3735 -34.3695
   -20.0394 -20.0261 -20.0020 -20.0007 -19.9962 -19.9960 -19.9697 -19.9687
   -19.9630 -19.9630 -19.9513 -19.9464 -19.8854 -19.8836 -13.3054  -7.7338
    -4.4183  -4.3742  -2.0212  -1.0068  -0.8061  -0.2667  -0.2017   1.7120
     1.7252   2.7946   2.8442

          k =-0.0000 0.0927 0.0000 ( 12367 PWs)   bands (ev):

   -68.3200 -68.2739 -35.3358 -34.7521 -34.4857 -34.4519 -34.4176 -34.3756
   -20.0380 -20.0253 -20.0026 -20.0019 -19.9963 -19.9948 -19.9703 -19.9692
   -19.9633 -19.9624 -19.9486 -19.9436 -19.8879 -19.8864 -13.1906  -7.5128
    -4.7449  -4.3387  -1.9214  -1.1746  -0.6185  -0.5203  -0.0230   1.3885
     1.6106   2.7987   3.0672

          k =-0.0000 0.1855 0.0000 ( 12418 PWs)   bands (ev):

   -68.3094 -68.2674 -35.3015 -34.7797 -34.6009 -34.5349 -34.4932 -34.3949
   -20.0342 -20.0229 -20.0062 -20.0031 -19.9971 -19.9924 -19.9740 -19.9683
   -19.9642 -19.9606 -19.9410 -19.9364 -19.8955 -19.8944 -12.8880  -6.9287
    -5.4068  -4.2729  -1.9034  -1.5412  -1.0663  -0.0946   0.4686   1.1995
     1.6519   2.8723   3.3955

          k =-0.0001 0.2782 0.0000 ( 12442 PWs)   bands (ev):

   -68.2945 -68.2589 -35.2581 -34.8836 -34.6990 -34.6760 -34.5461 -34.4241
   -20.0301 -20.0195 -20.0105 -20.0045 -19.9987 -19.9901 -19.9780 -19.9666
   -19.9650 -19.9576 -19.9305 -19.9267 -19.9056 -19.9043 -12.5055  -6.5004
    -5.7256  -4.2587  -2.5192  -1.6198  -1.1161   0.5442   1.1505   1.3686
     2.2227   2.9647   3.5711

          k =-0.0001 0.3709 0.0000 ( 12458 PWs)   bands (ev):

   -68.2788 -68.2511 -35.2283 -35.0407 -34.8147 -34.7228 -34.5966 -34.4551
   -20.0283 -20.0153 -20.0136 -20.0060 -20.0010 -19.9892 -19.9803 -19.9657
   -19.9641 -19.9544 -19.9197 -19.9168 -19.9153 -19.9131 -12.1682  -6.8729
    -5.2620  -4.3167  -3.1529  -1.2916  -0.7633   1.2035   1.8088   1.9695
     2.8773   3.2324   3.6528

          k =-0.0001 0.4636 0.0000 ( 12456 PWs)   bands (ev):

   -68.2664 -68.2463 -35.2333 -35.1597 -34.8724 -34.7476 -34.6325 -34.4784
   -20.0284 -20.0147 -20.0121 -20.0073 -20.0035 -19.9894 -19.9806 -19.9661
   -19.9619 -19.9518 -19.9222 -19.9187 -19.9116 -19.9095 -11.9565  -7.1888
    -5.0396  -4.3924  -3.5500  -0.5217  -0.2622   1.7388   2.1467   2.7375
     2.7900   3.6959   4.4067

          k = 0.0001-0.5564 0.0000 ( 12480 PWs)   bands (ev):

   -68.2614 -68.2450 -35.2475 -35.1998 -34.8811 -34.7590 -34.6455 -34.4871
   -20.0289 -20.0147 -20.0115 -20.0078 -20.0041 -19.9896 -19.9805 -19.9662
   -19.9611 -19.9508 -19.9247 -19.9207 -19.9086 -19.9072 -11.8875  -7.2971
    -5.0081  -4.4254  -3.6825  -0.0357  -0.0065   1.8682   2.1750   2.9287
     3.0030   3.8841   4.9544

          k = 0.0806 0.0463 0.0000 ( 12367 PWs)   bands (ev):

   -68.3200 -68.2738 -35.3357 -34.7521 -34.4839 -34.4542 -34.4151 -34.3788
   -20.0379 -20.0252 -20.0030 -20.0015 -19.9961 -19.9950 -19.9708 -19.9688
   -19.9634 -19.9623 -19.9485 -19.9436 -19.8879 -19.8865 -13.1900  -7.5119
    -4.7230  -4.3641  -1.9198  -1.1738  -0.6194  -0.4906  -0.0573   1.3893
     1.5983   2.8370   3.0426

          k = 0.0806 0.1390 0.0000 ( 12377 PWs)   bands (ev):

   -68.3128 -68.2694 -35.3122 -34.7671 -34.5554 -34.5276 -34.4542 -34.3993
   -20.0353 -20.0237 -20.0046 -20.0034 -19.9965 -19.9933 -19.9729 -19.9687
   -19.9637 -19.9613 -19.9433 -19.9387 -19.8930 -19.8919 -12.9814  -7.1010
    -5.2021  -4.3450  -1.8189  -1.3631  -0.9942  -0.2978   0.2549   1.3072
     1.4673   3.0335   3.2418

          k = 0.0805 0.2317 0.0000 ( 12411 PWs)   bands (ev):

   -68.3000 -68.2619 -35.2727 -34.8253 -34.6667 -34.6401 -34.5130 -34.4316
   -20.0309 -20.0211 -20.0082 -20.0054 -19.9971 -19.9911 -19.9766 -19.9679
   -19.9637 -19.9593 -19.9343 -19.9302 -19.9019 -19.9009 -12.6383  -6.4460
    -5.7631  -4.4231  -2.0442  -1.5413  -1.2167   0.2104   0.4023   1.5825
     1.9054   2.9872   3.7671

          k = 0.0805 0.3245 0.0000 ( 12464 PWs)   bands (ev):

   -68.2847 -68.2538 -35.2340 -34.9590 -34.7792 -34.7083 -34.5790 -34.4663
   -20.0274 -20.0176 -20.0119 -20.0068 -19.9989 -19.9899 -19.9798 -19.9669
   -19.9631 -19.9566 -19.9238 -19.9205 -19.9120 -19.9105 -12.2786  -6.5389
    -5.4779  -4.5464  -2.6901  -1.2667  -1.1351   0.6301   0.9362   2.2005
     2.6447   3.0995   4.0861

          k = 0.0805 0.4172 0.0000 ( 12467 PWs)   bands (ev):

   -68.2704 -68.2477 -35.2193 -35.0973 -34.8541 -34.7471 -34.6297 -34.4969
   -20.0266 -20.0142 -20.0134 -20.0076 -20.0017 -19.9898 -19.9810 -19.9662
   -19.9621 -19.9537 -19.9206 -19.9180 -19.9142 -19.9118 -12.0068  -6.9344
    -5.0596  -4.6399  -3.1314  -0.8192  -0.6667   1.0876   1.7502   2.2937
     3.2390   3.9131   4.2676

          k = 0.0805 0.5099 0.0000 ( 12505 PWs)   bands (ev):

   -68.2613 -68.2450 -35.2295 -35.1773 -34.8731 -34.7749 -34.6560 -34.5148
   -20.0272 -20.0146 -20.0113 -20.0077 -20.0038 -19.9902 -19.9811 -19.9658
   -19.9614 -19.9518 -19.9254 -19.9218 -19.9086 -19.9071 -11.8697  -7.1469
    -4.9563  -4.7025  -3.3376  -0.2448  -0.1721   1.4725   2.0612   2.3833
     3.7783   3.9565   5.0463

          k = 0.0807-0.5101 0.0000 ( 12513 PWs)   bands (ev):

   -68.2613 -68.2450 -35.2298 -35.1775 -34.8736 -34.7747 -34.6558 -34.5146
   -20.0272 -20.0146 -20.0114 -20.0078 -20.0036 -19.9901 -19.9812 -19.9659
   -19.9614 -19.9519 -19.9255 -19.9218 -19.9086 -19.9071 -11.8695  -7.1472
    -4.9569  -4.7017  -3.3388  -0.2446  -0.1724   1.4719   2.0606   2.3809
     3.7847   3.9538   5.0503

          k = 0.0807-0.4173 0.0000 ( 12470 PWs)   bands (ev):

   -68.2704 -68.2476 -35.2198 -35.0981 -34.8554 -34.7468 -34.6290 -34.4964
   -20.0266 -20.0141 -20.0134 -20.0080 -20.0013 -19.9897 -19.9811 -19.9662
   -19.9620 -19.9537 -19.9206 -19.9180 -19.9141 -19.9118 -12.0063  -6.9353
    -5.0595  -4.6395  -3.1345  -0.8166  -0.6685   1.0866   1.7459   2.2937
     3.2493   3.9121   4.2691

          k = 0.0806-0.3246 0.0000 ( 12460 PWs)   bands (ev):

   -68.2846 -68.2537 -35.2342 -34.9602 -34.7809 -34.7086 -34.5779 -34.4657
   -20.0273 -20.0175 -20.0120 -20.0072 -19.9987 -19.9897 -19.9799 -19.9670
   -19.9630 -19.9566 -19.9238 -19.9205 -19.9120 -19.9105 -12.2777  -6.5397
    -5.4769  -4.5469  -2.6933  -1.2657  -1.1344   0.6288   0.9335   2.2047
     2.6431   3.1040   4.0855

          k = 0.0806-0.2319 0.0000 ( 12406 PWs)   bands (ev):

   -68.2999 -68.2618 -35.2726 -34.8259 -34.6676 -34.6418 -34.5121 -34.4310
   -20.0308 -20.0210 -20.0085 -20.0054 -19.9970 -19.9910 -19.9769 -19.9678
   -19.9636 -19.9593 -19.9343 -19.9302 -19.9019 -19.9010 -12.6374  -6.4446
    -5.7622  -4.4251  -2.0458  -1.5397  -1.2165   0.2054   0.4054   1.5811
     1.8998   2.9914   3.7687

          k = 0.0806-0.1392 0.0000 ( 12378 PWs)   bands (ev):

   -68.3127 -68.2693 -35.3121 -34.7671 -34.5566 -34.5282 -34.4542 -34.3987
   -20.0352 -20.0236 -20.0053 -20.0029 -19.9965 -19.9931 -19.9734 -19.9684
   -19.9637 -19.9613 -19.9433 -19.9387 -19.8931 -19.8919 -12.9806  -7.0996
    -5.1966  -4.3523  -1.8177  -1.3620  -0.9891  -0.2989   0.2470   1.3006
     1.4653   3.0349   3.2460

          k = 0.0806-0.0464 0.0000 ( 12371 PWs)   bands (ev):

   -68.3199 -68.2738 -35.3356 -34.7521 -34.4843 -34.4541 -34.4155 -34.3786
   -20.0379 -20.0252 -20.0034 -20.0012 -19.9963 -19.9948 -19.9712 -19.9685
   -19.9634 -19.9623 -19.9485 -19.9436 -19.8880 -19.8865 -13.1897  -7.5114
    -4.7131  -4.3752  -1.9189  -1.1731  -0.6170  -0.4792  -0.0740   1.3909
     1.5904   2.8489   3.0357

          k = 0.1612 0.0926 0.0000 ( 12424 PWs)   bands (ev):

   -68.3092 -68.2673 -35.3011 -34.7798 -34.5997 -34.5335 -34.4963 -34.3984
   -20.0340 -20.0229 -20.0067 -20.0028 -19.9970 -19.9925 -19.9746 -19.9679
   -19.9643 -19.9604 -19.9409 -19.9363 -19.8957 -19.8946 -12.8859  -6.9256
    -5.3899  -4.2996  -1.8944  -1.5411  -1.0600  -0.0898   0.4407   1.2026
     1.6334   2.9111   3.3760

          k = 0.1611 0.1853 0.0000 ( 12425 PWs)   bands (ev):

   -68.2999 -68.2618 -35.2724 -34.8251 -34.6659 -34.6403 -34.5144 -34.4341
   -20.0307 -20.0212 -20.0086 -20.0050 -19.9972 -19.9912 -19.9769 -19.9677
   -19.9639 -19.9592 -19.9343 -19.9302 -19.9020 -19.9011 -12.6369  -6.4435
    -5.7552  -4.4379  -2.0334  -1.5447  -1.2217   0.2150   0.4013   1.5666
     1.9105   2.9944   3.7637

          k = 0.1611 0.2780 0.0000 ( 12465 PWs)   bands (ev):

   -68.2866 -68.2548 -35.2363 -34.9085 -34.7854 -34.6938 -34.5605 -34.4959
   -20.0260 -20.0192 -20.0099 -20.0089 -19.9975 -19.9905 -19.9797 -19.9676
   -19.9616 -19.9582 -19.9252 -19.9218 -19.9107 -19.9101 -12.3161  -6.1653
    -5.7370  -4.7821  -2.1868  -1.7040  -0.6626  -0.2327   0.7564   2.2845
     2.6050   2.9826   4.5887

          k = 0.1611 0.3708 0.0000 ( 12486 PWs)   bands (ev):

   -68.2726 -68.2485 -35.2086 -35.0163 -34.8666 -34.7356 -34.6285 -34.5479
   -20.0227 -20.0167 -20.0118 -20.0096 -19.9992 -19.9908 -19.9818 -19.9668
   -19.9600 -19.9569 -19.9199 -19.9188 -19.9155 -19.9131 -12.0245  -6.5068
    -5.1786  -5.0106  -2.4510  -1.3818  -0.6869   0.1678   1.3920   2.3133
     3.3693   3.7026   5.2140

          k = 0.1611 0.4635 0.0000 ( 12503 PWs)   bands (ev):

   -68.2612 -68.2449 -35.1968 -35.1110 -34.8810 -34.7936 -34.6724 -34.5826
   -20.0228 -20.0146 -20.0115 -20.0081 -20.0020 -19.9915 -19.9826 -19.9654
   -19.9608 -19.9546 -19.9264 -19.9243 -19.9087 -19.9070 -11.8335  -6.7629
    -5.1981  -4.8314  -2.6210  -0.7719  -0.5737   0.6302   2.0631   2.3032
     3.6907   4.1521   5.6974

          k = 0.1611 0.5562 0.0000 ( 12515 PWs)   bands (ev):

   -68.2563 -68.2442 -35.1900 -35.1536 -34.8531 -34.8469 -34.6838 -34.5953
   -20.0234 -20.0145 -20.0101 -20.0074 -20.0035 -19.9918 -19.9828 -19.9644
   -19.9619 -19.9537 -19.9289 -19.9263 -19.9060 -19.9049 -11.7688  -6.8570
    -5.2258  -4.7839  -2.6878  -0.4260  -0.3733   0.7561   2.2918   2.4417
     3.7520   3.9712   5.9620

          k = 0.1613-0.4638 0.0000 ( 12497 PWs)   bands (ev):

   -68.2611 -68.2449 -35.1978 -35.1120 -34.8825 -34.7928 -34.6720 -34.5817
   -20.0229 -20.0146 -20.0116 -20.0084 -20.0017 -19.9913 -19.9827 -19.9655
   -19.9607 -19.9547 -19.9264 -19.9243 -19.9087 -19.9069 -11.8329  -6.7643
    -5.1986  -4.8315  -2.6231  -0.7754  -0.5725   0.6312   2.0637   2.3015
     3.6889   4.1655   5.7004

          k = 0.1612-0.3711 0.0000 ( 12484 PWs)   bands (ev):

   -68.2724 -68.2484 -35.2093 -35.0185 -34.8684 -34.7361 -34.6274 -34.5466
   -20.0226 -20.0166 -20.0118 -20.0101 -19.9990 -19.9905 -19.9820 -19.9669
   -19.9599 -19.9569 -19.9199 -19.9189 -19.9155 -19.9130 -12.0233  -6.5087
    -5.1776  -5.0119  -2.4550  -1.3843  -0.6845   0.1676   1.3929   2.3147
     3.3732   3.7073   5.2153

          k = 0.1612-0.2783 0.0000 ( 12457 PWs)   bands (ev):

   -68.2865 -68.2546 -35.2363 -34.9104 -34.7875 -34.6950 -34.5598 -34.4946
   -20.0258 -20.0191 -20.0106 -20.0086 -19.9974 -19.9902 -19.9801 -19.9677
   -19.9615 -19.9582 -19.9251 -19.9217 -19.9107 -19.9102 -12.3145  -6.1652
    -5.7344  -4.7856  -2.1893  -1.7041  -0.6630  -0.2347   0.7587   2.2869
     2.6026   2.9839   4.5905

          k = 0.1612-0.1856 0.0000 ( 12438 PWs)   bands (ev):

   -68.2997 -68.2617 -35.2722 -34.8258 -34.6672 -34.6421 -34.5141 -34.4336
   -20.0305 -20.0211 -20.0093 -20.0047 -19.9973 -19.9909 -19.9774 -19.9676
   -19.9638 -19.9591 -19.9343 -19.9301 -19.9021 -19.9012 -12.6353  -6.4403
    -5.7512  -4.4457  -2.0289  -1.5458  -1.2234   0.2114   0.4033   1.5583
     1.9065   2.9993   3.7648

          k = 0.1612-0.0929 0.0000 ( 12434 PWs)   bands (ev):

   -68.3091 -68.2672 -35.3009 -34.7798 -34.6003 -34.5345 -34.4965 -34.3985
   -20.0339 -20.0229 -20.0073 -20.0023 -19.9974 -19.9922 -19.9750 -19.9677
   -19.9643 -19.9603 -19.9409 -19.9363 -19.8957 -19.8946 -12.8849  -6.9235
    -5.3828  -4.3101  -1.8894  -1.5410  -1.0577  -0.0877   0.4279   1.2027
     1.6231   2.9236   3.3706

          k = 0.1612-0.0002 0.0000 ( 12366 PWs)   bands (ev):

   -68.3126 -68.2693 -35.3117 -34.7674 -34.5567 -34.5275 -34.4553 -34.4010
   -20.0351 -20.0236 -20.0056 -20.0027 -19.9963 -19.9933 -19.9738 -19.9681
   -19.9637 -19.9611 -19.9431 -19.9386 -19.8931 -19.8920 -12.9791  -7.0974
    -5.1826  -4.3720  -1.8157  -1.3601  -0.9764  -0.3077   0.2350   1.2963
     1.4575   3.0356   3.2597

          k = 0.2417 0.1389 0.0000 ( 12450 PWs)   bands (ev):

   -68.2941 -68.2586 -35.2572 -34.8838 -34.6989 -34.6757 -34.5502 -34.4283
   -20.0297 -20.0196 -20.0110 -20.0042 -19.9986 -19.9901 -19.9786 -19.9663
   -19.9652 -19.9573 -19.9304 -19.9265 -19.9058 -19.9046 -12.5017  -6.4936
    -5.7164  -4.2872  -2.5090  -1.6225  -1.1156   0.5534   1.1335   1.3731
     2.2034   3.0016   3.5529

          k = 0.2417 0.2316 0.0000 ( 12459 PWs)   bands (ev):

   -68.2843 -68.2536 -35.2334 -34.9587 -34.7795 -34.7079 -34.5826 -34.4699
   -20.0269 -20.0177 -20.0124 -20.0064 -19.9990 -19.9898 -19.9802 -19.9667
   -19.9634 -19.9562 -19.9237 -19.9203 -19.9121 -19.9107 -12.2756  -6.5317
    -5.4750  -4.5676  -2.6814  -1.2676  -1.1399   0.6373   0.9465   2.1917
     2.6521   3.0884   4.0866

          k = 0.2417 0.3243 0.0000 ( 12482 PWs)   bands (ev):

   -68.2724 -68.2484 -35.2084 -35.0158 -34.8674 -34.7352 -34.6304 -34.5498
   -20.0223 -20.0169 -20.0123 -20.0092 -19.9993 -19.9908 -19.9819 -19.9668
   -19.9604 -19.9564 -19.9199 -19.9190 -19.9155 -19.9130 -12.0230  -6.5025
    -5.1871  -5.0135  -2.4486  -1.3784  -0.6925   0.1773   1.3977   2.3156
     3.3648   3.6995   5.2149

          k = 0.2417 0.4170 0.0000 ( 12477 PWs)   bands (ev):

   -68.2609 -68.2448 -35.1821 -35.0485 -34.9325 -34.7678 -34.6858 -34.6287
   -20.0182 -20.0171 -20.0109 -20.0091 -20.0006 -19.9923 -19.9835 -19.9655
   -19.9590 -19.9572 -19.9266 -19.9258 -19.9086 -19.9069 -11.8144  -6.4626
    -5.5277  -4.7662  -1.8909  -1.4647  -0.7696   0.3363   1.9356   2.3616
     3.6802   4.1463   5.9960

          k = 0.2417 0.5098 0.0000 ( 12529 PWs)   bands (ev):

   -68.2528 -68.2442 -35.1440 -35.0891 -34.9516 -34.8159 -34.7065 -34.6762
   -20.0196 -20.0139 -20.0100 -20.0067 -20.0028 -19.9936 -19.9846 -19.9634
   -19.9611 -19.9565 -19.9309 -19.9297 -19.9046 -19.9036 -11.6990  -6.4683
    -5.7092  -4.6067  -1.8093  -0.9666  -0.7375   0.3940   2.3721   2.4465
     3.5615   3.7043   6.0801

          k = 0.2416 0.6025 0.0000 ( 12531 PWs)   bands (ev):

   -68.2528 -68.2442 -35.1451 -35.0897 -34.9516 -34.8160 -34.7069 -34.6750
   -20.0197 -20.0139 -20.0098 -20.0069 -20.0027 -19.9935 -19.9847 -19.9636
   -19.9609 -19.9565 -19.9309 -19.9297 -19.9046 -19.9036 -11.6986  -6.4692
    -5.7098  -4.6074  -1.8094  -0.9725  -0.7341   0.3955   2.3757   2.4439
     3.5548   3.7187   6.0838

          k = 0.2418-0.4175 0.0000 ( 12490 PWs)   bands (ev):

   -68.2607 -68.2447 -35.1835 -35.0512 -34.9327 -34.7689 -34.6852 -34.6269
   -20.0185 -20.0169 -20.0107 -20.0095 -20.0005 -19.9919 -19.9838 -19.9657
   -19.9589 -19.9572 -19.9266 -19.9259 -19.9085 -19.9068 -11.8132  -6.4642
    -5.5301  -4.7669  -1.8934  -1.4687  -0.7677   0.3401   1.9389   2.3615
     3.6783   4.1622   5.9895

          k = 0.2418-0.3248 0.0000 ( 12482 PWs)   bands (ev):

   -68.2721 -68.2482 -35.2091 -35.0182 -34.8694 -34.7361 -34.6299 -34.5486
   -20.0219 -20.0171 -20.0126 -20.0092 -19.9993 -19.9903 -19.9824 -19.9669
   -19.9604 -19.9562 -19.9199 -19.9191 -19.9153 -19.9129 -12.0211  -6.5024
    -5.1888  -5.0157  -2.4513  -1.3798  -0.6929   0.1799   1.4010   2.3183
     3.3668   3.7028   5.2141

          k = 0.2418-0.2320 0.0000 ( 12465 PWs)   bands (ev):

   -68.2841 -68.2534 -35.2334 -34.9603 -34.7819 -34.7085 -34.5825 -34.4699
   -20.0265 -20.0177 -20.0130 -20.0062 -19.9992 -19.9894 -19.9807 -19.9668
   -19.9633 -19.9561 -19.9236 -19.9202 -19.9122 -19.9108 -12.2734  -6.5288
    -5.4715  -4.5764  -2.6804  -1.2677  -1.1415   0.6370   0.9480   2.1917
     2.6546   3.0862   4.0855

          k = 0.2418-0.1393 0.0000 ( 12454 PWs)   bands (ev):

   -68.2939 -68.2585 -35.2570 -34.8845 -34.6998 -34.6766 -34.5508 -34.4287
   -20.0293 -20.0196 -20.0116 -20.0037 -19.9991 -19.9898 -19.9791 -19.9661
   -19.9653 -19.9572 -19.9303 -19.9265 -19.9059 -19.9047 -12.4999  -6.4894
    -5.7120  -4.2981  -2.5040  -1.6239  -1.1162   0.5572   1.1252   1.3726
     2.1939   3.0139   3.5470

          k = 0.2418-0.0466 0.0000 ( 12426 PWs)   bands (ev):

   -68.2995 -68.2616 -35.2718 -34.8271 -34.6678 -34.6430 -34.5146 -34.4341
   -20.0304 -20.0210 -20.0095 -20.0048 -19.9970 -19.9909 -19.9778 -19.9676
   -19.9636 -19.9590 -19.9342 -19.9300 -19.9022 -19.9013 -12.6332  -6.4383
    -5.7496  -4.4522  -2.0318  -1.5441  -1.2224   0.1928   0.4185   1.5608
     1.8950   3.0056   3.7733

          k = 0.2417 0.0461 0.0000 ( 12421 PWs)   bands (ev):

   -68.2996 -68.2616 -35.2719 -34.8271 -34.6674 -34.6429 -34.5140 -34.4339
   -20.0306 -20.0210 -20.0091 -20.0051 -19.9968 -19.9911 -19.9775 -19.9677
   -19.9636 -19.9590 -19.9342 -19.9301 -19.9022 -19.9012 -12.6338  -6.4401
    -5.7528  -4.4464  -2.0378  -1.5414  -1.2204   0.1914   0.4196   1.5677
     1.8934   3.0048   3.7738

          k = 0.3223 0.1851 0.0000 ( 12466 PWs)   bands (ev):

   -68.2782 -68.2507 -35.2278 -35.0413 -34.8153 -34.7229 -34.6015 -34.4599
   -20.0277 -20.0154 -20.0141 -20.0058 -20.0010 -19.9892 -19.9809 -19.9661
   -19.9638 -19.9540 -19.9195 -19.9165 -19.9156 -19.9135 -12.1632  -6.8673
    -5.2602  -4.3477  -3.1462  -1.2891  -0.7595   1.2182   1.8131   1.9616
     2.9075   3.2225   3.6354

          k = 0.3223 0.2779 0.0000 ( 12476 PWs)   bands (ev):

   -68.2698 -68.2474 -35.2194 -35.0970 -34.8544 -34.7475 -34.6343 -34.5013
   -20.0262 -20.0146 -20.0135 -20.0072 -20.0019 -19.9897 -19.9816 -19.9663
   -19.9623 -19.9532 -19.9208 -19.9184 -19.9140 -19.9115 -12.0027  -6.9295
    -5.0618  -4.6653  -3.1264  -0.8159  -0.6594   1.1008   1.7656   2.2997
     3.2306   3.9055   4.2684

          k = 0.3223 0.3706 0.0000 ( 12495 PWs)   bands (ev):

   -68.2607 -68.2448 -35.1975 -35.1104 -34.8819 -34.7939 -34.6751 -34.5853
   -20.0225 -20.0148 -20.0117 -20.0078 -20.0022 -19.9914 -19.9829 -19.9655
   -19.9612 -19.9540 -19.9265 -19.9246 -19.9085 -19.9068 -11.8307  -6.7601
    -5.2130  -4.8368  -2.6253  -0.7592  -0.5653   0.6386   2.0710   2.3096
     3.6937   4.1443   5.6981

          k = 0.3222 0.4633 0.0000 ( 12514 PWs)   bands (ev):

   -68.2525 -68.2442 -35.1452 -35.0885 -34.9524 -34.8161 -34.7076 -34.6768
   -20.0195 -20.0137 -20.0101 -20.0066 -20.0029 -19.9935 -19.9848 -19.9634
   -19.9614 -19.9560 -19.9309 -19.9299 -19.9045 -19.9035 -11.6975  -6.4675
    -5.7161  -4.6106  -1.8253  -0.9476  -0.7307   0.3962   2.3755   2.4517
     3.5669   3.7001   6.0807

          k = 0.3222 0.5561 0.0000 ( 12563 PWs)   bands (ev):

   -68.2470 -68.2464 -35.0745 -35.0705 -35.0383 -34.8181 -34.7197 -34.7192
   -20.0192 -20.0111 -20.0108 -20.0045 -20.0042 -19.9947 -19.9860 -19.9622
   -19.9615 -19.9576 -19.9325 -19.9320 -19.9029 -19.9025 -11.6469  -6.1257
    -6.1240  -4.5034  -1.1706  -1.0409  -1.0298   0.3096   2.4216   2.4264
     3.3979   3.4251   6.5931

          k = 0.3222 0.6488 0.0000 ( 12514 PWs)   bands (ev):

   -68.2523 -68.2442 -35.1472 -35.0898 -34.9520 -34.8173 -34.7076 -34.6754
   -20.0197 -20.0134 -20.0101 -20.0067 -20.0030 -19.9931 -19.9851 -19.9636
   -19.9614 -19.9559 -19.9309 -19.9299 -19.9044 -19.9034 -11.6966  -6.4674
    -5.7198  -4.6121  -1.8317  -0.9454  -0.7249   0.3988   2.3795   2.4519
     3.5631   3.7119   6.0836

          k = 0.3224-0.3712 0.0000 ( 12493 PWs)   bands (ev):

   -68.2604 -68.2446 -35.1994 -35.1120 -34.8836 -34.7942 -34.6751 -34.5847
   -20.0223 -20.0148 -20.0119 -20.0077 -20.0023 -19.9910 -19.9835 -19.9656
   -19.9612 -19.9539 -19.9265 -19.9247 -19.9084 -19.9066 -11.8289  -6.7596
    -5.2196  -4.8373  -2.6289  -0.7573  -0.5617   0.6420   2.0754   2.3107
     3.6943   4.1535   5.6991

          k = 0.3224-0.2785 0.0000 ( 12484 PWs)   bands (ev):

   -68.2695 -68.2472 -35.2203 -35.0986 -34.8565 -34.7477 -34.6348 -34.5016
   -20.0257 -20.0150 -20.0136 -20.0070 -20.0020 -19.9893 -19.9822 -19.9665
   -19.9622 -19.9530 -19.9209 -19.9185 -19.9138 -19.9114 -12.0004  -6.9275
    -5.0604  -4.6748  -3.1272  -0.8129  -0.6584   1.1023   1.7682   2.3028
     3.2374   3.9013   4.2682

          k = 0.3224-0.1858 0.0000 ( 12466 PWs)   bands (ev):

   -68.2779 -68.2505 -35.2279 -35.0425 -34.8169 -34.7231 -34.6026 -34.4607
   -20.0272 -20.0154 -20.0146 -20.0053 -20.0016 -19.9888 -19.9815 -19.9662
   -19.9637 -19.9538 -19.9194 -19.9164 -19.9157 -19.9136 -12.1610  -6.8638
    -5.2572  -4.3595  -3.1433  -1.2888  -0.7583   1.2228   1.8146   1.9567
     2.9174   3.2183   3.6282

          k = 0.3224-0.0930 0.0000 ( 12469 PWs)   bands (ev):

   -68.2839 -68.2533 -35.2334 -34.9625 -34.7834 -34.7090 -34.5818 -34.4696
   -20.0264 -20.0176 -20.0131 -20.0066 -19.9989 -19.9895 -19.9810 -19.9671
   -19.9629 -19.9560 -19.9235 -19.9201 -19.9123 -19.9109 -12.2714  -6.5318
    -5.4702  -4.5787  -2.6877  -1.2672  -1.1388   0.6354   0.9373   2.2025
     2.6591   3.0963   4.0852

          k = 0.3223-0.0003 0.0000 ( 12457 PWs)   bands (ev):

   -68.2861 -68.2544 -35.2359 -34.9139 -34.7887 -34.6960 -34.5605 -34.4952
   -20.0255 -20.0190 -20.0111 -20.0086 -19.9971 -19.9902 -19.9806 -19.9678
   -19.9612 -19.9579 -19.9250 -19.9215 -19.9109 -19.9104 -12.3105  -6.1670
    -5.7311  -4.7959  -2.1943  -1.7065  -0.6661  -0.2326   0.7595   2.2947
     2.6049   2.9893   4.5987

          k = 0.3223 0.0924 0.0000 ( 12465 PWs)   bands (ev):

   -68.2840 -68.2534 -35.2335 -34.9620 -34.7827 -34.7087 -34.5808 -34.4691
   -20.0269 -20.0175 -20.0125 -20.0071 -19.9984 -19.9898 -19.9806 -19.9671
   -19.9628 -19.9562 -19.9236 -19.9202 -19.9123 -19.9108 -12.2727  -6.5355
    -5.4728  -4.5704  -2.6919  -1.2661  -1.1365   0.6344   0.9332   2.2067
     2.6551   3.1031   4.0858

          k = 0.4029 0.2314 0.0000 ( 12466 PWs)   bands (ev):

   -68.2655 -68.2460 -35.2349 -35.1595 -34.8722 -34.7484 -34.6381 -34.4837
   -20.0280 -20.0151 -20.0121 -20.0072 -20.0034 -19.9894 -19.9813 -19.9666
   -19.9617 -19.9512 -19.9225 -19.9193 -19.9112 -19.9092 -11.9510  -7.1858
    -5.0451  -4.4253  -3.5445  -0.5108  -0.2520   1.7530   2.1627   2.7249
     2.8094   3.6937   4.4076

          k = 0.4029 0.3242 0.0000 ( 12504 PWs)   bands (ev):

   -68.2605 -68.2447 -35.2320 -35.1763 -34.8725 -34.7763 -34.6607 -34.5195
   -20.0267 -20.0150 -20.0113 -20.0075 -20.0038 -19.9901 -19.9818 -19.9662
   -19.9613 -19.9512 -19.9257 -19.9223 -19.9083 -19.9068 -11.8648  -7.1448
    -4.9630  -4.7289  -3.3379  -0.2312  -0.1587   1.4886   2.0632   2.4001
     3.7761   3.9561   5.0552

          k = 0.4028 0.4169 0.0000 ( 12516 PWs)   bands (ev):

   -68.2556 -68.2441 -35.1936 -35.1523 -34.8530 -34.8486 -34.6864 -34.5980
   -20.0231 -20.0146 -20.0102 -20.0074 -20.0035 -19.9917 -19.9833 -19.9649
   -19.9617 -19.9531 -19.9290 -19.9267 -19.9057 -19.9047 -11.7648  -6.8573
    -5.2421  -4.7919  -2.6974  -0.4133  -0.3566   0.7634   2.2950   2.4558
     3.7519   3.9807   5.9663

          k = 0.4028 0.5096 0.0000 ( 12525 PWs)   bands (ev):

   -68.2522 -68.2442 -35.1476 -35.0915 -34.9510 -34.8168 -34.7082 -34.6749
   -20.0196 -20.0137 -20.0099 -20.0071 -20.0025 -19.9934 -19.9851 -19.9641
   -19.9607 -19.9560 -19.9310 -19.9300 -19.9043 -19.9034 -11.6958  -6.4728
    -5.7169  -4.6137  -1.8261  -0.9682  -0.7188   0.3991   2.3826   2.4514
     3.5420   3.7504   6.0918

          k = 0.4028 0.6023 0.0000 ( 12522 PWs)   bands (ev):

   -68.2521 -68.2442 -35.1485 -35.0920 -34.9507 -34.8179 -34.7079 -34.6747
   -20.0197 -20.0133 -20.0101 -20.0070 -20.0028 -19.9931 -19.9853 -19.9641
   -19.9609 -19.9559 -19.9310 -19.9300 -19.9043 -19.9034 -11.6953  -6.4717
    -5.7200  -4.6145  -1.8323  -0.9602  -0.7163   0.4001   2.3831   2.4541
     3.5447   3.7480   6.0915

          k = 0.4028 0.6951 0.0000 ( 12510 PWs)   bands (ev):

   -68.2553 -68.2440 -35.1960 -35.1526 -34.8539 -34.8491 -34.6867 -34.5979
   -20.0230 -20.0145 -20.0104 -20.0070 -20.0038 -19.9913 -19.9839 -19.9650
   -19.9618 -19.9529 -19.9290 -19.9267 -19.9056 -19.9045 -11.7634  -6.8562
    -5.2488  -4.7933  -2.7009  -0.4073  -0.3507   0.7664   2.2952   2.4623
     3.7564   3.9795   5.9666

          k = 0.4030-0.3249 0.0000 ( 12494 PWs)   bands (ev):

   -68.2601 -68.2445 -35.2343 -35.1769 -34.8737 -34.7766 -34.6616 -34.5202
   -20.0263 -20.0152 -20.0115 -20.0071 -20.0041 -19.9897 -19.9825 -19.9664
   -19.9612 -19.9510 -19.9258 -19.9224 -19.9081 -19.9066 -11.8627  -7.1430
    -4.9638  -4.7384  -3.3392  -0.2258  -0.1533   1.4915   2.0644   2.4054
     3.7852   3.9496   5.0620

          k = 0.4030-0.2322 0.0000 ( 12474 PWs)   bands (ev):

   -68.2652 -68.2457 -35.2364 -35.1604 -34.8734 -34.7486 -34.6394 -34.4847
   -20.0275 -20.0156 -20.0122 -20.0067 -20.0038 -19.9890 -19.9821 -19.9668
   -19.9616 -19.9510 -19.9226 -19.9194 -19.9111 -19.9090 -11.9487  -7.1832
    -5.0445  -4.4379  -3.5426  -0.5069  -0.2476   1.7568   2.1680   2.7222
     2.8146   3.6933   4.4078

          k = 0.4029-0.1395 0.0000 ( 12477 PWs)   bands (ev):

   -68.2694 -68.2471 -35.2210 -35.1003 -34.8576 -34.7477 -34.6340 -34.5013
   -20.0257 -20.0150 -20.0136 -20.0074 -20.0017 -19.9893 -19.9824 -19.9668
   -19.9617 -19.9530 -19.9210 -19.9185 -19.9137 -19.9114 -11.9989  -6.9309
    -5.0612  -4.6733  -3.1347  -0.8081  -0.6627   1.0963   1.7546   2.3094
     3.2646   3.9019   4.2706

          k = 0.4029-0.0467 0.0000 ( 12494 PWs)   bands (ev):

   -68.2717 -68.2480 -35.2099 -35.0225 -34.8702 -34.7370 -34.6294 -34.5480
   -20.0219 -20.0169 -20.0127 -20.0096 -19.9989 -19.9903 -19.9828 -19.9672
   -19.9599 -19.9562 -19.9201 -19.9192 -19.9152 -19.9128 -12.0177  -6.5096
    -5.1847  -5.0227  -2.4608  -1.3874  -0.6844   0.1750   1.3982   2.3292
     3.3768   3.7201   5.2185

          k = 0.4029 0.0460 0.0000 ( 12496 PWs)   bands (ev):

   -68.2718 -68.2481 -35.2098 -35.0222 -34.8700 -34.7367 -34.6289 -34.5478
   -20.0223 -20.0166 -20.0123 -20.0101 -19.9987 -19.9905 -19.9826 -19.9672
   -19.9597 -19.9564 -19.9201 -19.9192 -19.9152 -19.9128 -12.0184  -6.5117
    -5.1820  -5.0219  -2.4622  -1.3884  -0.6816   0.1720   1.3957   2.3279
     3.3786   3.7214   5.2206

          k = 0.4029 0.1387 0.0000 ( 12469 PWs)   bands (ev):

   -68.2696 -68.2473 -35.2206 -35.0994 -34.8567 -34.7473 -34.6329 -34.5005
   -20.0262 -20.0144 -20.0135 -20.0080 -20.0011 -19.9896 -19.9818 -19.9667
   -19.9617 -19.9532 -19.9209 -19.9184 -19.9138 -19.9115 -12.0006  -6.9338
    -5.0626  -4.6635  -3.1370  -0.8086  -0.6655   1.0938   1.7478   2.3062
     3.2680   3.9052   4.2723

          k =-0.4835-0.2777 0.0000 ( 12472 PWs)   bands (ev):

   -68.2604 -68.2447 -35.2509 -35.1986 -34.8801 -34.7603 -34.6512 -34.4925
   -20.0284 -20.0151 -20.0116 -20.0077 -20.0040 -19.9897 -19.9812 -19.9667
   -19.9608 -19.9502 -19.9250 -19.9212 -19.9081 -19.9067 -11.8819  -7.2952
    -5.0166  -4.4588  -3.6773  -0.0195   0.0068   1.8708   2.2057   2.9416
     2.9842   3.8952   4.9669

          k =-0.4835-0.1850 0.0000 ( 12508 PWs)   bands (ev):

   -68.2604 -68.2447 -35.2330 -35.1770 -34.8732 -34.7761 -34.6602 -34.5192
   -20.0268 -20.0149 -20.0116 -20.0078 -20.0035 -19.9901 -19.9818 -19.9664
   -19.9611 -19.9512 -19.9258 -19.9223 -19.9082 -19.9067 -11.8640  -7.1465
    -4.9661  -4.7250  -3.3421  -0.2317  -0.1593   1.4818   2.0672   2.3905
     3.7979   3.9480   5.0681

          k =-0.4835-0.0923 0.0000 ( 12517 PWs)   bands (ev):

   -68.2603 -68.2446 -35.2000 -35.1138 -34.8837 -34.7931 -34.6743 -34.5838
   -20.0226 -20.0147 -20.0119 -20.0085 -20.0016 -19.9912 -19.9833 -19.9660
   -19.9605 -19.9541 -19.9266 -19.9247 -19.9084 -19.9067 -11.8281  -6.7668
    -5.2147  -4.8376  -2.6329  -0.7724  -0.5604   0.6366   2.0698   2.3122
     3.6861   4.1932   5.7087

          k =-0.4835 0.0005 0.0000 ( 12499 PWs)   bands (ev):

   -68.2602 -68.2446 -35.1853 -35.0563 -34.9312 -34.7702 -34.6856 -34.6262
   -20.0185 -20.0167 -20.0106 -20.0100 -20.0003 -19.9919 -19.9842 -19.9661
   -19.9585 -19.9569 -19.9268 -19.9262 -19.9083 -19.9067 -11.8097  -6.4720
    -5.5340  -4.7715  -1.9014  -1.4783  -0.7601   0.3432   1.9419   2.3710
     3.6710   4.2040   5.9844

          k =-0.4835 0.0932 0.0000 ( 12507 PWs)   bands (ev):

   -68.2601 -68.2445 -35.2008 -35.1144 -34.8839 -34.7942 -34.6747 -34.5840
   -20.0223 -20.0147 -20.0120 -20.0081 -20.0020 -19.9909 -19.9837 -19.9661
   -19.9607 -19.9539 -19.9266 -19.9247 -19.9083 -19.9066 -11.8270  -6.7649
    -5.2207  -4.8380  -2.6344  -0.7670  -0.5580   0.6390   2.0736   2.3150
     3.6884   4.1891   5.7070

          k =-0.4835 0.1859 0.0000 ( 12502 PWs)   bands (ev):

   -68.2600 -68.2445 -35.2349 -35.1774 -34.8740 -34.7766 -34.6613 -34.5200
   -20.0263 -20.0152 -20.0116 -20.0073 -20.0039 -19.9897 -19.9825 -19.9665
   -19.9611 -19.9511 -19.9258 -19.9224 -19.9081 -19.9066 -11.8621  -7.1443
    -4.9664  -4.7353  -3.3421  -0.2264  -0.1537   1.4853   2.0691   2.3983
     3.8010   3.9439   5.0709

          k =-0.4833-0.8341 0.0000 ( 12498 PWs)   bands (ev):

   -68.2600 -68.2445 -35.2533 -35.1990 -34.8810 -34.7605 -34.6527 -34.4936
   -20.0280 -20.0154 -20.0118 -20.0072 -20.0043 -19.9893 -19.9820 -19.9670
   -19.9608 -19.9500 -19.9251 -19.9213 -19.9080 -19.9066 -11.8797  -7.2928
    -5.0171  -4.4718  -3.6756  -0.0132   0.0128   1.8721   2.2141   2.9476
     2.9776   3.9010   4.9722

     the Fermi energy is    -0.2206 ev

!    total energy              =   -1373.24746921 Ry
     estimated scf accuracy    <          6.3E-13 Ry
     smearing contrib. (-TS)   =       0.00001486 Ry
     internal energy E=F+TS    =   -1373.24748407 Ry

     The total energy is F=E-TS. E is the sum of the following terms:
     one-electron contribution =  -10891.59998928 Ry
     hartree contribution      =    5473.98203755 Ry
     xc contribution           =    -138.76825207 Ry
     ewald contribution        =    4183.13871972 Ry

     convergence has been achieved in  22 iterations

     negative rho (up, down):  8.318E-04 0.000E+00

     Forces acting on atoms (cartesian axes, Ry/au):

     atom    1 type  2   force =     0.00031216    0.00028386   -0.00016867
     atom    2 type  1   force =    -0.00036834    0.00001501    0.00166479
     atom    3 type  1   force =     0.00005619   -0.00029887   -0.00149612

     Total force =     0.002289     Total SCF correction =     0.000008


     Computing stress (Cartesian axis) and pressure


     negative rho (up, down):  8.318E-04 0.000E+00
          total   stress  (Ry/bohr**3)                   (kbar)     P=       -0.79
   0.00000584   0.00000098   0.00000061            0.86        0.14        0.09
   0.00000098   0.00000720  -0.00000046            0.14        1.06       -0.07
   0.00000061  -0.00000046  -0.00002921            0.09       -0.07       -4.30


     BFGS Geometry Optimization
     Energy error            =      0.0E+00 Ry
     Gradient error          =      1.7E-03 Ry/Bohr
     Cell gradient error     =      1.1E+00 kbar

     number of scf cycles    =   1
     number of bfgs steps    =   0

     enthalpy           new  =   -1373.2474692101 Ry

     new trust radius        =       0.0017051187 bohr
     new conv_thr            =            1.0E-12 Ry

     new unit-cell volume =   1589.30218 a.u.^3 (   235.51028 Ang^3 )
     density =      2.63634 g/cm^3

CELL_PARAMETERS (alat=  5.55000000)
   1.034264953   0.000228565   0.000000000
  -0.516260277   0.898753497   0.000000000
   0.000000000   0.000000000  10.000000000

ATOMIC_POSITIONS (crystal)
C             0.0000000000        0.0000000000        0.0000000000    0   0   0
Ta            0.6671369903        0.3341695201       -0.0412412975
Ta            0.3331785884        0.6660482734        0.0412257674



     Writing output data file /scratch/as3359/Ta2C_looping/Ta.save/
     NEW-OLD atomic charge density approx. for the potential

     Check: negative core charge=   -0.000001

     negative rho (up, down):  8.290E-04 0.000E+00
     extrapolated charge   58.01890, renormalised to   58.00000

     total cpu time spent up to now is      315.5 secs

     Self-consistent Calculation

     iteration #  1     ecut=    60.00 Ry     beta= 0.70
     Davidson diagonalization with overlap
     ethr =  1.00E-06,  avg # of iterations =  6.7

     negative rho (up, down):  8.077E-04 0.000E+00

     total cpu time spent up to now is      333.8 secs

     total energy              =   -1373.24401556 Ry
     estimated scf accuracy    <       0.00320671 Ry

     iteration #  2     ecut=    60.00 Ry     beta= 0.70
     Davidson diagonalization with overlap
     ethr =  5.53E-06,  avg # of iterations =  6.1

     negative rho (up, down):  8.249E-04 0.000E+00

     total cpu time spent up to now is      351.7 secs

     total energy              =   -1373.24378151 Ry
     estimated scf accuracy    <       0.04471951 Ry

     iteration #  3     ecut=    60.00 Ry     beta= 0.70
     Davidson diagonalization with overlap
     ethr =  5.53E-06,  avg # of iterations =  3.3

     negative rho (up, down):  8.246E-04 0.000E+00

     total cpu time spent up to now is      366.2 secs

     total energy              =   -1373.24759790 Ry
     estimated scf accuracy    <       0.00276861 Ry

     iteration #  4     ecut=    60.00 Ry     beta= 0.70
     Davidson diagonalization with overlap
     ethr =  4.77E-06,  avg # of iterations =  1.5

     negative rho (up, down):  8.250E-04 0.000E+00

     total cpu time spent up to now is      377.4 secs

     total energy              =   -1373.24728384 Ry
     estimated scf accuracy    <       0.02127103 Ry

     iteration #  5     ecut=    60.00 Ry     beta= 0.70
     Davidson diagonalization with overlap
     ethr =  4.77E-06,  avg # of iterations =  1.0

     negative rho (up, down):  8.253E-04 0.000E+00

     total cpu time spent up to now is      388.3 secs

     total energy              =   -1373.24756703 Ry
     estimated scf accuracy    <       0.00100823 Ry

     iteration #  6     ecut=    60.00 Ry     beta= 0.70
     Davidson diagonalization with overlap
     ethr =  1.74E-06,  avg # of iterations =  1.2

     negative rho (up, down):  8.271E-04 0.000E+00

     total cpu time spent up to now is      399.3 secs

     total energy              =   -1373.24750963 Ry
     estimated scf accuracy    <       0.00061636 Ry

     iteration #  7     ecut=    60.00 Ry     beta= 0.70
     Davidson diagonalization with overlap
     ethr =  1.06E-06,  avg # of iterations =  1.6

     negative rho (up, down):  8.270E-04 0.000E+00

     total cpu time spent up to now is      410.7 secs

     total energy              =   -1373.24751516 Ry
     estimated scf accuracy    <       0.00027426 Ry

     iteration #  8     ecut=    60.00 Ry     beta= 0.70
     Davidson diagonalization with overlap
     ethr =  4.73E-07,  avg # of iterations =  1.0

     negative rho (up, down):  8.270E-04 0.000E+00

     total cpu time spent up to now is      421.8 secs

     total energy              =   -1373.24751226 Ry
     estimated scf accuracy    <       0.00023568 Ry

     iteration #  9     ecut=    60.00 Ry     beta= 0.70
     Davidson diagonalization with overlap
     ethr =  4.06E-07,  avg # of iterations =  1.0

     negative rho (up, down):  8.273E-04 0.000E+00

     total cpu time spent up to now is      433.0 secs

     total energy              =   -1373.24750597 Ry
     estimated scf accuracy    <       0.00020987 Ry

     iteration # 10     ecut=    60.00 Ry     beta= 0.70
     Davidson diagonalization with overlap
     ethr =  3.62E-07,  avg # of iterations =  1.0

     negative rho (up, down):  8.312E-04 0.000E+00

     total cpu time spent up to now is      444.3 secs

     total energy              =   -1373.24745327 Ry
     estimated scf accuracy    <       0.00017261 Ry

     iteration # 11     ecut=    60.00 Ry     beta= 0.70
     Davidson diagonalization with overlap
     ethr =  2.98E-07,  avg # of iterations =  2.0

     negative rho (up, down):  8.309E-04 0.000E+00

     total cpu time spent up to now is      456.5 secs

     total energy              =   -1373.24747628 Ry
     estimated scf accuracy    <       0.00000071 Ry

     iteration # 12     ecut=    60.00 Ry     beta= 0.70
     Davidson diagonalization with overlap
     ethr =  1.22E-09,  avg # of iterations =  4.8

     negative rho (up, down):  8.308E-04 0.000E+00

     total cpu time spent up to now is      473.2 secs

     total energy              =   -1373.24747688 Ry
     estimated scf accuracy    <       0.00000063 Ry

     iteration # 13     ecut=    60.00 Ry     beta= 0.70
     Davidson diagonalization with overlap
     ethr =  1.09E-09,  avg # of iterations =  1.2

     negative rho (up, down):  8.307E-04 0.000E+00

     total cpu time spent up to now is      484.4 secs

     total energy              =   -1373.24747676 Ry
     estimated scf accuracy    <       0.00000121 Ry

     iteration # 14     ecut=    60.00 Ry     beta= 0.70
     Davidson diagonalization with overlap
     ethr =  1.09E-09,  avg # of iterations =  1.0

     negative rho (up, down):  8.306E-04 0.000E+00

     total cpu time spent up to now is      495.5 secs

     total energy              =   -1373.24747651 Ry
     estimated scf accuracy    <       0.00000126 Ry

     iteration # 15     ecut=    60.00 Ry     beta= 0.70
     Davidson diagonalization with overlap
     ethr =  1.09E-09,  avg # of iterations =  2.8

     negative rho (up, down):  8.307E-04 0.000E+00

     total cpu time spent up to now is      508.3 secs

     total energy              =   -1373.24747668 Ry
     estimated scf accuracy    <       0.00000041 Ry

     iteration # 16     ecut=    60.00 Ry     beta= 0.70
     Davidson diagonalization with overlap
     ethr =  7.15E-10,  avg # of iterations =  1.0

     negative rho (up, down):  8.307E-04 0.000E+00

     total cpu time spent up to now is      519.3 secs

     total energy              =   -1373.24747666 Ry
     estimated scf accuracy    <       0.00000030 Ry

     iteration # 17     ecut=    60.00 Ry     beta= 0.70
     Davidson diagonalization with overlap
     ethr =  5.17E-10,  avg # of iterations =  1.0

     negative rho (up, down):  8.311E-04 0.000E+00

     total cpu time spent up to now is      530.4 secs

     total energy              =   -1373.24747659 Ry
     estimated scf accuracy    <       0.00000019 Ry

     iteration # 18     ecut=    60.00 Ry     beta= 0.70
     Davidson diagonalization with overlap
     ethr =  3.29E-10,  avg # of iterations =  2.7

     negative rho (up, down):  8.311E-04 0.000E+00

     total cpu time spent up to now is      542.7 secs

     total energy              =   -1373.24747663 Ry
     estimated scf accuracy    <       0.00000003 Ry

     iteration # 19     ecut=    60.00 Ry     beta= 0.70
     Davidson diagonalization with overlap
     ethr =  5.95E-11,  avg # of iterations =  1.1

     negative rho (up, down):  8.311E-04 0.000E+00

     total cpu time spent up to now is      553.6 secs

     total energy              =   -1373.24747663 Ry
     estimated scf accuracy    <       0.00000001 Ry

     iteration # 20     ecut=    60.00 Ry     beta= 0.70
     Davidson diagonalization with overlap
     ethr =  2.55E-11,  avg # of iterations =  1.1

     negative rho (up, down):  8.310E-04 0.000E+00

     total cpu time spent up to now is      564.5 secs

     total energy              =   -1373.24747663 Ry
     estimated scf accuracy    <          6.8E-09 Ry

     iteration # 21     ecut=    60.00 Ry     beta= 0.70
     Davidson diagonalization with overlap
     ethr =  1.16E-11,  avg # of iterations =  2.7

     negative rho (up, down):  8.310E-04 0.000E+00

     total cpu time spent up to now is      576.9 secs

     total energy              =   -1373.24747663 Ry
     estimated scf accuracy    <          4.5E-10 Ry

     iteration # 22     ecut=    60.00 Ry     beta= 0.70
     Davidson diagonalization with overlap
     ethr =  7.72E-13,  avg # of iterations =  2.1

     negative rho (up, down):  8.311E-04 0.000E+00

     total cpu time spent up to now is      589.0 secs

     total energy              =   -1373.24747663 Ry
     estimated scf accuracy    <          7.1E-12 Ry

     iteration # 23     ecut=    60.00 Ry     beta= 0.70
     Davidson diagonalization with overlap
     ethr =  1.00E-13,  avg # of iterations =  3.6

     negative rho (up, down):  8.311E-04 0.000E+00

     total cpu time spent up to now is      601.6 secs

     total energy              =   -1373.24747663 Ry
     estimated scf accuracy    <          8.6E-11 Ry

     iteration # 24     ecut=    60.00 Ry     beta= 0.70
     Davidson diagonalization with overlap
     ethr =  1.00E-13,  avg # of iterations =  1.0

     negative rho (up, down):  8.311E-04 0.000E+00

     total cpu time spent up to now is      612.4 secs

     total energy              =   -1373.24747663 Ry
     estimated scf accuracy    <          6.6E-12 Ry

     iteration # 25     ecut=    60.00 Ry     beta= 0.70
     Davidson diagonalization with overlap
     ethr =  1.00E-13,  avg # of iterations =  1.4

     negative rho (up, down):  8.311E-04 0.000E+00

     total cpu time spent up to now is      623.4 secs

     End of self-consistent calculation

          k = 0.0000 0.0000 0.0000 ( 12407 PWs)   bands (ev):

   -68.3244 -68.2766 -35.3498 -34.7466 -34.4397 -34.4373 -34.3746 -34.3706
   -20.0400 -20.0267 -20.0026 -20.0013 -19.9969 -19.9966 -19.9702 -19.9693
   -19.9636 -19.9635 -19.9520 -19.9470 -19.8861 -19.8844 -13.3062  -7.7348
    -4.4259  -4.3810  -2.0152  -1.0080  -0.8059  -0.2708  -0.2047   1.7099
     1.7226   2.7960   2.8470

          k =-0.0000 0.0927 0.0000 ( 12367 PWs)   bands (ev):

   -68.3206 -68.2742 -35.3371 -34.7518 -34.4870 -34.4534 -34.4187 -34.3767
   -20.0386 -20.0258 -20.0033 -20.0025 -19.9969 -19.9955 -19.9709 -19.9698
   -19.9639 -19.9630 -19.9492 -19.9442 -19.8886 -19.8872 -13.1915  -7.5140
    -4.7517  -4.3455  -1.9156  -1.1766  -0.6188  -0.5222  -0.0266   1.3867
     1.6089   2.8001   3.0693

          k =-0.0000 0.1854 0.0000 ( 12418 PWs)   bands (ev):

   -68.3100 -68.2678 -35.3028 -34.7799 -34.6017 -34.5357 -34.4947 -34.3958
   -20.0348 -20.0235 -20.0068 -20.0038 -19.9978 -19.9930 -19.9746 -19.9689
   -19.9647 -19.9612 -19.9417 -19.9371 -19.8962 -19.8951 -12.8890  -6.9302
    -5.4121  -4.2793  -1.9000  -1.5435  -1.0657  -0.0947   0.4640   1.1981
     1.6511   2.8746   3.3974

          k =-0.0001 0.2781 0.0000 ( 12442 PWs)   bands (ev):

   -68.2951 -68.2593 -35.2594 -34.8846 -34.6992 -34.6761 -34.5475 -34.4250
   -20.0307 -20.0201 -20.0111 -20.0051 -19.9992 -19.9907 -19.9786 -19.9672
   -19.9656 -19.9582 -19.9312 -19.9274 -19.9063 -19.9050 -12.5068  -6.5035
    -5.7276  -4.2644  -2.5194  -1.6204  -1.1158   0.5451   1.1449   1.3672
     2.2217   2.9683   3.5731

          k =-0.0001 0.3708 0.0000 ( 12458 PWs)   bands (ev):

   -68.2794 -68.2515 -35.2297 -35.0418 -34.8148 -34.7226 -34.5980 -34.4559
   -20.0289 -20.0159 -20.0142 -20.0066 -20.0016 -19.9898 -19.9809 -19.9663
   -19.9648 -19.9551 -19.9205 -19.9175 -19.9160 -19.9138 -12.1699  -6.8755
    -5.2618  -4.3217  -3.1536  -1.2928  -0.7645   1.2055   1.8067   1.9640
     2.8814   3.2304   3.6541

          k =-0.0001 0.4635 0.0000 ( 12456 PWs)   bands (ev):

   -68.2670 -68.2468 -35.2346 -35.1607 -34.8723 -34.7475 -34.6339 -34.4791
   -20.0290 -20.0152 -20.0127 -20.0079 -20.0040 -19.9900 -19.9813 -19.9667
   -19.9626 -19.9524 -19.9229 -19.9194 -19.9124 -19.9103 -11.9587  -7.1903
    -5.0379  -4.3970  -3.5509  -0.5235  -0.2643   1.7405   2.1482   2.7349
     2.7903   3.6932   4.4039

          k = 0.0001-0.5563 0.0000 ( 12480 PWs)   bands (ev):

   -68.2620 -68.2455 -35.2485 -35.2009 -34.8811 -34.7589 -34.6469 -34.4877
   -20.0295 -20.0152 -20.0121 -20.0084 -20.0046 -19.9902 -19.9811 -19.9668
   -19.9617 -19.9514 -19.9254 -19.9214 -19.9093 -19.9079 -11.8899  -7.2981
    -5.0058  -4.4297  -3.6834  -0.0375  -0.0087   1.8680   2.1809   2.9261
     3.0038   3.8772   4.9510

          k = 0.0806 0.0463 0.0000 ( 12367 PWs)   bands (ev):

   -68.3206 -68.2742 -35.3369 -34.7519 -34.4852 -34.4557 -34.4160 -34.3798
   -20.0385 -20.0258 -20.0037 -20.0022 -19.9968 -19.9957 -19.9714 -19.9693
   -19.9640 -19.9629 -19.9492 -19.9442 -19.8886 -19.8872 -13.1909  -7.5131
    -4.7297  -4.3709  -1.9140  -1.1758  -0.6198  -0.4925  -0.0609   1.3874
     1.5967   2.8385   3.0445

          k = 0.0805 0.1390 0.0000 ( 12377 PWs)   bands (ev):

   -68.3134 -68.2698 -35.3134 -34.7671 -34.5564 -34.5288 -34.4553 -34.4002
   -20.0358 -20.0243 -20.0052 -20.0041 -19.9971 -19.9939 -19.9735 -19.9693
   -19.9643 -19.9619 -19.9440 -19.9394 -19.8937 -19.8926 -12.9824  -7.1024
    -5.2081  -4.3512  -1.8140  -1.3664  -0.9943  -0.2982   0.2509   1.3066
     1.4656   3.0360   3.2426

          k = 0.0805 0.2317 0.0000 ( 12411 PWs)   bands (ev):

   -68.3006 -68.2623 -35.2740 -34.8260 -34.6672 -34.6405 -34.5143 -34.4325
   -20.0315 -20.0217 -20.0088 -20.0060 -19.9977 -19.9918 -19.9772 -19.9685
   -19.9643 -19.9599 -19.9350 -19.9309 -19.9026 -19.9017 -12.6395  -6.4479
    -5.7674  -4.4284  -2.0439  -1.5413  -1.2168   0.2087   0.4010   1.5802
     1.9041   2.9898   3.7689

          k = 0.0805 0.3244 0.0000 ( 12464 PWs)   bands (ev):

   -68.2853 -68.2543 -35.2354 -34.9601 -34.7795 -34.7081 -34.5803 -34.4671
   -20.0280 -20.0182 -20.0125 -20.0074 -19.9995 -19.9905 -19.9804 -19.9675
   -19.9637 -19.9572 -19.9245 -19.9212 -19.9127 -19.9112 -12.2801  -6.5420
    -5.4788  -4.5508  -2.6908  -1.2674  -1.1360   0.6290   0.9359   2.1985
     2.6433   3.0996   4.0889

          k = 0.0805 0.4171 0.0000 ( 12467 PWs)   bands (ev):

   -68.2711 -68.2482 -35.2207 -35.0983 -34.8542 -34.7471 -34.6309 -34.4975
   -20.0272 -20.0147 -20.0140 -20.0081 -20.0022 -19.9903 -19.9817 -19.9667
   -19.9628 -19.9543 -19.9213 -19.9186 -19.9149 -19.9125 -12.0088  -6.9363
    -5.0587  -4.6439  -3.1326  -0.8206  -0.6687   1.0890   1.7491   2.2951
     3.2343   3.9128   4.2679

          k = 0.0805 0.5098 0.0000 ( 12505 PWs)   bands (ev):

   -68.2619 -68.2455 -35.2305 -35.1784 -34.8731 -34.7751 -34.6570 -34.5154
   -20.0278 -20.0152 -20.0119 -20.0083 -20.0043 -19.9908 -19.9818 -19.9664
   -19.9621 -19.9524 -19.9261 -19.9225 -19.9094 -19.9078 -11.8721  -7.1479
    -4.9544  -4.7061  -3.3391  -0.2466  -0.1747   1.4762   2.0612   2.3822
     3.7727   3.9574   5.0430

          k = 0.0807-0.5100 0.0000 ( 12513 PWs)   bands (ev):

   -68.2619 -68.2455 -35.2309 -35.1786 -34.8736 -34.7749 -34.6568 -34.5152
   -20.0278 -20.0151 -20.0121 -20.0084 -20.0041 -19.9907 -19.9818 -19.9664
   -19.9621 -19.9525 -19.9261 -19.9225 -19.9093 -19.9078 -11.8719  -7.1484
    -4.9551  -4.7051  -3.3404  -0.2465  -0.1749   1.4752   2.0611   2.3796
     3.7796   3.9545   5.0472

          k = 0.0807-0.4173 0.0000 ( 12470 PWs)   bands (ev):

   -68.2710 -68.2481 -35.2212 -35.0991 -34.8555 -34.7468 -34.6301 -34.4971
   -20.0272 -20.0146 -20.0140 -20.0086 -20.0019 -19.9902 -19.9818 -19.9668
   -19.9627 -19.9543 -19.9213 -19.9187 -19.9148 -19.9125 -12.0082  -6.9373
    -5.0587  -4.6435  -3.1359  -0.8180  -0.6706   1.0876   1.7444   2.2956
     3.2454   3.9120   4.2693

          k = 0.0806-0.3246 0.0000 ( 12460 PWs)   bands (ev):

   -68.2852 -68.2542 -35.2355 -34.9613 -34.7813 -34.7084 -34.5791 -34.4664
   -20.0279 -20.0181 -20.0125 -20.0078 -19.9992 -19.9903 -19.9806 -19.9676
   -19.9636 -19.9572 -19.9245 -19.9212 -19.9127 -19.9112 -12.2792  -6.5429
    -5.4778  -4.5515  -2.6942  -1.2664  -1.1351   0.6277   0.9329   2.2029
     2.6422   3.1043   4.0883

          k = 0.0806-0.2319 0.0000 ( 12406 PWs)   bands (ev):

   -68.3005 -68.2623 -35.2740 -34.8267 -34.6681 -34.6423 -34.5133 -34.4319
   -20.0314 -20.0216 -20.0091 -20.0060 -19.9976 -19.9916 -19.9775 -19.9684
   -19.9642 -19.9599 -19.9350 -19.9309 -19.9026 -19.9017 -12.6385  -6.4465
    -5.7664  -4.4307  -2.0456  -1.5396  -1.2166   0.2029   0.4049   1.5792
     1.8982   2.9940   3.7709

          k = 0.0806-0.1391 0.0000 ( 12378 PWs)   bands (ev):

   -68.3133 -68.2697 -35.3133 -34.7671 -34.5576 -34.5294 -34.4553 -34.3997
   -20.0358 -20.0242 -20.0059 -20.0035 -19.9972 -19.9938 -19.9739 -19.9690
   -19.9643 -19.9619 -19.9440 -19.9394 -19.8938 -19.8926 -12.9816  -7.1009
    -5.2023  -4.3590  -1.8127  -1.3653  -0.9889  -0.2998   0.2430   1.3005
     1.4631   3.0372   3.2476

          k = 0.0806-0.0464 0.0000 ( 12371 PWs)   bands (ev):

   -68.3205 -68.2742 -35.3369 -34.7518 -34.4857 -34.4555 -34.4165 -34.3797
   -20.0385 -20.0258 -20.0040 -20.0018 -19.9970 -19.9954 -19.9717 -19.9690
   -19.9640 -19.9629 -19.9492 -19.9443 -19.8887 -19.8873 -13.1906  -7.5125
    -4.7192  -4.3827  -1.9131  -1.1751  -0.6175  -0.4800  -0.0784   1.3888
     1.5889   2.8519   3.0367

          k = 0.1611 0.0926 0.0000 ( 12424 PWs)   bands (ev):

   -68.3098 -68.2676 -35.3023 -34.7800 -34.6004 -34.5343 -34.4978 -34.3994
   -20.0346 -20.0235 -20.0073 -20.0034 -19.9976 -19.9931 -19.9752 -19.9685
   -19.9649 -19.9610 -19.9416 -19.9370 -19.8964 -19.8953 -12.8869  -6.9271
    -5.3952  -4.3060  -1.8910  -1.5435  -1.0595  -0.0899   0.4361   1.2012
     1.6326   2.9135   3.3777

          k = 0.1611 0.1853 0.0000 ( 12425 PWs)   bands (ev):

   -68.3005 -68.2622 -35.2737 -34.8257 -34.6665 -34.6407 -34.5157 -34.4350
   -20.0313 -20.0217 -20.0091 -20.0056 -19.9978 -19.9918 -19.9775 -19.9683
   -19.9644 -19.9598 -19.9350 -19.9309 -19.9027 -19.9018 -12.6381  -6.4454
    -5.7595  -4.4432  -2.0331  -1.5447  -1.2219   0.2133   0.4000   1.5643
     1.9093   2.9970   3.7655

          k = 0.1611 0.2780 0.0000 ( 12465 PWs)   bands (ev):

   -68.2872 -68.2552 -35.2376 -34.9094 -34.7862 -34.6937 -34.5615 -34.4966
   -20.0266 -20.0198 -20.0105 -20.0095 -19.9981 -19.9911 -19.9803 -19.9682
   -19.9622 -19.9588 -19.9259 -19.9225 -19.9113 -19.9109 -12.3176  -6.1688
    -5.7388  -4.7856  -2.1888  -1.7024  -0.6641  -0.2349   0.7574   2.2847
     2.6012   2.9829   4.5912

          k = 0.1611 0.3707 0.0000 ( 12486 PWs)   bands (ev):

   -68.2732 -68.2489 -35.2100 -35.0173 -34.8672 -34.7355 -34.6294 -34.5485
   -20.0233 -20.0173 -20.0124 -20.0102 -19.9997 -19.9914 -19.9824 -19.9674
   -19.9606 -19.9575 -19.9205 -19.9195 -19.9163 -19.9138 -12.0264  -6.5090
    -5.1817  -5.0111  -2.4529  -1.3827  -0.6882   0.1675   1.3926   2.3146
     3.3667   3.6987   5.2166

          k = 0.1610 0.4634 0.0000 ( 12503 PWs)   bands (ev):

   -68.2618 -68.2454 -35.1980 -35.1121 -34.8815 -34.7939 -34.6729 -34.5831
   -20.0234 -20.0152 -20.0121 -20.0087 -20.0026 -19.9920 -19.9832 -19.9660
   -19.9615 -19.9553 -19.9271 -19.9250 -19.9095 -19.9077 -11.8359  -6.7640
    -5.2007  -4.8307  -2.6231  -0.7742  -0.5755   0.6325   2.0629   2.3027
     3.6896   4.1484   5.6967

          k = 0.1610 0.5561 0.0000 ( 12515 PWs)   bands (ev):

   -68.2569 -68.2448 -35.1911 -35.1548 -34.8531 -34.8478 -34.6842 -34.5957
   -20.0240 -20.0150 -20.0107 -20.0080 -20.0040 -19.9923 -19.9834 -19.9650
   -19.9625 -19.9543 -19.9295 -19.9270 -19.9067 -19.9057 -11.7713  -6.8578
    -5.2283  -4.7828  -2.6900  -0.4287  -0.3755   0.7596   2.2902   2.4410
     3.7498   3.9696   5.9588

          k = 0.1612-0.4637 0.0000 ( 12497 PWs)   bands (ev):

   -68.2617 -68.2454 -35.1991 -35.1131 -34.8830 -34.7930 -34.6725 -34.5822
   -20.0234 -20.0151 -20.0122 -20.0090 -20.0022 -19.9918 -19.9833 -19.9662
   -19.9614 -19.9553 -19.9271 -19.9250 -19.9094 -19.9077 -11.8352  -6.7656
    -5.2013  -4.8308  -2.6254  -0.7780  -0.5741   0.6331   2.0634   2.3015
     3.6876   4.1628   5.6998

          k = 0.1612-0.3710 0.0000 ( 12484 PWs)   bands (ev):

   -68.2730 -68.2488 -35.2107 -35.0196 -34.8690 -34.7360 -34.6282 -34.5472
   -20.0232 -20.0172 -20.0123 -20.0107 -19.9995 -19.9911 -19.9826 -19.9676
   -19.9605 -19.9575 -19.9206 -19.9196 -19.9162 -19.9137 -12.0251  -6.5112
    -5.1804  -5.0128  -2.4571  -1.3853  -0.6854   0.1669   1.3933   2.3167
     3.3708   3.7039   5.2180

          k = 0.1612-0.2783 0.0000 ( 12457 PWs)   bands (ev):

   -68.2871 -68.2551 -35.2377 -34.9115 -34.7882 -34.6948 -34.5608 -34.4954
   -20.0263 -20.0197 -20.0112 -20.0092 -19.9980 -19.9908 -19.9807 -19.9683
   -19.9621 -19.9588 -19.9258 -19.9224 -19.9114 -19.9109 -12.3159  -6.1688
    -5.7362  -4.7894  -2.1913  -1.7026  -0.6647  -0.2364   0.7595   2.2872
     2.5992   2.9845   4.5934

          k = 0.1612-0.1856 0.0000 ( 12438 PWs)   bands (ev):

   -68.3003 -68.2621 -35.2735 -34.8265 -34.6678 -34.6425 -34.5153 -34.4345
   -20.0311 -20.0217 -20.0099 -20.0053 -19.9980 -19.9915 -19.9780 -19.9682
   -19.9644 -19.9597 -19.9350 -19.9308 -19.9028 -19.9020 -12.6364  -6.4421
    -5.7553  -4.4516  -2.0284  -1.5458  -1.2238   0.2090   0.4030   1.5560
     1.9052   3.0025   3.7669

          k = 0.1612-0.0929 0.0000 ( 12434 PWs)   bands (ev):

   -68.3097 -68.2676 -35.3022 -34.7801 -34.6012 -34.5352 -34.4980 -34.3995
   -20.0344 -20.0235 -20.0079 -20.0029 -19.9980 -19.9928 -19.9756 -19.9682
   -19.9649 -19.9609 -19.9416 -19.9370 -19.8965 -19.8953 -12.8858  -6.9249
    -5.3878  -4.3173  -1.8856  -1.5435  -1.0570  -0.0877   0.4226   1.2015
     1.6222   2.9275   3.3717

          k = 0.1611-0.0002 0.0000 ( 12366 PWs)   bands (ev):

   -68.3131 -68.2696 -35.3130 -34.7674 -34.5578 -34.5286 -34.4564 -34.4020
   -20.0357 -20.0242 -20.0063 -20.0033 -19.9969 -19.9939 -19.9744 -19.9687
   -19.9643 -19.9617 -19.9438 -19.9393 -19.8938 -19.8927 -12.9800  -7.0987
    -5.1882  -4.3788  -1.8107  -1.3634  -0.9761  -0.3088   0.2312   1.2963
     1.4553   3.0380   3.2613

          k = 0.2417 0.1388 0.0000 ( 12450 PWs)   bands (ev):

   -68.2947 -68.2590 -35.2585 -34.8848 -34.6991 -34.6758 -34.5516 -34.4291
   -20.0303 -20.0202 -20.0116 -20.0049 -19.9992 -19.9908 -19.9792 -19.9669
   -19.9658 -19.9579 -19.9311 -19.9272 -19.9065 -19.9053 -12.5030  -6.4967
    -5.7184  -4.2931  -2.5092  -1.6231  -1.1153   0.5542   1.1280   1.3717
     2.2025   3.0055   3.5548

          k = 0.2417 0.2315 0.0000 ( 12459 PWs)   bands (ev):

   -68.2849 -68.2541 -35.2348 -34.9597 -34.7799 -34.7077 -34.5839 -34.4707
   -20.0276 -20.0183 -20.0129 -20.0070 -19.9996 -19.9905 -19.9808 -19.9673
   -19.9640 -19.9568 -19.9244 -19.9211 -19.9128 -19.9114 -12.2772  -6.5348
    -5.4759  -4.5721  -2.6820  -1.2684  -1.1408   0.6363   0.9463   2.1896
     2.6509   3.0886   4.0895

          k = 0.2416 0.3242 0.0000 ( 12482 PWs)   bands (ev):

   -68.2730 -68.2488 -35.2098 -35.0167 -34.8680 -34.7351 -34.6313 -34.5504
   -20.0229 -20.0175 -20.0128 -20.0098 -19.9998 -19.9914 -19.9826 -19.9674
   -19.9610 -19.9570 -19.9205 -19.9197 -19.9162 -19.9137 -12.0249  -6.5047
    -5.1903  -5.0139  -2.4505  -1.3793  -0.6939   0.1771   1.3983   2.3170
     3.3621   3.6956   5.2176

          k = 0.2416 0.4170 0.0000 ( 12477 PWs)   bands (ev):

   -68.2615 -68.2454 -35.1834 -35.0495 -34.9334 -34.7678 -34.6862 -34.6290
   -20.0188 -20.0177 -20.0115 -20.0097 -20.0012 -19.9929 -19.9841 -19.9661
   -19.9596 -19.9578 -19.9272 -19.9265 -19.9093 -19.9076 -11.8168  -6.4637
    -5.5301  -4.7660  -1.8940  -1.4664  -0.7704   0.3378   1.9360   2.3607
     3.6807   4.1412   5.9966

          k = 0.2416 0.5097 0.0000 ( 12529 PWs)   bands (ev):

   -68.2534 -68.2448 -35.1452 -35.0902 -34.9527 -34.8161 -34.7066 -34.6764
   -20.0201 -20.0145 -20.0106 -20.0072 -20.0034 -19.9942 -19.9852 -19.9640
   -19.9617 -19.9571 -19.9316 -19.9304 -19.9053 -19.9044 -11.7016  -6.4690
    -5.7109  -4.6063  -1.8120  -0.9694  -0.7393   0.3968   2.3706   2.4436
     3.5633   3.7019   6.0775

          k = 0.2416 0.6024 0.0000 ( 12531 PWs)   bands (ev):

   -68.2533 -68.2447 -35.1464 -35.0910 -34.9527 -34.8161 -34.7069 -34.6752
   -20.0202 -20.0145 -20.0104 -20.0075 -20.0032 -19.9940 -19.9854 -19.9642
   -19.9615 -19.9571 -19.9316 -19.9304 -19.9053 -19.9044 -11.7011  -6.4701
    -5.7114  -4.6071  -1.8121  -0.9756  -0.7356   0.3982   2.3741   2.4414
     3.5559   3.7173   6.0815

          k = 0.2418-0.4174 0.0000 ( 12490 PWs)   bands (ev):

   -68.2613 -68.2452 -35.1849 -35.0523 -34.9336 -34.7689 -34.6856 -34.6273
   -20.0191 -20.0175 -20.0113 -20.0101 -20.0011 -19.9925 -19.9845 -19.9663
   -19.9595 -19.9578 -19.9273 -19.9266 -19.9092 -19.9075 -11.8154  -6.4657
    -5.5325  -4.7669  -1.8968  -1.4706  -0.7681   0.3413   1.9391   2.3614
     3.6784   4.1582   5.9906

          k = 0.2418-0.3247 0.0000 ( 12482 PWs)   bands (ev):

   -68.2727 -68.2487 -35.2105 -35.0193 -34.8700 -34.7360 -34.6308 -34.5493
   -20.0225 -20.0176 -20.0132 -20.0097 -19.9998 -19.9909 -19.9831 -19.9675
   -19.9610 -19.9568 -19.9206 -19.9198 -19.9161 -19.9136 -12.0229  -6.5047
    -5.1921  -5.0165  -2.4532  -1.3809  -0.6940   0.1798   1.4016   2.3204
     3.3643   3.6994   5.2172

          k = 0.2418-0.2320 0.0000 ( 12465 PWs)   bands (ev):

   -68.2847 -68.2539 -35.2348 -34.9614 -34.7823 -34.7083 -34.5838 -34.4707
   -20.0270 -20.0183 -20.0136 -20.0068 -19.9998 -19.9900 -19.9814 -19.9674
   -19.9639 -19.9567 -19.9243 -19.9209 -19.9129 -19.9115 -12.2749  -6.5318
    -5.4726  -4.5816  -2.6809  -1.2686  -1.1424   0.6365   0.9476   2.1896
     2.6538   3.0866   4.0887

          k = 0.2417-0.1393 0.0000 ( 12454 PWs)   bands (ev):

   -68.2945 -68.2589 -35.2583 -34.8855 -34.7001 -34.6767 -34.5523 -34.4296
   -20.0298 -20.0202 -20.0122 -20.0043 -19.9997 -19.9904 -19.9797 -19.9667
   -19.9659 -19.9578 -19.9310 -19.9272 -19.9066 -19.9054 -12.5011  -6.4924
    -5.7140  -4.3047  -2.5038  -1.6246  -1.1160   0.5583   1.1193   1.3715
     2.1927   3.0191   3.5484

          k = 0.2417-0.0466 0.0000 ( 12426 PWs)   bands (ev):

   -68.3001 -68.2620 -35.2731 -34.8279 -34.6684 -34.6434 -34.5158 -34.4350
   -20.0310 -20.0216 -20.0101 -20.0054 -19.9976 -19.9916 -19.9783 -19.9682
   -19.9642 -19.9596 -19.9349 -19.9307 -19.9029 -19.9020 -12.6343  -6.4401
    -5.7538  -4.4582  -2.0314  -1.5442  -1.2227   0.1901   0.4185   1.5585
     1.8936   3.0088   3.7755

          k = 0.2417 0.0461 0.0000 ( 12421 PWs)   bands (ev):

   -68.3002 -68.2620 -35.2732 -34.8278 -34.6680 -34.6433 -34.5152 -34.4348
   -20.0311 -20.0216 -20.0096 -20.0058 -19.9974 -19.9918 -19.9781 -19.9683
   -19.9642 -19.9596 -19.9349 -19.9308 -19.9028 -19.9019 -12.6350  -6.4420
    -5.7571  -4.4520  -2.0376  -1.5414  -1.2205   0.1886   0.4195   1.5658
     1.8918   3.0075   3.7760

          k = 0.3222 0.1851 0.0000 ( 12466 PWs)   bands (ev):

   -68.2788 -68.2512 -35.2292 -35.0424 -34.8154 -34.7227 -34.6030 -34.4607
   -20.0284 -20.0159 -20.0146 -20.0065 -20.0016 -19.9898 -19.9815 -19.9666
   -19.9645 -19.9546 -19.9202 -19.9173 -19.9162 -19.9142 -12.1649  -6.8699
    -5.2600  -4.3529  -3.1468  -1.2903  -0.7607   1.2203   1.8110   1.9562
     2.9118   3.2206   3.6366

          k = 0.3222 0.2778 0.0000 ( 12476 PWs)   bands (ev):

   -68.2704 -68.2479 -35.2207 -35.0981 -34.8544 -34.7475 -34.6355 -34.5020
   -20.0268 -20.0151 -20.0141 -20.0078 -20.0024 -19.9903 -19.9822 -19.9668
   -19.9629 -19.9538 -19.9215 -19.9190 -19.9147 -19.9122 -12.0047  -6.9314
    -5.0610  -4.6695  -3.1275  -0.8173  -0.6614   1.1022   1.7645   2.3012
     3.2258   3.9051   4.2688

          k = 0.3222 0.3705 0.0000 ( 12495 PWs)   bands (ev):

   -68.2613 -68.2453 -35.1988 -35.1115 -34.8824 -34.7942 -34.6756 -34.5858
   -20.0231 -20.0153 -20.0123 -20.0084 -20.0027 -19.9920 -19.9836 -19.9660
   -19.9618 -19.9547 -19.9272 -19.9253 -19.9092 -19.9075 -11.8330  -6.7613
    -5.2157  -4.8361  -2.6274  -0.7615  -0.5671   0.6410   2.0708   2.3091
     3.6925   4.1407   5.6975

          k = 0.3222 0.4632 0.0000 ( 12514 PWs)   bands (ev):

   -68.2531 -68.2448 -35.1464 -35.0897 -34.9535 -34.8162 -34.7078 -34.6770
   -20.0201 -20.0143 -20.0107 -20.0071 -20.0034 -19.9941 -19.9854 -19.9640
   -19.9621 -19.9566 -19.9315 -19.9305 -19.9052 -19.9043 -11.7001  -6.4682
    -5.7178  -4.6103  -1.8281  -0.9504  -0.7324   0.3991   2.3739   2.4489
     3.5687   3.6978   6.0782

          k = 0.3222 0.5559 0.0000 ( 12563 PWs)   bands (ev):

   -68.2476 -68.2470 -35.0758 -35.0718 -35.0394 -34.8183 -34.7198 -34.7191
   -20.0198 -20.0117 -20.0114 -20.0050 -20.0048 -19.9952 -19.9867 -19.9628
   -19.9622 -19.9582 -19.9331 -19.9327 -19.9036 -19.9032 -11.6495  -6.1265
    -6.1250  -4.5034  -1.1732  -1.0437  -1.0322   0.3125   2.4179   2.4223
     3.3996   3.4274   6.5935

          k = 0.3221 0.6487 0.0000 ( 12514 PWs)   bands (ev):

   -68.2529 -68.2447 -35.1485 -35.0910 -34.9531 -34.8173 -34.7078 -34.6755
   -20.0203 -20.0140 -20.0107 -20.0072 -20.0036 -19.9937 -19.9858 -19.9642
   -19.9621 -19.9565 -19.9316 -19.9306 -19.9051 -19.9042 -11.6991  -6.4683
    -5.7215  -4.6121  -1.8347  -0.9481  -0.7261   0.4016   2.3780   2.4495
     3.5643   3.7105   6.0817

          k = 0.3224-0.3711 0.0000 ( 12493 PWs)   bands (ev):

   -68.2610 -68.2451 -35.2007 -35.1131 -34.8841 -34.7944 -34.6757 -34.5852
   -20.0229 -20.0154 -20.0125 -20.0083 -20.0028 -19.9915 -19.9841 -19.9662
   -19.9618 -19.9545 -19.9272 -19.9253 -19.9091 -19.9074 -11.8311  -6.7610
    -5.2227  -4.8370  -2.6312  -0.7596  -0.5631   0.6444   2.0752   2.3109
     3.6929   4.1507   5.6991

          k = 0.3224-0.2784 0.0000 ( 12484 PWs)   bands (ev):

   -68.2701 -68.2477 -35.2217 -35.0997 -34.8565 -34.7477 -34.6360 -34.5023
   -20.0263 -20.0156 -20.0142 -20.0076 -20.0026 -19.9899 -19.9829 -19.9671
   -19.9628 -19.9536 -19.9216 -19.9192 -19.9145 -19.9121 -12.0023  -6.9295
    -5.0599  -4.6796  -3.1283  -0.8142  -0.6604   1.1041   1.7670   2.3049
     3.2333   3.9009   4.2689

[...]
     2.6439   3.0846   4.0900

          k = 0.2415 0.3240 0.0000 ( 12492 PWs)   bands (ev):

   -68.2777 -68.2534 -35.2147 -35.0210 -34.8720 -34.7382 -34.6362 -34.5550
   -20.0274 -20.0219 -20.0173 -20.0142 -20.0042 -19.9959 -19.9871 -19.9719
   -19.9655 -19.9616 -19.9252 -19.9244 -19.9209 -19.9184 -12.0288  -6.5080
    -5.1964  -5.0139  -2.4540  -1.3818  -0.6984   0.1747   1.3972   2.3154
     3.3520   3.6824   5.2170

          k = 0.2415 0.4167 0.0000 ( 12495 PWs)   bands (ev):

   -68.2663 -68.2500 -35.1881 -35.0536 -34.9380 -34.7710 -34.6903 -34.6329
   -20.0232 -20.0222 -20.0161 -20.0141 -20.0056 -19.9974 -19.9887 -19.9706
   -19.9642 -19.9624 -19.9318 -19.9312 -19.9140 -19.9123 -11.8214  -6.4652
    -5.5343  -4.7653  -1.9005  -1.4703  -0.7737   0.3389   1.9336   2.3548
     3.6772   4.1245   5.9909

          k = 0.2414 0.5093 0.0000 ( 12545 PWs)   bands (ev):

   -68.2582 -68.2494 -35.1498 -35.0948 -34.9576 -34.8193 -34.7100 -34.6798
   -20.0245 -20.0190 -20.0151 -20.0116 -20.0078 -19.9986 -19.9899 -19.9685
   -19.9663 -19.9616 -19.9362 -19.9350 -19.9101 -19.9092 -11.7066  -6.4697
    -5.7137  -4.6055  -1.8175  -0.9761  -0.7445   0.4004   2.3638   2.4337
     3.5628   3.6915   6.0654

          k = 0.2414 0.6020 0.0000 ( 12549 PWs)   bands (ev):

   -68.2581 -68.2494 -35.1512 -35.0958 -34.9574 -34.8194 -34.7102 -34.6788
   -20.0247 -20.0190 -20.0149 -20.0119 -20.0076 -19.9984 -19.9900 -19.9688
   -19.9661 -19.9617 -19.9362 -19.9351 -19.9100 -19.9091 -11.7060  -6.4715
    -5.7141  -4.6066  -1.8178  -0.9835  -0.7399   0.4016   2.3671   2.4330
     3.5529   3.7109   6.0710

          k = 0.2417-0.4172 0.0000 ( 12500 PWs)   bands (ev):

   -68.2660 -68.2498 -35.1898 -35.0571 -34.9379 -34.7721 -34.6896 -34.6312
   -20.0235 -20.0220 -20.0157 -20.0145 -20.0055 -19.9969 -19.9891 -19.9709
   -19.9641 -19.9623 -19.9319 -19.9313 -19.9139 -19.9123 -11.8197  -6.4684
    -5.5368  -4.7671  -1.9042  -1.4753  -0.7700   0.3418   1.9364   2.3579
     3.6736   4.1460   5.9861

          k = 0.2417-0.3246 0.0000 ( 12494 PWs)   bands (ev):

   -68.2774 -68.2532 -35.2155 -35.0241 -34.8740 -34.7390 -34.6356 -34.5539
   -20.0270 -20.0221 -20.0176 -20.0142 -20.0043 -19.9953 -19.9876 -19.9721
   -19.9656 -19.9614 -19.9253 -19.9245 -19.9208 -19.9183 -12.0263  -6.5087
    -5.1986  -5.0181  -2.4571  -1.3841  -0.6977   0.1778   1.4001   2.3212
     3.3548   3.6881   5.2185

          k = 0.2417-0.2319 0.0000 ( 12491 PWs)   bands (ev):

   -68.2893 -68.2583 -35.2397 -34.9663 -34.7862 -34.7114 -34.5896 -34.4759
   -20.0315 -20.0228 -20.0181 -20.0113 -20.0042 -19.9945 -19.9859 -19.9719
   -19.9685 -19.9612 -19.9290 -19.9256 -19.9176 -19.9163 -12.2776  -6.5367
    -5.4746  -4.5920  -2.6816  -1.2716  -1.1456   0.6337   0.9450   2.1819
     2.6488   3.0834   4.0901

          k = 0.2416-0.1392 0.0000 ( 12470 PWs)   bands (ev):

   -68.2991 -68.2633 -35.2632 -34.8904 -34.7039 -34.6799 -34.5586 -34.4351
   -20.0343 -20.0246 -20.0167 -20.0088 -20.0042 -19.9949 -19.9843 -19.9712
   -19.9704 -19.9623 -19.9357 -19.9318 -19.9113 -19.9102 -12.5035  -6.4968
    -5.7175  -4.3182  -2.5033  -1.6269  -1.1168   0.5589   1.1049   1.3673
     2.1862   3.0266   3.5455

          k = 0.2416-0.0466 0.0000 ( 12439 PWs)   bands (ev):

   -68.3047 -68.2663 -35.2779 -34.8325 -34.6727 -34.6473 -34.5218 -34.4406
   -20.0354 -20.0260 -20.0146 -20.0098 -20.0022 -19.9961 -19.9828 -19.9727
   -19.9687 -19.9641 -19.9395 -19.9354 -19.9076 -19.9068 -12.6365  -6.4429
    -5.7610  -4.4700  -2.0307  -1.5455  -1.2246   0.1829   0.4171   1.5509
     1.8878   3.0111   3.7752

          k = 0.2416 0.0461 0.0000 ( 12445 PWs)   bands (ev):

   -68.3048 -68.2664 -35.2781 -34.8324 -34.6721 -34.6474 -34.5211 -34.4403
   -20.0356 -20.0260 -20.0141 -20.0103 -20.0019 -19.9963 -19.9826 -19.9728
   -19.9687 -19.9642 -19.9395 -19.9354 -19.9076 -19.9068 -12.6373  -6.4450
    -5.7648  -4.4624  -2.0381  -1.5423  -1.2216   0.1808   0.4179   1.5597
     1.8852   3.0085   3.7759

          k = 0.3221 0.1850 0.0000 ( 12478 PWs)   bands (ev):

   -68.2835 -68.2557 -35.2341 -35.0468 -34.8184 -34.7256 -34.6091 -34.4657
   -20.0329 -20.0204 -20.0190 -20.0110 -20.0059 -19.9943 -19.9860 -19.9711
   -19.9691 -19.9592 -19.9249 -19.9219 -19.9209 -19.9189 -12.1683  -6.8741
    -5.2595  -4.3620  -3.1476  -1.2939  -0.7648   1.2213   1.8039   1.9423
     2.9156   3.2124   3.6343

          k = 0.3220 0.2776 0.0000 ( 12496 PWs)   bands (ev):

   -68.2752 -68.2524 -35.2254 -35.1023 -34.8574 -34.7508 -34.6410 -34.5068
   -20.0313 -20.0195 -20.0186 -20.0123 -20.0068 -19.9949 -19.9867 -19.9713
   -19.9675 -19.9584 -19.9262 -19.9238 -19.9194 -19.9170 -12.0086  -6.9342
    -5.0589  -4.6768  -3.1293  -0.8221  -0.6671   1.1022   1.7597   2.2999
     3.2115   3.8991   4.2645

          k = 0.3220 0.3703 0.0000 ( 12513 PWs)   bands (ev):

   -68.2660 -68.2499 -35.2032 -35.1157 -34.8863 -34.7978 -34.6798 -34.5901
   -20.0276 -20.0198 -20.0168 -20.0129 -20.0071 -19.9965 -19.9881 -19.9705
   -19.9664 -19.9592 -19.9318 -19.9299 -19.9140 -19.9123 -11.8376  -6.7628
    -5.2203  -4.8343  -2.6312  -0.7674  -0.5727   0.6436   2.0672   2.3040
     3.6853   4.1277   5.6897

          k = 0.3220 0.4629 0.0000 ( 12538 PWs)   bands (ev):

   -68.2578 -68.2494 -35.1509 -35.0942 -34.9585 -34.8193 -34.7113 -34.6805
   -20.0245 -20.0189 -20.0152 -20.0115 -20.0078 -19.9986 -19.9900 -19.9685
   -19.9667 -19.9612 -19.9361 -19.9352 -19.9099 -19.9091 -11.7051  -6.4690
    -5.7206  -4.6095  -1.8336  -0.9570  -0.7377   0.4027   2.3671   2.4390
     3.5681   3.6876   6.0661

          k = 0.3220 0.5556 0.0000 ( 12581 PWs)   bands (ev):

   -68.2522 -68.2518 -35.0810 -35.0767 -35.0439 -34.8214 -34.7231 -34.7222
   -20.0242 -20.0162 -20.0159 -20.0094 -20.0092 -19.9996 -19.9913 -19.9673
   -19.9668 -19.9627 -19.9377 -19.9375 -19.9083 -19.9081 -11.6546  -6.1276
    -6.1269  -4.5036  -1.1794  -1.0506  -1.0380   0.3163   2.4070   2.4101
     3.3978   3.4281   6.5877

          k = 0.3219 0.6482 0.0000 ( 12534 PWs)   bands (ev):

   -68.2576 -68.2494 -35.1534 -35.0958 -34.9579 -34.8203 -34.7115 -34.6791
   -20.0248 -20.0184 -20.0152 -20.0116 -20.0080 -19.9981 -19.9905 -19.9688
   -19.9666 -19.9610 -19.9362 -19.9353 -19.9098 -19.9090 -11.7038  -6.4700
    -5.7247  -4.6123  -1.8416  -0.9546  -0.7297   0.4052   2.3715   2.4415
     3.5617   3.7039   6.0722

          k = 0.3223-0.3710 0.0000 ( 12509 PWs)   bands (ev):

   -68.2656 -68.2497 -35.2054 -35.1177 -34.8879 -34.7978 -34.6801 -34.5895
   -20.0274 -20.0198 -20.0170 -20.0128 -20.0073 -19.9959 -19.9888 -19.9708
   -19.9664 -19.9590 -19.9318 -19.9300 -19.9138 -19.9121 -11.8352  -6.7631
    -5.2287  -4.8365  -2.6356  -0.7657  -0.5670   0.6473   2.0715   2.3081
     3.6853   4.1407   5.6934

          k = 0.3222-0.2783 0.0000 ( 12501 PWs)   bands (ev):

   -68.2748 -68.2522 -35.2265 -35.1042 -34.8595 -34.7511 -34.6416 -34.5073
   -20.0308 -20.0200 -20.0187 -20.0120 -20.0070 -19.9943 -19.9875 -19.9716
   -19.9674 -19.9582 -19.9263 -19.9239 -19.9192 -19.9169 -12.0057  -6.9324
    -5.0591  -4.6893  -3.1299  -0.8182  -0.6660   1.1056   1.7619   2.3056
     3.2212   3.8949   4.2656

          k = 0.3222-0.1857 0.0000 ( 12480 PWs)   bands (ev):

   -68.2832 -68.2555 -35.2342 -35.0482 -34.8200 -34.7261 -34.6103 -34.4667
   -20.0322 -20.0204 -20.0197 -20.0103 -20.0066 -19.9939 -19.9867 -19.9713
   -19.9690 -19.9590 -19.9247 -19.9218 -19.9211 -19.9190 -12.1656  -6.8701
    -5.2574  -4.3779  -3.1434  -1.2934  -0.7636   1.2285   1.8068   1.9368
     2.9309   3.2071   3.6253

          k = 0.3222-0.0930 0.0000 ( 12491 PWs)   bands (ev):

   -68.2891 -68.2582 -35.2397 -34.9685 -34.7875 -34.7118 -34.5890 -34.4758
   -20.0315 -20.0227 -20.0181 -20.0116 -20.0039 -19.9945 -19.9862 -19.9722
   -19.9681 -19.9612 -19.9289 -19.9255 -19.9177 -19.9164 -12.2756  -6.5397
    -5.4734  -4.5944  -2.6890  -1.2710  -1.1431   0.6316   0.9347   2.1931
     2.6531   3.0938   4.0898

          k = 0.3221-0.0003 0.0000 ( 12469 PWs)   bands (ev):

   -68.2913 -68.2593 -35.2422 -34.9199 -34.7936 -34.6988 -34.5669 -34.5013
   -20.0306 -20.0241 -20.0161 -20.0137 -20.0021 -19.9953 -19.9857 -19.9729
   -19.9663 -19.9631 -19.9303 -19.9269 -19.9162 -19.9159 -12.3147  -6.1771
    -5.7361  -4.8070  -2.2006  -1.7034  -0.6728  -0.2390   0.7600   2.2922
     2.5914   2.9871   4.6026

          k = 0.3221 0.0923 0.0000 ( 12493 PWs)   bands (ev):

   -68.2893 -68.2583 -35.2398 -34.9678 -34.7868 -34.7115 -34.5877 -34.4750
   -20.0320 -20.0226 -20.0175 -20.0123 -20.0034 -19.9949 -19.9857 -19.9723
   -19.9679 -19.9613 -19.9290 -19.9256 -19.9177 -19.9163 -12.2772  -6.5444
    -5.4753  -4.5835  -2.6947  -1.2696  -1.1396   0.6285   0.9295   2.1982
     2.6486   3.1006   4.0892

          k = 0.4026 0.2312 0.0000 ( 12478 PWs)   bands (ev):

   -68.2709 -68.2510 -35.2404 -35.1648 -34.8749 -34.7513 -34.6455 -34.4893
   -20.0331 -20.0200 -20.0172 -20.0124 -20.0082 -19.9945 -19.9864 -19.9716
   -19.9670 -19.9564 -19.9279 -19.9246 -19.9167 -19.9146 -11.9572  -7.1894
    -5.0397  -4.4381  -3.5463  -0.5181  -0.2607   1.7543   2.1634   2.7130
     2.8073   3.6806   4.3936

          k = 0.4026 0.3239 0.0000 ( 12518 PWs)   bands (ev):

   -68.2658 -68.2499 -35.2371 -35.1817 -34.8753 -34.7803 -34.6670 -34.5248
   -20.0318 -20.0199 -20.0164 -20.0126 -20.0087 -19.9952 -19.9869 -19.9712
   -19.9666 -19.9564 -19.9311 -19.9276 -19.9137 -19.9122 -11.8716  -7.1472
    -4.9570  -4.7389  -3.3417  -0.2388  -0.1687   1.4968   2.0593   2.3933
     3.7539   3.9541   5.0394

          k = 0.4025 0.4165 0.0000 ( 12532 PWs)   bands (ev):

   -68.2609 -68.2493 -35.1987 -35.1581 -34.8561 -34.8540 -34.6907 -34.6027
   -20.0281 -20.0196 -20.0153 -20.0124 -20.0083 -19.9968 -19.9885 -19.9699
   -19.9670 -19.9583 -19.9343 -19.9320 -19.9111 -19.9102 -11.7720  -6.8593
    -5.2487  -4.7881  -2.7036  -0.4236  -0.3650   0.7712   2.2868   2.4495
     3.7401   3.9717   5.9504

          k = 0.4025 0.5092 0.0000 ( 12543 PWs)   bands (ev):

   -68.2575 -68.2494 -35.1534 -35.0975 -34.9569 -34.8200 -34.7115 -34.6790
   -20.0246 -20.0189 -20.0150 -20.0121 -20.0075 -19.9984 -19.9903 -19.9693
   -19.9659 -19.9612 -19.9362 -19.9353 -19.9098 -19.9090 -11.7032  -6.4752
    -5.7211  -4.6131  -1.8345  -0.9793  -0.7244   0.4051   2.3738   2.4409
     3.5401   3.7428   6.0798

          k = 0.4025 0.6018 0.0000 ( 12536 PWs)   bands (ev):

   -68.2573 -68.2494 -35.1545 -35.0980 -34.9565 -34.8209 -34.7116 -34.6786
   -20.0248 -20.0184 -20.0152 -20.0119 -20.0078 -19.9981 -19.9906 -19.9692
   -19.9661 -19.9610 -19.9362 -19.9353 -19.9097 -19.9089 -11.7025  -6.4744
    -5.7248  -4.6147  -1.8423  -0.9695  -0.7210   0.4065   2.3749   2.4441
     3.5434   3.7400   6.0803

          k = 0.4024 0.6945 0.0000 ( 12532 PWs)   bands (ev):

   -68.2605 -68.2492 -35.2017 -35.1583 -34.8564 -34.8549 -34.6914 -34.6027
   -20.0281 -20.0194 -20.0154 -20.0120 -20.0088 -19.9963 -19.9892 -19.9701
   -19.9671 -19.9581 -19.9343 -19.9320 -19.9110 -19.9101 -11.7701  -6.8586
    -5.2573  -4.7914  -2.7079  -0.4166  -0.3569   0.7755   2.2878   2.4576
     3.7446   3.9719   5.9531

          k = 0.4028-0.3247 0.0000 ( 12514 PWs)   bands (ev):

   -68.2653 -68.2497 -35.2399 -35.1825 -34.8762 -34.7809 -34.6682 -34.5258
   -20.0314 -20.0201 -20.0165 -20.0121 -20.0090 -19.9947 -19.9878 -19.9715
   -19.9665 -19.9562 -19.9311 -19.9278 -19.9135 -19.9120 -11.8688  -7.1457
    -4.9602  -4.7514  -3.3428  -0.2322  -0.1621   1.5018   2.0620   2.3996
     3.7649   3.9473   5.0490

          k = 0.4027-0.2321 0.0000 ( 12492 PWs)   bands (ev):

   -68.2704 -68.2508 -35.2422 -35.1658 -34.8758 -34.7520 -34.6471 -34.4906
   -20.0326 -20.0205 -20.0172 -20.0117 -20.0088 -19.9940 -19.9873 -19.9719
   -19.9669 -19.9562 -19.9280 -19.9247 -19.9165 -19.9145 -11.9543  -7.1867
    -5.0411  -4.4551  -3.5429  -0.5130  -0.2557   1.7606   2.1717   2.7096
     2.8155   3.6797   4.3941

          k = 0.4027-0.1394 0.0000 ( 12497 PWs)   bands (ev):

   -68.2746 -68.2521 -35.2272 -35.1058 -34.8605 -34.7512 -34.6410 -34.5070
   -20.0308 -20.0199 -20.0186 -20.0124 -20.0067 -19.9943 -19.9876 -19.9719
   -19.9670 -19.9581 -19.9263 -19.9239 -19.9192 -19.9168 -12.0042  -6.9357
    -5.0600  -4.6879  -3.1374  -0.8135  -0.6705   1.0993   1.7483   2.3124
     3.2487   3.8959   4.2676

          k = 0.4027-0.0468 0.0000 ( 12510 PWs)   bands (ev):

   -68.2770 -68.2530 -35.2162 -35.0283 -34.8746 -34.7400 -34.6353 -34.5535
   -20.0270 -20.0220 -20.0178 -20.0146 -20.0040 -19.9953 -19.9880 -19.9724
   -19.9651 -19.9613 -19.9254 -19.9247 -19.9206 -19.9182 -12.0229  -6.5161
    -5.1945  -5.0252  -2.4667  -1.3918  -0.6890   0.1726   1.3971   2.3324
     3.3651   3.7055   5.2230

          k = 0.4027 0.0459 0.0000 ( 12516 PWs)   bands (ev):

   -68.2771 -68.2531 -35.2161 -35.0279 -34.8744 -34.7397 -34.6345 -34.5533
   -20.0274 -20.0217 -20.0173 -20.0152 -20.0037 -19.9955 -19.9878 -19.9724
   -19.9649 -19.9616 -19.9254 -19.9247 -19.9206 -19.9182 -12.0238  -6.5187
    -5.1900  -5.0242  -2.4688  -1.3928  -0.6852   0.1676   1.3941   2.3309
     3.3674   3.7072   5.2235

          k = 0.4026 0.1386 0.0000 ( 12493 PWs)   bands (ev):

   -68.2749 -68.2523 -35.2266 -35.1049 -34.8598 -34.7505 -34.6395 -34.5060
   -20.0313 -20.0193 -20.0187 -20.0131 -20.0061 -19.9947 -19.9869 -19.9718
   -19.9669 -19.9584 -19.9263 -19.9238 -19.9193 -19.9169 -12.0064  -6.9391
    -5.0600  -4.6746  -3.1409  -0.8143  -0.6735   1.0935   1.7399   2.3088
     3.2529   3.8999   4.2678

          k =-0.4831-0.2774 0.0000 ( 12510 PWs)   bands (ev):

   -68.2657 -68.2498 -35.2556 -35.2041 -34.8829 -34.7633 -34.6586 -34.4980
   -20.0336 -20.0199 -20.0167 -20.0128 -20.0088 -19.9948 -19.9863 -19.9717
   -19.9662 -19.9554 -19.9304 -19.9266 -19.9136 -19.9122 -11.8886  -7.2975
    -5.0095  -4.4711  -3.6792  -0.0275  -0.0024   1.8669   2.2189   2.9300
     2.9823   3.8696   4.9502

          k =-0.4831-0.1848 0.0000 ( 12522 PWs)   bands (ev):

   -68.2657 -68.2498 -35.2380 -35.1824 -34.8760 -34.7800 -34.6665 -34.5245
   -20.0319 -20.0198 -20.0167 -20.0129 -20.0083 -19.9952 -19.9870 -19.9714
   -19.9664 -19.9564 -19.9311 -19.9277 -19.9137 -19.9122 -11.8708  -7.1492
    -4.9609  -4.7341  -3.3463  -0.2396  -0.1692   1.4879   2.0655   2.3826
     3.7782   3.9453   5.0531

          k =-0.4832-0.0921 0.0000 ( 12531 PWs)   bands (ev):

   -68.2656 -68.2498 -35.2058 -35.1193 -34.8880 -34.7969 -34.6790 -34.5887
   -20.0276 -20.0197 -20.0169 -20.0135 -20.0065 -19.9963 -19.9885 -19.9712
   -19.9657 -19.9593 -19.9319 -19.9301 -19.9139 -19.9122 -11.8347  -6.7705
    -5.2219  -4.8353  -2.6397  -0.7820  -0.5666   0.6398   2.0652   2.3092
     3.6775   4.1809   5.7019

          k =-0.4832 0.0005 0.0000 ( 12519 PWs)   bands (ev):

   -68.2655 -68.2497 -35.1915 -35.0621 -34.9363 -34.7734 -34.6901 -34.6308
   -20.0235 -20.0218 -20.0157 -20.0150 -20.0053 -19.9969 -19.9895 -19.9712
   -19.9637 -19.9621 -19.9320 -19.9316 -19.9138 -19.9122 -11.8161  -6.4764
    -5.5406  -4.7718  -1.9124  -1.4849  -0.7622   0.3447   1.9394   2.3679
     3.6663   4.1882   5.9813

          k =-0.4832 0.0932 0.0000 ( 12523 PWs)   bands (ev):

   -68.2654 -68.2497 -35.2068 -35.1200 -34.8881 -34.7979 -34.6798 -34.5890
   -20.0274 -20.0197 -20.0170 -20.0131 -20.0070 -19.9959 -19.9890 -19.9712
   -19.9659 -19.9590 -19.9320 -19.9301 -19.9138 -19.9121 -11.8332  -6.7684
    -5.2297  -4.8373  -2.6411  -0.7756  -0.5631   0.6441   2.0696   2.3128
     3.6800   4.1761   5.7014

          k =-0.4833 0.1858 0.0000 ( 12518 PWs)   bands (ev):

   -68.2653 -68.2496 -35.2404 -35.1830 -34.8764 -34.7809 -34.6680 -34.5256
   -20.0314 -20.0201 -20.0166 -20.0123 -20.0089 -19.9947 -19.9878 -19.9717
   -19.9664 -19.9562 -19.9312 -19.9278 -19.9135 -19.9120 -11.8682  -7.1471
    -4.9630  -4.7481  -3.3457  -0.2329  -0.1625   1.4953   2.0671   2.3924
     3.7812   3.9415   5.0579

          k =-0.4829-0.8334 0.0000 ( 12512 PWs)   bands (ev):

   -68.2652 -68.2496 -35.2585 -35.2045 -34.8832 -34.7642 -34.6604 -34.4994
   -20.0331 -20.0203 -20.0168 -20.0122 -20.0092 -19.9943 -19.9873 -19.9721
   -19.9660 -19.9551 -19.9305 -19.9268 -19.9134 -19.9121 -11.8857  -7.2953
    -5.0124  -4.4885  -3.6760  -0.0194   0.0045   1.8684   2.2335   2.9381
     2.9735   3.8760   4.9576

     the Fermi energy is    -0.2275 ev

!    total energy              =   -1373.24754313 Ry
     estimated scf accuracy    <          7.0E-15 Ry
     smearing contrib. (-TS)   =       0.00001440 Ry
     internal energy E=F+TS    =   -1373.24755753 Ry

     The total energy is F=E-TS. E is the sum of the following terms:
     one-electron contribution =  -10883.55337461 Ry
     hartree contribution      =    5469.94750856 Ry
     xc contribution           =    -138.76806797 Ry
     ewald contribution        =    4179.12637648 Ry

     convergence has been achieved in  26 iterations

     negative rho (up, down):  8.290E-04 0.000E+00

     Forces acting on atoms (cartesian axes, Ry/au):

     atom    1 type  2   force =     0.00007370    0.00006801   -0.00006127
     atom    2 type  1   force =    -0.00018365    0.00005330   -0.00007966
     atom    3 type  1   force =     0.00010994   -0.00012131    0.00014094

     Total force =     0.000299     Total SCF correction =     0.000001


     Computing stress (Cartesian axis) and pressure


     negative rho (up, down):  8.290E-04 0.000E+00
          total   stress  (Ry/bohr**3)                   (kbar)     P=       -0.88
   0.00000286   0.00000122   0.00000042            0.42        0.18        0.06
   0.00000122   0.00000347  -0.00000024            0.18        0.51       -0.04
   0.00000042  -0.00000024  -0.00002432            0.06       -0.04       -3.58


     Writing output data file /scratch/as3359/Ta2C_looping/Ta.save/
 
     init_run     :     32.19s CPU     18.57s WALL (       2 calls)
     electrons    :   3224.23s CPU   1653.26s WALL (       5 calls)
     update_pot   :     18.67s CPU     11.21s WALL (       3 calls)
     forces       :     28.64s CPU     14.70s WALL (       5 calls)
     stress       :     89.75s CPU     46.03s WALL (       5 calls)

     Called by init_run:
     wfcinit      :     18.90s CPU      9.70s WALL (       2 calls)
     potinit      :      3.22s CPU      1.63s WALL (       2 calls)
     hinit0       :      8.83s CPU      6.43s WALL (       2 calls)

     Called by electrons:
     c_bands      :   2591.87s CPU   1313.19s WALL (     131 calls)
     sum_band     :    548.16s CPU    288.70s WALL (     131 calls)
     v_of_rho     :     11.65s CPU      5.96s WALL (     136 calls)
     newd         :     70.22s CPU     44.42s WALL (     136 calls)
     mix_rho      :      3.62s CPU      1.87s WALL (     131 calls)

     Called by c_bands:
     init_us_2    :     59.49s CPU     29.86s WALL (   20276 calls)
     cegterg      :   2389.23s CPU   1211.02s WALL (    9694 calls)

     Called by *egterg:
     cdiaghg      :     72.65s CPU     37.15s WALL (   35045 calls)
     h_psi        :   1973.17s CPU   1001.69s WALL (   35415 calls)
     s_psi        :     64.58s CPU     32.40s WALL (   35415 calls)
     g_psi        :     10.79s CPU      5.42s WALL (   25573 calls)

     Called by h_psi:
     h_psi:calbec :     61.69s CPU     31.08s WALL (   35415 calls)
     vloc_psi     :   1819.54s CPU    924.50s WALL (   35415 calls)
     add_vuspsi   :     79.12s CPU     39.69s WALL (   35415 calls)

     General routines
     calbec       :     87.99s CPU     44.32s WALL (   46959 calls)
     fft          :      6.74s CPU      3.45s WALL (    1886 calls)
     ffts         :      0.68s CPU      0.35s WALL (     267 calls)
     fftw         :   1939.45s CPU    985.65s WALL ( 1905674 calls)
     interpolate  :      1.04s CPU      0.53s WALL (     136 calls)
 
     Parallel routines
 
     PWSCF        :  56m36.95s CPU  29m 6.55s WALL

 
   This run was terminated on:  12:57:25   6Apr2022            

=------------------------------------------------------------------------------=
   JOB DONE.
=------------------------------------------------------------------------------=
