
     Program BANDS v.6.8 starts on 22Apr2022 at  9:23:42 

     This program is part of the open-source Quantum ESPRESSO suite
     for quantum simulation of materials; please cite
         "P. Giannozzi et al., J. Phys.:Condens. Matter 21 395502 (2009);
         "P. Giannozzi et al., J. Phys.:Condens. Matter 29 465901 (2017);
         "P. Giannozzi et al., J. Chem. Phys. 152 154105 (2020);
          URL http://www.quantum-espresso.org", 
     in publications or presentations arising from this work. More details at
     http://www.quantum-espresso.org/quote

     Parallel version (MPI & OpenMP), running on       4 processor cores
     Number of MPI processes:                 2
     Threads/MPI process:                     2

     MPI processes distributed on     1 nodes
     R & G space division:  proc/nbgrp/npool/nimage =       2
     119166 MiB available memory on the printing compute node when the environment starts
 

     Reading xml data from directory:

     /scratch/as3359/Ta2CH2k_bandsdos/Ta.save/
     file Ta.pbesol-spfn-rrkjus_psl.1.0.0.UPF: wavefunction(s)  5S 5P renormalized

     IMPORTANT: XC functional enforced from input :
     Exchange-correlation= PBESOL
                           (   1   4  10   8   0   0   0)
     Any further DFT definition will be discarded
     Please, verify this is what you really want

 
     Parallelization info
     --------------------
     sticks:   dense  smooth     PW     G-vecs:    dense   smooth      PW
     Min         945     708    192               312977   203219   29931
     Max         946     709    193               312992   203222   29938
     Sum        1891    1417    385               625969   406441   59869
 
     Using Slab Decomposition
 

     negative rho (up, down):  8.724E-05 0.000E+00
     Reading collected, re-writing distributed wavefunctions
     high-symmetry point:  0.0000 0.0000 0.0000   x coordinate   0.0000
     high-symmetry point:  0.6340 0.0000 0.0000   x coordinate   0.6340
     high-symmetry point:  0.4755-0.2745 0.0000   x coordinate   0.9510
     high-symmetry point:  0.0000 0.0000 0.0000   x coordinate   1.5000

     Plottable bands (eV) written to file Ta2CH2.Bandx.dat.gnu
     Bands written to file Ta2CH2.Bandx.dat

 **************************************************************************

                    xk=(   0.00000,   0.00000,   0.00000  )

     point group C_3v (3m)  
     there are  3 classes
     the character table:

       E     2C3   3s_v 
A_1    1.00  1.00  1.00
A_2    1.00  1.00 -1.00
E      2.00 -1.00  0.00

     the symmetry operations in each class and the name of the first element:

     E        1
                                                                 
     2C3      2    3
                                                                 
     3s_v     4    5    6
                                                                 

     Band symmetry, C_3v (3m)   point group:

     e(  1 -  1) =    -69.76432  eV     1   --> A_1  L_1       
     e(  2 -  2) =    -69.72832  eV     1   --> A_1  L_1       
     e(  3 -  3) =    -36.48506  eV     1   --> A_1  L_1       
     e(  4 -  5) =    -36.04943  eV     2   --> E    L_3       
     e(  6 -  7) =    -35.99669  eV     2   --> E    L_3       
     e(  8 -  8) =    -35.98358  eV     1   --> A_1  L_1       
     e(  9 -  9) =    -21.43275  eV     1   --> A_1  L_1       
     e( 10 - 10) =    -21.42613  eV     1   --> A_1  L_1       
     e( 11 - 12) =    -21.39945  eV     2   --> E    L_3       
     e( 13 - 14) =    -21.38724  eV     2   --> E    L_3       
     e( 15 - 15) =    -21.37277  eV     1   --> A_2  L_2       
     e( 16 - 16) =    -21.37039  eV     1   --> A_2  L_2       
     e( 17 - 17) =    -21.34189  eV     1   --> A_1  L_1       
     e( 18 - 19) =    -21.33370  eV     2   --> E    L_3       
     e( 20 - 20) =    -21.32686  eV     1   --> A_1  L_1       
     e( 21 - 22) =    -21.32187  eV     2   --> E    L_3       
     e( 23 - 23) =    -14.72227  eV     1   --> A_1  L_1       
     e( 24 - 24) =     -9.14490  eV     1   --> A_1  L_1       
     e( 25 - 26) =     -5.70701  eV     2   --> E    L_3       
     e( 27 - 27) =     -5.15483  eV     1   --> A_1  L_1       
     e( 28 - 28) =     -5.14480  eV     1   --> A_1  L_1       
     e( 29 - 29) =     -3.39676  eV     1   --> A_1  L_1       
     e( 30 - 31) =     -1.79752  eV     2   --> E    L_3       
     e( 32 - 33) =      0.19889  eV     2   --> E    L_3       
     e( 34 - 35) =      1.12140  eV     2   --> E    L_3       
     e( 36 - 36) =      1.67669  eV     1   --> A_1  L_1       
     e( 37 - 37) =      2.82276  eV     1   --> A_1  L_1       
     e( 38 - 38) =      3.99542  eV     1   --> A_1  L_1       
     e( 39 - 39) =      4.80352  eV     1   --> A_1  L_1       
     e( 40 - 40) =      5.13797  eV     1   --> A_1  L_1       
     e( 41 - 41) =      5.19246  eV     1   --> A_1  L_1       
     e( 42 - 42) =      5.46303  eV     1   -->   ?

 **************************************************************************

 **************************************************************************

                    xk=(   0.02113,   0.00000,   0.00000  )

     point group C_1 (1)    
     there are  1 classes
     the character table:

       E    
A      1.00

     the symmetry operations in each class and the name of the first element:

     E        1
                                                                 

     Band symmetry, C_1 (1)     point group:

     e(  1 -  1) =    -69.76415  eV     1   --> A              
     e(  2 -  2) =    -69.72820  eV     1   --> A              
     e(  3 -  3) =    -36.48456  eV     1   --> A              
     e(  4 -  4) =    -36.05235  eV     1   --> A              
     e(  5 -  5) =    -36.05020  eV     1   --> A              
     e(  6 -  6) =    -35.99870  eV     1   --> A              
     e(  7 -  7) =    -35.99700  eV     1   --> A              
     e(  8 -  8) =    -35.98310  eV     1   --> A              
     e(  9 -  9) =    -21.43262  eV     1   --> A              
     e( 10 - 10) =    -21.42601  eV     1   --> A              
     e( 11 - 12) =    -21.39947  eV     2   -->   2 A              
     e( 13 - 14) =    -21.38724  eV     2   -->   2 A              
     e( 15 - 15) =    -21.37291  eV     1   --> A              
     e( 16 - 16) =    -21.37053  eV     1   --> A              
     e( 17 - 17) =    -21.34183  eV     1   --> A              
     e( 18 - 19) =    -21.33377  eV     2   -->   2 A              
     e( 20 - 20) =    -21.32680  eV     1   --> A              
     e( 21 - 22) =    -21.32194  eV     2   -->   2 A              
     e( 23 - 23) =    -14.71619  eV     1   --> A              
     e( 24 - 24) =     -9.13338  eV     1   --> A              
     e( 25 - 25) =     -5.74174  eV     1   --> A              
     e( 26 - 26) =     -5.70488  eV     1   --> A              
     e( 27 - 27) =     -5.15254  eV     1   --> A              
     e( 28 - 28) =     -5.11898  eV     1   --> A              
     e( 29 - 29) =     -3.39201  eV     1   --> A              
     e( 30 - 30) =     -1.81723  eV     1   --> A              
     e( 31 - 31) =     -1.78768  eV     1   --> A              
     e( 32 - 32) =      0.14768  eV     1   --> A              
     e( 33 - 33) =      0.18596  eV     1   --> A              
     e( 34 - 34) =      1.12762  eV     1   --> A              
     e( 35 - 35) =      1.13705  eV     1   --> A              
     e( 36 - 36) =      1.72929  eV     1   --> A              
     e( 37 - 37) =      2.84098  eV     1   --> A              
     e( 38 - 38) =      4.00660  eV     1   --> A              
     e( 39 - 39) =      4.81191  eV     1   --> A              
     e( 40 - 40) =      5.14566  eV     1   --> A              
     e( 41 - 41) =      5.20064  eV     1   --> A              
     e( 42 - 42) =      5.45687  eV     1   --> A              

 **************************************************************************

 **************************************************************************

                    xk=(   0.04227,   0.00000,   0.00000  )

     Band symmetry, C_1 (1)     point group:

     e(  1 -  1) =    -69.76364  eV     1   --> A              
     e(  2 -  2) =    -69.72786  eV     1   --> A              
     e(  3 -  3) =    -36.48311  eV     1   --> A              
     e(  4 -  4) =    -36.06076  eV     1   --> A              
     e(  5 -  5) =    -36.05261  eV     1   --> A              
     e(  6 -  6) =    -36.00457  eV     1   --> A              
     e(  7 -  7) =    -35.99804  eV     1   --> A              
     e(  8 -  8) =    -35.98190  eV     1   --> A              
     e(  9 -  9) =    -21.43224  eV     1   --> A              
     e( 10 - 10) =    -21.42565  eV     1   --> A              
     e( 11 - 11) =    -21.39952  eV     1   --> A              
     e( 12 - 12) =    -21.39919  eV     1   --> A              
     e( 13 - 13) =    -21.38725  eV     1   --> A              
     e( 14 - 14) =    -21.38705  eV     1   --> A              
     e( 15 - 15) =    -21.37332  eV     1   --> A              
     e( 16 - 16) =    -21.37093  eV     1   --> A              
     e( 17 - 17) =    -21.34163  eV     1   --> A              
     e( 18 - 18) =    -21.33399  eV     1   --> A              
     e( 19 - 19) =    -21.33383  eV     1   --> A              
     e( 20 - 20) =    -21.32665  eV     1   --> A              
     e( 21 - 21) =    -21.32216  eV     1   --> A              
     e( 22 - 22) =    -21.32189  eV     1   --> A              
     e( 23 - 23) =    -14.69806  eV     1   --> A              
     e( 24 - 24) =     -9.09896  eV     1   --> A              
     e( 25 - 25) =     -5.83159  eV     1   --> A              
     e( 26 - 26) =     -5.69898  eV     1   --> A              
     e( 27 - 27) =     -5.14537  eV     1   --> A              
     e( 28 - 28) =     -5.05515  eV     1   --> A              
     e( 29 - 29) =     -3.37817  eV     1   --> A              
     e( 30 - 30) =     -1.87515  eV     1   --> A              
     e( 31 - 31) =     -1.75828  eV     1   --> A              
     e( 32 - 32) =      0.01991  eV     1   --> A              
     e( 33 - 33) =      0.14761  eV     1   --> A              
     e( 34 - 34) =      1.14726  eV     1   --> A              
     e( 35 - 35) =      1.16909  eV     1   --> A              
     e( 36 - 36) =      1.87499  eV     1   --> A              
     e( 37 - 37) =      2.89431  eV     1   --> A              
     e( 38 - 38) =      4.03995  eV     1   --> A              
     e( 39 - 39) =      4.83692  eV     1   --> A              
     e( 40 - 40) =      5.16733  eV     1   --> A              
     e( 41 - 41) =      5.22500  eV     1   --> A              
     e( 42 - 42) =      5.44075  eV     1   --> A              

 **************************************************************************

 **************************************************************************

                    xk=(   0.06340,   0.00000,   0.00000  )

     Band symmetry, C_1 (1)     point group:

     e(  1 -  1) =    -69.76279  eV     1   --> A              
     e(  2 -  2) =    -69.72730  eV     1   --> A              
     e(  3 -  3) =    -36.48075  eV     1   --> A              
     e(  4 -  4) =    -36.07393  eV     1   --> A              
     e(  5 -  5) =    -36.05694  eV     1   --> A              
     e(  6 -  6) =    -36.01384  eV     1   --> A              
     e(  7 -  7) =    -35.99995  eV     1   --> A              
     e(  8 -  8) =    -35.98040  eV     1   --> A              
     e(  9 -  9) =    -21.43162  eV     1   --> A              
     e( 10 - 10) =    -21.42505  eV     1   --> A              
     e( 11 - 11) =    -21.39961  eV     1   --> A              
     e( 12 - 12) =    -21.39887  eV     1   --> A              
     e( 13 - 13) =    -21.38726  eV     1   --> A              
     e( 14 - 14) =    -21.38681  eV     1   --> A              
     e( 15 - 15) =    -21.37400  eV     1   --> A              
     e( 16 - 16) =    -21.37161  eV     1   --> A              
     e( 17 - 17) =    -21.34131  eV     1   --> A              
     e( 18 - 18) =    -21.33434  eV     1   --> A              
     e( 19 - 19) =    -21.33400  eV     1   --> A              
     e( 20 - 20) =    -21.32641  eV     1   --> A              
     e( 21 - 21) =    -21.32252  eV     1   --> A              
     e( 22 - 22) =    -21.32192  eV     1   --> A              
     e( 23 - 23) =    -14.66822  eV     1   --> A              
     e( 24 - 24) =     -9.04214  eV     1   --> A              
     e( 25 - 25) =     -5.95396  eV     1   --> A              
     e( 26 - 26) =     -5.69086  eV     1   --> A              
     e( 27 - 27) =     -5.13234  eV     1   --> A              
     e( 28 - 28) =     -4.97401  eV     1   --> A              
     e( 29 - 29) =     -3.35640  eV     1   --> A              
     e( 30 - 30) =     -1.96785  eV     1   --> A              
     e( 31 - 31) =     -1.70975  eV     1   --> A              
     e( 32 - 32) =     -0.14102  eV     1   --> A              
     e( 33 - 33) =      0.08560  eV     1   --> A              
     e( 34 - 34) =      1.18225  eV     1   --> A              
     e( 35 - 35) =      1.20082  eV     1   --> A              
     e( 36 - 36) =      2.08382  eV     1   --> A              
     e( 37 - 37) =      2.97942  eV     1   --> A              
     e( 38 - 38) =      4.09495  eV     1   --> A              
     e( 39 - 39) =      4.87797  eV     1   --> A              
     e( 40 - 40) =      5.19712  eV     1   --> A              
     e( 41 - 41) =      5.26490  eV     1   --> A              
     e( 42 - 42) =      5.42296  eV     1   --> A              

 **************************************************************************

 **************************************************************************

                    xk=(   0.08453,   0.00000,   0.00000  )

     Band symmetry, C_1 (1)     point group:

     e(  1 -  1) =    -69.76162  eV     1   --> A              
     e(  2 -  2) =    -69.72653  eV     1   --> A              
     e(  3 -  3) =    -36.47758  eV     1   --> A              
     e(  4 -  4) =    -36.09118  eV     1   --> A              
     e(  5 -  5) =    -36.06386  eV     1   --> A              
     e(  6 -  6) =    -36.02553  eV     1   --> A              
     e(  7 -  7) =    -36.00287  eV     1   --> A              
     e(  8 -  8) =    -35.97896  eV     1   --> A              
     e(  9 -  9) =    -21.43075  eV     1   --> A              
     e( 10 - 10) =    -21.42422  eV     1   --> A              
     e( 11 - 11) =    -21.39973  eV     1   --> A              
     e( 12 - 12) =    -21.39844  eV     1   --> A              
     e( 13 - 13) =    -21.38726  eV     1   --> A              
     e( 14 - 14) =    -21.38648  eV     1   --> A              
     e( 15 - 15) =    -21.37493  eV     1   --> A              
     e( 16 - 16) =    -21.37253  eV     1   --> A              
     e( 17 - 17) =    -21.34087  eV     1   --> A              
     e( 18 - 18) =    -21.33480  eV     1   --> A              
     e( 19 - 19) =    -21.33424  eV     1   --> A              
     e( 20 - 20) =    -21.32607  eV     1   --> A              
     e( 21 - 21) =    -21.32300  eV     1   --> A              
     e( 22 - 22) =    -21.32196  eV     1   --> A              
     e( 23 - 23) =    -14.62718  eV     1   --> A              
     e( 24 - 24) =     -8.96372  eV     1   --> A              
     e( 25 - 25) =     -6.09461  eV     1   --> A              
     e( 26 - 26) =     -5.68302  eV     1   --> A              
     e( 27 - 27) =     -5.11177  eV     1   --> A              
     e( 28 - 28) =     -4.88698  eV     1   --> A              
     e( 29 - 29) =     -3.32839  eV     1   --> A              
     e( 30 - 30) =     -2.09020  eV     1   --> A              
     e( 31 - 31) =     -1.64304  eV     1   --> A              
     e( 32 - 32) =     -0.30587  eV     1   --> A              
     e( 33 - 33) =      0.00380  eV     1   --> A              
     e( 34 - 34) =      1.22816  eV     1   --> A              
     e( 35 - 35) =      1.23378  eV     1   --> A              
     e( 36 - 36) =      2.32555  eV     1   --> A              
     e( 37 - 37) =      3.09205  eV     1   --> A              
     e( 38 - 38) =      4.17077  eV     1   --> A              
     e( 39 - 39) =      4.93390  eV     1   --> A              
     e( 40 - 40) =      5.21935  eV     1   --> A              
     e( 41 - 41) =      5.31885  eV     1   --> A              
     e( 42 - 42) =      5.42244  eV     1   --> A              

 **************************************************************************

 **************************************************************************

                    xk=(   0.10566,   0.00000,   0.00000  )

     Band symmetry, C_1 (1)     point group:

     e(  1 -  1) =    -69.76013  eV     1   --> A              
     e(  2 -  2) =    -69.72556  eV     1   --> A              
     e(  3 -  3) =    -36.47377  eV     1   --> A              
     e(  4 -  4) =    -36.11197  eV     1   --> A              
     e(  5 -  5) =    -36.07459  eV     1   --> A              
     e(  6 -  6) =    -36.03798  eV     1   --> A              
     e(  7 -  7) =    -36.00688  eV     1   --> A              
     e(  8 -  8) =    -35.97775  eV     1   --> A              
     e(  9 -  9) =    -21.42966  eV     1   --> A              
     e( 10 - 10) =    -21.42318  eV     1   --> A              
     e( 11 - 11) =    -21.39986  eV     1   --> A              
     e( 12 - 12) =    -21.39792  eV     1   --> A              
     e( 13 - 13) =    -21.38725  eV     1   --> A              
     e( 14 - 14) =    -21.38607  eV     1   --> A              
     e( 15 - 15) =    -21.37611  eV     1   --> A              
     e( 16 - 16) =    -21.37369  eV     1   --> A              
     e( 17 - 17) =    -21.34032  eV     1   --> A              
     e( 18 - 18) =    -21.33536  eV     1   --> A              
     e( 19 - 19) =    -21.33456  eV     1   --> A              
     e( 20 - 20) =    -21.32565  eV     1   --> A              
     e( 21 - 21) =    -21.32357  eV     1   --> A              
     e( 22 - 22) =    -21.32203  eV     1   --> A              
     e( 23 - 23) =    -14.57568  eV     1   --> A              
     e( 24 - 24) =     -8.86483  eV     1   --> A              
     e( 25 - 25) =     -6.24566  eV     1   --> A              
     e( 26 - 26) =     -5.67878  eV     1   --> A              
     e( 27 - 27) =     -5.08145  eV     1   --> A              
     e( 28 - 28) =     -4.79854  eV     1   --> A              
     e( 29 - 29) =     -3.29607  eV     1   --> A              
     e( 30 - 30) =     -2.23598  eV     1   --> A              
     e( 31 - 31) =     -1.55995  eV     1   --> A              
     e( 32 - 32) =     -0.45875  eV     1   --> A              
     e( 33 - 33) =     -0.09156  eV     1   --> A              
     e( 34 - 34) =      1.25081  eV     1   --> A              
     e( 35 - 35) =      1.30113  eV     1   --> A              
     e( 36 - 36) =      2.57860  eV     1   --> A              
     e( 37 - 37) =      3.22809  eV     1   --> A              
     e( 38 - 38) =      4.26622  eV     1   --> A              
     e( 39 - 39) =      5.00170  eV     1   --> A              
     e( 40 - 40) =      5.21553  eV     1   --> A              
     e( 41 - 41) =      5.38356  eV     1   --> A              
     e( 42 - 42) =      5.46261  eV     1   --> A              

 **************************************************************************

 **************************************************************************

                    xk=(   0.12680,   0.00000,   0.00000  )

     Band symmetry, C_1 (1)     point group:

     e(  1 -  1) =    -69.75836  eV     1   --> A              
     e(  2 -  2) =    -69.72441  eV     1   --> A              
     e(  3 -  3) =    -36.46951  eV     1   --> A              
     e(  4 -  4) =    -36.13583  eV     1   --> A              
     e(  5 -  5) =    -36.09022  eV     1   --> A              
     e(  6 -  6) =    -36.04953  eV     1   --> A              
     e(  7 -  7) =    -36.01206  eV     1   --> A              
     e(  8 -  8) =    -35.97681  eV     1   --> A              
     e(  9 -  9) =    -21.42837  eV     1   --> A              
     e( 10 - 10) =    -21.42193  eV     1   --> A              
     e( 11 - 11) =    -21.40001  eV     1   --> A              
     e( 12 - 12) =    -21.39733  eV     1   --> A              
     e( 13 - 13) =    -21.38723  eV     1   --> A              
     e( 14 - 14) =    -21.38559  eV     1   --> A              
     e( 15 - 15) =    -21.37750  eV     1   --> A              
     e( 16 - 16) =    -21.37506  eV     1   --> A              
     e( 17 - 17) =    -21.33971  eV     1   --> A              
     e( 18 - 18) =    -21.33595  eV     1   --> A              
     e( 19 - 19) =    -21.33497  eV     1   --> A              
     e( 20 - 20) =    -21.32523  eV     1   --> A              
     e( 21 - 21) =    -21.32416  eV     1   --> A              
     e( 22 - 22) =    -21.32212  eV     1   --> A              
     e( 23 - 23) =    -14.51462  eV     1   --> A              
     e( 24 - 24) =     -8.74692  eV     1   --> A              
     e( 25 - 25) =     -6.40210  eV     1   --> A              
     e( 26 - 26) =     -5.68169  eV     1   --> A              
     e( 27 - 27) =     -5.03907  eV     1   --> A              
     e( 28 - 28) =     -4.71008  eV     1   --> A              
     e( 29 - 29) =     -3.26130  eV     1   --> A              
     e( 30 - 30) =     -2.39847  eV     1   --> A              
     e( 31 - 31) =     -1.46416  eV     1   --> A              
     e( 32 - 32) =     -0.59116  eV     1   --> A              
     e( 33 - 33) =     -0.19193  eV     1   --> A              
     e( 34 - 34) =      1.26805  eV     1   --> A              
     e( 35 - 35) =      1.38257  eV     1   --> A              
     e( 36 - 36) =      2.82846  eV     1   --> A              
     e( 37 - 37) =      3.38401  eV     1   --> A              
     e( 38 - 38) =      4.37927  eV     1   --> A              
     e( 39 - 39) =      5.06749  eV     1   --> A              
     e( 40 - 40) =      5.20277  eV     1   --> A              
     e( 41 - 41) =      5.45226  eV     1   --> A              
     e( 42 - 42) =      5.54185  eV     1   --> A              

 **************************************************************************

 **************************************************************************

                    xk=(   0.14793,   0.00000,   0.00000  )

     Band symmetry, C_1 (1)     point group:

     e(  1 -  1) =    -69.75632  eV     1   --> A              
     e(  2 -  2) =    -69.72309  eV     1   --> A              
     e(  3 -  3) =    -36.46512  eV     1   --> A              
     e(  4 -  4) =    -36.16232  eV     1   --> A              
     e(  5 -  5) =    -36.11041  eV     1   --> A              
     e(  6 -  6) =    -36.05985  eV     1   --> A              
     e(  7 -  7) =    -36.01846  eV     1   --> A              
     e(  8 -  8) =    -35.97613  eV     1   --> A              
     e(  9 -  9) =    -21.42689  eV     1   --> A              
     e( 10 - 10) =    -21.42050  eV     1   --> A              
     e( 11 - 11) =    -21.40016  eV     1   --> A              
     e( 12 - 12) =    -21.39669  eV     1   --> A              
     e( 13 - 13) =    -21.38718  eV     1   --> A              
     e( 14 - 14) =    -21.38505  eV     1   --> A              
     e( 15 - 15) =    -21.37910  eV     1   --> A              
     e( 16 - 16) =    -21.37661  eV     1   --> A              
     e( 17 - 17) =    -21.33913  eV     1   --> A              
     e( 18 - 18) =    -21.33647  eV     1   --> A              
     e( 19 - 19) =    -21.33548  eV     1   --> A              
     e( 20 - 20) =    -21.32527  eV     1   --> A              
     e( 21 - 21) =    -21.32427  eV     1   --> A              
     e( 22 - 22) =    -21.32224  eV     1   --> A              
     e( 23 - 23) =    -14.44506  eV     1   --> A              
     e( 24 - 24) =     -8.61172  eV     1   --> A              
     e( 25 - 25) =     -6.56027  eV     1   --> A              
     e( 26 - 26) =     -5.69481  eV     1   --> A              
     e( 27 - 27) =     -4.98283  eV     1   --> A              
     e( 28 - 28) =     -4.62178  eV     1   --> A              
     e( 29 - 29) =     -3.22563  eV     1   --> A              
     e( 30 - 30) =     -2.57101  eV     1   --> A              
     e( 31 - 31) =     -1.36320  eV     1   --> A              
     e( 32 - 32) =     -0.69856  eV     1   --> A              
     e( 33 - 33) =     -0.28520  eV     1   --> A              
     e( 34 - 34) =      1.27927  eV     1   --> A              
     e( 35 - 35) =      1.47564  eV     1   --> A              
     e( 36 - 36) =      3.06528  eV     1   --> A              
     e( 37 - 37) =      3.55691  eV     1   --> A              
     e( 38 - 38) =      4.50626  eV     1   --> A              
     e( 39 - 39) =      5.07939  eV     1   --> A              
     e( 40 - 40) =      5.24745  eV     1   --> A              
     e( 41 - 41) =      5.51693  eV     1   --> A              
     e( 42 - 42) =      5.64695  eV     1   --> A              

 **************************************************************************

 **************************************************************************

                    xk=(   0.16906,   0.00000,   0.00000  )

     Band symmetry, C_1 (1)     point group:

     e(  1 -  1) =    -69.75403  eV     1   --> A              
     e(  2 -  2) =    -69.72164  eV     1   --> A              
     e(  3 -  3) =    -36.46098  eV     1   --> A              
     e(  4 -  4) =    -36.19095  eV     1   --> A              
     e(  5 -  5) =    -36.13361  eV     1   --> A              
     e(  6 -  6) =    -36.06962  eV     1   --> A              
     e(  7 -  7) =    -36.02611  eV     1   --> A              
     e(  8 -  8) =    -35.97569  eV     1   --> A              
     e(  9 -  9) =    -21.42525  eV     1   --> A              
     e( 10 - 10) =    -21.41891  eV     1   --> A              
     e( 11 - 11) =    -21.40030  eV     1   --> A              
     e( 12 - 12) =    -21.39606  eV     1   --> A              
     e( 13 - 13) =    -21.38709  eV     1   --> A              
     e( 14 - 14) =    -21.38447  eV     1   --> A              
     e( 15 - 15) =    -21.38086  eV     1   --> A              
     e( 16 - 16) =    -21.37828  eV     1   --> A              
     e( 17 - 17) =    -21.33891  eV     1   --> A              
     e( 18 - 18) =    -21.33658  eV     1   --> A              
     e( 19 - 19) =    -21.33607  eV     1   --> A              
     e( 20 - 20) =    -21.32595  eV     1   --> A              
     e( 21 - 21) =    -21.32373  eV     1   --> A              
     e( 22 - 22) =    -21.32239  eV     1   --> A              
     e( 23 - 23) =    -14.36818  eV     1   --> A              
     e( 24 - 24) =     -8.46129  eV     1   --> A              
     e( 25 - 25) =     -6.71719  eV     1   --> A              
     e( 26 - 26) =     -5.72007  eV     1   --> A              
     e( 27 - 27) =     -4.91193  eV     1   --> A              
     e( 28 - 28) =     -4.53339  eV     1   --> A              
     e( 29 - 29) =     -3.19015  eV     1   --> A              
     e( 30 - 30) =     -2.74737  eV     1   --> A              
     e( 31 - 31) =     -1.27225  eV     1   --> A              
     e( 32 - 32) =     -0.77882  eV     1   --> A              
     e( 33 - 33) =     -0.35255  eV     1   --> A              
     e( 34 - 34) =      1.28418  eV     1   --> A              
     e( 35 - 35) =      1.57805  eV     1   --> A              
     e( 36 - 36) =      3.28292  eV     1   --> A              
     e( 37 - 37) =      3.74435  eV     1   --> A              
     e( 38 - 38) =      4.64061  eV     1   --> A              
     e( 39 - 39) =      5.04273  eV     1   --> A              
     e( 40 - 40) =      5.35242  eV     1   --> A              
     e( 41 - 41) =      5.57791  eV     1   --> A              
     e( 42 - 42) =      5.77068  eV     1   --> A              

 **************************************************************************

 **************************************************************************

                    xk=(   0.19020,   0.00000,   0.00000  )

     Band symmetry, C_1 (1)     point group:

     e(  1 -  1) =    -69.75153  eV     1   --> A              
     e(  2 -  2) =    -69.72007  eV     1   --> A              
     e(  3 -  3) =    -36.45765  eV     1   --> A              
     e(  4 -  4) =    -36.22123  eV     1   --> A              
     e(  5 -  5) =    -36.15818  eV     1   --> A              
     e(  6 -  6) =    -36.07945  eV     1   --> A              
     e(  7 -  7) =    -36.03501  eV     1   --> A              
     e(  8 -  8) =    -35.97549  eV     1   --> A              
     e(  9 -  9) =    -21.42348  eV     1   --> A              
     e( 10 - 10) =    -21.41717  eV     1   --> A              
     e( 11 - 11) =    -21.40042  eV     1   --> A              
     e( 12 - 12) =    -21.39548  eV     1   --> A              
     e( 13 - 13) =    -21.38696  eV     1   --> A              
     e( 14 - 14) =    -21.38386  eV     1   --> A              
     e( 15 - 15) =    -21.38276  eV     1   --> A              
     e( 16 - 16) =    -21.38002  eV     1   --> A              
     e( 17 - 17) =    -21.33929  eV     1   --> A              
     e( 18 - 18) =    -21.33679  eV     1   --> A              
     e( 19 - 19) =    -21.33602  eV     1   --> A              
     e( 20 - 20) =    -21.32674  eV     1   --> A              
     e( 21 - 21) =    -21.32305  eV     1   --> A              
     e( 22 - 22) =    -21.32257  eV     1   --> A              
     e( 23 - 23) =    -14.28527  eV     1   --> A              
     e( 24 - 24) =     -8.29798  eV     1   --> A              
     e( 25 - 25) =     -6.87039  eV     1   --> A              
     e( 26 - 26) =     -5.75810  eV     1   --> A              
     e( 27 - 27) =     -4.82669  eV     1   --> A              
     e( 28 - 28) =     -4.44462  eV     1   --> A              
     e( 29 - 29) =     -3.15545  eV     1   --> A              
     e( 30 - 30) =     -2.92196  eV     1   --> A              
     e( 31 - 31) =     -1.21674  eV     1   --> A              
     e( 32 - 32) =     -0.83147  eV     1   --> A              
     e( 33 - 33) =     -0.36597  eV     1   --> A              
     e( 34 - 34) =      1.28314  eV     1   --> A              
     e( 35 - 35) =      1.68802  eV     1   --> A              
     e( 36 - 36) =      3.47871  eV     1   --> A              
     e( 37 - 37) =      3.94412  eV     1   --> A              
     e( 38 - 38) =      4.77193  eV     1   --> A              
     e( 39 - 39) =      4.99634  eV     1   --> A              
     e( 40 - 40) =      5.48271  eV     1   --> A              
     e( 41 - 41) =      5.64426  eV     1   --> A              
     e( 42 - 42) =      5.90953  eV     1   --> A              

 **************************************************************************

 **************************************************************************

                    xk=(   0.21133,   0.00000,   0.00000  )

     Band symmetry, C_1 (1)     point group:

     e(  1 -  1) =    -69.74885  eV     1   --> A              
     e(  2 -  2) =    -69.71841  eV     1   --> A              
     e(  3 -  3) =    -36.45582  eV     1   --> A              
     e(  4 -  4) =    -36.25262  eV     1   --> A              
     e(  5 -  5) =    -36.18262  eV     1   --> A              
     e(  6 -  6) =    -36.08963  eV     1   --> A              
     e(  7 -  7) =    -36.04516  eV     1   --> A              
     e(  8 -  8) =    -35.97555  eV     1   --> A              
     e(  9 -  9) =    -21.42162  eV     1   --> A              
     e( 10 - 10) =    -21.41530  eV     1   --> A              
     e( 11 - 11) =    -21.40049  eV     1   --> A              
     e( 12 - 12) =    -21.39503  eV     1   --> A              
     e( 13 - 13) =    -21.38680  eV     1   --> A              
     e( 14 - 14) =    -21.38477  eV     1   --> A              
     e( 15 - 15) =    -21.38330  eV     1   --> A              
     e( 16 - 16) =    -21.38167  eV     1   --> A              
     e( 17 - 17) =    -21.33998  eV     1   --> A              
     e( 18 - 18) =    -21.33759  eV     1   --> A              
     e( 19 - 19) =    -21.33508  eV     1   --> A              
     e( 20 - 20) =    -21.32755  eV     1   --> A              
     e( 21 - 21) =    -21.32280  eV     1   --> A              
     e( 22 - 22) =    -21.32231  eV     1   --> A              
     e( 23 - 23) =    -14.19768  eV     1   --> A              
     e( 24 - 24) =     -8.12441  eV     1   --> A              
     e( 25 - 25) =     -7.01772  eV     1   --> A              
     e( 26 - 26) =     -5.80842  eV     1   --> A              
     e( 27 - 27) =     -4.72822  eV     1   --> A              
     e( 28 - 28) =     -4.35524  eV     1   --> A              
     e( 29 - 29) =     -3.12177  eV     1   --> A              
     e( 30 - 30) =     -3.08967  eV     1   --> A              
     e( 31 - 31) =     -1.21960  eV     1   --> A              
     e( 32 - 32) =     -0.85749  eV     1   --> A              
     e( 33 - 33) =     -0.30112  eV     1   --> A              
     e( 34 - 34) =      1.27729  eV     1   --> A              
     e( 35 - 35) =      1.80444  eV     1   --> A              
     e( 36 - 36) =      3.65283  eV     1   --> A              
     e( 37 - 37) =      4.15418  eV     1   --> A              
     e( 38 - 38) =      4.88674  eV     1   --> A              
     e( 39 - 39) =      4.94982  eV     1   --> A              
     e( 40 - 40) =      5.63053  eV     1   --> A              
     e( 41 - 41) =      5.72638  eV     1   --> A              
     e( 42 - 42) =      6.06128  eV     1   --> A              

 **************************************************************************

 **************************************************************************

                    xk=(   0.23246,   0.00000,   0.00000  )

     Band symmetry, C_1 (1)     point group:

     e(  1 -  1) =    -69.74601  eV     1   --> A              
     e(  2 -  2) =    -69.71669  eV     1   --> A              
     e(  3 -  3) =    -36.45637  eV     1   --> A              
     e(  4 -  4) =    -36.28458  eV     1   --> A              
     e(  5 -  5) =    -36.20547  eV     1   --> A              
     e(  6 -  6) =    -36.10024  eV     1   --> A              
     e(  7 -  7) =    -36.05653  eV     1   --> A              
     e(  8 -  8) =    -35.97588  eV     1   --> A              
     e(  9 -  9) =    -21.41968  eV     1   --> A              
     e( 10 - 10) =    -21.41335  eV     1   --> A              
     e( 11 - 11) =    -21.40051  eV     1   --> A              
     e( 12 - 12) =    -21.39481  eV     1   --> A              
     e( 13 - 13) =    -21.38697  eV     1   --> A              
     e( 14 - 14) =    -21.38653  eV     1   --> A              
     e( 15 - 15) =    -21.38356  eV     1   --> A              
     e( 16 - 16) =    -21.38229  eV     1   --> A              
     e( 17 - 17) =    -21.34078  eV     1   --> A              
     e( 18 - 18) =    -21.33849  eV     1   --> A              
     e( 19 - 19) =    -21.33397  eV     1   --> A              
     e( 20 - 20) =    -21.32836  eV     1   --> A              
     e( 21 - 21) =    -21.32305  eV     1   --> A              
     e( 22 - 22) =    -21.32154  eV     1   --> A              
     e( 23 - 23) =    -14.10679  eV     1   --> A              
     e( 24 - 24) =     -7.94351  eV     1   --> A              
     e( 25 - 25) =     -7.15738  eV     1   --> A              
     e( 26 - 26) =     -5.86981  eV     1   --> A              
     e( 27 - 27) =     -4.61808  eV     1   --> A              
     e( 28 - 28) =     -4.26513  eV     1   --> A              
     e( 29 - 29) =     -3.24677  eV     1   --> A              
     e( 30 - 30) =     -3.08820  eV     1   --> A              
     e( 31 - 31) =     -1.27711  eV     1   --> A              
     e( 32 - 32) =     -0.85934  eV     1   --> A              
     e( 33 - 33) =     -0.16139  eV     1   --> A              
     e( 34 - 34) =      1.26874  eV     1   --> A              
     e( 35 - 35) =      1.92688  eV     1   --> A              
     e( 36 - 36) =      3.80722  eV     1   --> A              
     e( 37 - 37) =      4.37258  eV     1   --> A              
     e( 38 - 38) =      4.90486  eV     1   --> A              
     e( 39 - 39) =      4.97273  eV     1   --> A              
     e( 40 - 40) =      5.79397  eV     1   --> A              
     e( 41 - 41) =      5.83208  eV     1   --> A              
     e( 42 - 42) =      6.22401  eV     1   --> A              

 **************************************************************************

 **************************************************************************

                    xk=(   0.25359,   0.00000,   0.00000  )

     Band symmetry, C_1 (1)     point group:

     e(  1 -  1) =    -69.74306  eV     1   --> A              
     e(  2 -  2) =    -69.71493  eV     1   --> A              
     e(  3 -  3) =    -36.46020  eV     1   --> A              
     e(  4 -  4) =    -36.31655  eV     1   --> A              
     e(  5 -  5) =    -36.22540  eV     1   --> A              
     e(  6 -  6) =    -36.11117  eV     1   --> A              
     e(  7 -  7) =    -36.06909  eV     1   --> A              
     e(  8 -  8) =    -35.97652  eV     1   --> A              
     e(  9 -  9) =    -21.41773  eV     1   --> A              
     e( 10 - 10) =    -21.41132  eV     1   --> A              
     e( 11 - 11) =    -21.40045  eV     1   --> A              
     e( 12 - 12) =    -21.39496  eV     1   --> A              
     e( 13 - 13) =    -21.38901  eV     1   --> A              
     e( 14 - 14) =    -21.38675  eV     1   --> A              
     e( 15 - 15) =    -21.38438  eV     1   --> A              
     e( 16 - 16) =    -21.38175  eV     1   --> A              
     e( 17 - 17) =    -21.34160  eV     1   --> A              
     e( 18 - 18) =    -21.33947  eV     1   --> A              
     e( 19 - 19) =    -21.33277  eV     1   --> A              
     e( 20 - 20) =    -21.32916  eV     1   --> A              
     e( 21 - 21) =    -21.32333  eV     1   --> A              
     e( 22 - 22) =    -21.32076  eV     1   --> A              
     e( 23 - 23) =    -14.01399  eV     1   --> A              
     e( 24 - 24) =     -7.75847  eV     1   --> A              
     e( 25 - 25) =     -7.28784  eV     1   --> A              
     e( 26 - 26) =     -5.94061  eV     1   --> A              
     e( 27 - 27) =     -4.49813  eV     1   --> A              
     e( 28 - 28) =     -4.17427  eV     1   --> A              
     e( 29 - 29) =     -3.38859  eV     1   --> A              
     e( 30 - 30) =     -3.05494  eV     1   --> A              
     e( 31 - 31) =     -1.36777  eV     1   --> A              
     e( 32 - 32) =     -0.84097  eV     1   --> A              
     e( 33 - 33) =      0.03101  eV     1   --> A              
     e( 34 - 34) =      1.26067  eV     1   --> A              
     e( 35 - 35) =      2.05560  eV     1   --> A              
     e( 36 - 36) =      3.94424  eV     1   --> A              
     e( 37 - 37) =      4.59754  eV     1   --> A              
     e( 38 - 38) =      4.86183  eV     1   --> A              
     e( 39 - 39) =      5.02233  eV     1   --> A              
     e( 40 - 40) =      5.96326  eV     1   --> A              
     e( 41 - 41) =      5.97218  eV     1   --> A              
     e( 42 - 42) =      6.39566  eV     1   --> A              

 **************************************************************************

 **************************************************************************

                    xk=(   0.27473,   0.00000,   0.00000  )

     Band symmetry, C_1 (1)     point group:

     e(  1 -  1) =    -69.74002  eV     1   --> A              
     e(  2 -  2) =    -69.71317  eV     1   --> A              
     e(  3 -  3) =    -36.46799  eV     1   --> A              
     e(  4 -  4) =    -36.34798  eV     1   --> A              
     e(  5 -  5) =    -36.24142  eV     1   --> A              
     e(  6 -  6) =    -36.12221  eV     1   --> A              
     e(  7 -  7) =    -36.08280  eV     1   --> A              
     e(  8 -  8) =    -35.97751  eV     1   --> A              
     e(  9 -  9) =    -21.41580  eV     1   --> A              
     e( 10 - 10) =    -21.40926  eV     1   --> A              
     e( 11 - 11) =    -21.40028  eV     1   --> A              
     e( 12 - 12) =    -21.39561  eV     1   --> A              
     e( 13 - 13) =    -21.39115  eV     1   --> A              
     e( 14 - 14) =    -21.38729  eV     1   --> A              
     e( 15 - 15) =    -21.38438  eV     1   --> A              
     e( 16 - 16) =    -21.38113  eV     1   --> A              
     e( 17 - 17) =    -21.34241  eV     1   --> A              
     e( 18 - 18) =    -21.34053  eV     1   --> A              
     e( 19 - 19) =    -21.33153  eV     1   --> A              
     e( 20 - 20) =    -21.32992  eV     1   --> A              
     e( 21 - 21) =    -21.32364  eV     1   --> A              
     e( 22 - 22) =    -21.31998  eV     1   --> A              
     e( 23 - 23) =    -13.92063  eV     1   --> A              
     e( 24 - 24) =     -7.57279  eV     1   --> A              
     e( 25 - 25) =     -7.40787  eV     1   --> A              
     e( 26 - 26) =     -6.01882  eV     1   --> A              
     e( 27 - 27) =     -4.37045  eV     1   --> A              
     e( 28 - 28) =     -4.08269  eV     1   --> A              
     e( 29 - 29) =     -3.51169  eV     1   --> A              
     e( 30 - 30) =     -3.02109  eV     1   --> A              
     e( 31 - 31) =     -1.47380  eV     1   --> A              
     e( 32 - 32) =     -0.80799  eV     1   --> A              
     e( 33 - 33) =      0.25659  eV     1   --> A              
     e( 34 - 34) =      1.25732  eV     1   --> A              
     e( 35 - 35) =      2.19141  eV     1   --> A              
     e( 36 - 36) =      4.06576  eV     1   --> A              
     e( 37 - 37) =      4.81407  eV     1   --> A              
     e( 38 - 38) =      4.83168  eV     1   --> A              
     e( 39 - 39) =      5.03641  eV     1   --> A              
     e( 40 - 40) =      6.11523  eV     1   --> A              
     e( 41 - 41) =      6.16441  eV     1   --> A              
     e( 42 - 42) =      6.57371  eV     1   --> A              

 **************************************************************************

 **************************************************************************

                    xk=(   0.29586,   0.00000,   0.00000  )

     Band symmetry, C_1 (1)     point group:

     e(  1 -  1) =    -69.73693  eV     1   --> A              
     e(  2 -  2) =    -69.71143  eV     1   --> A              
     e(  3 -  3) =    -36.47984  eV     1   --> A              
     e(  4 -  4) =    -36.37832  eV     1   --> A              
     e(  5 -  5) =    -36.25336  eV     1   --> A              
     e(  6 -  6) =    -36.13297  eV     1   --> A              
     e(  7 -  7) =    -36.09763  eV     1   --> A              
     e(  8 -  8) =    -35.97889  eV     1   --> A              
     e(  9 -  9) =    -21.41395  eV     1   --> A              
     e( 10 - 10) =    -21.40718  eV     1   --> A              
     e( 11 - 11) =    -21.39998  eV     1   --> A              
     e( 12 - 12) =    -21.39679  eV     1   --> A              
     e( 13 - 13) =    -21.39330  eV     1   --> A              
     e( 14 - 14) =    -21.38778  eV     1   --> A              
     e( 15 - 15) =    -21.38389  eV     1   --> A              
     e( 16 - 16) =    -21.38052  eV     1   --> A              
     e( 17 - 17) =    -21.34320  eV     1   --> A              
     e( 18 - 18) =    -21.34162  eV     1   --> A              
     e( 19 - 19) =    -21.33081  eV     1   --> A              
     e( 20 - 20) =    -21.33014  eV     1   --> A              
     e( 21 - 21) =    -21.32396  eV     1   --> A              
     e( 22 - 22) =    -21.31921  eV     1   --> A              
     e( 23 - 23) =    -13.82800  eV     1   --> A              
     e( 24 - 24) =     -7.51650  eV     1   --> A              
     e( 25 - 25) =     -7.39019  eV     1   --> A              
     e( 26 - 26) =     -6.10234  eV     1   --> A              
     e( 27 - 27) =     -4.23757  eV     1   --> A              
     e( 28 - 28) =     -3.99043  eV     1   --> A              
     e( 29 - 29) =     -3.61216  eV     1   --> A              
     e( 30 - 30) =     -2.98622  eV     1   --> A              
     e( 31 - 31) =     -1.58473  eV     1   --> A              
     e( 32 - 32) =     -0.76748  eV     1   --> A              
     e( 33 - 33) =      0.50221  eV     1   --> A              
     e( 34 - 34) =      1.26380  eV     1   --> A              
     e( 35 - 35) =      2.33555  eV     1   --> A              
     e( 36 - 36) =      4.17267  eV     1   --> A              
     e( 37 - 37) =      4.76941  eV     1   --> A              
     e( 38 - 38) =      5.01919  eV     1   --> A              
     e( 39 - 39) =      5.06255  eV     1   --> A              
     e( 40 - 40) =      6.28008  eV     1   --> A              
     e( 41 - 41) =      6.36957  eV     1   --> A              
     e( 42 - 42) =      6.75500  eV     1   --> A              

 **************************************************************************

 **************************************************************************

                    xk=(   0.31699,   0.00000,   0.00000  )

     Band symmetry, C_1 (1)     point group:

     e(  1 -  1) =    -69.73383  eV     1   --> A              
     e(  2 -  2) =    -69.70974  eV     1   --> A              
     e(  3 -  3) =    -36.49507  eV     1   --> A              
     e(  4 -  4) =    -36.40707  eV     1   --> A              
     e(  5 -  5) =    -36.26199  eV     1   --> A              
     e(  6 -  6) =    -36.14285  eV     1   --> A              
     e(  7 -  7) =    -36.11352  eV     1   --> A              
     e(  8 -  8) =    -35.98069  eV     1   --> A              
     e(  9 -  9) =    -21.41222  eV     1   --> A              
     e( 10 - 10) =    -21.40513  eV     1   --> A              
     e( 11 - 11) =    -21.39951  eV     1   --> A              
     e( 12 - 12) =    -21.39835  eV     1   --> A              
     e( 13 - 13) =    -21.39543  eV     1   --> A              
     e( 14 - 14) =    -21.38801  eV     1   --> A              
     e( 15 - 15) =    -21.38322  eV     1   --> A              
     e( 16 - 16) =    -21.37994  eV     1   --> A              
     e( 17 - 17) =    -21.34395  eV     1   --> A              
     e( 18 - 18) =    -21.34273  eV     1   --> A              
     e( 19 - 19) =    -21.33150  eV     1   --> A              
     e( 20 - 20) =    -21.32896  eV     1   --> A              
     e( 21 - 21) =    -21.32429  eV     1   --> A              
     e( 22 - 22) =    -21.31847  eV     1   --> A              
     e( 23 - 23) =    -13.73729  eV     1   --> A              
     e( 24 - 24) =     -7.61293  eV     1   --> A              
     e( 25 - 25) =     -7.21485  eV     1   --> A              
     e( 26 - 26) =     -6.18884  eV     1   --> A              
     e( 27 - 27) =     -4.10335  eV     1   --> A              
     e( 28 - 28) =     -3.89748  eV     1   --> A              
     e( 29 - 29) =     -3.68511  eV     1   --> A              
     e( 30 - 30) =     -2.95023  eV     1   --> A              
     e( 31 - 31) =     -1.69438  eV     1   --> A              
     e( 32 - 32) =     -0.72752  eV     1   --> A              
     e( 33 - 33) =      0.75814  eV     1   --> A              
     e( 34 - 34) =      1.28542  eV     1   --> A              
     e( 35 - 35) =      2.48945  eV     1   --> A              
     e( 36 - 36) =      4.26459  eV     1   --> A              
     e( 37 - 37) =      4.71168  eV     1   --> A              
     e( 38 - 38) =      4.97627  eV     1   --> A              
     e( 39 - 39) =      5.30030  eV     1   --> A              
     e( 40 - 40) =      6.44951  eV     1   --> A              
     e( 41 - 41) =      6.58558  eV     1   --> A              
     e( 42 - 42) =      6.93600  eV     1   --> A              

 **************************************************************************

 **************************************************************************

                    xk=(   0.33812,   0.00000,   0.00000  )

     Band symmetry, C_1 (1)     point group:

     e(  1 -  1) =    -69.73074  eV     1   --> A              
     e(  2 -  2) =    -69.70812  eV     1   --> A              
     e(  3 -  3) =    -36.51247  eV     1   --> A              
     e(  4 -  4) =    -36.43374  eV     1   --> A              
     e(  5 -  5) =    -36.26891  eV     1   --> A              
     e(  6 -  6) =    -36.15103  eV     1   --> A              
     e(  7 -  7) =    -36.13042  eV     1   --> A              
     e(  8 -  8) =    -35.98295  eV     1   --> A              
     e(  9 -  9) =    -21.41068  eV     1   --> A              
     e( 10 - 10) =    -21.40315  eV     1   --> A              
     e( 11 - 11) =    -21.40013  eV     1   --> A              
     e( 12 - 12) =    -21.39885  eV     1   --> A              
     e( 13 - 13) =    -21.39750  eV     1   --> A              
     e( 14 - 14) =    -21.38803  eV     1   --> A              
     e( 15 - 15) =    -21.38247  eV     1   --> A              
     e( 16 - 16) =    -21.37942  eV     1   --> A              
     e( 17 - 17) =    -21.34470  eV     1   --> A              
     e( 18 - 18) =    -21.34378  eV     1   --> A              
     e( 19 - 19) =    -21.33225  eV     1   --> A              
     e( 20 - 20) =    -21.32784  eV     1   --> A              
     e( 21 - 21) =    -21.32453  eV     1   --> A              
     e( 22 - 22) =    -21.31777  eV     1   --> A              
     e( 23 - 23) =    -13.64957  eV     1   --> A              
     e( 24 - 24) =     -7.69668  eV     1   --> A              
     e( 25 - 25) =     -7.05129  eV     1   --> A              
     e( 26 - 26) =     -6.27564  eV     1   --> A              
     e( 27 - 27) =     -3.97643  eV     1   --> A              
     e( 28 - 28) =     -3.80379  eV     1   --> A              
     e( 29 - 29) =     -3.72121  eV     1   --> A              
     e( 30 - 30) =     -2.91353  eV     1   --> A              
     e( 31 - 31) =     -1.79857  eV     1   --> A              
     e( 32 - 32) =     -0.69609  eV     1   --> A              
     e( 33 - 33) =      1.01605  eV     1   --> A              
     e( 34 - 34) =      1.32628  eV     1   --> A              
     e( 35 - 35) =      2.65433  eV     1   --> A              
     e( 36 - 36) =      4.33918  eV     1   --> A              
     e( 37 - 37) =      4.63809  eV     1   --> A              
     e( 38 - 38) =      4.91391  eV     1   --> A              
     e( 39 - 39) =      5.54187  eV     1   --> A              
     e( 40 - 40) =      6.61565  eV     1   --> A              
     e( 41 - 41) =      6.80748  eV     1   --> A              
     e( 42 - 42) =      7.11467  eV     1   --> A              

 **************************************************************************

 **************************************************************************

                    xk=(   0.35926,   0.00000,   0.00000  )

     Band symmetry, C_1 (1)     point group:

     e(  1 -  1) =    -69.72770  eV     1   --> A              
     e(  2 -  2) =    -69.70661  eV     1   --> A              
     e(  3 -  3) =    -36.53065  eV     1   --> A              
     e(  4 -  4) =    -36.45791  eV     1   --> A              
     e(  5 -  5) =    -36.27602  eV     1   --> A              
     e(  6 -  6) =    -36.15660  eV     1   --> A              
     e(  7 -  7) =    -36.14825  eV     1   --> A              
     e(  8 -  8) =    -35.98570  eV     1   --> A              
     e(  9 -  9) =    -21.40937  eV     1   --> A              
     e( 10 - 10) =    -21.40211  eV     1   --> A              
     e( 11 - 11) =    -21.40113  eV     1   --> A              
     e( 12 - 12) =    -21.39954  eV     1   --> A              
     e( 13 - 13) =    -21.39789  eV     1   --> A              
     e( 14 - 14) =    -21.38790  eV     1   --> A              
     e( 15 - 15) =    -21.38170  eV     1   --> A              
     e( 16 - 16) =    -21.37895  eV     1   --> A              
     e( 17 - 17) =    -21.34556  eV     1   --> A              
     e( 18 - 18) =    -21.34464  eV     1   --> A              
     e( 19 - 19) =    -21.33299  eV     1   --> A              
     e( 20 - 20) =    -21.32704  eV     1   --> A              
     e( 21 - 21) =    -21.32452  eV     1   --> A              
     e( 22 - 22) =    -21.31713  eV     1   --> A              
     e( 23 - 23) =    -13.56577  eV     1   --> A              
     e( 24 - 24) =     -7.76743  eV     1   --> A              
     e( 25 - 25) =     -6.90536  eV     1   --> A              
     e( 26 - 26) =     -6.35866  eV     1   --> A              
     e( 27 - 27) =     -3.88098  eV     1   --> A              
     e( 28 - 28) =     -3.70943  eV     1   --> A              
     e( 29 - 29) =     -3.69603  eV     1   --> A              
     e( 30 - 30) =     -2.87719  eV     1   --> A              
     e( 31 - 31) =     -1.89395  eV     1   --> A              
     e( 32 - 32) =     -0.67954  eV     1   --> A              
     e( 33 - 33) =      1.26824  eV     1   --> A              
     e( 34 - 34) =      1.38743  eV     1   --> A              
     e( 35 - 35) =      2.83028  eV     1   --> A              
     e( 36 - 36) =      4.38994  eV     1   --> A              
     e( 37 - 37) =      4.54260  eV     1   --> A              
     e( 38 - 38) =      4.84327  eV     1   --> A              
     e( 39 - 39) =      5.78801  eV     1   --> A              
     e( 40 - 40) =      6.77176  eV     1   --> A              
     e( 41 - 41) =      7.02261  eV     1   --> A              
     e( 42 - 42) =      7.29687  eV     1   --> A              

 **************************************************************************

 **************************************************************************

                    xk=(   0.38039,   0.00000,   0.00000  )

     Band symmetry, C_1 (1)     point group:

     e(  1 -  1) =    -69.72474  eV     1   --> A              
     e(  2 -  2) =    -69.70522  eV     1   --> A              
     e(  3 -  3) =    -36.54837  eV     1   --> A              
     e(  4 -  4) =    -36.47919  eV     1   --> A              
     e(  5 -  5) =    -36.28491  eV     1   --> A              
     e(  6 -  6) =    -36.16697  eV     1   --> A              
     e(  7 -  7) =    -36.15880  eV     1   --> A              
     e(  8 -  8) =    -35.98895  eV     1   --> A              
     e(  9 -  9) =    -21.40834  eV     1   --> A              
     e( 10 - 10) =    -21.40383  eV     1   --> A              
     e( 11 - 11) =    -21.40156  eV     1   --> A              
     e( 12 - 12) =    -21.39928  eV     1   --> A              
     e( 13 - 13) =    -21.39681  eV     1   --> A              
     e( 14 - 14) =    -21.38768  eV     1   --> A              
     e( 15 - 15) =    -21.38095  eV     1   --> A              
     e( 16 - 16) =    -21.37855  eV     1   --> A              
     e( 17 - 17) =    -21.34658  eV     1   --> A              
     e( 18 - 18) =    -21.34523  eV     1   --> A              
     e( 19 - 19) =    -21.33374  eV     1   --> A              
     e( 20 - 20) =    -21.32684  eV     1   --> A              
     e( 21 - 21) =    -21.32397  eV     1   --> A              
     e( 22 - 22) =    -21.31655  eV     1   --> A              
     e( 23 - 23) =    -13.48668  eV     1   --> A              
     e( 24 - 24) =     -7.82505  eV     1   --> A              
     e( 25 - 25) =     -6.78766  eV     1   --> A              
     e( 26 - 26) =     -6.42866  eV     1   --> A              
     e( 27 - 27) =     -3.82975  eV     1   --> A              
     e( 28 - 28) =     -3.61371  eV     1   --> A              
     e( 29 - 29) =     -3.59832  eV     1   --> A              
     e( 30 - 30) =     -2.84301  eV     1   --> A              
     e( 31 - 31) =     -1.97745  eV     1   --> A              
     e( 32 - 32) =     -0.68122  eV     1   --> A              
     e( 33 - 33) =      1.46512  eV     1   --> A              
     e( 34 - 34) =      1.50783  eV     1   --> A              
     e( 35 - 35) =      3.01476  eV     1   --> A              
     e( 36 - 36) =      4.40024  eV     1   --> A              
     e( 37 - 37) =      4.42253  eV     1   --> A              
     e( 38 - 38) =      4.78633  eV     1   --> A              
     e( 39 - 39) =      6.04006  eV     1   --> A              
     e( 40 - 40) =      6.91384  eV     1   --> A              
     e( 41 - 41) =      7.20626  eV     1   --> A              
     e( 42 - 42) =      7.50371  eV     1   --> A              

 **************************************************************************

 **************************************************************************

                    xk=(   0.40152,   0.00000,   0.00000  )

     Band symmetry, C_1 (1)     point group:

     e(  1 -  1) =    -69.72189  eV     1   --> A              
     e(  2 -  2) =    -69.70397  eV     1   --> A              
     e(  3 -  3) =    -36.56463  eV     1   --> A              
     e(  4 -  4) =    -36.49727  eV     1   --> A              
     e(  5 -  5) =    -36.29643  eV     1   --> A              
     e(  6 -  6) =    -36.18643  eV     1   --> A              
     e(  7 -  7) =    -36.15755  eV     1   --> A              
     e(  8 -  8) =    -35.99273  eV     1   --> A              
     e(  9 -  9) =    -21.40770  eV     1   --> A              
     e( 10 - 10) =    -21.40543  eV     1   --> A              
     e( 11 - 11) =    -21.40322  eV     1   --> A              
     e( 12 - 12) =    -21.39764  eV     1   --> A              
     e( 13 - 13) =    -21.39554  eV     1   --> A              
     e( 14 - 14) =    -21.38738  eV     1   --> A              
     e( 15 - 15) =    -21.38026  eV     1   --> A              
     e( 16 - 16) =    -21.37822  eV     1   --> A              
     e( 17 - 17) =    -21.34764  eV     1   --> A              
     e( 18 - 18) =    -21.34564  eV     1   --> A              
     e( 19 - 19) =    -21.33449  eV     1   --> A              
     e( 20 - 20) =    -21.32709  eV     1   --> A              
     e( 21 - 21) =    -21.32305  eV     1   --> A              
     e( 22 - 22) =    -21.31603  eV     1   --> A              
     e( 23 - 23) =    -13.41295  eV     1   --> A              
     e( 24 - 24) =     -7.86956  eV     1   --> A              
     e( 25 - 25) =     -6.72480  eV     1   --> A              
     e( 26 - 26) =     -6.45963  eV     1   --> A              
     e( 27 - 27) =     -3.78251  eV     1   --> A              
     e( 28 - 28) =     -3.51683  eV     1   --> A              
     e( 29 - 29) =     -3.47035  eV     1   --> A              
     e( 30 - 30) =     -2.81340  eV     1   --> A              
     e( 31 - 31) =     -2.04612  eV     1   --> A              
     e( 32 - 32) =     -0.70107  eV     1   --> A              
     e( 33 - 33) =      1.55023  eV     1   --> A              
     e( 34 - 34) =      1.72918  eV     1   --> A              
     e( 35 - 35) =      3.19949  eV     1   --> A              
     e( 36 - 36) =      4.27502  eV     1   --> A              
     e( 37 - 37) =      4.35665  eV     1   --> A              
     e( 38 - 38) =      4.77150  eV     1   --> A              
     e( 39 - 39) =      6.29927  eV     1   --> A              
     e( 40 - 40) =      7.04243  eV     1   --> A              
     e( 41 - 41) =      7.34445  eV     1   --> A              
     e( 42 - 42) =      7.75162  eV     1   --> A              

 **************************************************************************

 **************************************************************************

                    xk=(   0.42266,   0.00000,   0.00000  )

     Band symmetry, C_1 (1)     point group:

     e(  1 -  1) =    -69.71917  eV     1   --> A              
     e(  2 -  2) =    -69.70288  eV     1   --> A              
     e(  3 -  3) =    -36.57865  eV     1   --> A              
     e(  4 -  4) =    -36.51189  eV     1   --> A              
     e(  5 -  5) =    -36.31063  eV     1   --> A              
     e(  6 -  6) =    -36.20657  eV     1   --> A              
     e(  7 -  7) =    -36.15324  eV     1   --> A              
     e(  8 -  8) =    -35.99703  eV     1   --> A              
     e(  9 -  9) =    -21.40803  eV     1   --> A              
     e( 10 - 10) =    -21.40650  eV     1   --> A              
     e( 11 - 11) =    -21.40441  eV     1   --> A              
     e( 12 - 12) =    -21.39610  eV     1   --> A              
     e( 13 - 13) =    -21.39419  eV     1   --> A              
     e( 14 - 14) =    -21.38701  eV     1   --> A              
     e( 15 - 15) =    -21.37966  eV     1   --> A              
     e( 16 - 16) =    -21.37795  eV     1   --> A              
     e( 17 - 17) =    -21.34868  eV     1   --> A              
     e( 18 - 18) =    -21.34590  eV     1   --> A              
     e( 19 - 19) =    -21.33524  eV     1   --> A              
     e( 20 - 20) =    -21.32754  eV     1   --> A              
     e( 21 - 21) =    -21.32203  eV     1   --> A              
     e( 22 - 22) =    -21.31560  eV     1   --> A              
     e( 23 - 23) =    -13.34506  eV     1   --> A              
     e( 24 - 24) =     -7.90108  eV     1   --> A              
     e( 25 - 25) =     -6.74216  eV     1   --> A              
     e( 26 - 26) =     -6.42584  eV     1   --> A              
     e( 27 - 27) =     -3.71850  eV     1   --> A              
     e( 28 - 28) =     -3.41922  eV     1   --> A              
     e( 29 - 29) =     -3.33656  eV     1   --> A              
     e( 30 - 30) =     -2.79091  eV     1   --> A              
     e( 31 - 31) =     -2.09747  eV     1   --> A              
     e( 32 - 32) =     -0.73635  eV     1   --> A              
     e( 33 - 33) =      1.62922  eV     1   --> A              
     e( 34 - 34) =      1.92793  eV     1   --> A              
     e( 35 - 35) =      3.36190  eV     1   --> A              
     e( 36 - 36) =      4.12430  eV     1   --> A              
     e( 37 - 37) =      4.26204  eV     1   --> A              
     e( 38 - 38) =      4.80356  eV     1   --> A              
     e( 39 - 39) =      6.56509  eV     1   --> A              
     e( 40 - 40) =      7.16228  eV     1   --> A              
     e( 41 - 41) =      7.45297  eV     1   --> A              
     e( 42 - 42) =      8.03322  eV     1   --> A              

 **************************************************************************

 **************************************************************************

                    xk=(   0.44379,   0.00000,   0.00000  )

     Band symmetry, C_1 (1)     point group:

     e(  1 -  1) =    -69.71660  eV     1   --> A              
     e(  2 -  2) =    -69.70196  eV     1   --> A              
     e(  3 -  3) =    -36.58988  eV     1   --> A              
     e(  4 -  4) =    -36.52286  eV     1   --> A              
     e(  5 -  5) =    -36.32712  eV     1   --> A              
     e(  6 -  6) =    -36.22727  eV     1   --> A              
     e(  7 -  7) =    -36.14660  eV     1   --> A              
     e(  8 -  8) =    -36.00187  eV     1   --> A              
     e(  9 -  9) =    -21.40927  eV     1   --> A              
     e( 10 - 10) =    -21.40747  eV     1   --> A              
     e( 11 - 11) =    -21.40460  eV     1   --> A              
     e( 12 - 12) =    -21.39469  eV     1   --> A              
     e( 13 - 13) =    -21.39284  eV     1   --> A              
     e( 14 - 14) =    -21.38659  eV     1   --> A              
     e( 15 - 15) =    -21.37920  eV     1   --> A              
     e( 16 - 16) =    -21.37772  eV     1   --> A              
     e( 17 - 17) =    -21.34966  eV     1   --> A              
     e( 18 - 18) =    -21.34603  eV     1   --> A              
     e( 19 - 19) =    -21.33599  eV     1   --> A              
     e( 20 - 20) =    -21.32806  eV     1   --> A              
     e( 21 - 21) =    -21.32105  eV     1   --> A              
     e( 22 - 22) =    -21.31524  eV     1   --> A              
     e( 23 - 23) =    -13.28338  eV     1   --> A              
     e( 24 - 24) =     -7.91983  eV     1   --> A              
     e( 25 - 25) =     -6.80461  eV     1   --> A              
     e( 26 - 26) =     -6.36107  eV     1   --> A              
     e( 27 - 27) =     -3.63588  eV     1   --> A              
     e( 28 - 28) =     -3.32133  eV     1   --> A              
     e( 29 - 29) =     -3.20443  eV     1   --> A              
     e( 30 - 30) =     -2.77722  eV     1   --> A              
     e( 31 - 31) =     -2.13033  eV     1   --> A              
     e( 32 - 32) =     -0.78285  eV     1   --> A              
     e( 33 - 33) =      1.68692  eV     1   --> A              
     e( 34 - 34) =      2.09963  eV     1   --> A              
     e( 35 - 35) =      3.44023  eV     1   --> A              
     e( 36 - 36) =      4.02931  eV     1   --> A              
     e( 37 - 37) =      4.14666  eV     1   --> A              
     e( 38 - 38) =      4.87062  eV     1   --> A              
     e( 39 - 39) =      6.83130  eV     1   --> A              
     e( 40 - 40) =      7.27979  eV     1   --> A              
     e( 41 - 41) =      7.55521  eV     1   --> A              
     e( 42 - 42) =      8.33846  eV     1   --> A              

 **************************************************************************

 **************************************************************************

                    xk=(   0.46492,   0.00000,   0.00000  )

     Band symmetry, C_1 (1)     point group:

     e(  1 -  1) =    -69.71421  eV     1   --> A              
     e(  2 -  2) =    -69.70123  eV     1   --> A              
     e(  3 -  3) =    -36.59794  eV     1   --> A              
     e(  4 -  4) =    -36.53007  eV     1   --> A              
     e(  5 -  5) =    -36.34540  eV     1   --> A              
     e(  6 -  6) =    -36.24839  eV     1   --> A              
     e(  7 -  7) =    -36.13837  eV     1   --> A              
     e(  8 -  8) =    -36.00722  eV     1   --> A              
     e(  9 -  9) =    -21.41059  eV     1   --> A              
     e( 10 - 10) =    -21.40868  eV     1   --> A              
     e( 11 - 11) =    -21.40422  eV     1   --> A              
     e( 12 - 12) =    -21.39340  eV     1   --> A              
     e( 13 - 13) =    -21.39155  eV     1   --> A              
     e( 14 - 14) =    -21.38612  eV     1   --> A              
     e( 15 - 15) =    -21.37890  eV     1   --> A              
     e( 16 - 16) =    -21.37751  eV     1   --> A              
     e( 17 - 17) =    -21.35057  eV     1   --> A              
     e( 18 - 18) =    -21.34603  eV     1   --> A              
     e( 19 - 19) =    -21.33673  eV     1   --> A              
     e( 20 - 20) =    -21.32863  eV     1   --> A              
     e( 21 - 21) =    -21.32013  eV     1   --> A              
     e( 22 - 22) =    -21.31495  eV     1   --> A              
     e( 23 - 23) =    -13.22816  eV     1   --> A              
     e( 24 - 24) =     -7.92605  eV     1   --> A              
     e( 25 - 25) =     -6.88061  eV     1   --> A              
     e( 26 - 26) =     -6.29494  eV     1   --> A              
     e( 27 - 27) =     -3.53857  eV     1   --> A              
     e( 28 - 28) =     -3.22429  eV     1   --> A              
     e( 29 - 29) =     -3.07694  eV     1   --> A              
     e( 30 - 30) =     -2.77197  eV     1   --> A              
     e( 31 - 31) =     -2.14602  eV     1   --> A              
     e( 32 - 32) =     -0.83595  eV     1   --> A              
     e( 33 - 33) =      1.71059  eV     1   --> A              
     e( 34 - 34) =      2.23571  eV     1   --> A              
     e( 35 - 35) =      3.36383  eV     1   --> A              
     e( 36 - 36) =      4.02999  eV     1   --> A              
     e( 37 - 37) =      4.06910  eV     1   --> A              
     e( 38 - 38) =      4.96736  eV     1   --> A              
     e( 39 - 39) =      7.07929  eV     1   --> A              
     e( 40 - 40) =      7.40028  eV     1   --> A              
     e( 41 - 41) =      7.67592  eV     1   --> A              
     e( 42 - 42) =      8.66034  eV     1   --> A              

 **************************************************************************

 **************************************************************************

                    xk=(   0.48605,   0.00000,   0.00000  )

     Band symmetry, C_1 (1)     point group:

     e(  1 -  1) =    -69.71200  eV     1   --> A              
     e(  2 -  2) =    -69.70068  eV     1   --> A              
     e(  3 -  3) =    -36.60260  eV     1   --> A              
     e(  4 -  4) =    -36.53352  eV     1   --> A              
     e(  5 -  5) =    -36.36496  eV     1   --> A              
     e(  6 -  6) =    -36.26976  eV     1   --> A              
     e(  7 -  7) =    -36.12914  eV     1   --> A              
     e(  8 -  8) =    -36.01306  eV     1   --> A              
     e(  9 -  9) =    -21.41181  eV     1   --> A              
     e( 10 - 10) =    -21.40985  eV     1   --> A              
     e( 11 - 11) =    -21.40371  eV     1   --> A              
     e( 12 - 12) =    -21.39226  eV     1   --> A              
     e( 13 - 13) =    -21.39037  eV     1   --> A              
     e( 14 - 14) =    -21.38561  eV     1   --> A              
     e( 15 - 15) =    -21.37881  eV     1   --> A              
     e( 16 - 16) =    -21.37730  eV     1   --> A              
     e( 17 - 17) =    -21.35139  eV     1   --> A              
     e( 18 - 18) =    -21.34591  eV     1   --> A              
     e( 19 - 19) =    -21.33747  eV     1   --> A              
     e( 20 - 20) =    -21.32921  eV     1   --> A              
     e( 21 - 21) =    -21.31930  eV     1   --> A              
     e( 22 - 22) =    -21.31475  eV     1   --> A              
     e( 23 - 23) =    -13.17956  eV     1   --> A              
     e( 24 - 24) =     -7.92002  eV     1   --> A              
     e( 25 - 25) =     -6.96053  eV     1   --> A              
     e( 26 - 26) =     -6.23501  eV     1   --> A              
     e( 27 - 27) =     -3.43268  eV     1   --> A              
     e( 28 - 28) =     -3.13001  eV     1   --> A              
     e( 29 - 29) =     -2.95567  eV     1   --> A              
     e( 30 - 30) =     -2.77224  eV     1   --> A              
     e( 31 - 31) =     -2.14875  eV     1   --> A              
     e( 32 - 32) =     -0.89131  eV     1   --> A              
     e( 33 - 33) =      1.69447  eV     1   --> A              
     e( 34 - 34) =      2.31444  eV     1   --> A              
     e( 35 - 35) =      3.21091  eV     1   --> A              
     e( 36 - 36) =      3.92318  eV     1   --> A              
     e( 37 - 37) =      4.18954  eV     1   --> A              
     e( 38 - 38) =      5.09238  eV     1   --> A              
     e( 39 - 39) =      7.27779  eV     1   --> A              
     e( 40 - 40) =      7.52605  eV     1   --> A              
     e( 41 - 41) =      7.83442  eV     1   --> A              
     e( 42 - 42) =      8.82973  eV     1   --> A              

 **************************************************************************

 **************************************************************************

                    xk=(   0.50719,   0.00000,   0.00000  )

     Band symmetry, C_1 (1)     point group:

     e(  1 -  1) =    -69.70999  eV     1   --> A              
     e(  2 -  2) =    -69.70033  eV     1   --> A              
     e(  3 -  3) =    -36.60374  eV     1   --> A              
     e(  4 -  4) =    -36.53327  eV     1   --> A              
     e(  5 -  5) =    -36.38539  eV     1   --> A              
     e(  6 -  6) =    -36.29119  eV     1   --> A              
     e(  7 -  7) =    -36.11938  eV     1   --> A              
     e(  8 -  8) =    -36.01935  eV     1   --> A              
     e(  9 -  9) =    -21.41286  eV     1   --> A              
     e( 10 - 10) =    -21.41089  eV     1   --> A              
     e( 11 - 11) =    -21.40318  eV     1   --> A              
     e( 12 - 12) =    -21.39127  eV     1   --> A              
     e( 13 - 13) =    -21.38934  eV     1   --> A              
     e( 14 - 14) =    -21.38504  eV     1   --> A              
     e( 15 - 15) =    -21.37889  eV     1   --> A              
     e( 16 - 16) =    -21.37712  eV     1   --> A              
     e( 17 - 17) =    -21.35211  eV     1   --> A              
     e( 18 - 18) =    -21.34567  eV     1   --> A              
     e( 19 - 19) =    -21.33820  eV     1   --> A              
     e( 20 - 20) =    -21.32979  eV     1   --> A              
     e( 21 - 21) =    -21.31856  eV     1   --> A              
     e( 22 - 22) =    -21.31461  eV     1   --> A              
     e( 23 - 23) =    -13.13768  eV     1   --> A              
     e( 24 - 24) =     -7.90198  eV     1   --> A              
     e( 25 - 25) =     -7.04164  eV     1   --> A              
     e( 26 - 26) =     -6.18228  eV     1   --> A              
     e( 27 - 27) =     -3.32520  eV     1   --> A              
     e( 28 - 28) =     -3.04176  eV     1   --> A              
     e( 29 - 29) =     -2.84155  eV     1   --> A              
     e( 30 - 30) =     -2.77293  eV     1   --> A              
     e( 31 - 31) =     -2.14495  eV     1   --> A              
     e( 32 - 32) =     -0.94517  eV     1   --> A              
     e( 33 - 33) =      1.64236  eV     1   --> A              
     e( 34 - 34) =      2.29346  eV     1   --> A              
     e( 35 - 35) =      3.10223  eV     1   --> A              
     e( 36 - 36) =      3.82906  eV     1   --> A              
     e( 37 - 37) =      4.31947  eV     1   --> A              
     e( 38 - 38) =      5.24219  eV     1   --> A              
     e( 39 - 39) =      7.41432  eV     1   --> A              
     e( 40 - 40) =      7.65433  eV     1   --> A              
     e( 41 - 41) =      7.99209  eV     1   --> A              
     e( 42 - 42) =      8.73564  eV     1   --> A              

 **************************************************************************

 **************************************************************************

                    xk=(   0.52832,   0.00000,   0.00000  )

     Band symmetry, C_1 (1)     point group:

     e(  1 -  1) =    -69.70819  eV     1   --> A              
     e(  2 -  2) =    -69.70016  eV     1   --> A              
     e(  3 -  3) =    -36.60143  eV     1   --> A              
     e(  4 -  4) =    -36.52955  eV     1   --> A              
     e(  5 -  5) =    -36.40629  eV     1   --> A              
     e(  6 -  6) =    -36.31241  eV     1   --> A              
     e(  7 -  7) =    -36.10942  eV     1   --> A              
     e(  8 -  8) =    -36.02607  eV     1   --> A              
     e(  9 -  9) =    -21.41375  eV     1   --> A              
     e( 10 - 10) =    -21.41177  eV     1   --> A              
     e( 11 - 11) =    -21.40266  eV     1   --> A              
     e( 12 - 12) =    -21.39044  eV     1   --> A              
     e( 13 - 13) =    -21.38848  eV     1   --> A              
     e( 14 - 14) =    -21.38444  eV     1   --> A              
     e( 15 - 15) =    -21.37909  eV     1   --> A              
     e( 16 - 16) =    -21.37701  eV     1   --> A              
     e( 17 - 17) =    -21.35273  eV     1   --> A              
     e( 18 - 18) =    -21.34532  eV     1   --> A              
     e( 19 - 19) =    -21.33890  eV     1   --> A              
     e( 20 - 20) =    -21.33036  eV     1   --> A              
     e( 21 - 21) =    -21.31794  eV     1   --> A              
     e( 22 - 22) =    -21.31453  eV     1   --> A              
     e( 23 - 23) =    -13.10253  eV     1   --> A              
     e( 24 - 24) =     -7.87213  eV     1   --> A              
     e( 25 - 25) =     -7.12326  eV     1   --> A              
     e( 26 - 26) =     -6.13642  eV     1   --> A              
     e( 27 - 27) =     -3.22289  eV     1   --> A              
     e( 28 - 28) =     -2.96543  eV     1   --> A              
     e( 29 - 29) =     -2.76670  eV     1   --> A              
     e( 30 - 30) =     -2.73535  eV     1   --> A              
     e( 31 - 31) =     -2.14217  eV     1   --> A              
     e( 32 - 32) =     -0.99449  eV     1   --> A              
     e( 33 - 33) =      1.56649  eV     1   --> A              
     e( 34 - 34) =      2.15549  eV     1   --> A              
     e( 35 - 35) =      3.09168  eV     1   --> A              
     e( 36 - 36) =      3.74712  eV     1   --> A              
     e( 37 - 37) =      4.43155  eV     1   --> A              
     e( 38 - 38) =      5.40927  eV     1   --> A              
     e( 39 - 39) =      7.50983  eV     1   --> A              
     e( 40 - 40) =      7.77300  eV     1   --> A              
     e( 41 - 41) =      8.04848  eV     1   --> A              
     e( 42 - 42) =      8.64734  eV     1   --> A              

 **************************************************************************

 **************************************************************************

                    xk=(   0.54945,   0.00000,   0.00000  )

     Band symmetry, C_1 (1)     point group:

     e(  1 -  1) =    -69.70661  eV     1   --> A              
     e(  2 -  2) =    -69.70017  eV     1   --> A              
     e(  3 -  3) =    -36.59587  eV     1   --> A              
     e(  4 -  4) =    -36.52273  eV     1   --> A              
     e(  5 -  5) =    -36.42724  eV     1   --> A              
     e(  6 -  6) =    -36.33304  eV     1   --> A              
     e(  7 -  7) =    -36.09953  eV     1   --> A              
     e(  8 -  8) =    -36.03315  eV     1   --> A              
     e(  9 -  9) =    -21.41447  eV     1   --> A              
     e( 10 - 10) =    -21.41248  eV     1   --> A              
     e( 11 - 11) =    -21.40217  eV     1   --> A              
     e( 12 - 12) =    -21.38977  eV     1   --> A              
     e( 13 - 13) =    -21.38779  eV     1   --> A              
     e( 14 - 14) =    -21.38382  eV     1   --> A              
     e( 15 - 15) =    -21.37937  eV     1   --> A              
[...]
     e( 11 - 11) =    -21.39993  eV     1   --> A'             
     e( 12 - 12) =    -21.39776  eV     1   --> A''            
     e( 13 - 13) =    -21.38729  eV     1   --> A'             
     e( 14 - 14) =    -21.38595  eV     1   --> A''            
     e( 15 - 15) =    -21.37636  eV     1   --> A''            
     e( 16 - 16) =    -21.37395  eV     1   --> A''            
     e( 17 - 17) =    -21.34021  eV     1   --> A'             
     e( 18 - 18) =    -21.33554  eV     1   --> A'             
     e( 19 - 19) =    -21.33455  eV     1   --> A''            
     e( 20 - 20) =    -21.32557  eV     1   --> A'             
     e( 21 - 21) =    -21.32377  eV     1   --> A'             
     e( 22 - 22) =    -21.32197  eV     1   --> A''            
     e( 23 - 23) =    -14.56447  eV     1   --> A'             
     e( 24 - 24) =     -8.84370  eV     1   --> A'             
     e( 25 - 25) =     -6.28349  eV     1   --> A'             
     e( 26 - 26) =     -5.65639  eV     1   --> A''            
     e( 27 - 27) =     -5.09392  eV     1   --> A'             
     e( 28 - 28) =     -4.77574  eV     1   --> A'             
     e( 29 - 29) =     -3.29391  eV     1   --> A'             
     e( 30 - 30) =     -2.25883  eV     1   --> A'             
     e( 31 - 31) =     -1.53752  eV     1   --> A''            
     e( 32 - 32) =     -0.56634  eV     1   --> A'             
     e( 33 - 33) =      0.01005  eV     1   --> A''            
     e( 34 - 34) =      1.07930  eV     1   --> A'             
     e( 35 - 35) =      1.44001  eV     1   --> A''            
     e( 36 - 36) =      2.62928  eV     1   --> A'             
     e( 37 - 37) =      3.25778  eV     1   --> A'             
     e( 38 - 38) =      4.28260  eV     1   --> A'             
     e( 39 - 39) =      5.01624  eV     1   --> A'             
     e( 40 - 40) =      5.20643  eV     1   --> A'             
     e( 41 - 41) =      5.41317  eV     1   --> A'             
     e( 42 - 42) =      5.48311  eV     1   --> A'             

 **************************************************************************

 **************************************************************************

                    xk=(   0.07925,  -0.04575,   0.00000  )

     Band symmetry, C_s (m)     point group:

     e(  1 -  1) =    -69.76116  eV     1   --> A'             
     e(  2 -  2) =    -69.72623  eV     1   --> A'             
     e(  3 -  3) =    -36.47639  eV     1   --> A'             
     e(  4 -  4) =    -36.09914  eV     1   --> A'             
     e(  5 -  5) =    -36.06320  eV     1   --> A''            
     e(  6 -  6) =    -36.03338  eV     1   --> A'             
     e(  7 -  7) =    -36.00256  eV     1   --> A''            
     e(  8 -  8) =    -35.97855  eV     1   --> A'             
     e(  9 -  9) =    -21.43042  eV     1   --> A'             
     e( 10 - 10) =    -21.42390  eV     1   --> A'             
     e( 11 - 11) =    -21.39979  eV     1   --> A'             
     e( 12 - 12) =    -21.39826  eV     1   --> A''            
     e( 13 - 13) =    -21.38728  eV     1   --> A'             
     e( 14 - 14) =    -21.38633  eV     1   --> A''            
     e( 15 - 15) =    -21.37529  eV     1   --> A''            
     e( 16 - 16) =    -21.37289  eV     1   --> A''            
     e( 17 - 17) =    -21.34070  eV     1   --> A'             
     e( 18 - 18) =    -21.33501  eV     1   --> A'             
     e( 19 - 19) =    -21.33430  eV     1   --> A''            
     e( 20 - 20) =    -21.32594  eV     1   --> A'             
     e( 21 - 21) =    -21.32322  eV     1   --> A'             
     e( 22 - 22) =    -21.32194  eV     1   --> A''            
     e( 23 - 23) =    -14.61131  eV     1   --> A'             
     e( 24 - 24) =     -8.93345  eV     1   --> A'             
     e( 25 - 25) =     -6.14798  eV     1   --> A'             
     e( 26 - 26) =     -5.67019  eV     1   --> A''            
     e( 27 - 27) =     -5.11250  eV     1   --> A'             
     e( 28 - 28) =     -4.85461  eV     1   --> A'             
     e( 29 - 29) =     -3.31948  eV     1   --> A'             
     e( 30 - 30) =     -2.13350  eV     1   --> A'             
     e( 31 - 31) =     -1.61563  eV     1   --> A''            
     e( 32 - 32) =     -0.40460  eV     1   --> A'             
     e( 33 - 33) =      0.04399  eV     1   --> A''            
     e( 34 - 34) =      1.09795  eV     1   --> A'             
     e( 35 - 35) =      1.36546  eV     1   --> A''            
     e( 36 - 36) =      2.40852  eV     1   --> A'             
     e( 37 - 37) =      3.13466  eV     1   --> A'             
     e( 38 - 38) =      4.19887  eV     1   --> A'             
     e( 39 - 39) =      4.95536  eV     1   --> A'             
     e( 40 - 40) =      5.21673  eV     1   --> A'             
     e( 41 - 41) =      5.34439  eV     1   --> A'             
     e( 42 - 42) =      5.43569  eV     1   --> A'             

 **************************************************************************

 **************************************************************************

                    xk=(   0.06340,  -0.03660,   0.00000  )

     Band symmetry, C_s (m)     point group:

     e(  1 -  1) =    -69.76228  eV     1   --> A'             
     e(  2 -  2) =    -69.72697  eV     1   --> A'             
     e(  3 -  3) =    -36.47937  eV     1   --> A'             
     e(  4 -  4) =    -36.08218  eV     1   --> A'             
     e(  5 -  5) =    -36.05838  eV     1   --> A''            
     e(  6 -  6) =    -36.02047  eV     1   --> A'             
     e(  7 -  7) =    -36.00042  eV     1   --> A''            
     e(  8 -  8) =    -35.97972  eV     1   --> A'             
     e(  9 -  9) =    -21.43124  eV     1   --> A'             
     e( 10 - 10) =    -21.42469  eV     1   --> A'             
     e( 11 - 11) =    -21.39967  eV     1   --> A'             
     e( 12 - 12) =    -21.39868  eV     1   --> A''            
     e( 13 - 13) =    -21.38727  eV     1   --> A'             
     e( 14 - 14) =    -21.38666  eV     1   --> A''            
     e( 15 - 15) =    -21.37440  eV     1   --> A''            
     e( 16 - 16) =    -21.37201  eV     1   --> A''            
     e( 17 - 17) =    -21.34112  eV     1   --> A'             
     e( 18 - 18) =    -21.33456  eV     1   --> A'             
     e( 19 - 19) =    -21.33408  eV     1   --> A''            
     e( 20 - 20) =    -21.32626  eV     1   --> A'             
     e( 21 - 21) =    -21.32274  eV     1   --> A'             
     e( 22 - 22) =    -21.32192  eV     1   --> A''            
     e( 23 - 23) =    -14.65053  eV     1   --> A'             
     e( 24 - 24) =     -9.00841  eV     1   --> A'             
     e( 25 - 25) =     -6.01973  eV     1   --> A'             
     e( 26 - 26) =     -5.68254  eV     1   --> A''            
     e( 27 - 27) =     -5.12771  eV     1   --> A'             
     e( 28 - 28) =     -4.93234  eV     1   --> A'             
     e( 29 - 29) =     -3.34440  eV     1   --> A'             
     e( 30 - 30) =     -2.02071  eV     1   --> A'             
     e( 31 - 31) =     -1.68043  eV     1   --> A''            
     e( 32 - 32) =     -0.24169  eV     1   --> A'             
     e( 33 - 33) =      0.08426  eV     1   --> A''            
     e( 34 - 34) =      1.11423  eV     1   --> A'             
     e( 35 - 35) =      1.29264  eV     1   --> A''            
     e( 36 - 36) =      2.19285  eV     1   --> A'             
     e( 37 - 37) =      3.02854  eV     1   --> A'             
     e( 38 - 38) =      4.12730  eV     1   --> A'             
     e( 39 - 39) =      4.90221  eV     1   --> A'             
     e( 40 - 40) =      5.20829  eV     1   --> A'             
     e( 41 - 41) =      5.28942  eV     1   --> A'             
     e( 42 - 42) =      5.42077  eV     1   --> A'             

 **************************************************************************

 **************************************************************************

                    xk=(   0.04755,  -0.02745,   0.00000  )

     Band symmetry, C_s (m)     point group:

     e(  1 -  1) =    -69.76317  eV     1   --> A'             
     e(  2 -  2) =    -69.72755  eV     1   --> A'             
     e(  3 -  3) =    -36.48180  eV     1   --> A'             
     e(  4 -  4) =    -36.06838  eV     1   --> A'             
     e(  5 -  5) =    -36.05453  eV     1   --> A''            
     e(  6 -  6) =    -36.01019  eV     1   --> A'             
     e(  7 -  7) =    -35.99877  eV     1   --> A''            
     e(  8 -  8) =    -35.98101  eV     1   --> A'             
     e(  9 -  9) =    -21.43190  eV     1   --> A'             
     e( 10 - 10) =    -21.42532  eV     1   --> A'             
     e( 11 - 11) =    -21.39958  eV     1   --> A'             
     e( 12 - 12) =    -21.39901  eV     1   --> A''            
     e( 13 - 13) =    -21.38726  eV     1   --> A'             
     e( 14 - 14) =    -21.38691  eV     1   --> A''            
     e( 15 - 15) =    -21.37369  eV     1   --> A''            
     e( 16 - 16) =    -21.37131  eV     1   --> A''            
     e( 17 - 17) =    -21.34145  eV     1   --> A'             
     e( 18 - 18) =    -21.33419  eV     1   --> A'             
     e( 19 - 19) =    -21.33392  eV     1   --> A''            
     e( 20 - 20) =    -21.32652  eV     1   --> A'             
     e( 21 - 21) =    -21.32236  eV     1   --> A'             
     e( 22 - 22) =    -21.32190  eV     1   --> A''            
     e( 23 - 23) =    -14.68159  eV     1   --> A'             
     e( 24 - 24) =     -9.06763  eV     1   --> A'             
     e( 25 - 25) =     -5.90283  eV     1   --> A'             
     e( 26 - 26) =     -5.69285  eV     1   --> A''            
     e( 27 - 27) =     -5.13956  eV     1   --> A'             
     e( 28 - 28) =     -5.00712  eV     1   --> A'             
     e( 29 - 29) =     -3.36606  eV     1   --> A'             
     e( 30 - 30) =     -1.92664  eV     1   --> A'             
     e( 31 - 31) =     -1.73136  eV     1   --> A''            
     e( 32 - 32) =     -0.08399  eV     1   --> A'             
     e( 33 - 33) =      0.12597  eV     1   --> A''            
     e( 34 - 34) =      1.12559  eV     1   --> A'             
     e( 35 - 35) =      1.22599  eV     1   --> A''            
     e( 36 - 36) =      1.99402  eV     1   --> A'             
     e( 37 - 37) =      2.94166  eV     1   --> A'             
     e( 38 - 38) =      4.07023  eV     1   --> A'             
     e( 39 - 39) =      4.85960  eV     1   --> A'             
     e( 40 - 40) =      5.18463  eV     1   --> A'             
     e( 41 - 41) =      5.24720  eV     1   --> A'             
     e( 42 - 42) =      5.42975  eV     1   --> A'             

 **************************************************************************

 **************************************************************************

                    xk=(   0.03170,  -0.01830,   0.00000  )

     Band symmetry, C_s (m)     point group:

     e(  1 -  1) =    -69.76381  eV     1   --> A'             
     e(  2 -  2) =    -69.72797  eV     1   --> A'             
     e(  3 -  3) =    -36.48359  eV     1   --> A'             
     e(  4 -  4) =    -36.05807  eV     1   --> A'             
     e(  5 -  5) =    -36.05172  eV     1   --> A''            
     e(  6 -  6) =    -36.00273  eV     1   --> A'             
     e(  7 -  7) =    -35.99761  eV     1   --> A''            
     e(  8 -  8) =    -35.98227  eV     1   --> A'             
     e(  9 -  9) =    -21.43237  eV     1   --> A'             
     e( 10 - 10) =    -21.42577  eV     1   --> A'             
     e( 11 - 11) =    -21.39951  eV     1   --> A'             
     e( 12 - 12) =    -21.39925  eV     1   --> A''            
     e( 13 - 13) =    -21.38725  eV     1   --> A'             
     e( 14 - 14) =    -21.38709  eV     1   --> A''            
     e( 15 - 15) =    -21.37318  eV     1   --> A''            
     e( 16 - 16) =    -21.37080  eV     1   --> A''            
     e( 17 - 17) =    -21.34169  eV     1   --> A'             
     e( 18 - 18) =    -21.33392  eV     1   --> A'             
     e( 19 - 19) =    -21.33379  eV     1   --> A''            
     e( 20 - 20) =    -21.32670  eV     1   --> A'             
     e( 21 - 21) =    -21.32209  eV     1   --> A'             
     e( 22 - 22) =    -21.32188  eV     1   --> A''            
     e( 23 - 23) =    -14.70409  eV     1   --> A'             
     e( 24 - 24) =     -9.11041  eV     1   --> A'             
     e( 25 - 25) =     -5.80373  eV     1   --> A'             
     e( 26 - 26) =     -5.70059  eV     1   --> A''            
     e( 27 - 27) =     -5.14803  eV     1   --> A'             
     e( 28 - 28) =     -5.07451  eV     1   --> A'             
     e( 29 - 29) =     -3.38272  eV     1   --> A'             
     e( 30 - 30) =     -1.85604  eV     1   --> A'             
     e( 31 - 31) =     -1.76803  eV     1   --> A''            
     e( 32 - 32) =      0.05664  eV     1   --> A'             
     e( 33 - 33) =      0.16320  eV     1   --> A''            
     e( 34 - 34) =      1.12917  eV     1   --> A'             
     e( 35 - 35) =      1.17112  eV     1   --> A''            
     e( 36 - 36) =      1.82827  eV     1   --> A'             
     e( 37 - 37) =      2.87674  eV     1   --> A'             
     e( 38 - 38) =      4.02886  eV     1   --> A'             
     e( 39 - 39) =      4.82862  eV     1   --> A'             
     e( 40 - 40) =      5.16035  eV     1   --> A'             
     e( 41 - 41) =      5.21692  eV     1   --> A'             
     e( 42 - 42) =      5.44574  eV     1   --> A'             

 **************************************************************************

 **************************************************************************

                    xk=(   0.01585,  -0.00915,   0.00000  )

     Band symmetry, C_s (m)     point group:

     e(  1 -  1) =    -69.76419  eV     1   --> A'             
     e(  2 -  2) =    -69.72823  eV     1   --> A'             
     e(  3 -  3) =    -36.48469  eV     1   --> A'             
     e(  4 -  4) =    -36.05163  eV     1   --> A'             
     e(  5 -  5) =    -36.05000  eV     1   --> A''            
     e(  6 -  6) =    -35.99820  eV     1   --> A'             
     e(  7 -  7) =    -35.99692  eV     1   --> A''            
     e(  8 -  8) =    -35.98322  eV     1   --> A'             
     e(  9 -  9) =    -21.43266  eV     1   --> A'             
     e( 10 - 10) =    -21.42604  eV     1   --> A'             
     e( 11 - 12) =    -21.39947  eV     2   --> A'             
     e( 11 - 12) =    -21.39947  eV     2   --> A''            
     e( 13 - 14) =    -21.38724  eV     2   --> A'             
     e( 13 - 14) =    -21.38724  eV     2   --> A''            
     e( 15 - 15) =    -21.37287  eV     1   --> A''            
     e( 16 - 16) =    -21.37049  eV     1   --> A''            
     e( 17 - 17) =    -21.34184  eV     1   --> A'             
     e( 18 - 19) =    -21.33375  eV     2   --> A'             
     e( 18 - 19) =    -21.33375  eV     2   --> A''            
     e( 20 - 20) =    -21.32682  eV     1   --> A'             
     e( 21 - 22) =    -21.32192  eV     2   --> A'             
     e( 21 - 22) =    -21.32192  eV     2   --> A''            
     e( 23 - 23) =    -14.71771  eV     1   --> A'             
     e( 24 - 24) =     -9.13626  eV     1   --> A'             
     e( 25 - 25) =     -5.73337  eV     1   --> A'             
     e( 26 - 26) =     -5.70539  eV     1   --> A''            
     e( 27 - 27) =     -5.15312  eV     1   --> A'             
     e( 28 - 28) =     -5.12515  eV     1   --> A'             
     e( 29 - 29) =     -3.39319  eV     1   --> A'             
     e( 30 - 30) =     -1.81232  eV     1   --> A'             
     e( 31 - 31) =     -1.79014  eV     1   --> A''            
     e( 32 - 32) =      0.15979  eV     1   --> A'             
     e( 33 - 33) =      0.18939  eV     1   --> A''            
     e( 34 - 34) =      1.12511  eV     1   --> A'             
     e( 35 - 35) =      1.13440  eV     1   --> A''            
     e( 36 - 36) =      1.71633  eV     1   --> A'             
     e( 37 - 37) =      2.83644  eV     1   --> A'             
     e( 38 - 38) =      4.00381  eV     1   --> A'             
     e( 39 - 39) =      4.80982  eV     1   --> A'             
     e( 40 - 40) =      5.14376  eV     1   --> A'             
     e( 41 - 41) =      5.19860  eV     1   --> A'             
     e( 42 - 42) =      5.45837  eV     1   --> A'             

 **************************************************************************

 **************************************************************************

                    xk=(   0.00000,   0.00000,   0.00000  )

     point group C_3v (3m)  
     there are  3 classes
     the character table:

       E     2C3   3s_v 
A_1    1.00  1.00  1.00
A_2    1.00  1.00 -1.00
E      2.00 -1.00  0.00

     the symmetry operations in each class and the name of the first element:

     E        1
                                                                 
     2C3      2    3
                                                                 
     3s_v     4    5    6
                                                                 

     Band symmetry, C_3v (3m)   point group:

     e(  1 -  1) =    -69.76432  eV     1   --> A_1  L_1       
     e(  2 -  2) =    -69.72832  eV     1   --> A_1  L_1       
     e(  3 -  3) =    -36.48506  eV     1   --> A_1  L_1       
     e(  4 -  5) =    -36.04943  eV     2   --> E    L_3       
     e(  6 -  7) =    -35.99669  eV     2   --> E    L_3       
     e(  8 -  8) =    -35.98358  eV     1   --> A_1  L_1       
     e(  9 -  9) =    -21.43275  eV     1   --> A_1  L_1       
     e( 10 - 10) =    -21.42613  eV     1   --> A_1  L_1       
     e( 11 - 12) =    -21.39945  eV     2   --> E    L_3       
     e( 13 - 14) =    -21.38724  eV     2   --> E    L_3       
     e( 15 - 15) =    -21.37277  eV     1   --> A_2  L_2       
     e( 16 - 16) =    -21.37039  eV     1   --> A_2  L_2       
     e( 17 - 17) =    -21.34189  eV     1   --> A_1  L_1       
     e( 18 - 19) =    -21.33370  eV     2   --> E    L_3       
     e( 20 - 20) =    -21.32686  eV     1   --> A_1  L_1       
     e( 21 - 22) =    -21.32187  eV     2   --> E    L_3       
     e( 23 - 23) =    -14.72227  eV     1   --> A_1  L_1       
     e( 24 - 24) =     -9.14490  eV     1   --> A_1  L_1       
     e( 25 - 26) =     -5.70701  eV     2   --> E    L_3       
     e( 27 - 27) =     -5.15483  eV     1   --> A_1  L_1       
     e( 28 - 28) =     -5.14480  eV     1   --> A_1  L_1       
     e( 29 - 29) =     -3.39676  eV     1   --> A_1  L_1       
     e( 30 - 31) =     -1.79752  eV     2   --> E    L_3       
     e( 32 - 33) =      0.19889  eV     2   --> E    L_3       
     e( 34 - 35) =      1.12140  eV     2   --> E    L_3       
     e( 36 - 36) =      1.67669  eV     1   --> A_1  L_1       
     e( 37 - 37) =      2.82276  eV     1   --> A_1  L_1       
     e( 38 - 38) =      3.99542  eV     1   --> A_1  L_1       
     e( 39 - 39) =      4.80352  eV     1   --> A_1  L_1       
     e( 40 - 40) =      5.13797  eV     1   --> A_1  L_1       
     e( 41 - 41) =      5.19246  eV     1   --> A_1  L_1       
     e( 42 - 42) =      5.46303  eV     1   -->   ?

 **************************************************************************
 
     BANDS        :   3m28.44s CPU   2m24.16s WALL

 
   This run was terminated on:   9:26: 6  22Apr2022            

=------------------------------------------------------------------------------=
   JOB DONE.
=------------------------------------------------------------------------------=
