
     Program PWSCF v.6.8 starts on 22Apr2022 at  9:11:51 

     This program is part of the open-source Quantum ESPRESSO suite
     for quantum simulation of materials; please cite
         "P. Giannozzi et al., J. Phys.:Condens. Matter 21 395502 (2009);
         "P. Giannozzi et al., J. Phys.:Condens. Matter 29 465901 (2017);
         "P. Giannozzi et al., J. Chem. Phys. 152 154105 (2020);
          URL http://www.quantum-espresso.org", 
     in publications or presentations arising from this work. More details at
     http://www.quantum-espresso.org/quote

     Parallel version (MPI & OpenMP), running on       4 processor cores
     Number of MPI processes:                 2
     Threads/MPI process:                     2

     MPI processes distributed on     1 nodes
     R & G space division:  proc/nbgrp/npool/nimage =       2
     119193 MiB available memory on the printing compute node when the environment starts
 
     Waiting for input...
     Reading input from standard input

     Current dimensions of program PWSCF are:
     Max number of different atomic species (ntypx) = 10
     Max number of k-points (npk) =  40000
     Max angular momentum in pseudopotentials (lmaxx) =  4

     Atomic positions and unit cell read from directory:
     /scratch/as3359/Ta2CH2k_bandsdos/Ta.save/
 
     file Ta.pbesol-spfn-rrkjus_psl.1.0.0.UPF: wavefunction(s)  5S 5P renormalized
     Message from routine setup:
     using ibrav=0 with symmetry is DISCOURAGED, use correct ibrav instead

     Subspace diagonalization in iterative solution of the eigenvalue problem:
     a serial algorithm will be used

 
     Parallelization info
     --------------------
     sticks:   dense  smooth     PW     G-vecs:    dense   smooth      PW
     Min         945     708    192               312977   203219   29931
     Max         946     709    193               312992   203222   29938
     Sum        1891    1417    385               625969   406441   59869
 
     Using Slab Decomposition
 


     bravais-lattice index     =            0
     lattice parameter (alat)  =       5.5500  a.u.
     unit-cell volume          =    1637.0834 (a.u.)^3
     number of atoms/cell      =            5
     number of atomic types    =            3
     number of electrons       =        60.00
     number of Kohn-Sham states=           42
     kinetic-energy cutoff     =     150.0000  Ry
     charge density cutoff     =     800.0000  Ry
     Exchange-correlation= PBESOL
                           (   1   4  10   8   0   0   0)

     celldm(1)=   5.550000  celldm(2)=   0.000000  celldm(3)=   0.000000
     celldm(4)=   0.000000  celldm(5)=   0.000000  celldm(6)=   0.000000

     crystal axes: (cart. coord. in units of alat)
               a(1) = (   1.051552   0.000000   0.000000 )  
               a(2) = (  -0.525776   0.910670   0.000000 )  
               a(3) = (   0.000000   0.000000  10.000000 )  

     reciprocal axes: (cart. coord. in units 2 pi/alat)
               b(1) = (  0.950976  0.549046  0.000000 )  
               b(2) = (  0.000000  1.098092  0.000000 )  
               b(3) = (  0.000000  0.000000  0.100000 )  


     PseudoPot. # 1 for Ta read from file:
     /shared/home/as3359/pseudo/Ta.pbesol-spfn-rrkjus_psl.1.0.0.UPF
     MD5 check sum: f099565ffaca9b150a52e9412a28e20b
     Pseudo is Ultrasoft + core correction, Zval = 27.0
     Generated using &quot;atomic&quot; code by A. Dal Corso  v.6.3
     Using radial grid of 1273 points,  8 beta functions with: 
                l(1) =   0
                l(2) =   0
                l(3) =   1
                l(4) =   1
                l(5) =   2
                l(6) =   2
                l(7) =   3
                l(8) =   3
     Q(r) pseudized with 0 coefficients 


     PseudoPot. # 2 for C  read from file:
     /shared/home/as3359/pseudo/C.pbesol-n-rrkjus_psl.1.0.0.UPF
     MD5 check sum: 05995be603a8a7c99da3dc4413f31573
     Pseudo is Ultrasoft + core correction, Zval =  4.0
     Generated using &quot;atomic&quot; code by A. Dal Corso  v.6.3MaX
     Using radial grid of 1073 points,  4 beta functions with: 
                l(1) =   0
                l(2) =   0
                l(3) =   1
                l(4) =   1
     Q(r) pseudized with 0 coefficients 


     PseudoPot. # 3 for H  read from file:
     /shared/home/as3359/pseudo/H.pbesol-rrkjus_psl.0.1.UPF
     MD5 check sum: 1dbb1a5c48b1283557b8117eb856a7ca
     Pseudo is Ultrasoft, Zval =  1.0
     Generated using "atomic" code by A. Dal Corso  v.5.0.2 svn rev. 9415
     Using radial grid of  929 points,  2 beta functions with: 
                l(1) =   0
                l(2) =   0
     Q(r) pseudized with 0 coefficients 


     atomic species   valence    mass     pseudopotential
        Ta            27.00   180.94788     Ta( 1.00)
        C              4.00    12.01070     C ( 1.00)
        H              1.00     1.00000     H ( 1.00)

      6 Sym. Ops. (no inversion) found



   Cartesian axes

     site n.     atom                  positions (alat units)
         1           C   tau(   1) = (   0.0000000   0.0000000   0.0001856  )
         2           Ta  tau(   2) = (   0.5257758   0.3035568  -0.4220855  )
         3           Ta  tau(   3) = (   0.0000000   0.6071136   0.4234342  )
         4           H   tau(   4) = (   0.0000000   0.6071136   1.0328221  )
         5           H   tau(   5) = (   0.5257758   0.3035568  -1.0315700  )

     number of k points=    91  Marzari-Vanderbilt smearing, width (Ry)=  0.0010
                       cart. coord. in units 2pi/alat
        k(    1) = (   0.0000000   0.0000000   0.0000000), wk =   0.0219780
        k(    2) = (   0.0211328   0.0000000   0.0000000), wk =   0.0219780
        k(    3) = (   0.0422656   0.0000000   0.0000000), wk =   0.0219780
        k(    4) = (   0.0633984   0.0000000   0.0000000), wk =   0.0219780
        k(    5) = (   0.0845312   0.0000000   0.0000000), wk =   0.0219780
        k(    6) = (   0.1056640   0.0000000   0.0000000), wk =   0.0219780
        k(    7) = (   0.1267967   0.0000000   0.0000000), wk =   0.0219780
        k(    8) = (   0.1479295   0.0000000   0.0000000), wk =   0.0219780
        k(    9) = (   0.1690623   0.0000000   0.0000000), wk =   0.0219780
        k(   10) = (   0.1901951   0.0000000   0.0000000), wk =   0.0219780
        k(   11) = (   0.2113279   0.0000000   0.0000000), wk =   0.0219780
        k(   12) = (   0.2324607   0.0000000   0.0000000), wk =   0.0219780
        k(   13) = (   0.2535935   0.0000000   0.0000000), wk =   0.0219780
        k(   14) = (   0.2747263   0.0000000   0.0000000), wk =   0.0219780
        k(   15) = (   0.2958591   0.0000000   0.0000000), wk =   0.0219780
        k(   16) = (   0.3169919   0.0000000   0.0000000), wk =   0.0219780
        k(   17) = (   0.3381247   0.0000000   0.0000000), wk =   0.0219780
        k(   18) = (   0.3592575   0.0000000   0.0000000), wk =   0.0219780
        k(   19) = (   0.3803902   0.0000000   0.0000000), wk =   0.0219780
        k(   20) = (   0.4015230   0.0000000   0.0000000), wk =   0.0219780
        k(   21) = (   0.4226558   0.0000000   0.0000000), wk =   0.0219780
        k(   22) = (   0.4437886   0.0000000   0.0000000), wk =   0.0219780
        k(   23) = (   0.4649214   0.0000000   0.0000000), wk =   0.0219780
        k(   24) = (   0.4860542   0.0000000   0.0000000), wk =   0.0219780
        k(   25) = (   0.5071870   0.0000000   0.0000000), wk =   0.0219780
        k(   26) = (   0.5283198   0.0000000   0.0000000), wk =   0.0219780
        k(   27) = (   0.5494526   0.0000000   0.0000000), wk =   0.0219780
        k(   28) = (   0.5705854   0.0000000   0.0000000), wk =   0.0219780
        k(   29) = (   0.5917182   0.0000000   0.0000000), wk =   0.0219780
        k(   30) = (   0.6128510   0.0000000   0.0000000), wk =   0.0219780
        k(   31) = (   0.6339837   0.0000000   0.0000000), wk =   0.0219780
        k(   32) = (   0.6287005  -0.0091508   0.0000000), wk =   0.0219780
        k(   33) = (   0.6234173  -0.0183015   0.0000000), wk =   0.0219780
        k(   34) = (   0.6181342  -0.0274523   0.0000000), wk =   0.0219780
        k(   35) = (   0.6128510  -0.0366031   0.0000000), wk =   0.0219780
        k(   36) = (   0.6075678  -0.0457538   0.0000000), wk =   0.0219780
        k(   37) = (   0.6022846  -0.0549046   0.0000000), wk =   0.0219780
        k(   38) = (   0.5970014  -0.0640554   0.0000000), wk =   0.0219780
        k(   39) = (   0.5917182  -0.0732061   0.0000000), wk =   0.0219780
        k(   40) = (   0.5864350  -0.0823569   0.0000000), wk =   0.0219780
        k(   41) = (   0.5811518  -0.0915077   0.0000000), wk =   0.0219780
        k(   42) = (   0.5758686  -0.1006584   0.0000000), wk =   0.0219780
        k(   43) = (   0.5705854  -0.1098092   0.0000000), wk =   0.0219780
        k(   44) = (   0.5653022  -0.1189600   0.0000000), wk =   0.0219780
        k(   45) = (   0.5600190  -0.1281107   0.0000000), wk =   0.0219780
        k(   46) = (   0.5547358  -0.1372615   0.0000000), wk =   0.0219780
        k(   47) = (   0.5494526  -0.1464123   0.0000000), wk =   0.0219780
        k(   48) = (   0.5441694  -0.1555630   0.0000000), wk =   0.0219780
        k(   49) = (   0.5388862  -0.1647138   0.0000000), wk =   0.0219780
        k(   50) = (   0.5336030  -0.1738646   0.0000000), wk =   0.0219780
        k(   51) = (   0.5283198  -0.1830153   0.0000000), wk =   0.0219780
        k(   52) = (   0.5230366  -0.1921661   0.0000000), wk =   0.0219780
        k(   53) = (   0.5177534  -0.2013169   0.0000000), wk =   0.0219780
        k(   54) = (   0.5124702  -0.2104676   0.0000000), wk =   0.0219780
        k(   55) = (   0.5071870  -0.2196184   0.0000000), wk =   0.0219780
        k(   56) = (   0.5019038  -0.2287692   0.0000000), wk =   0.0219780
        k(   57) = (   0.4966206  -0.2379199   0.0000000), wk =   0.0219780
        k(   58) = (   0.4913374  -0.2470707   0.0000000), wk =   0.0219780
        k(   59) = (   0.4860542  -0.2562215   0.0000000), wk =   0.0219780
        k(   60) = (   0.4807710  -0.2653722   0.0000000), wk =   0.0219780
        k(   61) = (   0.4754878  -0.2745230   0.0000000), wk =   0.0219780
        k(   62) = (   0.4596382  -0.2653722   0.0000000), wk =   0.0219780
        k(   63) = (   0.4437886  -0.2562215   0.0000000), wk =   0.0219780
        k(   64) = (   0.4279390  -0.2470707   0.0000000), wk =   0.0219780
        k(   65) = (   0.4120894  -0.2379199   0.0000000), wk =   0.0219780
        k(   66) = (   0.3962398  -0.2287692   0.0000000), wk =   0.0219780
        k(   67) = (   0.3803902  -0.2196184   0.0000000), wk =   0.0219780
        k(   68) = (   0.3645407  -0.2104676   0.0000000), wk =   0.0219780
        k(   69) = (   0.3486911  -0.2013169   0.0000000), wk =   0.0219780
        k(   70) = (   0.3328415  -0.1921661   0.0000000), wk =   0.0219780
        k(   71) = (   0.3169919  -0.1830153   0.0000000), wk =   0.0219780
        k(   72) = (   0.3011423  -0.1738646   0.0000000), wk =   0.0219780
        k(   73) = (   0.2852927  -0.1647138   0.0000000), wk =   0.0219780
        k(   74) = (   0.2694431  -0.1555630   0.0000000), wk =   0.0219780
        k(   75) = (   0.2535935  -0.1464123   0.0000000), wk =   0.0219780
        k(   76) = (   0.2377439  -0.1372615   0.0000000), wk =   0.0219780
        k(   77) = (   0.2218943  -0.1281107   0.0000000), wk =   0.0219780
        k(   78) = (   0.2060447  -0.1189600   0.0000000), wk =   0.0219780
        k(   79) = (   0.1901951  -0.1098092   0.0000000), wk =   0.0219780
        k(   80) = (   0.1743455  -0.1006584   0.0000000), wk =   0.0219780
        k(   81) = (   0.1584959  -0.0915077   0.0000000), wk =   0.0219780
        k(   82) = (   0.1426463  -0.0823569   0.0000000), wk =   0.0219780
        k(   83) = (   0.1267967  -0.0732061   0.0000000), wk =   0.0219780
        k(   84) = (   0.1109472  -0.0640554   0.0000000), wk =   0.0219780
        k(   85) = (   0.0950976  -0.0549046   0.0000000), wk =   0.0219780
        k(   86) = (   0.0792480  -0.0457538   0.0000000), wk =   0.0219780
        k(   87) = (   0.0633984  -0.0366031   0.0000000), wk =   0.0219780
        k(   88) = (   0.0475488  -0.0274523   0.0000000), wk =   0.0219780
        k(   89) = (   0.0316992  -0.0183015   0.0000000), wk =   0.0219780
        k(   90) = (   0.0158496  -0.0091508   0.0000000), wk =   0.0219780
        k(   91) = (   0.0000000   0.0000000   0.0000000), wk =   0.0219780

     Dense  grid:   625969 G-vectors     FFT dimensions: (  54,  54, 500)

     Smooth grid:   406441 G-vectors     FFT dimensions: (  45,  45, 450)

     Estimated max dynamical RAM per process >       2.77 GB

     Estimated total dynamical RAM >       5.53 GB

     The potential is recalculated from file :
     /scratch/as3359/Ta2CH2k_bandsdos/Ta.save/charge-density


     negative rho (up, down):  8.724E-05 0.000E+00
     Starting wfcs are   40 randomized atomic wfcs +    2 random wfcs

     Band Structure Calculation
     Davidson diagonalization with overlap
     c_bands:  1 eigenvalues not converged

     ethr =  1.00E-13,  avg # of iterations = 61.6

     total cpu time spent up to now is      702.2 secs

     End of band structure calculation

          k = 0.0000 0.0000 0.0000 ( 50893 PWs)   bands (ev):

   -69.7643 -69.7283 -36.4851 -36.0494 -36.0494 -35.9967 -35.9967 -35.9836
   -21.4328 -21.4261 -21.3995 -21.3995 -21.3872 -21.3872 -21.3728 -21.3704
   -21.3419 -21.3337 -21.3337 -21.3269 -21.3219 -21.3219 -14.7223  -9.1449
    -5.7070  -5.7070  -5.1548  -5.1448  -3.3968  -1.7975  -1.7975   0.1989
     0.1989   1.1214   1.1214   1.6767   2.8228   3.9954   4.8035   5.1380
     5.1925   5.4630

          k = 0.0211 0.0000 0.0000 ( 50851 PWs)   bands (ev):

   -69.7642 -69.7282 -36.4846 -36.0523 -36.0502 -35.9987 -35.9970 -35.9831
   -21.4326 -21.4260 -21.3995 -21.3994 -21.3872 -21.3872 -21.3729 -21.3705
   -21.3418 -21.3338 -21.3337 -21.3268 -21.3219 -21.3219 -14.7162  -9.1334
    -5.7417  -5.7049  -5.1525  -5.1190  -3.3920  -1.8172  -1.7877   0.1477
     0.1860   1.1276   1.1370   1.7293   2.8410   4.0066   4.8119   5.1457
     5.2006   5.4569

          k = 0.0423 0.0000 0.0000 ( 50875 PWs)   bands (ev):

   -69.7636 -69.7279 -36.4831 -36.0608 -36.0526 -36.0046 -35.9980 -35.9819
   -21.4322 -21.4256 -21.3995 -21.3992 -21.3872 -21.3870 -21.3733 -21.3709
   -21.3416 -21.3340 -21.3338 -21.3267 -21.3222 -21.3219 -14.6981  -9.0990
    -5.8316  -5.6990  -5.1454  -5.0551  -3.3782  -1.8751  -1.7583   0.0199
     0.1476   1.1473   1.1691   1.8750   2.8943   4.0399   4.8369   5.1673
     5.2250   5.4408

          k = 0.0634 0.0000 0.0000 ( 50887 PWs)   bands (ev):

   -69.7628 -69.7273 -36.4807 -36.0739 -36.0569 -36.0138 -36.0000 -35.9804
   -21.4316 -21.4250 -21.3996 -21.3989 -21.3873 -21.3868 -21.3740 -21.3716
   -21.3413 -21.3343 -21.3340 -21.3264 -21.3225 -21.3219 -14.6682  -9.0421
    -5.9540  -5.6909  -5.1323  -4.9740  -3.3564  -1.9678  -1.7098  -0.1410
     0.0856   1.1823   1.2008   2.0838   2.9794   4.0949   4.8780   5.1971
     5.2649   5.4230

          k = 0.0845 0.0000 0.0000 ( 50901 PWs)   bands (ev):

   -69.7616 -69.7265 -36.4776 -36.0912 -36.0639 -36.0255 -36.0029 -35.9790
   -21.4308 -21.4242 -21.3997 -21.3984 -21.3873 -21.3865 -21.3749 -21.3725
   -21.3409 -21.3348 -21.3342 -21.3261 -21.3230 -21.3220 -14.6272  -8.9637
    -6.0946  -5.6830  -5.1118  -4.8870  -3.3284  -2.0902  -1.6430  -0.3059
     0.0038   1.2282   1.2338   2.3256   3.0921   4.1708   4.9339   5.2194
     5.3189   5.4224

          k = 0.1057 0.0000 0.0000 ( 50919 PWs)   bands (ev):

   -69.7601 -69.7256 -36.4738 -36.1120 -36.0746 -36.0380 -36.0069 -35.9778
   -21.4297 -21.4232 -21.3999 -21.3979 -21.3873 -21.3861 -21.3761 -21.3737
   -21.3403 -21.3354 -21.3346 -21.3257 -21.3236 -21.3220 -14.5757  -8.8648
    -6.2457  -5.6788  -5.0815  -4.7985  -3.2961  -2.2360  -1.5600  -0.4588
    -0.0916   1.2508   1.3011   2.5786   3.2281   4.2662   5.0017   5.2155
     5.3836   5.4626

          k = 0.1268 0.0000 0.0000 ( 50893 PWs)   bands (ev):

   -69.7584 -69.7244 -36.4695 -36.1358 -36.0902 -36.0495 -36.0121 -35.9768
   -21.4284 -21.4219 -21.4000 -21.3973 -21.3872 -21.3856 -21.3775 -21.3751
   -21.3397 -21.3359 -21.3350 -21.3252 -21.3242 -21.3221 -14.5146  -8.7469
    -6.4021  -5.6817  -5.0391  -4.7101  -3.2613  -2.3985  -1.4642  -0.5912
    -0.1919   1.2681   1.3826   2.8285   3.3840   4.3793   5.0675   5.2028
     5.4523   5.5419

          k = 0.1479 0.0000 0.0000 ( 50903 PWs)   bands (ev):

   -69.7563 -69.7231 -36.4651 -36.1623 -36.1104 -36.0598 -36.0185 -35.9761
   -21.4269 -21.4205 -21.4002 -21.3967 -21.3872 -21.3851 -21.3791 -21.3766
   -21.3391 -21.3365 -21.3355 -21.3253 -21.3243 -21.3222 -14.4451  -8.6117
    -6.5603  -5.6948  -4.9828  -4.6218  -3.2256  -2.5710  -1.3632  -0.6986
    -0.2852   1.2793   1.4756   3.0653   3.5569   4.5063   5.0794   5.2475
     5.5169   5.6469

          k = 0.1691 0.0000 0.0000 ( 50903 PWs)   bands (ev):

   -69.7540 -69.7216 -36.4610 -36.1909 -36.1336 -36.0696 -36.0261 -35.9757
   -21.4253 -21.4189 -21.4003 -21.3961 -21.3871 -21.3845 -21.3809 -21.3783
   -21.3389 -21.3366 -21.3361 -21.3260 -21.3237 -21.3224 -14.3682  -8.4613
    -6.7172  -5.7201  -4.9119  -4.5334  -3.1901  -2.7474  -1.2722  -0.7788
    -0.3526   1.2842   1.5781   3.2829   3.7443   4.6406   5.0427   5.3524
     5.5779   5.7707

          k = 0.1902 0.0000 0.0000 ( 50907 PWs)   bands (ev):

   -69.7515 -69.7201 -36.4576 -36.2212 -36.1582 -36.0795 -36.0350 -35.9755
   -21.4235 -21.4172 -21.4004 -21.3955 -21.3870 -21.3839 -21.3828 -21.3800
   -21.3393 -21.3368 -21.3360 -21.3267 -21.3231 -21.3226 -14.2853  -8.2980
    -6.8704  -5.7581  -4.8267  -4.4446  -3.1554  -2.9220  -1.2167  -0.8315
    -0.3660   1.2831   1.6880   3.4787   3.9441   4.7719   4.9963   5.4827
     5.6443   5.9095

          k = 0.2113 0.0000 0.0000 ( 50903 PWs)   bands (ev):

   -69.7488 -69.7184 -36.4558 -36.2526 -36.1826 -36.0896 -36.0452 -35.9755
   -21.4216 -21.4153 -21.4005 -21.3950 -21.3868 -21.3848 -21.3833 -21.3817
   -21.3400 -21.3376 -21.3351 -21.3276 -21.3228 -21.3223 -14.1977  -8.1244
    -7.0177  -5.8084  -4.7282  -4.3552  -3.1218  -3.0897  -1.2196  -0.8575
    -0.3011   1.2773   1.8044   3.6528   4.1542   4.8867   4.9498   5.6305
     5.7264   6.0613

          k = 0.2325 0.0000 0.0000 ( 50863 PWs)   bands (ev):

   -69.7460 -69.7167 -36.4564 -36.2846 -36.2055 -36.1002 -36.0565 -35.9759
   -21.4197 -21.4133 -21.4005 -21.3948 -21.3870 -21.3865 -21.3836 -21.3823
   -21.3408 -21.3385 -21.3340 -21.3284 -21.3230 -21.3215 -14.1068  -7.9435
    -7.1574  -5.8698  -4.6181  -4.2651  -3.2468  -3.0882  -1.2771  -0.8593
    -0.1614   1.2687   1.9269   3.8072   4.3726   4.9049   4.9727   5.7940
     5.8321   6.2240

          k = 0.2536 0.0000 0.0000 ( 50877 PWs)   bands (ev):

   -69.7431 -69.7149 -36.4602 -36.3166 -36.2254 -36.1112 -36.0691 -35.9765
   -21.4177 -21.4113 -21.4005 -21.3950 -21.3890 -21.3867 -21.3844 -21.3817
   -21.3416 -21.3395 -21.3328 -21.3292 -21.3233 -21.3208 -14.0140  -7.7585
    -7.2878  -5.9406  -4.4981  -4.1743  -3.3886  -3.0549  -1.3678  -0.8410
     0.0310   1.2607   2.0556   3.9442   4.5975   4.8618   5.0223   5.9633
     5.9722   6.3957

          k = 0.2747 0.0000 0.0000 ( 50853 PWs)   bands (ev):

   -69.7400 -69.7132 -36.4680 -36.3480 -36.2414 -36.1222 -36.0828 -35.9775
   -21.4158 -21.4093 -21.4003 -21.3956 -21.3912 -21.3873 -21.3844 -21.3811
   -21.3424 -21.3405 -21.3315 -21.3299 -21.3236 -21.3200 -13.9206  -7.5728
    -7.4079  -6.0188  -4.3704  -4.0827  -3.5117  -3.0211  -1.4738  -0.8080
     0.2566   1.2573   2.1914   4.0658   4.8141   4.8317   5.0364   6.1152
     6.1644   6.5737

          k = 0.2959 0.0000 0.0000 ( 50829 PWs)   bands (ev):

   -69.7369 -69.7114 -36.4798 -36.3783 -36.2534 -36.1330 -36.0976 -35.9789
   -21.4139 -21.4072 -21.4000 -21.3968 -21.3933 -21.3878 -21.3839 -21.3805
   -21.3432 -21.3416 -21.3308 -21.3301 -21.3240 -21.3192 -13.8280  -7.5165
    -7.3902  -6.1023  -4.2376  -3.9904  -3.6122  -2.9862  -1.5847  -0.7675
     0.5022   1.2638   2.3355   4.1727   4.7694   5.0192   5.0625   6.2801
     6.3696   6.7550

          k = 0.3170 0.0000 0.0000 ( 50823 PWs)   bands (ev):

   -69.7338 -69.7097 -36.4951 -36.4071 -36.2620 -36.1428 -36.1135 -35.9807
   -21.4122 -21.4051 -21.3995 -21.3983 -21.3954 -21.3880 -21.3832 -21.3799
   -21.3439 -21.3427 -21.3315 -21.3290 -21.3243 -21.3185 -13.7373  -7.6129
    -7.2148  -6.1888  -4.1034  -3.8975  -3.6851  -2.9502  -1.6944  -0.7275
     0.7581   1.2854   2.4895   4.2646   4.7117   4.9763   5.3003   6.4495
     6.5856   6.9360

          k = 0.3381 0.0000 0.0000 ( 50793 PWs)   bands (ev):

   -69.7307 -69.7081 -36.5125 -36.4337 -36.2689 -36.1510 -36.1304 -35.9830
   -21.4107 -21.4032 -21.4001 -21.3988 -21.3975 -21.3880 -21.3825 -21.3794
   -21.3447 -21.3438 -21.3322 -21.3278 -21.3245 -21.3178 -13.6496  -7.6967
    -7.0513  -6.2756  -3.9764  -3.8038  -3.7212  -2.9135  -1.7986  -0.6961
     1.0161   1.3263   2.6543   4.3392   4.6381   4.9139   5.5419   6.6157
     6.8075   7.1147

          k = 0.3593 0.0000 0.0000 ( 50761 PWs)   bands (ev):

   -69.7277 -69.7066 -36.5306 -36.4579 -36.2760 -36.1566 -36.1482 -35.9857
   -21.4094 -21.4021 -21.4011 -21.3995 -21.3979 -21.3879 -21.3817 -21.3790
   -21.3456 -21.3446 -21.3330 -21.3270 -21.3245 -21.3171 -13.5658  -7.7674
    -6.9054  -6.3587  -3.8810  -3.7094  -3.6960  -2.8772  -1.8939  -0.6795
     1.2682   1.3874   2.8303   4.3899   4.5426   4.8433   5.7880   6.7718
     7.0226   7.2969

          k = 0.3804 0.0000 0.0000 ( 50737 PWs)   bands (ev):

   -69.7247 -69.7052 -36.5484 -36.4792 -36.2849 -36.1670 -36.1588 -35.9890
   -21.4083 -21.4038 -21.4016 -21.3993 -21.3968 -21.3877 -21.3810 -21.3786
   -21.3466 -21.3452 -21.3337 -21.3268 -21.3240 -21.3165 -13.4867  -7.8251
    -6.7877  -6.4287  -3.8297  -3.6137  -3.5983  -2.8430  -1.9775  -0.6812
     1.4651   1.5078   3.0148   4.4002   4.4225   4.7863   6.0401   6.9138
     7.2063   7.5037

          k = 0.4015 0.0000 0.0000 ( 50749 PWs)   bands (ev):

   -69.7219 -69.7040 -36.5646 -36.4973 -36.2964 -36.1864 -36.1576 -35.9927
   -21.4077 -21.4054 -21.4032 -21.3976 -21.3955 -21.3874 -21.3803 -21.3782
   -21.3476 -21.3456 -21.3345 -21.3271 -21.3230 -21.3160 -13.4129  -7.8696
    -6.7248  -6.4596  -3.7825  -3.5168  -3.4704  -2.8134  -2.0461  -0.7011
     1.5502   1.7292   3.1995   4.2750   4.3567   4.7715   6.2993   7.0424
     7.3445   7.7516

          k = 0.4227 0.0000 0.0000 ( 50729 PWs)   bands (ev):

   -69.7192 -69.7029 -36.5786 -36.5119 -36.3106 -36.2066 -36.1532 -35.9970
   -21.4080 -21.4065 -21.4044 -21.3961 -21.3942 -21.3870 -21.3797 -21.3779
   -21.3487 -21.3459 -21.3352 -21.3275 -21.3220 -21.3156 -13.3451  -7.9011
    -6.7422  -6.4258  -3.7185  -3.4192  -3.3366  -2.7909  -2.0975  -0.7363
     1.6292   1.9279   3.3619   4.1243   4.2620   4.8036   6.5651   7.1623
     7.4530   8.0332

          k = 0.4438 0.0000 0.0000 ( 50743 PWs)   bands (ev):

   -69.7166 -69.7020 -36.5899 -36.5229 -36.3271 -36.2273 -36.1466 -36.0019
   -21.4093 -21.4075 -21.4046 -21.3947 -21.3928 -21.3866 -21.3792 -21.3777
   -21.3497 -21.3460 -21.3360 -21.3281 -21.3210 -21.3152 -13.2834  -7.9198
    -6.8046  -6.3611  -3.6359  -3.3213  -3.2044  -2.7772  -2.1303  -0.7828
     1.6869   2.0996   3.4402   4.0293   4.1467   4.8706   6.8313   7.2798
     7.5552   8.3385

          k = 0.4649 0.0000 0.0000 ( 50763 PWs)   bands (ev):

   -69.7142 -69.7012 -36.5979 -36.5301 -36.3454 -36.2484 -36.1384 -36.0072
   -21.4106 -21.4087 -21.4042 -21.3934 -21.3915 -21.3861 -21.3789 -21.3775
   -21.3506 -21.3460 -21.3367 -21.3286 -21.3201 -21.3150 -13.2282  -7.9261
    -6.8806  -6.2949  -3.5386  -3.2243  -3.0769  -2.7720  -2.1460  -0.8359
     1.7106   2.2357   3.3638   4.0300   4.0691   4.9674   7.0793   7.4003
     7.6759   8.6603

          k = 0.4861 0.0000 0.0000 ( 50777 PWs)   bands (ev):

   -69.7120 -69.7007 -36.6026 -36.5335 -36.3650 -36.2698 -36.1291 -36.0131
   -21.4118 -21.4099 -21.4037 -21.3923 -21.3904 -21.3856 -21.3788 -21.3773
   -21.3514 -21.3459 -21.3375 -21.3292 -21.3193 -21.3147 -13.1796  -7.9200
    -6.9605  -6.2350  -3.4327  -3.1300  -2.9557  -2.7722  -2.1488  -0.8913
     1.6945   2.3144   3.2109   3.9232   4.1895   5.0924   7.2778   7.5260
     7.8344   8.8297

          k = 0.5072 0.0000 0.0000 ( 50785 PWs)   bands (ev):

   -69.7100 -69.7003 -36.6037 -36.5333 -36.3854 -36.2912 -36.1194 -36.0194
   -21.4129 -21.4109 -21.4032 -21.3913 -21.3893 -21.3850 -21.3789 -21.3771
   -21.3521 -21.3457 -21.3382 -21.3298 -21.3186 -21.3146 -13.1377  -7.9020
    -7.0416  -6.1823  -3.3252  -3.0418  -2.8416  -2.7729  -2.1449  -0.9452
     1.6424   2.2935   3.1022   3.8291   4.3195   5.2422   7.4143   7.6543
     7.9921   8.7356

          k = 0.5283 0.0000 0.0000 ( 50783 PWs)   bands (ev):

   -69.7082 -69.7002 -36.6014 -36.5295 -36.4063 -36.3124 -36.1094 -36.0261
   -21.4138 -21.4118 -21.4027 -21.3904 -21.3885 -21.3844 -21.3791 -21.3770
   -21.3527 -21.3453 -21.3389 -21.3304 -21.3179 -21.3145 -13.1025  -7.8721
    -7.1233  -6.1364  -3.2229  -2.9654  -2.7667  -2.7353  -2.1422  -0.9945
     1.5665   2.1555   3.0917   3.7471   4.4315   5.4093   7.5098   7.7730
     8.0485   8.6473

          k = 0.5495 0.0000 0.0000 ( 50763 PWs)   bands (ev):

   -69.7066 -69.7002 -36.5959 -36.5227 -36.4272 -36.3330 -36.0995 -36.0331
   -21.4145 -21.4125 -21.4022 -21.3898 -21.3878 -21.3838 -21.3794 -21.3770
   -21.3532 -21.3449 -21.3396 -21.3309 -21.3174 -21.3145 -13.0741  -7.8307
    -7.2055  -6.0972  -3.1313  -2.9109  -2.7433  -2.6381  -2.1484  -1.0370
     1.4836   1.9543   3.1471   3.6749   4.5163   5.5828   7.5847   7.8543
     8.0116   8.6064

          k = 0.5706 0.0000 0.0000 ( 50749 PWs)   bands (ev):

   -69.7052 -69.7003 -36.5875 -36.5135 -36.4477 -36.3525 -36.0899 -36.0405
   -21.4150 -21.4130 -21.4017 -21.3893 -21.3873 -21.3832 -21.3797 -21.3770
   -21.3536 -21.3444 -21.3402 -21.3314 -21.3170 -21.3145 -13.0523  -7.7777
    -7.2888  -6.0649  -3.0537  -2.8838  -2.6980  -2.5512  -2.1718  -1.0711
     1.4107   1.7483   3.2266   3.6100   4.5720   5.7497   7.6453   7.8670
     7.9591   8.6433

          k = 0.5917 0.0000 0.0000 ( 50743 PWs)   bands (ev):

   -69.7041 -69.7006 -36.5774 -36.5031 -36.4666 -36.3696 -36.0806 -36.0481
   -21.4154 -21.4134 -21.4014 -21.3889 -21.3869 -21.3827 -21.3800 -21.3771
   -21.3539 -21.3439 -21.3407 -21.3318 -21.3168 -21.3145 -13.0370  -7.7134
    -7.3738  -6.0403  -2.9910  -2.8764  -2.6409  -2.4761  -2.2185  -1.0960
     1.3619   1.5717   3.3087   3.5503   4.6016   5.8948   7.6882   7.8199
     7.9302   8.7402

          k = 0.6129 0.0000 0.0000 ( 50728 PWs)   bands (ev):

   -69.7033 -69.7010 -36.5676 -36.4937 -36.4819 -36.3824 -36.0719 -36.0559
   -21.4156 -21.4136 -21.4012 -21.3887 -21.3867 -21.3823 -21.3801 -21.3773
   -21.3540 -21.3435 -21.3411 -21.3320 -21.3166 -21.3145 -13.0281  -7.6379
    -7.4611  -6.0246  -2.9420  -2.8825  -2.5853  -2.4130  -2.2888  -1.1111
     1.3470   1.4433   3.3828   3.4947   4.6123   5.9989   7.7106   7.7572
     7.9305   8.8345

          k = 0.6340 0.0000 0.0000 ( 50670 PWs)   bands (ev):

   -69.7029 -69.7012 -36.5630 -36.4892 -36.4889 -36.3875 -36.0643 -36.0632
   -21.4157 -21.4137 -21.4011 -21.3887 -21.3867 -21.3822 -21.3802 -21.3774
   -21.3541 -21.3433 -21.3413 -21.3321 -21.3166 -21.3145 -13.0251  -7.5534
    -7.5494  -6.0191  -2.9054  -2.9033  -2.5539  -2.3608  -2.3594  -1.1162
     1.3650   1.3771   3.4420   3.4428   4.6137   6.0386   7.7205   7.7235
     7.9378   8.8702

          k = 0.6287-0.0092 0.0000 ( 50696 PWs)   bands (ev):

   -69.7030 -69.7011 -36.5644 -36.4896 -36.4878 -36.3861 -36.0677 -36.0599
   -21.4157 -21.4137 -21.4011 -21.3887 -21.3867 -21.3822 -21.3802 -21.3773
   -21.3541 -21.3434 -21.3412 -21.3321 -21.3166 -21.3145 -13.0259  -7.5978
    -7.5041  -6.0205  -2.9244  -2.8890  -2.5666  -2.3731  -2.3361  -1.1149
     1.3556   1.3981   3.4174   3.4654   4.6139   6.0277   7.7241   7.7277
     7.9341   8.8625

          k = 0.6234-0.0183 0.0000 ( 50728 PWs)   bands (ev):

   -69.7033 -69.7010 -36.5683 -36.4921 -36.4834 -36.3821 -36.0716 -36.0562
   -21.4156 -21.4136 -21.4012 -21.3887 -21.3867 -21.3823 -21.3802 -21.3772
   -21.3540 -21.3435 -21.3412 -21.3320 -21.3166 -21.3145 -13.0279  -7.6450
    -7.4542  -6.0248  -2.9536  -2.8758  -2.6020  -2.3631  -2.3128  -1.1110
     1.3550   1.4330   3.3931   3.4837   4.6153   5.9945   7.7320   7.7441
     7.9215   8.8420

          k = 0.6181-0.0275 0.0000 ( 50740 PWs)   bands (ev):

   -69.7036 -69.7009 -36.5741 -36.4963 -36.4764 -36.3758 -36.0754 -36.0527
   -21.4155 -21.4135 -21.4013 -21.3888 -21.3868 -21.3823 -21.3803 -21.3771
   -21.3540 -21.3436 -21.3411 -21.3319 -21.3167 -21.3145 -13.0313  -7.6931
    -7.4018  -6.0319  -2.9949  -2.8644  -2.6478  -2.3386  -2.2893  -1.1044
     1.3665   1.4764   3.3696   3.4973   4.6187   5.9394   7.7373   7.7795
     7.8979   8.8128

          k = 0.6129-0.0366 0.0000 ( 50744 PWs)   bands (ev):

   -69.7040 -69.7007 -36.5812 -36.5019 -36.4676 -36.3676 -36.0792 -36.0494
   -21.4154 -21.4134 -21.4015 -21.3889 -21.3869 -21.3824 -21.3804 -21.3769
   -21.3539 -21.3437 -21.3410 -21.3317 -21.3167 -21.3145 -13.0359  -7.7421
    -7.3469  -6.0419  -3.0509  -2.8548  -2.6933  -2.3066  -2.2647  -1.0950
     1.3889   1.5274   3.3469   3.5066   4.6245   5.8641   7.7411   7.8294
     7.8635   8.7787

          k = 0.6076-0.0458 0.0000 ( 50754 PWs)   bands (ev):

   -69.7044 -69.7006 -36.5890 -36.5083 -36.4574 -36.3580 -36.0830 -36.0463
   -21.4153 -21.4133 -21.4017 -21.3890 -21.3870 -21.3824 -21.3806 -21.3766
   -21.3538 -21.3439 -21.3409 -21.3314 -21.3168 -21.3145 -13.0417  -7.7919
    -7.2895  -6.0545  -3.1218  -2.8468  -2.7337  -2.2704  -2.2383  -1.0827
     1.4209   1.5848   3.3250   3.5123   4.6331   5.7708   7.7380   7.8232
     7.8911   8.7429

          k = 0.6023-0.0549 0.0000 ( 50764 PWs)   bands (ev):

   -69.7048 -69.7004 -36.5972 -36.5153 -36.4464 -36.3474 -36.0866 -36.0434
   -21.4151 -21.4132 -21.4019 -21.3892 -21.3871 -21.3824 -21.3808 -21.3763
   -21.3537 -21.3440 -21.3409 -21.3311 -21.3169 -21.3145 -13.0485  -7.8425
    -7.2299  -6.0697  -3.2058  -2.8406  -2.7685  -2.2314  -2.2093  -1.0672
     1.4607   1.6476   3.3042   3.5155   4.6443   5.6623   7.7095   7.7961
     7.9601   8.7093

          k = 0.5970-0.0641 0.0000 ( 50756 PWs)   bands (ev):

   -69.7053 -69.7003 -36.6056 -36.5227 -36.4347 -36.3361 -36.0902 -36.0406
   -21.4150 -21.4130 -21.4022 -21.3893 -21.3873 -21.3825 -21.3810 -21.3760
   -21.3536 -21.3441 -21.3409 -21.3307 -21.3169 -21.3145 -13.0563  -7.8938
    -7.1681  -6.0871  -3.2996  -2.8361  -2.7989  -2.1903  -2.1773  -1.0485
     1.5066   1.7146   3.2845   3.5175   4.6578   5.5411   7.6472   7.7917
     8.0307   8.6824

          k = 0.5917-0.0732 0.0000 ( 50756 PWs)   bands (ev):

   -69.7058 -69.7003 -36.6140 -36.5302 -36.4225 -36.3243 -36.0937 -36.0380
   -21.4148 -21.4128 -21.4025 -21.3895 -21.3875 -21.3825 -21.3812 -21.3757
   -21.3535 -21.3442 -21.3409 -21.3303 -21.3170 -21.3145 -13.0651  -7.9456
    -7.1042  -6.1066  -3.4001  -2.8334  -2.8264  -2.1478  -2.1417  -1.0262
     1.5570   1.7844   3.2662   3.5195   4.6733   5.4095   7.5670   7.7953
     8.0952   8.6689

          k = 0.5864-0.0824 0.0000 ( 50744 PWs)   bands (ev):

   -69.7063 -69.7002 -36.6223 -36.5377 -36.4101 -36.3122 -36.0970 -36.0356
   -21.4146 -21.4126 -21.4029 -21.3897 -21.3877 -21.3826 -21.3813 -21.3754
   -21.3534 -21.3443 -21.3409 -21.3298 -21.3171 -21.3145 -13.0746  -7.9978
    -7.0383  -6.1277  -3.5048  -2.8531  -2.8317  -2.1043  -2.1024  -0.9999
     1.6102   1.8558   3.2494   3.5232   4.6902   5.2695   7.4765   7.8009
     8.1439   8.6770

          k = 0.5812-0.0915 0.0000 ( 50732 PWs)   bands (ev):

   -69.7068 -69.7002 -36.6305 -36.5452 -36.3974 -36.2999 -36.1002 -36.0334
   -21.4144 -21.4124 -21.4033 -21.3899 -21.3879 -21.3827 -21.3814 -21.3751
   -21.3533 -21.3444 -21.3410 -21.3293 -21.3172 -21.3145 -13.0847  -8.0502
    -6.9707  -6.1502  -3.6117  -2.8788  -2.8320  -2.0608  -2.0589  -0.9693
     1.6644   1.9274   3.2343   3.5299   4.7080   5.1230   7.3787   7.8067
     8.1690   8.7130

          k = 0.5759-0.1007 0.0000 ( 50734 PWs)   bands (ev):

   -69.7073 -69.7001 -36.6384 -36.5526 -36.3847 -36.2877 -36.1032 -36.0314
   -21.4141 -21.4121 -21.4037 -21.3902 -21.3881 -21.3829 -21.3814 -21.3747
   -21.3532 -21.3445 -21.3411 -21.3288 -21.3173 -21.3146 -13.0955  -8.1025
    -6.9014  -6.1737  -3.7194  -2.9045  -2.8335  -2.0155  -2.0137  -0.9340
     1.7183   1.9976   3.2215   3.5411   4.7260   4.9717   7.2755   7.8121
     8.1700   8.7751

          k = 0.5706-0.1098 0.0000 ( 50744 PWs)   bands (ev):

   -69.7078 -69.7002 -36.6462 -36.5598 -36.3720 -36.2756 -36.1060 -36.0296
   -21.4139 -21.4119 -21.4041 -21.3904 -21.3884 -21.3832 -21.3813 -21.3744
   -21.3531 -21.3445 -21.3411 -21.3283 -21.3174 -21.3146 -13.1067  -8.1547
    -6.8308  -6.1978  -3.8268  -2.9305  -2.8362  -1.9694  -1.9669  -0.8935
     1.7703   2.0649   3.2111   3.5580   4.7437   4.8174   7.1685   7.8166
     8.1531   8.8543

          k = 0.5653-0.1190 0.0000 ( 50722 PWs)   bands (ev):

   -69.7082 -69.7002 -36.6536 -36.5667 -36.3594 -36.2637 -36.1086 -36.0280
   -21.4137 -21.4117 -21.4045 -21.3906 -21.3886 -21.3834 -21.3812 -21.3741
   -21.3530 -21.3445 -21.3412 -21.3278 -21.3175 -21.3146 -13.1182  -8.2063
    -6.7589  -6.2223  -3.9329  -2.9568  -2.8400  -1.9242  -1.9176  -0.8471
     1.8194   2.1273   3.2036   3.5815   4.6611   4.7610   7.0589   7.8201
     8.1254   8.7622

          k = 0.5600-0.1281 0.0000 ( 50726 PWs)   bands (ev):

   -69.7087 -69.7002 -36.6607 -36.5734 -36.3470 -36.2522 -36.1110 -36.0265
   -21.4134 -21.4114 -21.4050 -21.3909 -21.3889 -21.3837 -21.3810 -21.3738
   -21.3529 -21.3445 -21.3413 -21.3272 -21.3176 -21.3146 -13.1299  -8.2571
    -6.6860  -6.2467  -4.0370  -2.9835  -2.8445  -1.8798  -1.8673  -0.7944
     1.8647   2.1831   3.1994   3.6122   4.5053   4.7769   6.9478   7.8224
     8.0920   8.6469

          k = 0.5547-0.1373 0.0000 ( 50730 PWs)   bands (ev):

   -69.7092 -69.7002 -36.6676 -36.5798 -36.3349 -36.2411 -36.1130 -36.0252
   -21.4132 -21.4112 -21.4054 -21.3912 -21.3891 -21.3840 -21.3808 -21.3734
   -21.3528 -21.3445 -21.3414 -21.3267 -21.3177 -21.3146 -13.1417  -8.3068
    -6.6124  -6.2709  -4.1387  -3.0105  -2.8497  -1.8363  -1.8171  -0.7349
     1.9056   2.2301   3.1986   3.6503   4.3515   4.7915   6.8361   7.8235
     8.0560   8.5351

          k = 0.5495-0.1464 0.0000 ( 50720 PWs)   bands (ev):

   -69.7096 -69.7003 -36.6740 -36.5859 -36.3231 -36.2307 -36.1147 -36.0241
   -21.4129 -21.4110 -21.4058 -21.3914 -21.3894 -21.3843 -21.3807 -21.3732
   -21.3527 -21.3444 -21.3415 -21.3262 -21.3178 -21.3147 -13.1535  -8.3551
    -6.5383  -6.2944  -4.2375  -3.0377  -2.8553  -1.7940  -1.7680  -0.6680
     1.9420   2.2661   3.2014   3.6956   4.2021   4.8046   6.7249   7.8234
     8.0192   8.4282

          k = 0.5442-0.1556 0.0000 ( 50718 PWs)   bands (ev):

   -69.7101 -69.7004 -36.6801 -36.5916 -36.3118 -36.2209 -36.1160 -36.0232
   -21.4127 -21.4107 -21.4063 -21.3917 -21.3896 -21.3845 -21.3805 -21.3729
   -21.3527 -21.3443 -21.3416 -21.3257 -21.3178 -21.3147 -13.1651  -8.4017
    -6.4640  -6.3172  -4.3331  -3.0649  -2.8612  -1.7533  -1.7206  -0.5935
     1.9740   2.2888   3.2072   3.7473   4.0600   4.8158   6.6151   7.8220
     7.9828   8.3270

          k = 0.5389-0.1647 0.0000 ( 50726 PWs)   bands (ev):

   -69.7105 -69.7004 -36.6858 -36.5970 -36.3009 -36.2119 -36.1169 -36.0224
   -21.4125 -21.4105 -21.4067 -21.3919 -21.3899 -21.3848 -21.3803 -21.3726
   -21.3526 -21.3442 -21.3417 -21.3252 -21.3179 -21.3147 -13.1764  -8.4463
    -6.3898  -6.3389  -4.4252  -3.0920  -2.8673  -1.7146  -1.6758  -0.5112
     2.0018   2.2962   3.2145   3.8044   3.9286   4.8253   6.5075   7.8195
     7.9477   8.2321

          k = 0.5336-0.1739 0.0000 ( 50746 PWs)   bands (ev):

   -69.7109 -69.7005 -36.6911 -36.6020 -36.2906 -36.2039 -36.1173 -36.0217
   -21.4122 -21.4103 -21.4071 -21.3921 -21.3901 -21.3850 -21.3801 -21.3724
   -21.3526 -21.3441 -21.3418 -21.3247 -21.3180 -21.3147 -13.1873  -8.4886
    -6.3594  -6.3159  -4.5137  -3.1186  -2.8733  -1.6780  -1.6341  -0.4211
     2.0261   2.2862   3.2207   3.8125   3.8658   4.8332   6.4032   7.8159
     7.9144   8.1440

          k = 0.5283-0.1830 0.0000 ( 50762 PWs)   bands (ev):

   -69.7112 -69.7005 -36.6959 -36.6066 -36.2809 -36.1968 -36.1171 -36.0212
   -21.4120 -21.4101 -21.4074 -21.3924 -21.3903 -21.3853 -21.3799 -21.3721
   -21.3525 -21.3440 -21.3419 -21.3243 -21.3181 -21.3147 -13.1977  -8.5283
    -6.3786  -6.2429  -4.5984  -3.1445  -2.8792  -1.6440  -1.5958  -0.3236
     2.0472   2.2574   3.2221   3.7176   3.9294   4.8397   6.3028   7.8112
     7.8832   8.0631

          k = 0.5230-0.1922 0.0000 ( 50764 PWs)   bands (ev):

   -69.7116 -69.7006 -36.7004 -36.6108 -36.2719 -36.1908 -36.1165 -36.0208
   -21.4118 -21.4099 -21.4078 -21.3926 -21.3905 -21.3855 -21.3797 -21.3719
   -21.3525 -21.3439 -21.3420 -21.3239 -21.3181 -21.3148 -13.2074  -8.5651
    -6.3962  -6.1711  -4.6792  -3.1694  -2.8848  -1.6126  -1.5612  -0.2190
     2.0658   2.2088   3.2144   3.6487   3.9939   4.8451   6.2074   7.8057
     7.8543   7.9895

          k = 0.5178-0.2013 0.0000 ( 50762 PWs)   bands (ev):

   -69.7119 -69.7007 -36.7044 -36.6146 -36.2637 -36.1859 -36.1153 -36.0205
   -21.4116 -21.4098 -21.4081 -21.3928 -21.3907 -21.3857 -21.3796 -21.3717
   -21.3525 -21.3438 -21.3420 -21.3235 -21.3182 -21.3148 -13.2165  -8.5988
    -6.4122  -6.1010  -4.7559  -3.1930  -2.8901  -1.5841  -1.5304  -0.1081
     2.0821   2.1406   3.1959   3.6077   4.0572   4.8500   6.1176   7.7991
     7.8281   7.9238

          k = 0.5125-0.2105 0.0000 ( 50766 PWs)   bands (ev):

   -69.7121 -69.7007 -36.7079 -36.6180 -36.2562 -36.1819 -36.1138 -36.0203
   -21.4115 -21.4097 -21.4083 -21.3930 -21.3909 -21.3859 -21.3794 -21.3716
   -21.3525 -21.3437 -21.3421 -21.3231 -21.3182 -21.3148 -13.2247  -8.6291
    -6.4265  -6.0331  -4.8284  -3.2149  -2.8949  -1.5587  -1.5035   0.0082
     2.0543   2.0967   3.1697   3.5904   4.1175   4.8549   6.0344   7.7909
     7.8047   7.8671

          k = 0.5072-0.2196 0.0000 ( 50776 PWs)   bands (ev):

   -69.7124 -69.7008 -36.7110 -36.6209 -36.2497 -36.1789 -36.1120 -36.0202
   -21.4113 -21.4096 -21.4085 -21.3931 -21.3910 -21.3860 -21.3793 -21.3714
   -21.3525 -21.3436 -21.3422 -21.3228 -21.3183 -21.3148 -13.2319  -8.6558
    -6.4391  -5.9681  -4.8962  -3.2348  -2.8993  -1.5365  -1.4803   0.1288
     1.9533   2.1095   3.1414   3.5889   4.1729   4.8606   5.9586   7.7776
     7.7840   7.8232

          k = 0.5019-0.2288 0.0000 ( 50764 PWs)   bands (ev):

   -69.7126 -69.7008 -36.7137 -36.6234 -36.2440 -36.1766 -36.1102 -36.0202
   -21.4112 -21.4096 -21.4086 -21.3932 -21.3912 -21.3861 -21.3792 -21.3713
   -21.3525 -21.3435 -21.3422 -21.3226 -21.3183 -21.3148 -13.2382  -8.6787
    -6.4498  -5.9071  -4.9588  -3.2524  -2.9031  -1.5176  -1.4608   0.2519
     1.8414   2.1206   3.1154   3.5959   4.2216   4.8673   5.8912   7.7518
     7.7665   7.7995

          k = 0.4966-0.2379 0.0000 ( 50772 PWs)   bands (ev):

   -69.7127 -69.7009 -36.7158 -36.6254 -36.2393 -36.1750 -36.1084 -36.0201
   -21.4110 -21.4096 -21.4087 -21.3934 -21.3913 -21.3863 -21.3791 -21.3712
   -21.3525 -21.3435 -21.3423 -21.3224 -21.3183 -21.3148 -13.2435  -8.6977
    -6.4586  -5.8515  -5.0152  -3.2673  -2.9063  -1.5021  -1.4450   0.3751
     1.7236   2.1300   3.0939   3.6062   4.2624   4.8751   5.8331   7.7209
     7.7521   7.7894

          k = 0.4913-0.2471 0.0000 ( 50764 PWs)   bands (ev):

   -69.7129 -69.7009 -36.7175 -36.6271 -36.2356 -36.1739 -36.1069 -36.0201
   -21.4109 -21.4097 -21.4087 -21.3935 -21.3913 -21.3863 -21.3790 -21.3711
   -21.3525 -21.3434 -21.3423 -21.3222 -21.3183 -21.3148 -13.2476  -8.7126
    -6.4655  -5.8031  -5.0638  -3.2792  -2.9088  -1.4900  -1.4327   0.4943
     1.6063   2.1376   3.0774   3.6166   4.2943   4.8834   5.7857   7.6945
     7.7408   7.7835

          k = 0.4861-0.2562 0.0000 ( 50782 PWs)   bands (ev):

   -69.7130 -69.7009 -36.7187 -36.6282 -36.2329 -36.1731 -36.1057 -36.0202
   -21.4109 -21.4098 -21.4087 -21.3935 -21.3914 -21.3864 -21.3790 -21.3711
   -21.3525 -21.3433 -21.3423 -21.3221 -21.3184 -21.3148 -13.2506  -8.7234
    -6.4704  -5.7647  -5.1021  -3.2879  -2.9106  -1.4813  -1.4240   0.6018
     1.4990   2.1431   3.0660   3.6251   4.3170   4.8911   5.7503   7.6749
     7.7326   7.7797

          k = 0.4808-0.2654 0.0000 ( 50792 PWs)   bands (ev):

   -69.7130 -69.7009 -36.7194 -36.6289 -36.2313 -36.1727 -36.1049 -36.0202
   -21.4108 -21.4098 -21.4087 -21.3936 -21.3914 -21.3864 -21.3789 -21.3710
   -21.3525 -21.3433 -21.3423 -21.3220 -21.3184 -21.3148 -13.2524  -8.7298
    -6.4734  -5.7396  -5.1271  -3.2932  -2.9117  -1.4761  -1.4188   0.6828
     1.4176   2.1465   3.0592   3.6307   4.3304   4.8966   5.7284   7.6631
     7.7278   7.7774

          k = 0.4755-0.2745 0.0000 ( 50780 PWs)   bands (ev):

   -69.7130 -69.7010 -36.7197 -36.6291 -36.2308 -36.1726 -36.1047 -36.0202
   -21.4108 -21.4098 -21.4087 -21.3936 -21.3915 -21.3864 -21.3789 -21.3710
   -21.3525 -21.3433 -21.3424 -21.3220 -21.3184 -21.3148 -13.2530  -8.7320
    -6.4744  -5.7308  -5.1358  -3.2949  -2.9120  -1.4744  -1.4171   0.7145
     1.3857   2.1477   3.0570   3.6326   4.3349   4.8986   5.7209   7.6591
     7.7261   7.7767

          k = 0.4596-0.2654 0.0000 ( 50788 PWs)   bands (ev):

   -69.7132 -69.7010 -36.7181 -36.6277 -36.2303 -36.1734 -36.1043 -36.0197
   -21.4107 -21.4098 -21.4086 -21.3937 -21.3915 -21.3865 -21.3790 -21.3711
   -21.3525 -21.3433 -21.3423 -21.3220 -21.3185 -21.3148 -13.2563  -8.7274
    -6.4754  -5.7295  -5.1311  -3.3094  -2.9171  -1.4878  -1.4168   0.7113
     1.3770   2.1365   3.0327   3.6326   4.3484   4.9176   5.7275   7.5848
     7.6465   7.9285

          k = 0.4438-0.2562 0.0000 ( 50752 PWs)   bands (ev):

   -69.7137 -69.7011 -36.7133 -36.6235 -36.2290 -36.1759 -36.1034 -36.0183
   -21.4104 -21.4098 -21.4083 -21.3939 -21.3918 -21.3865 -21.3791 -21.3712
   -21.3523 -21.3432 -21.3421 -21.3220 -21.3188 -21.3149 -13.2661  -8.7137
    -6.4788  -5.7256  -5.1171  -3.3513  -2.9332  -1.5216  -1.4214   0.7029
     1.3499   2.1055   2.9622   3.6332   4.3860   4.9715   5.7479   7.4485
     7.5878   8.1188

          k = 0.4279-0.2471 0.0000 ( 50770 PWs)   bands (ev):

   -69.7146 -69.7014 -36.7054 -36.6164 -36.2267 -36.1798 -36.1018 -36.0161
   -21.4099 -21.4098 -21.4078 -21.3943 -21.3923 -21.3865 -21.3793 -21.3715
   -21.3521 -21.3430 -21.3419 -21.3220 -21.3192 -21.3149 -13.2824  -8.6909
    -6.4850  -5.7193  -5.0937  -3.4168  -2.9626  -1.5685  -1.4366   0.6922
     1.3018   2.0613   2.8517   3.6357   4.4388   5.0529   5.7846   7.3237
     7.5083   8.3174

          k = 0.4121-0.2379 0.0000 ( 50770 PWs)   bands (ev):

   -69.7157 -69.7017 -36.6945 -36.6067 -36.2235 -36.1850 -36.0996 -36.0134
   -21.4098 -21.4093 -21.4071 -21.3949 -21.3929 -21.3866 -21.3796 -21.3719
   -21.3518 -21.3428 -21.3415 -21.3220 -21.3198 -21.3150 -13.3052  -8.6590
    -6.4954  -5.7107  -5.0610  -3.5014  -3.0071  -1.6243  -1.4634   0.6831
     1.2295   2.0124   2.7090   3.6419   4.4946   5.1526   5.8408   7.2000
     7.4271   8.5115

          k = 0.3962-0.2288 0.0000 ( 50786 PWs)   bands (ev):

   -69.7171 -69.7022 -36.6807 -36.5945 -36.2195 -36.1911 -36.0968 -36.0101
   -21.4097 -21.4085 -21.4063 -21.3957 -21.3937 -21.3867 -21.3800 -21.3724
   -21.3514 -21.3425 -21.3410 -21.3220 -21.3205 -21.3151 -13.3344  -8.6183
    -6.5113  -5.7000  -5.0192  -3.6005  -3.0669  -1.6858  -1.5010   0.6788
     1.1319   1.9651   2.5426   3.6539   4.5407   5.2620   5.9192   7.0639
     7.3621   8.5286

          k = 0.3804-0.2196 0.0000 ( 50798 PWs)   bands (ev):

   -69.7188 -69.7028 -36.6642 -36.5799 -36.2147 -36.1979 -36.0935 -36.0067
   -21.4098 -21.4075 -21.4053 -21.3966 -21.3946 -21.3867 -21.3804 -21.3730
   -21.3509 -21.3422 -21.3405 -21.3220 -21.3213 -21.3154 -13.3700  -8.5688
    -6.5347  -5.6877  -4.9685  -3.7100  -3.1407  -1.7508  -1.5469   0.6812
     1.0107   1.9202   2.3625   3.6730   4.5676   5.3736   6.0173   6.9135
     7.3173   8.2530

          k = 0.3645-0.2105 0.0000 ( 50770 PWs)   bands (ev):

   -69.7207 -69.7035 -36.6452 -36.5630 -36.2091 -36.2049 -36.0897 -36.0031
   -21.4098 -21.4063 -21.4041 -21.3976 -21.3956 -21.3868 -21.3809 -21.3737
   -21.3503 -21.3418 -21.3398 -21.3223 -21.3220 -21.3157 -13.4119  -8.5110
    -6.5675  -5.6741  -4.9096  -3.8253  -3.2259  -1.8181  -1.5972   0.6908
     0.8706   1.8676   2.1849   3.7003   4.5715   5.4815   6.1200   6.7626
     7.2829   7.9905

          k = 0.3487-0.2013 0.0000 ( 50750 PWs)   bands (ev):

   -69.7227 -69.7043 -36.6242 -36.5442 -36.2118 -36.2028 -36.0854 -35.9995
   -21.4100 -21.4051 -21.4028 -21.3987 -21.3967 -21.3869 -21.3815 -21.3744
   -21.3497 -21.3415 -21.3391 -21.3232 -21.3220 -21.3160 -13.4598  -8.4451
    -6.6119  -5.6596  -4.8435  -3.9414  -3.3192  -1.8883  -1.6466   0.7070
     0.7171   1.7749   2.0462   3.7358   4.5534   5.5811   6.1824   6.6490
     7.2419   7.7445

          k = 0.3328-0.1922 0.0000 ( 50772 PWs)   bands (ev):

   -69.7249 -69.7053 -36.6015 -36.5237 -36.2183 -36.1958 -36.0807 -35.9961
   -21.4102 -21.4037 -21.4013 -21.3999 -21.3978 -21.3870 -21.3822 -21.3751
   -21.3490 -21.3410 -21.3383 -21.3243 -21.3220 -21.3164 -13.5134  -8.3719
    -6.6697  -5.6448  -4.7730  -4.0519  -3.4171  -1.9629  -1.6891   0.5557
     0.7287   1.6147   1.9761   3.7792   4.5177   5.6689   6.1300   6.6309
     7.1727   7.5202

          k = 0.3170-0.1830 0.0000 ( 50758 PWs)   bands (ev):

   -69.7273 -69.7064 -36.5776 -36.5017 -36.2238 -36.1882 -36.0756 -35.9928
   -21.4106 -21.4022 -21.4012 -21.3997 -21.3989 -21.3870 -21.3828 -21.3759
   -21.3482 -21.3406 -21.3375 -21.3254 -21.3220 -21.3169 -13.5725  -8.2924
    -6.7417  -5.6303  -4.7038  -4.1474  -3.5168  -2.0432  -1.7194   0.3906
     0.7541   1.4183   1.9456   3.8292   4.4690   5.7424   5.9784   6.6642
     7.0571   7.3258

          k = 0.3011-0.1739 0.0000 ( 50774 PWs)   bands (ev):

   -69.7298 -69.7076 -36.5533 -36.4784 -36.2278 -36.1802 -36.0703 -35.9898
   -21.4113 -21.4027 -21.4006 -21.3998 -21.3981 -21.3871 -21.3835 -21.3767
   -21.3474 -21.3401 -21.3366 -21.3265 -21.3220 -21.3174 -13.6364  -8.2081
    -6.8275  -5.6165  -4.6492  -4.2122  -3.6158  -2.1286  -1.7344   0.2252
     0.7819   1.2134   1.9289   3.8835   4.4125   5.7881   5.8000   6.6528
     6.8981   7.1648

          k = 0.2853-0.1647 0.0000 ( 50766 PWs)   bands (ev):

   -69.7323 -69.7089 -36.5297 -36.4539 -36.2296 -36.1717 -36.0647 -35.9871
   -21.4122 -21.4043 -21.4004 -21.3990 -21.3963 -21.3872 -21.3841 -21.3776
   -21.3465 -21.3397 -21.3356 -21.3276 -21.3220 -21.3180 -13.7048  -8.1219
    -6.9245  -5.6041  -4.6314  -4.2229  -3.7117  -2.2172  -1.7328   0.0617
     0.8106   1.0116   1.9167   3.9378   4.3538   5.5833   5.8411   6.5600
     6.7176   7.0243

          k = 0.2694-0.1556 0.0000 ( 50786 PWs)   bands (ev):

   -69.7349 -69.7103 -36.5079 -36.4281 -36.2285 -36.1628 -36.0590 -35.9847
   -21.4133 -21.4059 -21.4009 -21.3975 -21.3945 -21.3872 -21.3846 -21.3784
   -21.3456 -21.3392 -21.3347 -21.3287 -21.3221 -21.3186 -13.7769  -8.0386
    -7.0264  -5.5937  -4.6571  -4.1752  -3.8014  -2.3065  -1.7142  -0.0985
     0.8189   0.8391   1.9052   3.9821   4.3031   5.3721   5.8658   6.4090
     6.5315   6.8816

          k = 0.2536-0.1464 0.0000 ( 50796 PWs)   bands (ev):

   -69.7375 -69.7118 -36.4894 -36.4010 -36.2238 -36.1537 -36.0532 -35.9826
   -21.4146 -21.4076 -21.4012 -21.3961 -21.3927 -21.3872 -21.3850 -21.3792
   -21.3447 -21.3387 -21.3339 -21.3296 -21.3221 -21.3193 -13.8520  -7.9678
    -7.1219  -5.5856  -4.7061  -4.1012  -3.8731  -2.3938  -1.6787  -0.2550
     0.6401   0.8667   1.8918   3.9957   4.2802   5.1581   5.8750   6.2322
     6.3471   6.7296

          k = 0.2377-0.1373 0.0000 ( 50804 PWs)   bands (ev):

   -69.7402 -69.7132 -36.4749 -36.3724 -36.2151 -36.1444 -36.0474 -35.9808
   -21.4161 -21.4094 -21.4013 -21.3950 -21.3909 -21.3873 -21.3850 -21.3800
   -21.3437 -21.3382 -21.3333 -21.3303 -21.3221 -21.3200 -13.9292  -7.9268
    -7.1908  -5.5804  -4.7608  -4.0750  -3.8723  -2.4765  -1.6269  -0.4076
     0.4788   0.8929   1.8750   3.9608   4.3010   4.9436   5.8700   6.0458
     6.1689   6.5725

          k = 0.2219-0.1281 0.0000 ( 50828 PWs)   bands (ev):

   -69.7428 -69.7148 -36.4650 -36.3426 -36.2025 -36.1350 -36.0416 -35.9793
   -21.4176 -21.4111 -21.4012 -21.3943 -21.3891 -21.3873 -21.3846 -21.3808
   -21.3428 -21.3377 -21.3333 -21.3303 -21.3221 -21.3207 -14.0077  -7.9371
    -7.2087  -5.5783  -4.8141  -4.1307  -3.7759  -2.5518  -1.5593  -0.5565
     0.3381   0.9174   1.8534   3.8881   4.3510   4.7308   5.8530   5.8568
     6.0000   6.4151

          k = 0.2060-0.1190 0.0000 ( 50852 PWs)   bands (ev):

   -69.7453 -69.7163 -36.4593 -36.3121 -36.1865 -36.1257 -36.0360 -35.9781
   -21.4193 -21.4129 -21.4012 -21.3941 -21.3873 -21.3873 -21.3838 -21.3816
   -21.3419 -21.3373 -21.3340 -21.3297 -21.3221 -21.3213 -14.0865  -8.0043
    -7.1673  -5.5795  -4.8635  -4.2086  -3.6506  -2.6163  -1.4766  -0.7018
     0.2203   0.9403   1.8259   3.7929   4.4023   4.5292   5.6703   5.8262
     5.8417   6.2593

          k = 0.1902-0.1098 0.0000 ( 50874 PWs)   bands (ev):

   -69.7478 -69.7178 -36.4569 -36.2814 -36.1678 -36.1165 -36.0306 -35.9773
   -21.4209 -21.4146 -21.4010 -21.3943 -21.3873 -21.3855 -21.3828 -21.3820
   -21.3409 -21.3368 -21.3349 -21.3288 -21.3221 -21.3220 -14.1646  -8.1112
    -7.0812  -5.5839  -4.9083  -4.2906  -3.5228  -2.6645  -1.3798  -0.8431
     0.1263   0.9618   1.7918   3.6811   4.2941   4.4885   5.4928   5.6949
     5.7921   6.1062

          k = 0.1743-0.1007 0.0000 ( 50914 PWs)   bands (ev):

   -69.7502 -69.7192 -36.4571 -36.2509 -36.1475 -36.1074 -36.0254 -35.9766
   -21.4225 -21.4162 -21.4008 -21.3948 -21.3873 -21.3838 -21.3832 -21.3809
   -21.3401 -21.3364 -21.3357 -21.3279 -21.3227 -21.3221 -14.2411  -8.2374
    -6.9685  -5.5913  -4.9488  -4.3730  -3.4072  -2.6875  -1.2699  -0.9794
     0.0563   0.9821   1.7504   3.5528   4.0958   4.5305   5.3347   5.5599
     5.7532   5.9598

          k = 0.1585-0.0915 0.0000 ( 50908 PWs)   bands (ev):

   -69.7524 -69.7206 -36.4590 -36.2213 -36.1264 -36.0987 -36.0205 -35.9763
   -21.4241 -21.4178 -21.4007 -21.3953 -21.3873 -21.3838 -21.3821 -21.3794
   -21.3394 -21.3365 -21.3359 -21.3270 -21.3233 -21.3221 -14.3149  -8.3698
    -6.8408  -5.6014  -4.9852  -4.4548  -3.3197  -2.6730  -1.1482  -1.1093
     0.0092   1.0017   1.7014   3.4061   3.9019   4.5490   5.2113   5.4373
     5.7118   5.8243

          k = 0.1426-0.0824 0.0000 ( 50906 PWs)   bands (ev):

   -69.7545 -69.7220 -36.4619 -36.1929 -36.1054 -36.0904 -36.0160 -35.9762
   -21.4256 -21.4193 -21.4005 -21.3960 -21.3873 -21.3844 -21.3805 -21.3779
   -21.3390 -21.3368 -21.3355 -21.3262 -21.3239 -21.3220 -14.3850  -8.5008
    -6.7047  -5.6136  -5.0177  -4.5360  -3.2720  -2.6121  -1.2315  -1.0157
    -0.0167   1.0210   1.6451   3.2390   3.7191   4.5257   5.1375   5.3291
     5.6701   5.7016

          k = 0.1268-0.0732 0.0000 ( 50921 PWs)   bands (ev):

   -69.7565 -69.7232 -36.4655 -36.1662 -36.0851 -36.0826 -36.0120 -35.9764
   -21.4270 -21.4206 -21.4003 -21.3966 -21.3873 -21.3850 -21.3790 -21.3765
   -21.3392 -21.3366 -21.3352 -21.3254 -21.3243 -21.3220 -14.4505  -8.6254
    -6.5645  -5.6274  -5.0466  -4.6165  -3.2606  -2.5116  -1.3445  -0.8737
    -0.0234   1.0404   1.5819   3.0512   3.5503   4.4608   5.1066   5.2422
     5.5920   5.6298

          k = 0.1109-0.0641 0.0000 ( 50917 PWs)   bands (ev):

   -69.7582 -69.7243 -36.4693 -36.1414 -36.0754 -36.0660 -36.0083 -35.9769
   -21.4283 -21.4219 -21.4001 -21.3972 -21.3873 -21.3855 -21.3776 -21.3752
   -21.3397 -21.3361 -21.3349 -21.3252 -21.3243 -21.3220 -14.5106  -8.7404
    -6.4232  -5.6419  -5.0720  -4.6963  -3.2719  -2.3886  -1.4468  -0.7234
    -0.0135   1.0599   1.5130   2.8460   3.3965   4.3734   5.0744   5.2008
     5.4958   5.5559

          k = 0.0951-0.0549 0.0000 ( 50891 PWs)   bands (ev):

   -69.7598 -69.7253 -36.4730 -36.1190 -36.0689 -36.0487 -36.0052 -35.9776
   -21.4294 -21.4230 -21.3999 -21.3978 -21.3873 -21.3859 -21.3764 -21.3739
   -21.3402 -21.3355 -21.3346 -21.3256 -21.3238 -21.3220 -14.5645  -8.8437
    -6.2835  -5.6564  -5.0939  -4.7757  -3.2939  -2.2588  -1.5375  -0.5663
     0.0101   1.0793   1.4400   2.6293   3.2578   4.2826   5.0162   5.2064
     5.4132   5.4831

          k = 0.0792-0.0458 0.0000 ( 50897 PWs)   bands (ev):

   -69.7612 -69.7262 -36.4764 -36.0991 -36.0632 -36.0334 -36.0026 -35.9785
   -21.4304 -21.4239 -21.3998 -21.3983 -21.3873 -21.3863 -21.3753 -21.3729
   -21.3407 -21.3350 -21.3343 -21.3259 -21.3232 -21.3219 -14.6113  -8.9334
    -6.1480  -5.6702  -5.1125  -4.8546  -3.3195  -2.1335  -1.6156  -0.4046
     0.0440   1.0980   1.3655   2.4085   3.1347   4.1989   4.9554   5.2167
     5.3444   5.4357

          k = 0.0634-0.0366 0.0000 ( 50913 PWs)   bands (ev):

   -69.7623 -69.7270 -36.4794 -36.0822 -36.0584 -36.0205 -36.0004 -35.9797
   -21.4312 -21.4247 -21.3997 -21.3987 -21.3873 -21.3867 -21.3744 -21.3720
   -21.3411 -21.3346 -21.3341 -21.3263 -21.3227 -21.3219 -14.6505  -9.0084
    -6.0197  -5.6825  -5.1277  -4.9323  -3.3444  -2.0207  -1.6804  -0.2417
     0.0843   1.1142   1.2926   2.1929   3.0285   4.1273   4.9022   5.2083
     5.2894   5.4208

          k = 0.0475-0.0275 0.0000 ( 50883 PWs)   bands (ev):

   -69.7632 -69.7276 -36.4818 -36.0684 -36.0545 -36.0102 -35.9988 -35.9810
   -21.4319 -21.4253 -21.3996 -21.3990 -21.3873 -21.3869 -21.3737 -21.3713
   -21.3415 -21.3342 -21.3339 -21.3265 -21.3224 -21.3219 -14.6816  -9.0676
    -5.9028  -5.6928  -5.1396  -5.0071  -3.3661  -1.9266  -1.7314  -0.0840
     0.1260   1.1256   1.2260   1.9940   2.9417   4.0702   4.8596   5.1846
     5.2472   5.4297

          k = 0.0317-0.0183 0.0000 ( 50859 PWs)   bands (ev):

   -69.7638 -69.7280 -36.4836 -36.0581 -36.0517 -36.0027 -35.9976 -35.9823
   -21.4324 -21.4258 -21.3995 -21.3993 -21.3872 -21.3871 -21.3732 -21.3708
   -21.3417 -21.3339 -21.3338 -21.3267 -21.3221 -21.3219 -14.7041  -9.1104
    -5.8037  -5.7006  -5.1480  -5.0745  -3.3827  -1.8560  -1.7680   0.0566
     0.1632   1.1292   1.1711   1.8283   2.8767   4.0289   4.8286   5.1603
     5.2169   5.4457

          k = 0.0158-0.0092 0.0000 ( 50847 PWs)   bands (ev):

   -69.7642 -69.7282 -36.4847 -36.0516 -36.0500 -35.9982 -35.9969 -35.9832
   -21.4327 -21.4260 -21.3995 -21.3994 -21.3872 -21.3872 -21.3729 -21.3705
   -21.3418 -21.3338 -21.3337 -21.3268 -21.3219 -21.3219 -14.7177  -9.1363
    -5.7334  -5.7054  -5.1531  -5.1251  -3.3932  -1.8123  -1.7901   0.1598
     0.1894   1.1251   1.1344   1.7163   2.8364   4.0038   4.8098   5.1438
     5.1986   5.4584

          k = 0.0000 0.0000 0.0000 ( 50893 PWs)   bands (ev):

   -69.7643 -69.7283 -36.4851 -36.0494 -36.0494 -35.9967 -35.9967 -35.9836
   -21.4328 -21.4261 -21.3995 -21.3995 -21.3872 -21.3872 -21.3728 -21.3704
   -21.3419 -21.3337 -21.3337 -21.3269 -21.3219 -21.3219 -14.7223  -9.1449
    -5.7070  -5.7070  -5.1548  -5.1448  -3.3968  -1.7975  -1.7975   0.1989
     0.1989   1.1214   1.1214   1.6767   2.8228   3.9954   4.8035   5.1380
     5.1925   5.4630

     Writing output data file /scratch/as3359/Ta2CH2k_bandsdos/Ta.save/
 
     init_run     :      8.40s CPU      6.10s WALL (       1 calls)
     electrons    :   1374.75s CPU    695.65s WALL (       1 calls)

     Called by init_run:
     wfcinit      :      0.00s CPU      0.00s WALL (       1 calls)
     potinit      :      0.57s CPU      0.35s WALL (       1 calls)
     hinit0       :      5.02s CPU      3.81s WALL (       1 calls)

     Called by electrons:
     c_bands      :   1374.75s CPU    695.65s WALL (       1 calls)
     v_of_rho     :      0.44s CPU      0.25s WALL (       1 calls)
     newd         :      2.41s CPU      1.52s WALL (       1 calls)

     Called by c_bands:
     init_us_2    :      1.15s CPU      0.58s WALL (      91 calls)
     cegterg      :   1323.68s CPU    669.05s WALL (     324 calls)

     Called by *egterg:
     cdiaghg      :     18.98s CPU      9.69s WALL (    5695 calls)
     h_psi        :   1016.14s CPU    514.22s WALL (    6019 calls)
     s_psi        :     51.43s CPU     25.73s WALL (    6019 calls)
     g_psi        :      8.29s CPU      4.16s WALL (    5604 calls)

     Called by h_psi:
     h_psi:calbec :     38.67s CPU     19.37s WALL (    6019 calls)
     vloc_psi     :    916.42s CPU    463.80s WALL (    6019 calls)
     add_vuspsi   :     54.30s CPU     27.17s WALL (    6019 calls)

     General routines
     calbec       :     38.61s CPU     19.35s WALL (    6019 calls)
     fft          :      0.24s CPU      0.13s WALL (      13 calls)
     ffts         :      0.02s CPU      0.01s WALL (       1 calls)
     fftw         :    797.62s CPU    404.02s WALL (  203002 calls)
     interpolate  :      0.04s CPU      0.03s WALL (       1 calls)
     davcio       :      0.96s CPU      1.01s WALL (     182 calls)
 
     Parallel routines
 
     PWSCF        :  23m12.14s CPU  11m50.01s WALL

 
   This run was terminated on:   9:23:41  22Apr2022            

=------------------------------------------------------------------------------=
   JOB DONE.
=------------------------------------------------------------------------------=
