
     Program PWSCF v.6.8 starts on 22Mar2022 at 23:44:24 

     This program is part of the open-source Quantum ESPRESSO suite
     for quantum simulation of materials; please cite
         "P. Giannozzi et al., J. Phys.:Condens. Matter 21 395502 (2009);
         "P. Giannozzi et al., J. Phys.:Condens. Matter 29 465901 (2017);
         "P. Giannozzi et al., J. Chem. Phys. 152 154105 (2020);
          URL http://www.quantum-espresso.org", 
     in publications or presentations arising from this work. More details at
     http://www.quantum-espresso.org/quote

     Parallel version (MPI & OpenMP), running on       4 processor cores
     Number of MPI processes:                 2
     Threads/MPI process:                     2

     MPI processes distributed on     1 nodes
     R & G space division:  proc/nbgrp/npool/nimage =       2
     125163 MiB available memory on the printing compute node when the environment starts
 
     Reading input from Ta2CO.vcrelax.in

     Current dimensions of program PWSCF are:
     Max number of different atomic species (ntypx) = 10
     Max number of k-points (npk) =  40000
     Max angular momentum in pseudopotentials (lmaxx) =  4
     file Ta.pbesol-spfn-rrkjus_psl.1.0.0.UPF: wavefunction(s)  5S 5P renormalized

     Subspace diagonalization in iterative solution of the eigenvalue problem:
     a serial algorithm will be used

 
     Parallelization info
     --------------------
     sticks:   dense  smooth     PW     G-vecs:    dense   smooth      PW
     Min         777     312     99               242162    61128   11163
     Max         778     313    100               242163    61139   11190
     Sum        1555     625    199               484325   122267   22353
 
     Using Slab Decomposition
 


     bravais-lattice index     =            0
     lattice parameter (alat)  =       5.5500  a.u.
     unit-cell volume          =    1549.0441 (a.u.)^3
     number of atoms/cell      =            4
     number of atomic types    =            3
     number of electrons       =        64.00
     number of Kohn-Sham states=           38
     kinetic-energy cutoff     =      70.0000  Ry
     charge density cutoff     =     700.0000  Ry
     scf convergence threshold =      1.0E-12
     mixing beta               =       0.7000
     number of iterations used =            8  plain     mixing
     energy convergence thresh.=      1.0E-04
     force convergence thresh. =      1.0E-03
     press convergence thresh. =      5.0E-01
     Exchange-correlation= PBESOL
                           (   1   4  10   8   0   0   0)
     nstep                     =           50


     celldm(1)=   5.550000  celldm(2)=   0.000000  celldm(3)=   0.000000
     celldm(4)=   0.000000  celldm(5)=   0.000000  celldm(6)=   0.000000

     crystal axes: (cart. coord. in units of alat)
               a(1) = (   1.023061   0.000071   0.000000 )  
               a(2) = (  -0.511470   0.885658   0.000000 )  
               a(3) = (   0.000000   0.000000  10.000000 )  

     reciprocal axes: (cart. coord. in units 2 pi/alat)
               b(1) = (  0.977420  0.564462  0.000000 )  
               b(2) = ( -0.000078  1.129060  0.000000 )  
               b(3) = (  0.000000  0.000000  0.100000 )  


     PseudoPot. # 1 for Ta read from file:
     /shared/home/as3359/pseudo/Ta.pbesol-spfn-rrkjus_psl.1.0.0.UPF
     MD5 check sum: f099565ffaca9b150a52e9412a28e20b
     Pseudo is Ultrasoft + core correction, Zval = 27.0
     Generated using &quot;atomic&quot; code by A. Dal Corso  v.6.3
     Using radial grid of 1273 points,  8 beta functions with: 
                l(1) =   0
                l(2) =   0
                l(3) =   1
                l(4) =   1
                l(5) =   2
                l(6) =   2
                l(7) =   3
                l(8) =   3
     Q(r) pseudized with 0 coefficients 


     PseudoPot. # 2 for C  read from file:
     /shared/home/as3359/pseudo/C.pbesol-n-rrkjus_psl.1.0.0.UPF
     MD5 check sum: 05995be603a8a7c99da3dc4413f31573
     Pseudo is Ultrasoft + core correction, Zval =  4.0
     Generated using &quot;atomic&quot; code by A. Dal Corso  v.6.3MaX
     Using radial grid of 1073 points,  4 beta functions with: 
                l(1) =   0
                l(2) =   0
                l(3) =   1
                l(4) =   1
     Q(r) pseudized with 0 coefficients 


     PseudoPot. # 3 for O  read from file:
     /shared/home/as3359/pseudo/O.pbesol-n-rrkjus_psl.1.0.0.UPF
     MD5 check sum: dd9bad2534826f832ffc9296591fc5de
     Pseudo is Ultrasoft + core correction, Zval =  6.0
     Generated using &quot;atomic&quot; code by A. Dal Corso  v.6.3MaX
     Using radial grid of 1095 points,  4 beta functions with: 
                l(1) =   0
                l(2) =   0
                l(3) =   1
                l(4) =   1
     Q(r) pseudized with 0 coefficients 


     atomic species   valence    mass     pseudopotential
        Ta            27.00   180.94788     Ta( 1.00)
        C              4.00    12.01070     C ( 1.00)
        O              6.00    15.99940     O ( 1.00)

     No symmetry found



   Cartesian axes

     site n.     atom                  positions (alat units)
         1           C   tau(   1) = (   0.0000000   0.0000000   0.0000000  )
         2           Ta  tau(   2) = (   0.3772709   0.2651957  -0.5000000  )
         3           Ta  tau(   3) = (  -0.3080629   0.5337799   0.5000000  )
         4           O   tau(   4) = (   0.1110709   0.2669083   1.0000000  )

     number of k points=    74  Marzari-Vanderbilt smearing, width (Ry)=  0.0010
                       cart. coord. in units 2pi/alat
        k(    1) = (   0.0000000   0.0000000   0.0000000), wk =   0.0138889
        k(    2) = (  -0.0000065   0.0940883   0.0000000), wk =   0.0277778
        k(    3) = (  -0.0000130   0.1881766   0.0000000), wk =   0.0277778
        k(    4) = (  -0.0000195   0.2822649   0.0000000), wk =   0.0277778
        k(    5) = (  -0.0000260   0.3763532   0.0000000), wk =   0.0277778
        k(    6) = (  -0.0000325   0.4704415   0.0000000), wk =   0.0277778
        k(    7) = (   0.0000390  -0.5645298   0.0000000), wk =   0.0138889
        k(    8) = (   0.0814516   0.0470385   0.0000000), wk =   0.0277778
        k(    9) = (   0.0814451   0.1411268   0.0000000), wk =   0.0277778
        k(   10) = (   0.0814386   0.2352151   0.0000000), wk =   0.0277778
        k(   11) = (   0.0814322   0.3293034   0.0000000), wk =   0.0277778
        k(   12) = (   0.0814257   0.4233917   0.0000000), wk =   0.0277778
        k(   13) = (   0.0814192   0.5174800   0.0000000), wk =   0.0277778
        k(   14) = (   0.0814906  -0.5174912   0.0000000), wk =   0.0277778
        k(   15) = (   0.0814841  -0.4234030   0.0000000), wk =   0.0277778
        k(   16) = (   0.0814776  -0.3293147   0.0000000), wk =   0.0277778
        k(   17) = (   0.0814711  -0.2352264   0.0000000), wk =   0.0277778
        k(   18) = (   0.0814646  -0.1411381   0.0000000), wk =   0.0277778
        k(   19) = (   0.0814581  -0.0470498   0.0000000), wk =   0.0277778
        k(   20) = (   0.1629033   0.0940771   0.0000000), wk =   0.0277778
        k(   21) = (   0.1628968   0.1881653   0.0000000), wk =   0.0277778
        k(   22) = (   0.1628903   0.2822536   0.0000000), wk =   0.0277778
        k(   23) = (   0.1628838   0.3763419   0.0000000), wk =   0.0277778
        k(   24) = (   0.1628773   0.4704302   0.0000000), wk =   0.0277778
        k(   25) = (   0.1628708   0.5645185   0.0000000), wk =   0.0277778
        k(   26) = (   0.1629422  -0.4704527   0.0000000), wk =   0.0277778
        k(   27) = (   0.1629357  -0.3763644   0.0000000), wk =   0.0277778
        k(   28) = (   0.1629292  -0.2822761   0.0000000), wk =   0.0277778
        k(   29) = (   0.1629227  -0.1881878   0.0000000), wk =   0.0277778
        k(   30) = (   0.1629162  -0.0940995   0.0000000), wk =   0.0277778
        k(   31) = (   0.1629098  -0.0000112   0.0000000), wk =   0.0277778
        k(   32) = (   0.2443549   0.1411156   0.0000000), wk =   0.0277778
        k(   33) = (   0.2443484   0.2352039   0.0000000), wk =   0.0277778
        k(   34) = (   0.2443419   0.3292922   0.0000000), wk =   0.0277778
        k(   35) = (   0.2443354   0.4233805   0.0000000), wk =   0.0277778
        k(   36) = (   0.2443289   0.5174688   0.0000000), wk =   0.0277778
        k(   37) = (   0.2443224   0.6115571   0.0000000), wk =   0.0277778
        k(   38) = (   0.2443938  -0.4234142   0.0000000), wk =   0.0277778
        k(   39) = (   0.2443873  -0.3293259   0.0000000), wk =   0.0277778
        k(   40) = (   0.2443809  -0.2352376   0.0000000), wk =   0.0277778
        k(   41) = (   0.2443744  -0.1411493   0.0000000), wk =   0.0277778
        k(   42) = (   0.2443679  -0.0470610   0.0000000), wk =   0.0277778
        k(   43) = (   0.2443614   0.0470273   0.0000000), wk =   0.0277778
        k(   44) = (   0.3258065   0.1881541   0.0000000), wk =   0.0277778
        k(   45) = (   0.3258000   0.2822424   0.0000000), wk =   0.0277778
        k(   46) = (   0.3257935   0.3763307   0.0000000), wk =   0.0277778
        k(   47) = (   0.3257870   0.4704190   0.0000000), wk =   0.0277778
        k(   48) = (   0.3257806   0.5645073   0.0000000), wk =   0.0277778
        k(   49) = (   0.3257741   0.6585956   0.0000000), wk =   0.0277778
        k(   50) = (   0.3258455  -0.3763757   0.0000000), wk =   0.0277778
        k(   51) = (   0.3258390  -0.2822874   0.0000000), wk =   0.0277778
        k(   52) = (   0.3258325  -0.1881991   0.0000000), wk =   0.0277778
        k(   53) = (   0.3258260  -0.0941108   0.0000000), wk =   0.0277778
        k(   54) = (   0.3258195  -0.0000225   0.0000000), wk =   0.0277778
        k(   55) = (   0.3258130   0.0940658   0.0000000), wk =   0.0277778
        k(   56) = (   0.4072581   0.2351926   0.0000000), wk =   0.0277778
        k(   57) = (   0.4072517   0.3292809   0.0000000), wk =   0.0277778
        k(   58) = (   0.4072452   0.4233692   0.0000000), wk =   0.0277778
        k(   59) = (   0.4072387   0.5174575   0.0000000), wk =   0.0277778
        k(   60) = (   0.4072322   0.6115458   0.0000000), wk =   0.0277778
        k(   61) = (   0.4072257   0.7056341   0.0000000), wk =   0.0277778
        k(   62) = (   0.4072971  -0.3293371   0.0000000), wk =   0.0277778
        k(   63) = (   0.4072906  -0.2352488   0.0000000), wk =   0.0277778
        k(   64) = (   0.4072841  -0.1411606   0.0000000), wk =   0.0277778
        k(   65) = (   0.4072776  -0.0470723   0.0000000), wk =   0.0277778
        k(   66) = (   0.4072711   0.0470160   0.0000000), wk =   0.0277778
        k(   67) = (   0.4072646   0.1411043   0.0000000), wk =   0.0277778
        k(   68) = (  -0.4887098  -0.2822312   0.0000000), wk =   0.0138889
        k(   69) = (  -0.4887163  -0.1881429   0.0000000), wk =   0.0277778
        k(   70) = (  -0.4887228  -0.0940546   0.0000000), wk =   0.0277778
        k(   71) = (  -0.4887293   0.0000337   0.0000000), wk =   0.0277778
        k(   72) = (  -0.4887357   0.0941220   0.0000000), wk =   0.0277778
        k(   73) = (  -0.4887422   0.1882103   0.0000000), wk =   0.0277778
        k(   74) = (  -0.4886708  -0.8467609   0.0000000), wk =   0.0138889

     Dense  grid:   484325 G-vectors     FFT dimensions: (  48,  48, 480)

     Smooth grid:   122267 G-vectors     FFT dimensions: (  32,  32, 300)

     Estimated max dynamical RAM per process >       2.61 GB

     Estimated total dynamical RAM >       5.23 GB

     Initial potential from superposition of free atoms

     starting charge   63.99842, renormalised to   64.00000

     negative rho (up, down):  9.830E-05 0.000E+00
     Starting wfcs are   42 randomized atomic wfcs

     total cpu time spent up to now is       24.0 secs

     Self-consistent Calculation

     iteration #  1     ecut=    70.00 Ry     beta= 0.70
     Davidson diagonalization with overlap
     ethr =  1.00E-02,  avg # of iterations =  2.1

     negative rho (up, down):  1.888E-07 0.000E+00

     total cpu time spent up to now is       40.9 secs

     total energy              =   -1403.96516311 Ry
     estimated scf accuracy    <       2.25157079 Ry

     iteration #  2     ecut=    70.00 Ry     beta= 0.70
     Davidson diagonalization with overlap
     ethr =  3.52E-03,  avg # of iterations =  8.5

     negative rho (up, down):  1.770E-05 0.000E+00

     total cpu time spent up to now is       69.9 secs

     total energy              =   -1392.09963854 Ry
     estimated scf accuracy    <     359.98050019 Ry

     iteration #  3     ecut=    70.00 Ry     beta= 0.70
     Davidson diagonalization with overlap
     ethr =  3.52E-03,  avg # of iterations =  9.9

     negative rho (up, down):  6.504E-06 0.000E+00

     total cpu time spent up to now is      101.7 secs

     total energy              =   -1403.88738529 Ry
     estimated scf accuracy    <      23.57357190 Ry

     iteration #  4     ecut=    70.00 Ry     beta= 0.70
     Davidson diagonalization with overlap
     ethr =  3.52E-03,  avg # of iterations =  2.6

     negative rho (up, down):  3.505E-06 0.000E+00

     total cpu time spent up to now is      119.6 secs

     total energy              =   -1405.39159165 Ry
     estimated scf accuracy    <       2.54227183 Ry

     iteration #  5     ecut=    70.00 Ry     beta= 0.70
     Davidson diagonalization with overlap
     ethr =  3.52E-03,  avg # of iterations =  1.5

     negative rho (up, down):  6.580E-06 0.000E+00

     total cpu time spent up to now is      135.3 secs

     total energy              =   -1405.49988624 Ry
     estimated scf accuracy    <       0.10081616 Ry

     iteration #  6     ecut=    70.00 Ry     beta= 0.70
     Davidson diagonalization with overlap
     ethr =  1.58E-04,  avg # of iterations =  7.1

     negative rho (up, down):  1.450E-05 0.000E+00

     total cpu time spent up to now is      157.9 secs

     total energy              =   -1405.53010940 Ry
     estimated scf accuracy    <       0.11335840 Ry

     iteration #  7     ecut=    70.00 Ry     beta= 0.70
     Davidson diagonalization with overlap
     ethr =  1.58E-04,  avg # of iterations =  1.8

     negative rho (up, down):  3.739E-05 0.000E+00

     total cpu time spent up to now is      174.0 secs

     total energy              =   -1405.52669334 Ry
     estimated scf accuracy    <       0.05148523 Ry

     iteration #  8     ecut=    70.00 Ry     beta= 0.70
     Davidson diagonalization with overlap
     ethr =  8.04E-05,  avg # of iterations =  1.9

     negative rho (up, down):  5.743E-05 0.000E+00

     total cpu time spent up to now is      190.2 secs

     total energy              =   -1405.52587800 Ry
     estimated scf accuracy    <       0.01986184 Ry

     iteration #  9     ecut=    70.00 Ry     beta= 0.70
     Davidson diagonalization with overlap
     ethr =  3.10E-05,  avg # of iterations =  2.4

     negative rho (up, down):  6.524E-05 0.000E+00

     total cpu time spent up to now is      207.1 secs

     total energy              =   -1405.52523208 Ry
     estimated scf accuracy    <       0.00930405 Ry

     iteration # 10     ecut=    70.00 Ry     beta= 0.70
     Davidson diagonalization with overlap
     ethr =  1.45E-05,  avg # of iterations =  3.4

     negative rho (up, down):  8.765E-05 0.000E+00

     total cpu time spent up to now is      224.4 secs

     total energy              =   -1405.52400871 Ry
     estimated scf accuracy    <       0.00491343 Ry

     iteration # 11     ecut=    70.00 Ry     beta= 0.70
     Davidson diagonalization with overlap
     ethr =  7.68E-06,  avg # of iterations =  6.3

     negative rho (up, down):  8.176E-05 0.000E+00

     total cpu time spent up to now is      243.7 secs

     total energy              =   -1405.52444689 Ry
     estimated scf accuracy    <       0.00056354 Ry

     iteration # 12     ecut=    70.00 Ry     beta= 0.70
     Davidson diagonalization with overlap
     ethr =  8.81E-07,  avg # of iterations =  5.2

     negative rho (up, down):  8.940E-05 0.000E+00

     total cpu time spent up to now is      263.7 secs

     total energy              =   -1405.52459158 Ry
     estimated scf accuracy    <       0.00013510 Ry

     iteration # 13     ecut=    70.00 Ry     beta= 0.70
     Davidson diagonalization with overlap
     ethr =  2.11E-07,  avg # of iterations =  2.4

     negative rho (up, down):  9.586E-05 0.000E+00

     total cpu time spent up to now is      281.0 secs

     total energy              =   -1405.52459499 Ry
     estimated scf accuracy    <       0.00003361 Ry

     iteration # 14     ecut=    70.00 Ry     beta= 0.70
     Davidson diagonalization with overlap
     ethr =  5.25E-08,  avg # of iterations =  2.4

     negative rho (up, down):  9.592E-05 0.000E+00

     total cpu time spent up to now is      298.8 secs

     total energy              =   -1405.52459712 Ry
     estimated scf accuracy    <       0.00001366 Ry

     iteration # 15     ecut=    70.00 Ry     beta= 0.70
     Davidson diagonalization with overlap
     ethr =  2.13E-08,  avg # of iterations =  3.9

     negative rho (up, down):  1.002E-04 0.000E+00

     total cpu time spent up to now is      317.0 secs

     total energy              =   -1405.52459846 Ry
     estimated scf accuracy    <       0.00004121 Ry

     iteration # 16     ecut=    70.00 Ry     beta= 0.70
     Davidson diagonalization with overlap
     ethr =  2.13E-08,  avg # of iterations =  1.3

     negative rho (up, down):  1.017E-04 0.000E+00

     total cpu time spent up to now is      332.4 secs

     total energy              =   -1405.52459970 Ry
     estimated scf accuracy    <       0.00000568 Ry

     iteration # 17     ecut=    70.00 Ry     beta= 0.70
     Davidson diagonalization with overlap
     ethr =  8.87E-09,  avg # of iterations =  1.8

     negative rho (up, down):  1.029E-04 0.000E+00

     total cpu time spent up to now is      348.4 secs

     total energy              =   -1405.52459989 Ry
     estimated scf accuracy    <       0.00000101 Ry

     iteration # 18     ecut=    70.00 Ry     beta= 0.70
     Davidson diagonalization with overlap
     ethr =  1.57E-09,  avg # of iterations =  2.0

     negative rho (up, down):  1.038E-04 0.000E+00

     total cpu time spent up to now is      364.7 secs

     total energy              =   -1405.52459998 Ry
     estimated scf accuracy    <       0.00000005 Ry

     iteration # 19     ecut=    70.00 Ry     beta= 0.70
     Davidson diagonalization with overlap
     ethr =  8.12E-11,  avg # of iterations =  4.9

     negative rho (up, down):  1.040E-04 0.000E+00

     total cpu time spent up to now is      385.3 secs

     total energy              =   -1405.52460000 Ry
     estimated scf accuracy    <          7.2E-09 Ry

     iteration # 20     ecut=    70.00 Ry     beta= 0.70
     Davidson diagonalization with overlap
     ethr =  1.12E-11,  avg # of iterations =  2.1

     negative rho (up, down):  1.041E-04 0.000E+00

     total cpu time spent up to now is      403.1 secs

     total energy              =   -1405.52460000 Ry
     estimated scf accuracy    <          7.9E-10 Ry

     iteration # 21     ecut=    70.00 Ry     beta= 0.70
     Davidson diagonalization with overlap
     ethr =  1.23E-12,  avg # of iterations =  3.3

     negative rho (up, down):  1.041E-04 0.000E+00

     total cpu time spent up to now is      421.0 secs

     total energy              =   -1405.52460000 Ry
     estimated scf accuracy    <          2.0E-10 Ry

     iteration # 22     ecut=    70.00 Ry     beta= 0.70
     Davidson diagonalization with overlap
     ethr =  3.05E-13,  avg # of iterations =  4.1

     negative rho (up, down):  1.041E-04 0.000E+00

     total cpu time spent up to now is      439.5 secs

     total energy              =   -1405.52460000 Ry
     estimated scf accuracy    <          5.4E-12 Ry

     iteration # 23     ecut=    70.00 Ry     beta= 0.70
     Davidson diagonalization with overlap
     ethr =  1.00E-13,  avg # of iterations =  2.6

     negative rho (up, down):  1.041E-04 0.000E+00

     total cpu time spent up to now is      456.6 secs

     total energy              =   -1405.52460000 Ry
     estimated scf accuracy    <          1.4E-12 Ry

     iteration # 24     ecut=    70.00 Ry     beta= 0.70
     Davidson diagonalization with overlap
     ethr =  1.00E-13,  avg # of iterations =  1.1

     negative rho (up, down):  1.041E-04 0.000E+00

     total cpu time spent up to now is      472.1 secs

     End of self-consistent calculation

          k = 0.0000 0.0000 0.0000 ( 15285 PWs)   bands (ev):

   -69.2322 -68.7111 -35.8599 -35.4264 -35.3834 -35.3611 -34.7722 -34.7400
   -20.8985 -20.8716 -20.8361 -20.8220 -20.8105 -20.7877 -20.7769 -20.4088
   -20.3927 -20.3766 -20.3535 -20.3462 -20.3283 -20.2764 -18.4891 -12.9807
    -7.7691  -5.1909  -4.0207  -3.4632  -2.6941  -2.2146  -1.7542  -1.1961
    -0.6854  -0.3323   0.2225   0.9136   1.7728   2.5279

          k =-0.0000 0.0941 0.0000 ( 15393 PWs)   bands (ev):

   -69.2285 -68.7075 -35.8492 -35.4418 -35.4272 -35.3635 -34.8083 -34.7682
   -20.8962 -20.8724 -20.8356 -20.8214 -20.8115 -20.7888 -20.7781 -20.4077
   -20.3933 -20.3763 -20.3537 -20.3463 -20.3265 -20.2794 -18.4462 -12.8869
    -7.5577  -5.1493  -4.0736  -3.5890  -2.9496  -2.4028  -1.7706  -0.9751
    -0.8792  -0.2083   0.2990   0.8228   1.8536   2.3287

          k =-0.0000 0.1882 0.0000 ( 15383 PWs)   bands (ev):

   -69.2183 -68.6977 -35.8216 -35.5781 -35.4710 -35.3474 -34.9442 -34.8056
   -20.8903 -20.8746 -20.8336 -20.8217 -20.8129 -20.7913 -20.7804 -20.4049
   -20.3953 -20.3760 -20.3537 -20.3463 -20.3210 -20.2872 -18.3351 -12.6246
    -6.9859  -5.1754  -4.3499  -3.9251  -3.3615  -2.6865  -1.8782  -1.1343
    -0.5667   0.0948   0.4771   0.9478   1.8503   2.1550

          k =-0.0000 0.2823 0.0000 ( 15389 PWs)   bands (ev):

   -69.2044 -68.6843 -35.8229 -35.7348 -35.5171 -35.3244 -35.1300 -34.8504
   -20.8861 -20.8755 -20.8303 -20.8265 -20.8124 -20.7941 -20.7800 -20.4014
   -20.3987 -20.3771 -20.3518 -20.3461 -20.3128 -20.2971 -18.1969 -12.2433
    -6.2995  -5.6027  -4.7527  -4.4021  -3.4214  -2.9628  -1.9121  -1.2487
    -0.1674   0.4778   0.8007   1.5535   1.9150   2.2734

          k =-0.0000 0.3764 0.0000 ( 15341 PWs)   bands (ev):

   -69.1904 -68.6707 -35.9888 -35.7219 -35.5625 -35.3270 -35.2848 -34.8943
   -20.8895 -20.8708 -20.8333 -20.8258 -20.8119 -20.7964 -20.7759 -20.4030
   -20.3980 -20.3792 -20.3488 -20.3456 -20.3068 -20.3034 -18.0735 -11.8157
    -6.4745  -5.7825  -4.9759  -4.6911  -3.5266  -3.1549  -1.5597  -1.2648
     0.0561   0.6473   1.5397   2.1161   2.6543   2.8924

          k =-0.0000 0.4704 0.0000 ( 15283 PWs)   bands (ev):

   -69.1801 -68.6608 -36.1252 -35.6958 -35.5952 -35.4437 -35.2786 -34.9260
   -20.8939 -20.8668 -20.8376 -20.8232 -20.8117 -20.7971 -20.7714 -20.4061
   -20.3965 -20.3809 -20.3464 -20.3448 -20.3121 -20.2971 -17.9921 -11.4480
    -7.1023  -5.7637  -5.1556  -4.8163  -3.6626  -3.0901  -1.5637  -0.7454
     0.1687   0.6027   2.0871   3.1246   3.5261   3.8647

          k = 0.0000-0.5645 0.0000 ( 15258 PWs)   bands (ev):

   -69.1763 -68.6572 -36.1749 -35.6872 -35.6070 -35.4880 -35.2729 -34.9375
   -20.8957 -20.8656 -20.8390 -20.8224 -20.8117 -20.7970 -20.7696 -20.4073
   -20.3961 -20.3814 -20.3458 -20.3442 -20.3140 -20.2946 -17.9641 -11.2937
    -7.3551  -5.7897  -5.2097  -4.8947  -3.7228  -3.0155  -1.6022  -0.4895
     0.3138   0.5028   2.2052   3.8725   3.9258   4.4344

          k = 0.0815 0.0470 0.0000 ( 15393 PWs)   bands (ev):

   -69.2286 -68.7075 -35.8497 -35.4718 -35.3947 -35.3627 -34.8253 -34.7520
   -20.8961 -20.8726 -20.8360 -20.8216 -20.8119 -20.7892 -20.7769 -20.4085
   -20.3924 -20.3761 -20.3531 -20.3469 -20.3270 -20.2791 -18.4495 -12.8811
    -7.5804  -5.0903  -4.0667  -3.7274  -2.9013  -2.4178  -1.6927  -0.9833
    -0.8857  -0.2164   0.1364   0.9841   1.9042   2.5127

          k = 0.0814 0.1411 0.0000 ( 15383 PWs)   bands (ev):

   -69.2218 -68.7008 -35.8306 -35.5344 -35.4517 -35.3530 -34.9159 -34.7816
   -20.8915 -20.8751 -20.8350 -20.8212 -20.8126 -20.7923 -20.7778 -20.4072
   -20.3924 -20.3762 -20.3535 -20.3471 -20.3231 -20.2843 -18.3741 -12.6944
    -7.2046  -5.0236  -4.2661  -4.0515  -3.1828  -2.7215  -1.7438  -1.0601
    -0.5603   0.0050   0.2682   0.9617   1.9274   2.3185

          k = 0.0814 0.2352 0.0000 ( 15382 PWs)   bands (ev):

   -69.2097 -68.6891 -35.8018 -35.6800 -35.5123 -35.3328 -35.0681 -34.8323
   -20.8864 -20.8770 -20.8328 -20.8231 -20.8129 -20.7948 -20.7795 -20.4046
   -20.3944 -20.3769 -20.3527 -20.3471 -20.3160 -20.2930 -18.2468 -12.3704
    -6.5637  -5.2952  -4.7379  -4.1553  -3.5213  -3.0488  -1.9777  -1.0938
    -0.1014   0.2289   0.7874   1.3911   1.7671   2.2568

          k = 0.0814 0.3293 0.0000 ( 15357 PWs)   bands (ev):

   -69.1958 -68.6756 -35.8883 -35.7390 -35.5686 -35.3113 -35.2378 -34.8881
   -20.8886 -20.8725 -20.8302 -20.8280 -20.8115 -20.7963 -20.7792 -20.4018
   -20.3978 -20.3784 -20.3505 -20.3466 -20.3080 -20.3017 -18.1119 -11.9688
    -6.1632  -5.7491  -5.0318  -4.4477  -3.8232  -3.0884  -1.8574  -1.2004
     0.1574   0.4360   1.4988   1.8169   2.3598   2.6261

          k = 0.0814 0.4234 0.0000 ( 15308 PWs)   bands (ev):

   -69.1836 -68.6639 -36.0464 -35.7086 -35.6133 -35.3873 -35.2845 -34.9359
   -20.8930 -20.8677 -20.8345 -20.8259 -20.8106 -20.7972 -20.7756 -20.4030
   -20.3984 -20.3799 -20.3484 -20.3455 -20.3102 -20.2990 -18.0083 -11.5715
    -6.7450  -5.6931  -5.0516  -4.7900  -3.8823  -3.1677  -1.5223  -1.0199
    -0.0483   0.8393   1.8764   2.4141   3.3792   3.6597

          k = 0.0814 0.5175 0.0000 ( 15278 PWs)   bands (ev):

   -69.1764 -68.6572 -36.1427 -35.6894 -35.6367 -35.4644 -35.2732 -34.9647
   -20.8953 -20.8660 -20.8379 -20.8237 -20.8107 -20.7976 -20.7714 -20.4060
   -20.3969 -20.3804 -20.3471 -20.3448 -20.3140 -20.2948 -17.9575 -11.3017
    -7.1823  -5.7174  -5.1470  -4.8866  -3.8847  -3.1169  -1.5859  -0.5517
    -0.1619   1.0252   2.1573   3.2052   3.7669   4.5009

          k = 0.0815-0.5175 0.0000 ( 15276 PWs)   bands (ev):

   -69.1763 -68.6572 -36.1507 -35.6855 -35.6346 -35.4612 -35.2722 -34.9679
   -20.8941 -20.8670 -20.8388 -20.8228 -20.8111 -20.7983 -20.7696 -20.4072
   -20.3959 -20.3800 -20.3469 -20.3448 -20.3143 -20.2951 -17.9635 -11.3011
    -7.1815  -5.6848  -5.1235  -4.8979  -3.8399  -3.0829  -1.6077  -0.8112
     0.0437   1.0073   2.2106   2.9292   3.7469   4.4400

          k = 0.0815-0.4234 0.0000 ( 15310 PWs)   bands (ev):

   -69.1832 -68.6641 -36.0691 -35.7009 -35.6053 -35.3781 -35.2805 -34.9454
   -20.8899 -20.8700 -20.8368 -20.8237 -20.8117 -20.7986 -20.7714 -20.4062
   -20.3960 -20.3784 -20.3483 -20.3455 -20.3106 -20.3000 -18.0211 -11.5781
    -6.7173  -5.6258  -5.0734  -4.7105  -3.7112  -3.1832  -1.5499  -1.2541
    -0.1026   0.9170   1.6401   2.1857   3.2912   3.7503

          k = 0.0815-0.3293 0.0000 ( 15357 PWs)   bands (ev):

   -69.1953 -68.6758 -35.9215 -35.7305 -35.5550 -35.3119 -35.2155 -34.9034
   -20.8851 -20.8744 -20.8321 -20.8269 -20.8123 -20.7966 -20.7759 -20.4035
   -20.3978 -20.3761 -20.3509 -20.3463 -20.3080 -20.3032 -18.1207 -11.9911
    -6.0461  -5.7505  -4.9180  -4.5008  -3.4846  -3.2045  -1.8490  -1.3493
    -0.3285   0.4155   1.1620   1.7882   2.6029   2.8402

          k = 0.0815-0.2352 0.0000 ( 15382 PWs)   bands (ev):

   -69.2093 -68.6893 -35.8088 -35.7019 -35.4958 -35.3322 -35.0404 -34.8537
   -20.8869 -20.8743 -20.8318 -20.8250 -20.8133 -20.7925 -20.7801 -20.4023
   -20.3988 -20.3746 -20.3529 -20.3469 -20.3165 -20.2936 -18.2459 -12.4033
    -6.5000  -5.2803  -4.5833  -4.1739  -3.3017  -2.9891  -2.0704  -1.2907
    -0.5921   0.0273   0.8377   1.4233   2.0541   2.2710

          k = 0.0815-0.1411 0.0000 ( 15383 PWs)   bands (ev):

   -69.2214 -68.7009 -35.8293 -35.5590 -35.4382 -35.3524 -34.8828 -34.8099
   -20.8928 -20.8719 -20.8347 -20.8208 -20.8142 -20.7887 -20.7809 -20.4054
   -20.3961 -20.3748 -20.3531 -20.3471 -20.3234 -20.2846 -18.3671 -12.7237
    -7.1667  -5.1473  -4.0825  -3.7659  -3.2890  -2.5454  -1.9527  -1.2586
    -0.8947  -0.1015   0.6322   0.9359   1.9118   2.2263

          k = 0.0815-0.0470 0.0000 ( 15393 PWs)   bands (ev):

   -69.2285 -68.7076 -35.8490 -35.4784 -35.3926 -35.3624 -34.8055 -34.7699
   -20.8966 -20.8713 -20.8359 -20.8210 -20.8129 -20.7876 -20.7785 -20.4078
   -20.3938 -20.3757 -20.3528 -20.3471 -20.3270 -20.2791 -18.4456 -12.8928
    -7.5682  -5.1429  -4.0618  -3.4544  -3.0684  -2.2582  -1.7883  -1.2321
    -0.9478  -0.1881   0.3221   0.9772   1.8218   2.4119

          k = 0.1629 0.0941 0.0000 ( 15385 PWs)   bands (ev):

   -69.2187 -68.6976 -35.8219 -35.6085 -35.4302 -35.3474 -34.9680 -34.7846
   -20.8896 -20.8756 -20.8365 -20.8200 -20.8149 -20.7925 -20.7770 -20.4080
   -20.3917 -20.3750 -20.3524 -20.3486 -20.3225 -20.2858 -18.3449 -12.6051
    -7.1015  -4.9187  -4.4381  -4.0744  -3.4638  -2.4743  -1.9298  -1.2069
    -0.6850  -0.0091   0.4597   1.2410   2.0759   2.4969

          k = 0.1629 0.1882 0.0000 ( 15382 PWs)   bands (ev):

   -69.2100 -68.6890 -35.7986 -35.6996 -35.4887 -35.3328 -35.0796 -34.8227
   -20.8852 -20.8783 -20.8358 -20.8207 -20.8145 -20.7956 -20.7773 -20.4071
   -20.3915 -20.3754 -20.3531 -20.3486 -20.3168 -20.2917 -18.2531 -12.3584
    -6.6914  -5.1249  -4.5821  -4.4583  -3.4764  -2.8633  -2.1845  -1.1321
    -0.3745   0.3449   0.9211   1.5235   1.8958   2.4606

          k = 0.1629 0.2823 0.0000 ( 15359 PWs)   bands (ev):

   -69.1979 -68.6773 -35.8325 -35.7568 -35.5727 -35.3130 -35.2104 -34.8904
   -20.8874 -20.8741 -20.8339 -20.8246 -20.8122 -20.7973 -20.7786 -20.4050
   -20.3937 -20.3763 -20.3527 -20.3481 -20.3096 -20.2992 -18.1296 -12.0134
    -6.1591  -5.5954  -5.0232  -4.4470  -3.7506  -3.0687  -2.3397  -1.0139
    -0.2115   0.5574   1.6311   1.7921   2.3674   2.6800

          k = 0.1629 0.3763 0.0000 ( 15298 PWs)   bands (ev):

   -69.1857 -68.6656 -35.9585 -35.7286 -35.6504 -35.3321 -35.2887 -34.9663
   -20.8919 -20.8690 -20.8325 -20.8284 -20.8093 -20.7984 -20.7783 -20.4026
   -20.3975 -20.3774 -20.3517 -20.3470 -20.3087 -20.3000 -18.0157 -11.6344
    -6.3018  -5.5531  -5.2992  -4.4958  -4.2808  -3.0873  -1.8992  -1.0793
    -0.1549   0.7398   1.8093   2.0873   3.2541   3.7757

          k = 0.1629 0.4704 0.0000 ( 15277 PWs)   bands (ev):

   -69.1767 -68.6571 -36.0604 -35.7296 -35.6770 -35.4081 -35.2749 -35.0271
   -20.8945 -20.8669 -20.8353 -20.8269 -20.8082 -20.7989 -20.7753 -20.4026
   -20.3993 -20.3778 -20.3506 -20.3461 -20.3134 -20.2952 -17.9441 -11.3143
    -6.7526  -5.6304  -5.0476  -4.9248  -4.1863  -3.2498  -1.4874  -0.9015
    -0.3057   1.1987   1.9288   2.5593   3.6371   4.5022

          k = 0.1629 0.5645 0.0000 ( 15268 PWs)   bands (ev):

   -69.1732 -68.6541 -36.1108 -35.7339 -35.6722 -35.4300 -35.2677 -35.0554
   -20.8940 -20.8677 -20.8378 -20.8249 -20.8086 -20.7997 -20.7714 -20.4057
   -20.3971 -20.3774 -20.3502 -20.3455 -20.3157 -20.2937 -17.9280 -11.1795
    -6.9496  -5.5872  -5.1806  -4.8240  -4.1340  -3.2720  -1.5404  -0.8367
    -0.2469   1.4035   2.2138   2.7844   3.5336   4.4789

          k = 0.1629-0.4705 0.0000 ( 15279 PWs)   bands (ev):

   -69.1763 -68.6573 -36.0962 -35.7006 -35.6788 -35.3928 -35.2693 -35.0435
   -20.8900 -20.8704 -20.8384 -20.8239 -20.8097 -20.8007 -20.7696 -20.4074
   -20.3953 -20.3761 -20.3509 -20.3456 -20.3145 -20.2963 -17.9635 -11.3153
    -6.7506  -5.4938  -4.9975  -4.8709  -4.0677  -3.2584  -1.5296  -1.2065
    -0.2878   1.0418   1.9668   2.4192   3.4951   4.3511

          k = 0.1629-0.3764 0.0000 ( 15300 PWs)   bands (ev):

   -69.1850 -68.6660 -36.0189 -35.7042 -35.6320 -35.3168 -35.2662 -34.9945
   -20.8843 -20.8744 -20.8364 -20.8249 -20.8117 -20.7996 -20.7712 -20.4070
   -20.3952 -20.3740 -20.3522 -20.3463 -20.3094 -20.3023 -18.0385 -11.6573
    -6.2304  -5.3957  -5.1221  -4.5272  -4.0137  -3.2257  -1.8082  -1.2955
    -0.5062   0.3209   1.6380   2.1220   3.2107   3.8423

          k = 0.1629-0.2823 0.0000 ( 15359 PWs)   bands (ev):

   -69.1971 -68.6777 -35.8996 -35.7355 -35.5498 -35.3128 -35.1648 -34.9234
   -20.8829 -20.8752 -20.8327 -20.8275 -20.8133 -20.7959 -20.7755 -20.4054
   -20.3966 -20.3724 -20.3531 -20.3474 -20.3104 -20.3011 -18.1388 -12.0632
    -5.9595  -5.4546  -5.0490  -4.2165  -3.6416  -3.1529  -2.1979  -1.1837
    -0.7385  -0.0127   1.1968   1.9904   2.6125   2.9447

          k = 0.1629-0.1882 0.0000 ( 15380 PWs)   bands (ev):

   -69.2092 -68.6894 -35.8101 -35.7233 -35.4749 -35.3320 -35.0373 -34.8541
   -20.8878 -20.8718 -20.8330 -20.8256 -20.8144 -20.7912 -20.7798 -20.4044
   -20.3976 -20.3725 -20.3525 -20.3484 -20.3177 -20.2926 -18.2462 -12.4167
    -6.5526  -5.1464  -4.7602  -3.8959  -3.2156  -3.0235  -2.2070  -1.2899
    -0.8879  -0.0520   0.9041   1.4929   2.2499   2.3720

          k = 0.1629-0.0941 0.0000 ( 15385 PWs)   bands (ev):

   -69.2182 -68.6978 -35.8206 -35.6265 -35.4259 -35.3475 -34.9389 -34.8072
   -20.8917 -20.8709 -20.8351 -20.8218 -20.8157 -20.7878 -20.7813 -20.4057
   -20.3962 -20.3736 -20.3514 -20.3489 -20.3229 -20.2861 -18.3346 -12.6441
    -7.0337  -5.1318  -4.2085  -3.9453  -3.1742  -2.5665  -2.0204  -1.3779
    -0.9845  -0.0895   0.7279   1.0900   2.0104   2.4060

          k = 0.1629-0.0000 0.0000 ( 15383 PWs)   bands (ev):

   -69.2217 -68.7008 -35.8299 -35.5780 -35.4107 -35.3528 -34.9111 -34.7838
   -20.8925 -20.8725 -20.8362 -20.8203 -20.8157 -20.7890 -20.7789 -20.4074
   -20.3937 -20.3745 -20.3514 -20.3487 -20.3246 -20.2837 -18.3739 -12.7082
    -7.2287  -5.0297  -4.2380  -3.8348  -3.2629  -2.5771  -1.7744  -1.2950
    -0.8678  -0.1593   0.4002   1.2178   1.9903   2.5090

          k = 0.2444 0.1411 0.0000 ( 15395 PWs)   bands (ev):

   -69.2050 -68.6841 -35.7975 -35.7828 -35.4753 -35.3249 -35.1563 -34.8289
   -20.8832 -20.8788 -20.8392 -20.8209 -20.8141 -20.7947 -20.7768 -20.4083
   -20.3913 -20.3733 -20.3536 -20.3495 -20.3149 -20.2934 -18.2096 -12.2122
    -6.6301  -5.3792  -4.7704  -4.3240  -3.5713  -2.4866  -2.3771  -1.4726
    -0.3085   0.4990   1.1530   1.8011   2.1636   2.5400

          k = 0.2443 0.2352 0.0000 ( 15357 PWs)   bands (ev):

   -69.1963 -68.6755 -35.8838 -35.7617 -35.5345 -35.3133 -35.2545 -34.8733
   -20.8870 -20.8743 -20.8387 -20.8229 -20.8124 -20.7965 -20.7768 -20.4079
   -20.3913 -20.3739 -20.3547 -20.3491 -20.3093 -20.2979 -18.1207 -11.9486
    -6.4029  -5.7547  -4.9203  -4.5405  -3.5062  -2.7688  -2.5348  -1.2963
    -0.0763   0.7953   1.7729   2.0831   2.4044   2.7148

          k = 0.2443 0.3293 0.0000 ( 15294 PWs)   bands (ev):

   -69.1860 -68.6656 -35.9572 -35.7409 -35.6311 -35.3434 -35.2879 -34.9578
   -20.8913 -20.8697 -20.8372 -20.8260 -20.8093 -20.7977 -20.7780 -20.4062
   -20.3938 -20.3744 -20.3551 -20.3483 -20.3070 -20.2996 -18.0181 -11.6263
    -6.2569  -5.8257  -5.3071  -4.6258  -3.8786  -2.8266  -2.4110  -1.0630
    -0.1151   0.8956   1.7754   2.3254   3.2762   3.5223

          k = 0.2443 0.4234 0.0000 ( 15264 PWs)   bands (ev):

   -69.1770 -68.6570 -35.9970 -35.7846 -35.6799 -35.3786 -35.2767 -35.0594
   -20.8940 -20.8676 -20.8361 -20.8277 -20.8064 -20.7989 -20.7780 -20.4033
   -20.3979 -20.3744 -20.3551 -20.3476 -20.3113 -20.2955 -17.9367 -11.3149
    -6.4193  -5.7042  -5.3640  -4.7576  -4.3089  -3.0413  -1.6752  -1.0809
    -0.1534   1.0238   1.8133   2.4562   3.7383   4.3395

          k = 0.2443 0.5175 0.0000 ( 15244 PWs)   bands (ev):

   -69.1716 -68.6522 -36.0198 -35.8511 -35.6696 -35.3732 -35.2701 -35.1427
   -20.8939 -20.8682 -20.8371 -20.8270 -20.8057 -20.7998 -20.7754 -20.4026
   -20.3998 -20.3738 -20.3550 -20.3469 -20.3150 -20.2930 -17.9007 -11.1108
    -6.5497  -5.8064  -5.1592  -4.9041  -4.2691  -3.2870  -1.3699  -0.9328
    -0.2072   1.2941   1.9500   2.7392   3.5699   4.2064

          k = 0.2443 0.6116 0.0000 ( 15244 PWs)   bands (ev):

   -69.1713 -68.6523 -36.0604 -35.8201 -35.6661 -35.3554 -35.2629 -35.1647
   -20.8907 -20.8707 -20.8387 -20.8257 -20.8068 -20.8007 -20.7715 -20.4065
   -20.3963 -20.3727 -20.3552 -20.3464 -20.3160 -20.2936 -17.9148 -11.1080
    -6.5523  -5.7093  -5.2890  -4.6129  -4.2122  -3.3924  -1.4500  -1.0488
    -0.2104   1.0035   2.2904   2.5174   3.6815   4.0118

          k = 0.2444-0.4234 0.0000 ( 15262 PWs)   bands (ev):

   -69.1762 -68.6574 -36.0757 -35.7285 -35.6755 -35.3440 -35.2616 -35.0997
   -20.8852 -20.8744 -20.8390 -20.8252 -20.8097 -20.8001 -20.7694 -20.4088
   -20.3941 -20.3712 -20.3556 -20.3466 -20.3135 -20.2974 -17.9679 -11.3230
    -6.4140  -5.5133  -5.1258  -4.6981  -4.0387  -3.3471  -1.6243  -1.2752
    -0.4179   0.4049   2.0790   2.4517   3.5952   4.3515

          k = 0.2444-0.3293 0.0000 ( 15296 PWs)   bands (ev):

   -69.1849 -68.6661 -36.0372 -35.7081 -35.6122 -35.3161 -35.2621 -34.9955
   -20.8809 -20.8767 -20.8376 -20.8258 -20.8129 -20.7973 -20.7708 -20.4092
   -20.3938 -20.3704 -20.3552 -20.3473 -20.3085 -20.3026 -18.0432 -11.6663
    -6.1610  -5.5896  -5.1073  -4.3371  -3.9106  -3.2092  -2.0023  -1.1894
    -0.7565   0.2261   1.6535   2.3770   3.3095   3.8704

          k = 0.2444-0.2352 0.0000 ( 15359 PWs)   bands (ev):

   -69.1952 -68.6760 -35.9516 -35.7368 -35.5230 -35.3114 -35.2089 -34.9040
   -20.8840 -20.8728 -20.8355 -20.8272 -20.8141 -20.7937 -20.7751 -20.4079
   -20.3950 -20.3708 -20.3537 -20.3483 -20.3108 -20.3000 -18.1257 -12.0149
    -6.0796  -5.7411  -5.0940  -3.8722  -3.5872  -3.1226  -2.0970  -1.3069
    -0.9003   0.2283   1.2723   2.3286   2.6234   3.0119

          k = 0.2444-0.1411 0.0000 ( 15393 PWs)   bands (ev):

   -69.2042 -68.6845 -35.8497 -35.7582 -35.4719 -35.3240 -35.1216 -34.8517
   -20.8868 -20.8710 -20.8352 -20.8270 -20.8137 -20.7902 -20.7800 -20.4062
   -20.3965 -20.3718 -20.3518 -20.3493 -20.3160 -20.2944 -18.2006 -12.2745
    -6.4211  -5.3527  -5.0868  -3.7682  -3.2692  -2.9876  -2.0949  -1.4007
    -0.9831   0.1405   1.1926   1.7218   2.2790   2.6513

          k = 0.2444-0.0471 0.0000 ( 15382 PWs)   bands (ev):

   -69.2096 -68.6893 -35.8036 -35.7362 -35.4587 -35.3326 -35.0585 -34.8356
   -20.8876 -20.8724 -20.8368 -20.8244 -20.8138 -20.7886 -20.7819 -20.4059
   -20.3960 -20.3726 -20.3508 -20.3499 -20.3190 -20.2912 -18.2501 -12.3967
    -6.6283  -5.1947  -4.7904  -3.9362  -3.3027  -2.9122  -2.1634  -1.3103
    -0.7959  -0.0810   0.9848   1.6154   2.1382   2.6305

          k = 0.2444 0.0470 0.0000 ( 15378 PWs)   bands (ev):

   -69.2099 -68.6891 -35.7991 -35.7312 -35.4592 -35.3327 -35.0731 -34.8255
   -20.8857 -20.8760 -20.8385 -20.8217 -20.8144 -20.7915 -20.7790 -20.4073
   -20.3934 -20.3730 -20.3519 -20.3496 -20.3186 -20.2909 -18.2561 -12.3712
    -6.7029  -5.1053  -4.7656  -4.1023  -3.5090  -2.7357  -2.1953  -1.2515
    -0.6912   0.0272   0.9623   1.6557   2.1304   2.6420

          k = 0.3258 0.1882 0.0000 ( 15347 PWs)   bands (ev):

   -69.1914 -68.6705 -35.9797 -35.7486 -35.5188 -35.3504 -35.2893 -34.8727
   -20.8877 -20.8731 -20.8429 -20.8238 -20.8099 -20.7944 -20.7763 -20.4095
   -20.3914 -20.3720 -20.3553 -20.3500 -20.3068 -20.2984 -18.0821 -11.7846
    -6.5333  -6.1662  -4.9437  -4.5313  -3.4429  -2.6977  -2.3651  -1.3914
     0.2122   0.9312   1.9082   2.3720   2.6460   2.9700

          k = 0.3258 0.2822 0.0000 ( 15302 PWs)   bands (ev):

   -69.1844 -68.6637 -36.0389 -35.7341 -35.5732 -35.4107 -35.2838 -34.9178
   -20.8917 -20.8697 -20.8421 -20.8252 -20.8085 -20.7951 -20.7764 -20.4093
   -20.3918 -20.3724 -20.3567 -20.3494 -20.3052 -20.2984 -18.0129 -11.5532
    -6.6451  -6.2340  -5.1377  -4.6154  -3.5779  -2.8566  -2.2962  -1.1230
     0.3454   1.0720   2.1040   2.6685   3.2391   3.4467

          k = 0.3258 0.3763 0.0000 ( 15276 PWs)   bands (ev):

   -69.1773 -68.6570 -36.0538 -35.7391 -35.6593 -35.4280 -35.2738 -35.0106
   -20.8940 -20.8680 -20.8409 -20.8262 -20.8063 -20.7960 -20.7780 -20.4072
   -20.3945 -20.3720 -20.3578 -20.3489 -20.3081 -20.2956 -17.9425 -11.3031
    -6.6851  -5.9438  -5.4707  -4.6534  -3.9802  -2.9158  -2.0490  -0.9473
     0.2710   1.2006   1.8911   2.6386   3.7920   4.2078

          k = 0.3258 0.4704 0.0000 ( 15246 PWs)   bands (ev):

   -69.1719 -68.6521 -36.0141 -35.8476 -35.6720 -35.3905 -35.2679 -35.1286
   -20.8940 -20.8684 -20.8402 -20.8262 -20.8048 -20.7969 -20.7785 -20.4039
   -20.3984 -20.3709 -20.3586 -20.3484 -20.3121 -20.2932 -17.8969 -11.1028
    -6.5655  -5.8602  -5.3582  -4.8175  -4.3545  -3.0305  -1.4763  -1.0433
     0.1966   1.2208   1.7907   2.7567   3.7352   4.0044

          k = 0.3258 0.5645 0.0000 ( 15284 PWs)   bands (ev):

   -69.1697 -68.6505 -35.9940 -35.9109 -35.6634 -35.3081 -35.2788 -35.2257
   -20.8916 -20.8704 -20.8406 -20.8259 -20.8053 -20.7977 -20.7758 -20.4045
   -20.3984 -20.3696 -20.3590 -20.3478 -20.3147 -20.2928 -17.8915 -11.0229
    -6.3470  -6.0598  -5.2461  -4.7520  -4.2809  -3.2891  -1.2653  -1.0465
     0.0249   1.0158   2.0303   2.8697   3.2919   4.0282

          k = 0.3258 0.6586 0.0000 ( 15244 PWs)   bands (ev):

   -69.1712 -68.6525 -36.0897 -35.7951 -35.6636 -35.3530 -35.2531 -35.1737
   -20.8875 -20.8733 -20.8411 -20.8258 -20.8078 -20.7975 -20.7715 -20.4086
   -20.3949 -20.3689 -20.3585 -20.3476 -20.3144 -20.2945 -17.9234 -11.1010
    -6.5448  -5.7450  -5.3337  -4.5665  -4.0230  -3.4451  -1.5127  -1.0538
    -0.3590   0.8656   2.2559   2.7019   3.7938   4.1098

          k = 0.3258-0.3764 0.0000 ( 15277 PWs)   bands (ev):

   -69.1761 -68.6575 -36.1325 -35.6963 -35.6512 -35.3882 -35.2636 -35.0468
   -20.8839 -20.8751 -20.8409 -20.8258 -20.8110 -20.7957 -20.7691 -20.4112
   -20.3928 -20.3694 -20.3567 -20.3478 -20.3112 -20.2978 -17.9770 -11.3180
    -6.7172  -5.5784  -5.2261  -4.5690  -3.6854  -3.3898  -1.7460  -1.1905
    -0.6234   0.8630   2.1103   2.6623   3.8196   4.4247

          k = 0.3258-0.2823 0.0000 ( 15304 PWs)   bands (ev):

   -69.1830 -68.6644 -36.1112 -35.7051 -35.5655 -35.3726 -35.2749 -34.9464
   -20.8839 -20.8735 -20.8402 -20.8259 -20.8134 -20.7933 -20.7706 -20.4115
   -20.3926 -20.3706 -20.3544 -20.3484 -20.3078 -20.3010 -18.0352 -11.5979
    -6.6510  -5.8543  -5.1145  -4.2175  -3.5054  -3.2305  -1.7650  -1.3922
    -0.7048   0.7799   1.8727   2.7077   3.4577   3.8585

          k = 0.3258-0.1882 0.0000 ( 15343 PWs)   bands (ev):

   -69.1901 -68.6711 -36.0372 -35.7262 -35.5171 -35.3254 -35.2741 -34.8953
   -20.8849 -20.8716 -20.8397 -20.8262 -20.8131 -20.7913 -20.7753 -20.4098
   -20.3941 -20.3714 -20.3526 -20.3490 -20.3088 -20.3004 -18.0863 -11.8457
    -6.3757  -6.0081  -5.1247  -3.8416  -3.5545  -3.1365  -1.6310  -1.4789
    -0.9951   0.6090   1.8387   2.5894   2.8078   3.1459

          k = 0.3258-0.0941 0.0000 ( 15357 PWs)   bands (ev):

   -69.1955 -68.6759 -35.9432 -35.7443 -35.5152 -35.3126 -35.2225 -34.8916
   -20.8847 -20.8722 -20.8400 -20.8263 -20.8109 -20.7897 -20.7808 -20.4070
   -20.3960 -20.3717 -20.3520 -20.3494 -20.3113 -20.2986 -18.1235 -11.9958
    -6.1460  -5.8058  -5.1682  -3.8741  -3.6073  -3.1080  -2.0476  -1.2978
    -0.9154   0.3172   1.6427   2.1555   2.6260   3.0456

          k = 0.3258-0.0000 0.0000 ( 15363 PWs)   bands (ev):

   -69.1977 -68.6776 -35.8851 -35.7561 -35.5258 -35.3143 -35.1962 -34.8957
   -20.8832 -20.8752 -20.8413 -20.8249 -20.8099 -20.7903 -20.7819 -20.4061
   -20.3959 -20.3716 -20.3526 -20.3497 -20.3120 -20.2977 -18.1399 -12.0282
    -6.1483  -5.5791  -5.1410  -4.2662  -3.4486  -2.9798  -2.4596  -1.1385
    -0.7211   0.1706   1.4845   2.0364   2.5385   3.1391

          k = 0.3258 0.0941 0.0000 ( 15359 PWs)   bands (ev):

   -69.1962 -68.6756 -35.9087 -35.7584 -35.5154 -35.3155 -35.2459 -34.8761
   -20.8834 -20.8765 -20.8426 -20.8235 -20.8101 -20.7930 -20.7787 -20.4080
   -20.3932 -20.3716 -20.3538 -20.3501 -20.3102 -20.2977 -18.1274 -11.9517
    -6.3531  -5.8109  -4.9919  -4.4430  -3.2664  -2.8825  -2.5102  -1.3035
    -0.2784   0.5472   1.4335   2.1236   2.5283   3.0430

          k = 0.4073 0.2352 0.0000 ( 15279 PWs)   bands (ev):

   -69.1813 -68.6605 -36.1111 -35.7269 -35.5504 -35.4700 -35.2780 -34.9045
   -20.8925 -20.8695 -20.8452 -20.8255 -20.8067 -20.7925 -20.7758 -20.4108
   -20.3920 -20.3717 -20.3565 -20.3500 -20.3039 -20.2973 -17.9933 -11.4294
    -6.9667  -6.4404  -5.0935  -4.6970  -3.5038  -2.8077  -2.3282  -0.7772
     0.5018   1.2253   2.2348   3.0136   3.4410   3.9804

          k = 0.4073 0.3293 0.0000 ( 15278 PWs)   bands (ev):

   -69.1775 -68.6569 -36.1292 -35.7214 -35.5941 -35.4886 -35.2724 -34.9438
   -20.8942 -20.8684 -20.8445 -20.8259 -20.8059 -20.7928 -20.7764 -20.4103
   -20.3928 -20.3716 -20.3576 -20.3496 -20.3052 -20.2954 -17.9552 -11.2896
    -7.0604  -6.3390  -5.2589  -4.7011  -3.6319  -2.9095  -2.2694  -0.6084
     0.5676   1.3027   2.1611   3.1668   3.8747   4.1759

          k = 0.4072 0.4234 0.0000 ( 15268 PWs)   bands (ev):

   -69.1741 -68.6539 -36.0971 -35.7386 -35.6627 -35.4566 -35.2668 -35.0319
   -20.8937 -20.8688 -20.8440 -20.8254 -20.8048 -20.7934 -20.7788 -20.4076
   -20.3953 -20.3704 -20.3588 -20.3494 -20.3081 -20.2944 -17.9201 -11.1628
    -6.9077  -5.9697  -5.5286  -4.6322  -4.0113  -2.9487  -2.0345  -0.6806
     0.4216   1.4253   1.7793   2.8441   3.7753   4.3151

          k = 0.4072 0.5175 0.0000 ( 15244 PWs)   bands (ev):

   -69.1718 -68.6522 -36.0454 -35.8187 -35.6707 -35.3885 -35.2618 -35.1346
   -20.8915 -20.8702 -20.8439 -20.8248 -20.8045 -20.7941 -20.7795 -20.4048
   -20.3983 -20.3689 -20.3595 -20.3491 -20.3111 -20.2942 -17.9050 -11.0892
    -6.6112  -5.8492  -5.3819  -4.6672  -4.3717  -3.0369  -1.5267  -1.0331
     0.1656   1.1170   1.6981   2.6091   3.6342   4.4025

          k = 0.4072 0.6115 0.0000 ( 15248 PWs)   bands (ev):

   -69.1714 -68.6524 -36.0813 -35.7962 -35.6659 -35.3688 -35.2551 -35.1567
   -20.8886 -20.8722 -20.8437 -20.8248 -20.8065 -20.7942 -20.7761 -20.4071
   -20.3966 -20.3687 -20.3586 -20.3487 -20.3125 -20.2948 -17.9174 -11.0901
    -6.5961  -5.8292  -5.2489  -4.6844  -4.1062  -3.3288  -1.4409  -1.0008
    -0.4313   1.1362   1.8917   2.7244   3.7324   4.5037

          k = 0.4072 0.7056 0.0000 ( 15272 PWs)   bands (ev):

   -69.1729 -68.6544 -36.1625 -35.7042 -35.6554 -35.4235 -35.2595 -35.0614
   -20.8864 -20.8735 -20.8433 -20.8254 -20.8094 -20.7931 -20.7713 -20.4111
   -20.3935 -20.3698 -20.3563 -20.3486 -20.3113 -20.2960 -17.9500 -11.1666
    -6.9633  -5.6458  -5.2904  -4.6040  -3.6889  -3.4283  -1.6825  -1.0950
    -0.5261   1.3691   2.0619   3.0763   3.9269   4.5655

          k = 0.4073-0.3293 0.0000 ( 15276 PWs)   bands (ev):

   -69.1760 -68.6576 -36.2006 -35.6878 -35.5894 -35.4542 -35.2659 -34.9697
   -20.8860 -20.8730 -20.8428 -20.8259 -20.8117 -20.7916 -20.7688 -20.4133
   -20.3919 -20.3713 -20.3539 -20.3488 -20.3090 -20.2976 -17.9868 -11.3042
    -7.1772  -5.8195  -5.2157  -4.4797  -3.3792  -3.2769  -1.7980  -1.2718
    -0.3469   1.1781   2.3007   3.2411   4.0551   4.6070

          k = 0.4073-0.2352 0.0000 ( 15283 PWs)   bands (ev):

   -69.1797 -68.6613 -36.1773 -35.6973 -35.5497 -35.4360 -35.2724 -34.9269
   -20.8861 -20.8720 -20.8427 -20.8255 -20.8125 -20.7905 -20.7706 -20.4130
   -20.3922 -20.3720 -20.3525 -20.3491 -20.3074 -20.2993 -18.0147 -11.4622
    -7.0771  -5.9590  -5.1884  -4.2673  -3.3266  -3.2135  -1.7967  -1.1974
    -0.5466   0.9579   2.3584   3.4204   3.5614   4.0317

          k = 0.4073-0.1412 0.0000 ( 15302 PWs)   bands (ev):

   -69.1832 -68.6643 -36.1041 -35.7095 -35.5627 -35.3803 -35.2758 -34.9392
   -20.8854 -20.8720 -20.8432 -20.8252 -20.8107 -20.7902 -20.7759 -20.4103
   -20.3941 -20.3717 -20.3527 -20.3492 -20.3068 -20.3011 -18.0298 -11.5844
    -6.6929  -5.9141  -5.1457  -4.1728  -3.5607  -3.2982  -1.7325  -1.1908
    -0.8909   0.8805   2.0238   2.7305   3.4481   3.8667

          k = 0.4073-0.0471 0.0000 ( 15300 PWs)   bands (ev):

   -69.1855 -68.6659 -36.0221 -35.7220 -35.5998 -35.3325 -35.2714 -34.9733
   -20.8843 -20.8733 -20.8441 -20.8250 -20.8076 -20.7903 -20.7811 -20.4069
   -20.3964 -20.3710 -20.3537 -20.3495 -20.3058 -20.3028 -18.0351 -11.6372
    -6.2349  -5.7715  -5.2625  -4.3620  -3.8063  -3.1403  -2.0405  -1.0626
    -0.9170   0.6509   1.6698   2.2962   3.3709   3.9676

          k = 0.4073 0.0470 0.0000 ( 15300 PWs)   bands (ev):

   -69.1859 -68.6658 -36.0013 -35.7308 -35.6008 -35.3432 -35.2761 -34.9636
   -20.8853 -20.8736 -20.8451 -20.8246 -20.8064 -20.7916 -20.7812 -20.4067
   -20.3959 -20.3705 -20.3548 -20.3501 -20.3040 -20.3032 -18.0328 -11.6198
    -6.1963  -5.9103  -5.3588  -4.5098  -3.6145  -2.8941  -2.4330  -1.1257
    -0.3572   0.7427   1.4159   2.2204   3.2828   3.9938

          k = 0.4073 0.1411 0.0000 ( 15304 PWs)   bands (ev):

   -69.1844 -68.6638 -36.0537 -35.7308 -35.5632 -35.4089 -35.2810 -34.9199
   -20.8890 -20.8716 -20.8456 -20.8247 -20.8068 -20.7925 -20.7779 -20.4092
   -20.3933 -20.3710 -20.3556 -20.3504 -20.3038 -20.3002 -18.0203 -11.5461
    -6.6178  -6.2706  -5.1591  -4.6129  -3.3244  -2.9325  -2.4220  -1.0210
     0.2583   1.0224   1.7464   2.3558   3.2283   4.0270

          k =-0.4887-0.2822 0.0000 ( 15258 PWs)   bands (ev):

   -69.1776 -68.6569 -36.1587 -35.7214 -35.5630 -35.5112 -35.2721 -34.9160
   -20.8944 -20.8686 -20.8458 -20.8260 -20.8057 -20.7915 -20.7756 -20.4114
   -20.3924 -20.3717 -20.3570 -20.3499 -20.3040 -20.2953 -17.9617 -11.2840
    -7.2083  -6.4867  -5.1573  -4.7618  -3.5615  -2.8315  -2.3362  -0.4417
     0.6423   1.2925   2.2384   3.5337   3.8619   4.3991

          k =-0.4887-0.1881 0.0000 ( 15278 PWs)   bands (ev):

   -69.1775 -68.6569 -36.1341 -35.7197 -35.5913 -35.4878 -35.2716 -34.9446
   -20.8933 -20.8692 -20.8459 -20.8255 -20.8054 -20.7917 -20.7771 -20.4102
   -20.3933 -20.3711 -20.3572 -20.3500 -20.3047 -20.2960 -17.9584 -11.2840
    -7.0667  -6.3374  -5.2678  -4.7029  -3.5511  -2.9171  -2.3293  -0.5271
     0.4845   1.3182   2.0803   2.9187   3.7779   4.3118

          k =-0.4887-0.0941 0.0000 ( 15276 PWs)   bands (ev):

   -69.1772 -68.6571 -36.0781 -35.7252 -35.6506 -35.4253 -35.2694 -35.0146
   -20.8904 -20.8706 -20.8459 -20.8246 -20.8048 -20.7921 -20.7800 -20.4074
   -20.3959 -20.3700 -20.3574 -20.3500 -20.3066 -20.2974 -17.9534 -11.2871
    -6.7170  -5.9329  -5.4987  -4.5718  -3.8736  -2.9288  -2.1415  -0.8801
     0.2148   1.2217   1.4622   2.4404   3.6218   4.5533

          k =-0.4887 0.0000 0.0000 ( 15266 PWs)   bands (ev):

   -69.1768 -68.6573 -36.0576 -35.7369 -35.6707 -35.3744 -35.2648 -35.0691
   -20.8875 -20.8721 -20.8455 -20.8243 -20.8053 -20.7919 -20.7805 -20.4060
   -20.3974 -20.3697 -20.3568 -20.3496 -20.3085 -20.2982 -17.9559 -11.2951
    -6.4706  -5.7338  -5.3913  -4.5644  -4.1234  -3.0819  -1.7362  -1.1746
    -0.4236   1.0486   1.5029   2.3600   3.7848   4.5691

          k =-0.4887 0.0941 0.0000 ( 15276 PWs)   bands (ev):

   -69.1764 -68.6575 -36.1222 -35.7030 -35.6478 -35.4010 -35.2646 -35.0345
   -20.8863 -20.8727 -20.8448 -20.8246 -20.8083 -20.7912 -20.7763 -20.4093
   -20.3950 -20.3706 -20.3550 -20.3492 -20.3090 -20.2982 -17.9685 -11.3010
    -6.7667  -5.7473  -5.1750  -4.5680  -3.7658  -3.3788  -1.6575  -1.1034
    -0.7407   1.2114   1.8030   2.7071   3.8900   4.5262

          k =-0.4887 0.1882 0.0000 ( 15276 PWs)   bands (ev):

   -69.1761 -68.6576 -36.1979 -35.6893 -35.5890 -35.4567 -35.2660 -34.9673
   -20.8866 -20.8724 -20.8439 -20.8253 -20.8110 -20.7903 -20.7710 -20.4128
   -20.3926 -20.3717 -20.3532 -20.3492 -20.3084 -20.2977 -17.9840 -11.2993
    -7.1898  -5.8579  -5.2128  -4.4464  -3.3968  -3.3344  -1.7817  -1.2002
    -0.4054   1.2125   2.2663   3.3286   4.0327   4.6438

          k =-0.4887-0.8468 0.0000 ( 15262 PWs)   bands (ev):

   -69.1760 -68.6576 -36.2281 -35.6872 -35.5616 -35.4805 -35.2664 -34.9384
   -20.8870 -20.8721 -20.8436 -20.8258 -20.8118 -20.7899 -20.7687 -20.4142
   -20.3917 -20.3723 -20.3524 -20.3492 -20.3081 -20.2974 -17.9910 -11.2964
    -7.3633  -5.9348  -5.2435  -4.4343  -3.2926  -3.1652  -1.8848  -1.1690
    -0.1814   1.0188   2.5094   3.8855   4.0576   4.6985

     the Fermi energy is    -0.8855 ev

!    total energy              =   -1405.52460000 Ry
     estimated scf accuracy    <          3.6E-13 Ry
     smearing contrib. (-TS)   =      -0.00000910 Ry
     internal energy E=F+TS    =   -1405.52459090 Ry

     The total energy is F=E-TS. E is the sum of the following terms:
     one-electron contribution =  -12062.67469764 Ry
     hartree contribution      =    6060.85409815 Ry
     xc contribution           =    -145.88073301 Ry
     ewald contribution        =    4742.17674160 Ry

     convergence has been achieved in  24 iterations

     negative rho (up, down):  1.041E-04 0.000E+00

     Forces acting on atoms (cartesian axes, Ry/au):

     atom    1 type  2   force =    -0.11933050    0.07601416   -0.10533536
     atom    2 type  1   force =     0.05860969    0.03559525    0.02590422
     atom    3 type  1   force =     0.00165138   -0.10198404    0.24417443
     atom    4 type  3   force =     0.05906942   -0.00962537   -0.16474330

     Total force =     0.325761     Total SCF correction =     0.000005


     Computing stress (Cartesian axis) and pressure


     negative rho (up, down):  1.041E-04 0.000E+00
          total   stress  (Ry/bohr**3)                   (kbar)     P=      -16.43
  -0.00009817  -0.00007133   0.00010957          -14.44      -10.49       16.12
  -0.00007133  -0.00003150  -0.00028088          -10.49       -4.63      -41.32
   0.00010957  -0.00028088  -0.00020534           16.12      -41.32      -30.21


     BFGS Geometry Optimization
     Energy error            =      0.0E+00 Ry
     Gradient error          =      2.4E-01 Ry/Bohr
     Cell gradient error     =      1.4E+01 kbar

     number of scf cycles    =   1
     number of bfgs steps    =   0

     enthalpy           new  =   -1405.5246000049 Ry

     new trust radius        =       0.2646216637 bohr
     new conv_thr            =            1.0E-12 Ry

     new unit-cell volume =   1544.02079 a.u.^3 (   228.80028 Ang^3 )
     density =      2.82978 g/cm^3

CELL_PARAMETERS (alat=  5.55000000)
   1.020550472  -0.001753756   0.000000000
  -0.511793593   0.885872224   0.000000000
   0.000000000   0.000000000  10.000000000

ATOMIC_POSITIONS (crystal)
C             0.0000000000        0.0000000000        0.0000000000    0   0   0
Ta            0.5323870372        0.3066328550       -0.0495332573
Ta           -0.0098894897        0.5819462679        0.0543995393
O             0.2686463531        0.2993877062        0.0970316523



     Writing output data file /scratch/as3359/Ta2CO_loop/Ta.save/
     NEW-OLD atomic charge density approx. for the potential

     negative rho (up, down):  1.004E-04 0.000E+00
     extrapolated charge   63.79179, renormalised to   64.00000

     total cpu time spent up to now is      531.8 secs

     Self-consistent Calculation

     iteration #  1     ecut=    70.00 Ry     beta= 0.70
     Davidson diagonalization with overlap
     c_bands:  2 eigenvalues not converged
     c_bands:  2 eigenvalues not converged
     c_bands:  1 eigenvalues not converged
     c_bands:  1 eigenvalues not converged
     c_bands:  1 eigenvalues not converged
     c_bands:  2 eigenvalues not converged
     c_bands:  1 eigenvalues not converged
     c_bands:  2 eigenvalues not converged
     c_bands:  2 eigenvalues not converged
     c_bands:  1 eigenvalues not converged
     c_bands:  1 eigenvalues not converged
     c_bands:  1 eigenvalues not converged
     c_bands:  3 eigenvalues not converged
     c_bands:  2 eigenvalues not converged
     c_bands:  1 eigenvalues not converged
     c_bands:  2 eigenvalues not converged
     c_bands:  2 eigenvalues not converged
     c_bands:  2 eigenvalues not converged
     c_bands:  2 eigenvalues not converged
     c_bands:  1 eigenvalues not converged
     c_bands:  1 eigenvalues not converged
     c_bands:  2 eigenvalues not converged
     c_bands:  2 eigenvalues not converged
     c_bands:  2 eigenvalues not converged
     c_bands:  1 eigenvalues not converged
     c_bands:  2 eigenvalues not converged
     c_bands:  2 eigenvalues not converged
     c_bands:  2 eigenvalues not converged
     c_bands:  2 eigenvalues not converged
     c_bands:  1 eigenvalues not converged
     c_bands:  1 eigenvalues not converged
     c_bands:  3 eigenvalues not converged
     c_bands:  2 eigenvalues not converged
     c_bands:  1 eigenvalues not converged
     c_bands:  2 eigenvalues not converged
     c_bands:  1 eigenvalues not converged
     c_bands:  2 eigenvalues not converged
     c_bands:  1 eigenvalues not converged
     c_bands:  2 eigenvalues not converged
     c_bands:  2 eigenvalues not converged
     c_bands:  1 eigenvalues not converged
     c_bands:  2 eigenvalues not converged
     c_bands:  3 eigenvalues not converged
     c_bands:  1 eigenvalues not converged
     c_bands:  2 eigenvalues not converged
     c_bands:  2 eigenvalues not converged
     c_bands:  1 eigenvalues not converged
     c_bands:  2 eigenvalues not converged
     c_bands:  1 eigenvalues not converged
     c_bands:  1 eigenvalues not converged
     c_bands:  3 eigenvalues not converged
     c_bands:  1 eigenvalues not converged
     c_bands:  1 eigenvalues not converged
     c_bands:  1 eigenvalues not converged
     c_bands:  2 eigenvalues not converged
     c_bands:  3 eigenvalues not converged
     c_bands:  3 eigenvalues not converged
     c_bands:  2 eigenvalues not converged
     c_bands:  3 eigenvalues not converged
     c_bands:  2 eigenvalues not converged
     c_bands:  1 eigenvalues not converged
     c_bands:  2 eigenvalues not converged
     c_bands:  2 eigenvalues not converged
     c_bands:  2 eigenvalues not converged
     c_bands:  2 eigenvalues not converged
     c_bands:  2 eigenvalues not converged
     c_bands:  1 eigenvalues not converged
     ethr =  1.00E-06,  avg # of iterations = 19.7

     negative rho (up, down):  9.200E-05 0.000E+00

     total cpu time spent up to now is      605.1 secs

     total energy              =   -1404.99216240 Ry
     estimated scf accuracy    <       0.61257148 Ry

     iteration #  2     ecut=    70.00 Ry     beta= 0.70
     Davidson diagonalization with overlap
     c_bands:  1 eigenvalues not converged
     c_bands:  2 eigenvalues not converged
     c_bands:  1 eigenvalues not converged
     c_bands:  1 eigenvalues not converged
     c_bands:  1 eigenvalues not converged
     ethr =  9.57E-04,  avg # of iterations = 16.0

     negative rho (up, down):  1.044E-04 0.000E+00

     total cpu time spent up to now is      643.2 secs

     total energy              =   -1402.28054332 Ry
     estimated scf accuracy    <      72.94212817 Ry

     iteration #  3     ecut=    70.00 Ry     beta= 0.70
     Davidson diagonalization with overlap
     ethr =  9.57E-04,  avg # of iterations = 11.4

     negative rho (up, down):  3.186E-05 0.000E+00

     total cpu time spent up to now is      673.2 secs

     total energy              =   -1405.06473302 Ry
     estimated scf accuracy    <       6.87019039 Ry

     iteration #  4     ecut=    70.00 Ry     beta= 0.70
     Davidson diagonalization with overlap
     ethr =  9.57E-04,  avg # of iterations =  8.8

     negative rho (up, down):  2.716E-05 0.000E+00

     total cpu time spent up to now is      696.0 secs

     total energy              =   -1405.51037175 Ry
     estimated scf accuracy    <       4.71486545 Ry

     iteration #  5     ecut=    70.00 Ry     beta= 0.70
     Davidson diagonalization with overlap
     ethr =  9.57E-04,  avg # of iterations =  2.0

     negative rho (up, down):  2.590E-05 0.000E+00

     total cpu time spent up to now is      712.3 secs

     total energy              =   -1405.59433443 Ry
     estimated scf accuracy    <       0.52932396 Ry

     iteration #  6     ecut=    70.00 Ry     beta= 0.70
     Davidson diagonalization with overlap
     ethr =  8.27E-04,  avg # of iterations =  1.3

     negative rho (up, down):  5.059E-05 0.000E+00

     total cpu time spent up to now is      727.8 secs

     total energy              =   -1405.58519556 Ry
     estimated scf accuracy    <       0.20720378 Ry

     iteration #  7     ecut=    70.00 Ry     beta= 0.70
     Davidson diagonalization with overlap
     c_bands:  1 eigenvalues not converged
     ethr =  3.24E-04,  avg # of iterations =  5.5

     negative rho (up, down):  2.358E-04 0.000E+00

     total cpu time spent up to now is      745.9 secs

     total energy              =   -1405.59273027 Ry
     estimated scf accuracy    <       0.03165703 Ry

     iteration #  8     ecut=    70.00 Ry     beta= 0.70
     Davidson diagonalization with overlap
     ethr =  4.95E-05,  avg # of iterations =  7.9

     negative rho (up, down):  1.803E-03 0.000E+00

     total cpu time spent up to now is      767.3 secs

     total energy              =   -1405.59570189 Ry
     estimated scf accuracy    <       0.00783776 Ry

     iteration #  9     ecut=    70.00 Ry     beta= 0.70
     Davidson diagonalization with overlap
     ethr =  1.22E-05,  avg # of iterations =  2.2

     negative rho (up, down):  4.458E-03 0.000E+00

     total cpu time spent up to now is      783.3 secs

     total energy              =   -1405.59535942 Ry
     estimated scf accuracy    <       0.00523545 Ry

     iteration # 10     ecut=    70.00 Ry     beta= 0.70
     Davidson diagonalization with overlap
     ethr =  8.18E-06,  avg # of iterations =  1.6

     negative rho (up, down):  5.886E-03 0.000E+00

     total cpu time spent up to now is      798.9 secs

     total energy              =   -1405.59543827 Ry
     estimated scf accuracy    <       0.00129286 Ry

     iteration # 11     ecut=    70.00 Ry     beta= 0.70
     Davidson diagonalization with overlap
     ethr =  2.02E-06,  avg # of iterations =  3.5

     negative rho (up, down):  1.284E-03 0.000E+00

     total cpu time spent up to now is      816.5 secs

     total energy              =   -1405.59530798 Ry
     estimated scf accuracy    <       0.00025966 Ry

     iteration # 12     ecut=    70.00 Ry     beta= 0.70
     Davidson diagonalization with overlap
     ethr =  4.06E-07,  avg # of iterations =  4.5

     negative rho (up, down):  6.120E-04 0.000E+00

     total cpu time spent up to now is      836.0 secs

     total energy              =   -1405.59532156 Ry
     estimated scf accuracy    <       0.00030324 Ry

     iteration # 13     ecut=    70.00 Ry     beta= 0.70
     Davidson diagonalization with overlap
     ethr =  4.06E-07,  avg # of iterations =  2.5

     negative rho (up, down):  2.848E-04 0.000E+00

     total cpu time spent up to now is      853.3 secs

     total energy              =   -1405.59536025 Ry
     estimated scf accuracy    <       0.00021131 Ry

     iteration # 14     ecut=    70.00 Ry     beta= 0.70
     Davidson diagonalization with overlap
     ethr =  3.30E-07,  avg # of iterations =  1.0

     negative rho (up, down):  2.069E-04 0.000E+00

     total cpu time spent up to now is      868.6 secs

     total energy              =   -1405.59536696 Ry
     estimated scf accuracy    <       0.00016621 Ry

     iteration # 15     ecut=    70.00 Ry     beta= 0.70
     Davidson diagonalization with overlap
     ethr =  2.60E-07,  avg # of iterations =  1.0

     negative rho (up, down):  1.119E-04 0.000E+00

     total cpu time spent up to now is      883.8 secs

     total energy              =   -1405.59537493 Ry
     estimated scf accuracy    <       0.00000573 Ry

     iteration # 16     ecut=    70.00 Ry     beta= 0.70
     Davidson diagonalization with overlap
     ethr =  8.95E-09,  avg # of iterations =  2.1

     negative rho (up, down):  1.018E-04 0.000E+00

     total cpu time spent up to now is      900.8 secs

     total energy              =   -1405.59537568 Ry
     estimated scf accuracy    <       0.00000012 Ry

     iteration # 17     ecut=    70.00 Ry     beta= 0.70
     Davidson diagonalization with overlap
     ethr =  1.94E-10,  avg # of iterations =  5.2

     negative rho (up, down):  1.001E-04 0.000E+00

     total cpu time spent up to now is      924.2 secs

     total energy              =   -1405.59537579 Ry
     estimated scf accuracy    <       0.00000007 Ry

     iteration # 18     ecut=    70.00 Ry     beta= 0.70
     Davidson diagonalization with overlap
     ethr =  1.08E-10,  avg # of iterations =  2.1

     negative rho (up, down):  1.000E-04 0.000E+00

     total cpu time spent up to now is      942.0 secs

     total energy              =   -1405.59537580 Ry
     estimated scf accuracy    <       0.00000002 Ry

     iteration # 19     ecut=    70.00 Ry     beta= 0.70
     Davidson diagonalization with overlap
     ethr =  2.35E-11,  avg # of iterations =  3.7

     negative rho (up, down):  9.944E-05 0.000E+00

     total cpu time spent up to now is      960.9 secs

     total energy              =   -1405.59537580 Ry
     estimated scf accuracy    <       0.00000001 Ry

     iteration # 20     ecut=    70.00 Ry     beta= 0.70
     Davidson diagonalization with overlap
     ethr =  2.20E-11,  avg # of iterations =  1.3

     negative rho (up, down):  9.933E-05 0.000E+00

     total cpu time spent up to now is      976.5 secs

     total energy              =   -1405.59537580 Ry
     estimated scf accuracy    <          4.1E-10 Ry

     iteration # 21     ecut=    70.00 Ry     beta= 0.70
     Davidson diagonalization with overlap
     ethr =  6.35E-13,  avg # of iterations =  5.5

     negative rho (up, down):  9.939E-05 0.000E+00

     total cpu time spent up to now is      996.7 secs

     total energy              =   -1405.59537580 Ry
     estimated scf accuracy    <          8.0E-11 Ry

     iteration # 22     ecut=    70.00 Ry     beta= 0.70
     Davidson diagonalization with overlap
     ethr =  1.24E-13,  avg # of iterations =  3.1

     negative rho (up, down):  9.931E-05 0.000E+00

     total cpu time spent up to now is     1014.6 secs

     total energy              =   -1405.59537580 Ry
     estimated scf accuracy    <          2.1E-11 Ry

     iteration # 23     ecut=    70.00 Ry     beta= 0.70
     Davidson diagonalization with overlap
     ethr =  1.00E-13,  avg # of iterations =  2.0

     negative rho (up, down):  9.933E-05 0.000E+00

     total cpu time spent up to now is     1031.0 secs

     total energy              =   -1405.59537580 Ry
     estimated scf accuracy    <          2.3E-11 Ry

     iteration # 24     ecut=    70.00 Ry     beta= 0.70
     Davidson diagonalization with overlap
     ethr =  1.00E-13,  avg # of iterations =  1.2

     negative rho (up, down):  9.934E-05 0.000E+00

     total cpu time spent up to now is     1046.4 secs

     End of self-consistent calculation

          k = 0.0000 0.0000 0.0000 ( 15285 PWs)   bands (ev):

   -68.8813 -68.0819 -35.5206 -35.0982 -34.9849 -34.7492 -34.1459 -34.1049
   -20.5916 -20.5147 -20.5011 -20.4633 -20.4465 -20.4270 -20.4183 -19.7782
   -19.7613 -19.7498 -19.7252 -19.7155 -19.6985 -19.6490 -19.1148 -12.2551
    -7.3211  -5.3747  -4.8147  -4.4242  -2.0048  -1.6507  -1.1087  -0.5897
     0.0766   0.4033   0.9696   1.7910   2.2930   3.1308

          k = 0.0002 0.0942 0.0000 ( 15393 PWs)   bands (ev):

   -68.8775 -68.0783 -35.5099 -35.1150 -35.0392 -34.7413 -34.1824 -34.1339
   -20.5869 -20.5152 -20.4999 -20.4629 -20.4466 -20.4289 -20.4199 -19.7772
   -19.7618 -19.7495 -19.7250 -19.7157 -19.6971 -19.6520 -19.0746 -12.1628
    -7.1350  -5.3714  -4.8792  -4.4076  -2.3175  -1.7769  -1.1324  -0.4030
    -0.1668   0.5429   1.0445   1.6300   2.4640   3.0554

          k = 0.0003 0.1883 0.0000 ( 15383 PWs)   bands (ev):

   -68.8671 -68.0683 -35.4821 -35.2153 -35.1284 -34.7201 -34.3189 -34.1737
   -20.5761 -20.5152 -20.4972 -20.4622 -20.4487 -20.4311 -20.4239 -19.7745
   -19.7636 -19.7490 -19.7242 -19.7159 -19.6924 -19.6597 -18.9718 -11.9026
    -6.6442  -5.4875  -5.0560  -4.2239  -3.1565  -1.9559  -1.2811  -0.4481
    -0.0183   0.7756   1.2218   1.7328   2.4992   3.0359

          k = 0.0005 0.2825 0.0000 ( 15389 PWs)   bands (ev):

   -68.8528 -68.0545 -35.4695 -35.3911 -35.1788 -34.6919 -34.5086 -34.2193
   -20.5666 -20.5113 -20.4946 -20.4632 -20.4533 -20.4296 -20.4278 -19.7714
   -19.7668 -19.7493 -19.7223 -19.7156 -19.6851 -19.6694 -18.8483 -11.5182
    -6.2292  -5.6478  -5.1495  -4.1744  -3.9539  -2.1977  -1.3795  -0.5617
     0.3426   1.0804   1.5718   2.3176   2.6516   3.1063

          k = 0.0006 0.3767 0.0000 ( 15341 PWs)   bands (ev):

   -68.8384 -68.0408 -35.6325 -35.3919 -35.2212 -34.7006 -34.6573 -34.2635
   -20.5635 -20.5033 -20.4939 -20.4655 -20.4557 -20.4337 -20.4225 -19.7716
   -19.7680 -19.7506 -19.7194 -19.7150 -19.6797 -19.6750 -18.7439 -11.0751
    -6.5296  -5.4621  -5.2369  -4.6517  -4.1140  -2.4355  -1.0259  -0.6377
     0.5822   1.3467   2.1666   3.0381   3.2741   3.5462

          k = 0.0008 0.4708 0.0000 ( 15283 PWs)   bands (ev):

   -68.8278 -68.0307 -35.7740 -35.3717 -35.2465 -34.8295 -34.6405 -34.2953
   -20.5641 -20.4991 -20.4931 -20.4648 -20.4565 -20.4365 -20.4175 -19.7744
   -19.7673 -19.7517 -19.7169 -19.7143 -19.6840 -19.6696 -18.6792 -10.6815
    -6.9507  -5.6064  -5.3454  -4.7258  -4.2433  -2.5222  -0.9950  -0.1434
     0.7077   1.4103   2.7370   3.7452   3.9986   4.4847

          k =-0.0010-0.5650 0.0000 ( 15258 PWs)   bands (ev):

   -68.8240 -68.0270 -35.8256 -35.3661 -35.2534 -34.8772 -34.6331 -34.3068
   -20.5647 -20.4996 -20.4915 -20.4635 -20.4569 -20.4374 -20.4154 -19.7755
   -19.7673 -19.7521 -19.7160 -19.7141 -19.6857 -19.6672 -18.6580 -10.5117
    -7.1444  -5.7266  -5.3252  -4.8042  -4.2641  -2.5276  -1.0386   0.1427
     0.8192   1.3666   2.8907   4.1840   4.4062   4.8678

          k = 0.0817 0.0472 0.0000 ( 15393 PWs)   bands (ev):

   -68.8775 -68.0782 -35.5116 -35.1397 -35.0121 -34.7411 -34.2003 -34.1174
   -20.5870 -20.5139 -20.5006 -20.4645 -20.4468 -20.4291 -20.4187 -19.7778
   -19.7609 -19.7494 -19.7246 -19.7159 -19.6978 -19.6516 -19.0769 -12.1558
    -7.1483  -5.3651  -4.7742  -4.4957  -2.2907  -1.8810  -0.9522  -0.4273
    -0.1822   0.4622   0.8884   1.8145   2.4071   3.0930

          k = 0.0819 0.1414 0.0000 ( 15383 PWs)   bands (ev):

   -68.8704 -68.0712 -35.4933 -35.1731 -35.1057 -34.7262 -34.2940 -34.1469
   -20.5805 -20.5145 -20.4982 -20.4649 -20.4466 -20.4326 -20.4206 -19.7766
   -19.7607 -19.7494 -19.7246 -19.7160 -19.6948 -19.6567 -19.0068 -11.9675
    -6.8177  -5.3191  -5.1133  -4.3717  -2.7872  -2.1178  -1.0158  -0.3724
    -0.0019   0.6774   0.9758   1.7175   2.4796   3.1370

          k = 0.0821 0.2355 0.0000 ( 15382 PWs)   bands (ev):

   -68.8580 -68.0593 -35.4626 -35.3121 -35.1841 -34.7015 -34.4494 -34.1983
   -20.5710 -20.5124 -20.4956 -20.4651 -20.4500 -20.4333 -20.4245 -19.7742
   -19.7625 -19.7494 -19.7237 -19.7160 -19.6885 -19.6651 -18.8906 -11.6422
    -6.2759  -5.6780  -5.2429  -4.1119  -3.5100  -2.4523  -1.3590  -0.3859
     0.4193   0.9220   1.4588   2.0322   2.5154   3.1161

          k = 0.0822 0.3297 0.0000 ( 15357 PWs)   bands (ev):

   -68.8437 -68.0456 -35.5201 -35.4154 -35.2334 -34.6764 -34.6217 -34.2551
   -20.5653 -20.5056 -20.4942 -20.4664 -20.4546 -20.4320 -20.4265 -19.7720
   -19.7658 -19.7501 -19.7213 -19.7159 -19.6812 -19.6732 -18.7721 -11.2330
    -6.2855  -5.5321  -5.3601  -4.4325  -3.8872  -2.6530  -1.2881  -0.5448
     0.6703   1.1257   2.1023   2.6401   3.1108   3.3706

          k = 0.0824 0.4239 0.0000 ( 15308 PWs)   bands (ev):

   -68.8312 -68.0337 -35.6883 -35.3934 -35.2649 -34.7742 -34.6463 -34.3041
   -20.5639 -20.4994 -20.4933 -20.4667 -20.4566 -20.4348 -20.4220 -19.7719
   -19.7682 -19.7508 -19.7185 -19.7157 -19.6822 -19.6714 -18.6868 -10.8165
    -6.6787  -5.5877  -5.2369  -4.7594  -4.0982  -2.7595  -0.9496  -0.4277
     0.5324   1.5304   2.5108   3.2555   3.9675   4.2705

          k = 0.0825 0.5180 0.0000 ( 15278 PWs)   bands (ev):

   -68.8239 -68.0269 -35.7911 -35.3824 -35.2745 -34.8535 -34.6333 -34.3340
   -20.5636 -20.5005 -20.4905 -20.4642 -20.4577 -20.4371 -20.4174 -19.7742
   -19.7680 -19.7511 -19.7168 -19.7153 -19.6856 -19.6674 -18.6486 -10.5239
    -6.9717  -5.7046  -5.3588  -4.6798  -4.2599  -2.7344  -1.0416   0.0454
     0.4846   1.7358   2.7987   3.8651   4.2870   4.9122

          k = 0.0808-0.5178 0.0000 ( 15276 PWs)   bands (ev):

   -68.8239 -68.0270 -35.8025 -35.3741 -35.2732 -34.8470 -34.6335 -34.3386
   -20.5622 -20.5018 -20.4904 -20.4636 -20.4579 -20.4376 -20.4155 -19.7752
   -19.7671 -19.7509 -19.7173 -19.7146 -19.6860 -19.6677 -18.6554 -10.5218
    -6.9582  -5.7007  -5.2670  -4.7806  -4.1971  -2.6793  -1.0826  -0.1727
     0.6608   1.6903   2.8169   3.6703   4.1761   4.8639

          k = 0.0809-0.4236 0.0000 ( 15310 PWs)   bands (ev):

   -68.8311 -68.0340 -35.7223 -35.3730 -35.2566 -34.7554 -34.6466 -34.3174
   -20.5601 -20.5030 -20.4924 -20.4650 -20.4576 -20.4361 -20.4176 -19.7742
   -19.7668 -19.7498 -19.7187 -19.7150 -19.6828 -19.6724 -18.7016 -10.8238
    -6.6067  -5.5227  -5.1938  -4.7405  -4.0770  -2.6678  -1.0500  -0.6288
     0.4881   1.5098   2.2727   3.1552   3.7048   4.4199

          k = 0.0811-0.3294 0.0000 ( 15357 PWs)   bands (ev):

   -68.8435 -68.0460 -35.5776 -35.3897 -35.2099 -34.6764 -34.5927 -34.2765
   -20.5599 -20.5079 -20.4942 -20.4634 -20.4574 -20.4326 -20.4225 -19.7717
   -19.7680 -19.7482 -19.7206 -19.7164 -19.6801 -19.6756 -18.7833 -11.2627
    -6.1584  -5.6076  -4.9957  -4.4873  -3.9607  -2.5630  -1.3087  -0.7722
     0.2163   1.1112   1.7711   2.7818   3.1159   3.6819

          k = 0.0813-0.2353 0.0000 ( 15382 PWs)   bands (ev):

   -68.8578 -68.0598 -35.4742 -35.3523 -35.1416 -34.7029 -34.4108 -34.2274
   -20.5655 -20.5127 -20.4968 -20.4606 -20.4549 -20.4289 -20.4266 -19.7720
   -19.7672 -19.7474 -19.7222 -19.7174 -19.6879 -19.6663 -18.8911 -11.6874
    -6.2364  -5.7019  -4.8453  -4.0601  -3.7165  -2.2585  -1.4816  -0.7438
    -0.0353   0.8244   1.4365   2.2312   2.8125   3.1703

          k = 0.0814-0.1411 0.0000 ( 15383 PWs)   bands (ev):

   -68.8703 -68.0716 -35.4911 -35.2256 -35.0629 -34.7274 -34.2490 -34.1845
   -20.5763 -20.5137 -20.4997 -20.4614 -20.4500 -20.4298 -20.4225 -19.7751
   -19.7643 -19.7480 -19.7234 -19.7172 -19.6940 -19.6573 -19.0004 -12.0079
    -6.7917  -5.5697  -4.6724  -4.2173  -2.9604  -1.8350  -1.3649  -0.7710
    -0.2546   0.7096   1.3145   1.7055   2.7250   2.9978

          k = 0.0816-0.0469 0.0000 ( 15393 PWs)   bands (ev):

   -68.8775 -68.0783 -35.5103 -35.1545 -35.0015 -34.7416 -34.1761 -34.1389
   -20.5855 -20.5134 -20.5013 -20.4632 -20.4479 -20.4283 -20.4194 -19.7773
   -19.7623 -19.7490 -19.7242 -19.7164 -19.6974 -19.6518 -19.0731 -12.1719
    -7.1399  -5.4788  -4.6807  -4.3338  -2.4068  -1.6759  -1.1079  -0.7537
    -0.2440   0.5887   1.0774   1.7819   2.4453   3.0699

          k = 0.1635 0.0944 0.0000 ( 15385 PWs)   bands (ev):

   -68.8670 -68.0679 -35.4919 -35.2676 -35.0637 -34.7198 -34.3465 -34.1514
   -20.5760 -20.5119 -20.4983 -20.4678 -20.4482 -20.4336 -20.4192 -19.7773
   -19.7599 -19.7482 -19.7237 -19.7172 -19.6946 -19.6580 -18.9791 -11.8793
    -6.7248  -5.4695  -4.8237  -4.3248  -3.1452  -1.9507  -1.1880  -0.5716
    -0.1019   0.6019   1.0749   1.9652   2.5493   3.0630

          k = 0.1636 0.1886 0.0000 ( 15382 PWs)   bands (ev):

   -68.8580 -68.0591 -35.4766 -35.3347 -35.1456 -34.7018 -34.4618 -34.1892
   -20.5708 -20.5107 -20.4963 -20.4684 -20.4500 -20.4353 -20.4210 -19.7765
   -19.7595 -19.7482 -19.7242 -19.7176 -19.6897 -19.6636 -18.8953 -11.6278
    -6.3877  -5.6092  -5.1177  -4.1913  -3.3841  -2.3781  -1.5422  -0.4328
     0.2310   0.8854   1.5096   2.1265   2.6291   3.1423

          k = 0.1638 0.2828 0.0000 ( 15359 PWs)   bands (ev):

   -68.8456 -68.0471 -35.4912 -35.4083 -35.2404 -34.6808 -34.5940 -34.2569
   -20.5654 -20.5060 -20.4946 -20.4686 -20.4552 -20.4335 -20.4243 -19.7750
   -19.7616 -19.7482 -19.7233 -19.7180 -19.6829 -19.6706 -18.7847 -11.2769
    -6.0254  -5.8298  -5.3618  -4.2583  -3.3681  -3.0122  -1.7406  -0.3673
     0.4896   1.0018   2.1746   2.5475   3.1779   3.4268

          k = 0.1640 0.3769 0.0000 ( 15298 PWs)   bands (ev):

   -68.8331 -68.0352 -35.5966 -35.4263 -35.2984 -34.7255 -34.6464 -34.3335
   -20.5627 -20.5010 -20.4920 -20.4687 -20.4588 -20.4328 -20.4252 -19.7731
   -19.7654 -19.7485 -19.7212 -19.7183 -19.6806 -19.6724 -18.6869 -10.8851
    -6.3079  -5.6543  -5.3476  -4.5579  -3.7748  -3.1364  -1.2974  -0.5157
     0.4502   1.3385   2.3776   3.0699   3.8801   4.2535

          k = 0.1641 0.4711 0.0000 ( 15277 PWs)   bands (ev):

   -68.8239 -68.0267 -35.7022 -35.4472 -35.3041 -34.7996 -34.6335 -34.3959
   -20.5611 -20.5018 -20.4883 -20.4662 -20.4605 -20.4353 -20.4214 -19.7716
   -19.7691 -19.7486 -19.7198 -19.7178 -19.6845 -19.6680 -18.6297 -10.5445
    -6.5473  -5.8303  -5.1635  -4.7469  -4.0002  -3.2177  -0.9380  -0.3310
     0.2671   1.8628   2.5354   3.4798   4.1576   4.9149

          k = 0.1643 0.5653 0.0000 ( 15268 PWs)   bands (ev):

   -68.8204 -68.0237 -35.7619 -35.4424 -35.2994 -34.8160 -34.6287 -34.4268
   -20.5588 -20.5044 -20.4874 -20.4640 -20.4605 -20.4370 -20.4175 -19.7735
   -19.7683 -19.7483 -19.7205 -19.7158 -19.6869 -19.6664 -18.6206 -10.3950
    -6.6534  -5.8267  -5.2614  -4.6021  -4.1473  -3.1617  -1.0025  -0.2614
     0.3407   2.0121   2.7634   3.7736   3.9863   4.8104

          k = 0.1625-0.4705 0.0000 ( 15279 PWs)   bands (ev):

   -68.8237 -68.0271 -35.7578 -35.4010 -35.3017 -34.7695 -34.6343 -34.4182
   -20.5556 -20.5060 -20.4890 -20.4656 -20.4591 -20.4369 -20.4157 -19.7751
   -19.7663 -19.7475 -19.7214 -19.7150 -19.6863 -19.6689 -18.6521 -10.5417
    -6.5064  -5.6564  -5.1152  -4.7253  -4.0317  -3.1249  -0.9925  -0.6313
     0.2720   1.5212   2.6748   3.4123   3.9663   4.7212

          k = 0.1627-0.3764 0.0000 ( 15300 PWs)   bands (ev):

   -68.8327 -68.0361 -35.6918 -35.3654 -35.2774 -34.6799 -34.6409 -34.3720
   -20.5531 -20.5071 -20.4922 -20.4662 -20.4592 -20.4348 -20.4176 -19.7750
   -19.7657 -19.7462 -19.7220 -19.7159 -19.6819 -19.6746 -18.7139 -10.9133
    -6.1642  -5.4698  -4.9488  -4.7258  -3.8539  -3.1301  -1.2700  -0.7678
     0.0188   0.9752   2.2644   3.1527   3.6742   4.5373

          k = 0.1628-0.2822 0.0000 ( 15359 PWs)   bands (ev):

   -68.8452 -68.0481 -35.5860 -35.3801 -35.1911 -34.6806 -34.5339 -34.3015
   -20.5543 -20.5087 -20.4964 -20.4630 -20.4599 -20.4311 -20.4220 -19.7739
   -19.7663 -19.7454 -19.7216 -19.7180 -19.6822 -19.6739 -18.7973 -11.3445
    -5.9182  -5.6676  -4.7856  -4.3412  -3.7272  -2.9454  -1.6192  -0.7031
    -0.2037   0.8051   1.7436   2.9515   3.2446   3.8140

          k = 0.1630-0.1880 0.0000 ( 15380 PWs)   bands (ev):

   -68.8576 -68.0599 -35.4987 -35.3733 -35.1015 -34.7038 -34.4045 -34.2302
   -20.5612 -20.5095 -20.5001 -20.4619 -20.4565 -20.4294 -20.4240 -19.7740
   -19.7661 -19.7459 -19.7205 -19.7199 -19.6889 -19.6655 -18.8900 -11.7084
    -6.2881  -5.6793  -4.4993  -4.0715  -3.6373  -2.4303  -1.5992  -0.8386
    -0.2720   0.7310   1.5024   2.2743   3.1091   3.2803

          k = 0.1631-0.0939 0.0000 ( 15385 PWs)   bands (ev):

   -68.8668 -68.0684 -35.4905 -35.3024 -35.0406 -34.7212 -34.3085 -34.1794
   -20.5704 -20.5098 -20.5015 -20.4638 -20.4521 -20.4302 -20.4216 -19.7755
   -19.7643 -19.7470 -19.7220 -19.7182 -19.6938 -19.6589 -18.9691 -11.9335
    -6.6685  -5.6628  -4.3994  -4.1158  -3.2790  -1.9628  -1.4115  -0.9204
    -0.3117   0.6314   1.4567   1.7708   2.8151   3.2336

          k = 0.1633 0.0003 0.0000 ( 15383 PWs)   bands (ev):

   -68.8702 -68.0713 -35.4973 -35.2546 -35.0258 -34.7271 -34.2856 -34.1519
   -20.5764 -20.5110 -20.5003 -20.4661 -20.4497 -20.4308 -20.4197 -19.7769
   -19.7620 -19.7479 -19.7230 -19.7172 -19.6959 -19.6562 -19.0054 -11.9898
    -6.8266  -5.5666  -4.5471  -4.2765  -2.9264  -2.0370  -1.0686  -0.8048
    -0.2282   0.5440   1.0768   1.9382   2.5188   3.2307

          k = 0.2452 0.1417 0.0000 ( 15395 PWs)   bands (ev):

   -68.8526 -68.0539 -35.5299 -35.3872 -35.1176 -34.6946 -34.5372 -34.1975
   -20.5655 -20.5091 -20.4942 -20.4716 -20.4528 -20.4352 -20.4193 -19.7778
   -19.7591 -19.7459 -19.7244 -19.7190 -19.6879 -19.6650 -18.8584 -11.4821
    -6.4210  -5.5672  -4.9124  -4.4287  -3.4960  -2.0357  -1.7450  -0.8046
     0.1787   0.9537   1.6595   2.4769   2.6664   3.1008

          k = 0.2454 0.2358 0.0000 ( 15357 PWs)   bands (ev):

[...]
     1.6670   1.8802   2.4785   3.1219   4.0263   5.5571

          k = 0.2404 0.5995 0.0000 ( 15997 PWs)   bands (ev):

   -69.0221 -68.1118 -35.9499 -35.7138 -35.5836 -34.8175 -34.7610 -34.6304
   -20.7201 -20.6560 -20.6520 -20.6500 -20.6452 -20.6390 -20.6236 -19.8265
   -19.8244 -19.8157 -19.7856 -19.7731 -19.7508 -19.7262 -19.0799 -11.7710
    -7.1006  -6.3596  -5.8821  -5.0131  -4.6557  -4.3182  -1.2450  -0.5841
     1.6669   1.8918   2.4568   3.0892   4.0145   5.5549

          k = 0.2375-0.4143 0.0000 ( 16030 PWs)   bands (ev):

   -69.0265 -68.1158 -35.9408 -35.6369 -35.6014 -34.8022 -34.7651 -34.5717
   -20.7268 -20.6577 -20.6523 -20.6478 -20.6429 -20.6361 -20.6282 -19.8292
   -19.8225 -19.8153 -19.7865 -19.7728 -19.7470 -19.7299 -19.1095 -11.9111
    -7.0436  -6.3985  -5.6834  -5.2639  -4.6876  -4.1159  -1.2996  -0.9504
     1.3360   1.7986   2.5634   3.3572   4.0576   5.5571

          k = 0.2377-0.3221 0.0000 ( 16033 PWs)   bands (ev):

   -69.0340 -68.1226 -35.8980 -35.6380 -35.5255 -34.7755 -34.7595 -34.4864
   -20.7394 -20.6596 -20.6516 -20.6466 -20.6364 -20.6353 -20.6341 -19.8332
   -19.8201 -19.8137 -19.7873 -19.7735 -19.7406 -19.7360 -19.1647 -12.1416
    -6.9930  -6.3720  -5.7524  -5.2029  -4.6971  -3.9379  -1.5901  -0.9997
     0.9071   1.9065   2.4076   3.3778   3.7057   4.5923

          k = 0.2380-0.2300 0.0000 ( 15994 PWs)   bands (ev):

   -69.0424 -68.1303 -35.8163 -35.6742 -35.4342 -34.7810 -34.6947 -34.4122
   -20.7553 -20.6611 -20.6488 -20.6458 -20.6403 -20.6383 -20.6274 -19.8372
   -19.8172 -19.8121 -19.7875 -19.7754 -19.7436 -19.7330 -19.2344 -12.3855
    -7.0156  -6.2306  -5.9023  -5.3767  -4.2054  -3.8819  -1.7311  -1.1256
     0.7597   1.8308   2.2464   2.9531   3.1139   4.0869

          k = 0.2383-0.1378 0.0000 ( 15971 PWs)   bands (ev):

   -69.0496 -68.1369 -35.7170 -35.7028 -35.3871 -34.7882 -34.6127 -34.3729
   -20.7702 -20.6620 -20.6464 -20.6458 -20.6439 -20.6399 -20.6217 -19.8401
   -19.8139 -19.8111 -19.7875 -19.7779 -19.7497 -19.7270 -19.2995 -12.5738
    -7.0658  -6.2306  -5.7015  -5.6374  -3.8838  -3.7678  -1.7205  -1.2550
     0.8311   1.1157   2.2778   2.6427   2.8773   3.9172

          k = 0.2385-0.0456 0.0000 ( 15985 PWs)   bands (ev):

   -69.0536 -68.1406 -35.7235 -35.6323 -35.3847 -34.7922 -34.5481 -34.3685
   -20.7796 -20.6620 -20.6494 -20.6454 -20.6442 -20.6387 -20.6191 -19.8412
   -19.8130 -19.8095 -19.7877 -19.7794 -19.7533 -19.7238 -19.3386 -12.6708
    -7.0263  -6.4233  -5.8863  -5.1281  -4.0407  -3.7626  -1.4710  -1.1011
     0.1195   1.1454   2.1783   2.6684   2.9688   3.3962

          k = 0.2388 0.0465 0.0000 ( 15990 PWs)   bands (ev):

   -69.0534 -68.1403 -35.7236 -35.6302 -35.3888 -34.7918 -34.5521 -34.3673
   -20.7802 -20.6609 -20.6505 -20.6457 -20.6444 -20.6380 -20.6191 -19.8407
   -19.8153 -19.8073 -19.7885 -19.7792 -19.7532 -19.7239 -19.3379 -12.6678
    -7.0204  -6.4183  -5.9002  -5.1188  -4.0653  -3.7603  -1.4461  -1.1050
     0.1073   1.1340   2.1878   2.6384   2.9805   3.4011

          k = 0.3188 0.1849 0.0000 ( 15994 PWs)   bands (ev):

   -69.0375 -68.1258 -35.9044 -35.6544 -35.4370 -34.7884 -34.7645 -34.4075
   -20.7508 -20.6580 -20.6503 -20.6464 -20.6401 -20.6366 -20.6269 -19.8342
   -19.8240 -19.8085 -19.7896 -19.7730 -19.7397 -19.7359 -19.2113 -12.2485
    -7.3673  -6.1316  -5.7048  -5.4395  -4.2793  -3.8139  -1.9879  -0.8865
     1.2942   2.0886   2.4450   2.8866   3.0384   4.3779

          k = 0.3190 0.2771 0.0000 ( 16020 PWs)   bands (ev):

   -69.0317 -68.1205 -35.9740 -35.6306 -35.4838 -34.8372 -34.7682 -34.4453
   -20.7417 -20.6580 -20.6507 -20.6481 -20.6389 -20.6331 -20.6282 -19.8316
   -19.8264 -19.8094 -19.7893 -19.7717 -19.7408 -19.7346 -19.1720 -12.0639
    -7.5431  -6.1535  -5.6596  -5.1856  -4.5023  -4.0064  -1.8846  -0.6477
     1.3765   2.1501   2.5571   3.3544   3.5018   4.5699

          k = 0.3193 0.3692 0.0000 ( 16013 PWs)   bands (ev):

   -69.0260 -68.1153 -35.9934 -35.6101 -35.5782 -34.8541 -34.7639 -34.5241
   -20.7307 -20.6579 -20.6512 -20.6498 -20.6411 -20.6343 -20.6258 -19.8285
   -19.8270 -19.8115 -19.7880 -19.7718 -19.7463 -19.7297 -19.1222 -11.8852
    -7.4591  -6.2608  -5.5159  -5.1838  -4.6936  -4.1634  -1.6189  -0.5573
     1.5232   1.9003   2.6394   3.4423   4.0718   5.2053

          k = 0.3196 0.4614 0.0000 ( 16032 PWs)   bands (ev):

   -69.0219 -68.1116 -35.9538 -35.7125 -35.5827 -34.8262 -34.7609 -34.6236
   -20.7205 -20.6563 -20.6521 -20.6505 -20.6454 -20.6385 -20.6229 -19.8261
   -19.8259 -19.8143 -19.7858 -19.7733 -19.7508 -19.7262 -19.0795 -11.7699
    -7.1049  -6.3604  -5.8836  -5.0380  -4.6387  -4.3159  -1.2462  -0.5923
     1.6658   1.8778   2.4785   3.1217   4.0265   5.5564

          k = 0.3198 0.5536 0.0000 ( 16004 PWs)   bands (ev):

   -69.0206 -68.1104 -35.8880 -35.8078 -35.5758 -34.7746 -34.7602 -34.6999
   -20.7158 -20.6544 -20.6520 -20.6507 -20.6472 -20.6423 -20.6222 -19.8255
   -19.8235 -19.8172 -19.7840 -19.7746 -19.7525 -19.7250 -19.0628 -11.7342
    -6.6701  -6.4217  -6.3542  -4.6996  -4.6191  -4.5799  -0.9742  -0.6376
     1.7700   1.8353   2.1832   3.0364   3.9208   5.4003

          k = 0.3201 0.6457 0.0000 ( 16022 PWs)   bands (ev):

   -69.0224 -68.1121 -35.9479 -35.7121 -35.5843 -34.8090 -34.7613 -34.6353
   -20.7194 -20.6555 -20.6518 -20.6491 -20.6455 -20.6399 -20.6241 -19.8274
   -19.8214 -19.8185 -19.7844 -19.7735 -19.7508 -19.7264 -19.0803 -11.7738
    -7.1012  -6.3538  -5.8756  -5.0085  -4.6318  -4.3343  -1.2408  -0.6003
     1.6572   1.8771   2.4503   3.0870   4.0186   5.5479

          k = 0.3172-0.3681 0.0000 ( 16029 PWs)   bands (ev):

   -69.0269 -68.1161 -35.9871 -35.6078 -35.5788 -34.8363 -34.7646 -34.5322
   -20.7288 -20.6570 -20.6509 -20.6491 -20.6391 -20.6361 -20.6283 -19.8308
   -19.8216 -19.8163 -19.7858 -19.7720 -19.7463 -19.7300 -19.1236 -11.8930
    -7.4576  -6.2502  -5.4809  -5.1828  -4.6772  -4.1652  -1.6257  -0.5633
     1.5143   1.8907   2.6292   3.3769   4.0573   5.1937

          k = 0.3174-0.2759 0.0000 ( 16046 PWs)   bands (ev):

   -69.0327 -68.1215 -35.9692 -35.6325 -35.4771 -34.8218 -34.7686 -34.4495
   -20.7395 -20.6579 -20.6494 -20.6483 -20.6362 -20.6340 -20.6317 -19.8342
   -19.8210 -19.8140 -19.7867 -19.7720 -19.7407 -19.7349 -19.1739 -12.0744
    -7.5482  -6.1475  -5.6147  -5.1935  -4.4934  -3.9806  -1.9034  -0.6551
     1.3698   2.1401   2.5508   3.3197   3.4910   4.5572

          k = 0.3177-0.1837 0.0000 ( 16002 PWs)   bands (ev):

   -69.0384 -68.1267 -35.9022 -35.6569 -35.4283 -34.7846 -34.7570 -34.4092
   -20.7487 -20.6591 -20.6485 -20.6469 -20.6379 -20.6379 -20.6283 -19.8364
   -19.8191 -19.8127 -19.7871 -19.7735 -19.7399 -19.7359 -19.2132 -12.2587
    -7.3784  -6.1348  -5.6541  -5.4526  -4.2758  -3.7749  -2.0171  -0.8932
     1.2834   2.1034   2.4162   2.9072   3.0340   4.3734

          k = 0.3180-0.0916 0.0000 ( 15990 PWs)   bands (ev):

   -69.0424 -68.1303 -35.8157 -35.6743 -35.4345 -34.7810 -34.6944 -34.4123
   -20.7553 -20.6610 -20.6488 -20.6458 -20.6403 -20.6382 -20.6274 -19.8372
   -19.8170 -19.8122 -19.7875 -19.7754 -19.7435 -19.7330 -19.2345 -12.3858
    -7.0149  -6.2303  -5.9018  -5.3768  -4.2062  -3.8798  -1.7304  -1.1258
     0.7628   1.8288   2.2452   2.9487   3.1145   4.0847

          k = 0.3182 0.0006 0.0000 ( 16012 PWs)   bands (ev):

   -69.0437 -68.1315 -35.7695 -35.6802 -35.4544 -34.7809 -34.6608 -34.4250
   -20.7580 -20.6617 -20.6491 -20.6464 -20.6406 -20.6377 -20.6275 -19.8369
   -19.8176 -19.8107 -19.7883 -19.7760 -19.7448 -19.7321 -19.2403 -12.4276
    -6.6617  -6.4081  -6.1193  -5.1102  -4.5875  -3.7286  -1.6549  -1.0154
     0.3151   1.7956   2.1297   3.1300   3.2284   3.7670

          k = 0.3185 0.0927 0.0000 ( 15985 PWs)   bands (ev):

   -69.0419 -68.1298 -35.8158 -35.6721 -35.4415 -34.7803 -34.7017 -34.4114
   -20.7565 -20.6598 -20.6498 -20.6460 -20.6403 -20.6387 -20.6267 -19.8359
   -19.8206 -19.8089 -19.7892 -19.7749 -19.7434 -19.7330 -19.2333 -12.3794
    -7.0049  -6.2266  -5.9092  -5.3898  -4.2314  -3.8839  -1.6969  -1.1355
     0.7645   1.8238   2.2492   2.9339   3.1090   4.0921

          k = 0.3985 0.2311 0.0000 ( 16021 PWs)   bands (ev):

   -69.0291 -68.1181 -36.0386 -35.6200 -35.4678 -34.8865 -34.7675 -34.4350
   -20.7403 -20.6590 -20.6510 -20.6447 -20.6387 -20.6304 -20.6272 -19.8312
   -19.8277 -19.8100 -19.7897 -19.7697 -19.7421 -19.7322 -19.1727 -11.9490
    -7.9186  -5.8987  -5.7540  -5.0783  -4.7223  -3.7311  -2.1107  -0.2739
     1.7021   2.4135   2.9154   3.3343   3.4157   4.5595

          k = 0.3987 0.3233 0.0000 ( 16018 PWs)   bands (ev):

   -69.0260 -68.1153 -36.0597 -35.6070 -35.5099 -34.9038 -34.7649 -34.4685
   -20.7354 -20.6592 -20.6524 -20.6441 -20.6395 -20.6302 -20.6257 -19.8297
   -19.8283 -19.8109 -19.7891 -19.7695 -19.7449 -19.7296 -19.1499 -11.8402
    -7.9623  -6.0148  -5.5408  -5.0941  -4.7631  -3.9234  -1.9580  -0.1289
     1.7951   2.2007   2.9463   3.4613   3.9438   4.7294

          k = 0.3990 0.4155 0.0000 ( 15997 PWs)   bands (ev):

   -69.0235 -68.1130 -36.0226 -35.6087 -35.5904 -34.8759 -34.7620 -34.5441
   -20.7274 -20.6577 -20.6531 -20.6463 -20.6421 -20.6345 -20.6243 -19.8277
   -19.8271 -19.8129 -19.7877 -19.7710 -19.7484 -19.7274 -19.1106 -11.7834
    -7.6409  -6.2182  -5.4384  -5.0726  -4.8298  -4.1653  -1.6503  -0.2554
     1.7545   2.0559   2.7107   3.2118   4.1052   5.3951

          k = 0.3993 0.5076 0.0000 ( 15993 PWs)   bands (ev):

   -69.0222 -68.1118 -35.9489 -35.7142 -35.5837 -34.8172 -34.7610 -34.6302
   -20.7201 -20.6559 -20.6520 -20.6500 -20.6452 -20.6390 -20.6237 -19.8266
   -19.8243 -19.8158 -19.7856 -19.7732 -19.7508 -19.7263 -19.0799 -11.7717
    -7.0992  -6.3591  -5.8822  -5.0101  -4.6550  -4.3183  -1.2433  -0.5851
     1.6655   1.8910   2.4536   3.0860   4.0132   5.5534

          k = 0.3995 0.5998 0.0000 ( 16022 PWs)   bands (ev):

   -69.0225 -68.1121 -35.9473 -35.7125 -35.5844 -34.8088 -34.7613 -34.6354
   -20.7194 -20.6554 -20.6518 -20.6491 -20.6455 -20.6399 -20.6241 -19.8274
   -19.8212 -19.8187 -19.7844 -19.7735 -19.7508 -19.7264 -19.0803 -11.7742
    -7.1001  -6.3532  -5.8766  -5.0061  -4.6333  -4.3337  -1.2402  -0.5991
     1.6570   1.8788   2.4471   3.0840   4.0171   5.5471

          k = 0.3998 0.6919 0.0000 ( 16010 PWs)   bands (ev):

   -69.0243 -68.1138 -36.0187 -35.6029 -35.5925 -34.8618 -34.7628 -34.5491
   -20.7257 -20.6562 -20.6533 -20.6455 -20.6402 -20.6376 -20.6257 -19.8299
   -19.8220 -19.8173 -19.7851 -19.7716 -19.7484 -19.7277 -19.1116 -11.7907
    -7.6426  -6.2007  -5.4244  -5.0616  -4.8080  -4.1696  -1.6597  -0.2732
     1.7321   2.0424   2.6861   3.1951   4.1107   5.3822

          k = 0.3969-0.3218 0.0000 ( 16023 PWs)   bands (ev):

   -69.0271 -68.1164 -36.0553 -35.6090 -35.5018 -34.8889 -34.7661 -34.4708
   -20.7331 -20.6578 -20.6525 -20.6436 -20.6363 -20.6328 -20.6284 -19.8326
   -19.8233 -19.8151 -19.7859 -19.7700 -19.7449 -19.7300 -19.1514 -11.8512
    -7.9673  -5.9930  -5.5056  -5.0893  -4.7633  -3.8974  -1.9789  -0.1474
     1.7674   2.1924   2.9475   3.4046   3.9485   4.7057

          k = 0.3971-0.2297 0.0000 ( 16052 PWs)   bands (ev):

   -69.0302 -68.1192 -36.0352 -35.6226 -35.4582 -34.8729 -34.7686 -34.4356
   -20.7380 -20.6580 -20.6511 -20.6446 -20.6353 -20.6317 -20.6306 -19.8342
   -19.8228 -19.8141 -19.7864 -19.7703 -19.7420 -19.7327 -19.1743 -11.9607
    -7.9276  -5.8952  -5.6992  -5.0804  -4.7238  -3.6910  -2.1407  -0.2905
     1.6774   2.3970   2.9083   3.3107   3.4254   4.5475

          k = 0.3974-0.1375 0.0000 ( 16044 PWs)   bands (ev):

   -69.0327 -68.1215 -35.9687 -35.6326 -35.4773 -34.8216 -34.7686 -34.4495
   -20.7394 -20.6579 -20.6494 -20.6483 -20.6361 -20.6341 -20.6317 -19.8342
   -19.8209 -19.8141 -19.7867 -19.7720 -19.7407 -19.7349 -19.1739 -12.0747
    -7.5474  -6.1482  -5.6122  -5.1948  -4.4947  -3.9786  -1.9027  -0.6549
     1.3726   2.1395   2.5516   3.3165   3.4854   4.5557

          k = 0.3977-0.0454 0.0000 ( 16029 PWs)   bands (ev):

   -69.0340 -68.1227 -35.8970 -35.6382 -35.5259 -34.7753 -34.7591 -34.4865
   -20.7394 -20.6596 -20.6516 -20.6467 -20.6364 -20.6352 -20.6341 -19.8333
   -19.8199 -19.8139 -19.7873 -19.7734 -19.7406 -19.7360 -19.1648 -12.1423
    -6.9914  -6.3717  -5.7514  -5.2032  -4.6962  -3.9366  -1.5896  -0.9980
     0.9090   1.9040   2.4070   3.3736   3.7002   4.5894

          k = 0.3979 0.0468 0.0000 ( 16028 PWs)   bands (ev):

   -69.0337 -68.1224 -35.8969 -35.6370 -35.5299 -34.7763 -34.7621 -34.4857
   -20.7401 -20.6594 -20.6517 -20.6463 -20.6387 -20.6351 -20.6323 -19.8324
   -19.8220 -19.8121 -19.7884 -19.7731 -19.7406 -19.7359 -19.1643 -12.1390
    -6.9834  -6.3794  -5.7539  -5.2084  -4.7047  -3.9410  -1.5701  -1.0048
     0.9128   1.9116   2.4113   3.3665   3.6915   4.5914

          k = 0.3982 0.1390 0.0000 ( 16017 PWs)   bands (ev):

   -69.0319 -68.1207 -35.9701 -35.6302 -35.4860 -34.8314 -34.7681 -34.4489
   -20.7413 -20.6582 -20.6498 -20.6474 -20.6392 -20.6333 -20.6292 -19.8320
   -19.8252 -19.8104 -19.7893 -19.7713 -19.7407 -19.7346 -19.1726 -12.0657
    -7.5362  -6.1639  -5.6352  -5.1893  -4.5101  -3.9977  -1.8776  -0.6472
     1.3875   2.1621   2.5640   3.2982   3.4728   4.5590

          k =-0.4782-0.2774 0.0000 ( 16022 PWs)   bands (ev):

   -69.0260 -68.1153 -36.0869 -35.6079 -35.4791 -34.9242 -34.7657 -34.4450
   -20.7375 -20.6599 -20.6529 -20.6420 -20.6384 -20.6280 -20.6256 -19.8303
   -19.8289 -19.8107 -19.7896 -19.7684 -19.7442 -19.7295 -19.1637 -11.8168
    -8.1574  -5.7867  -5.6252  -5.2856  -4.7229  -3.6881  -2.1252   0.0350
     1.8819   2.4220   3.2111   3.4742   3.7449   4.5890

          k =-0.4779-0.1852 0.0000 ( 15993 PWs)   bands (ev):

   -69.0261 -68.1153 -36.0582 -35.6066 -35.5109 -34.9017 -34.7650 -34.4698
   -20.7353 -20.6591 -20.6524 -20.6438 -20.6394 -20.6295 -20.6268 -19.8298
   -19.8280 -19.8113 -19.7892 -19.7694 -19.7449 -19.7296 -19.1501 -11.8409
    -7.9595  -6.0257  -5.5150  -5.1052  -4.7656  -3.9198  -1.9553  -0.1286
     1.7961   2.2127   2.9941   3.3857   3.9299   4.7211

          k =-0.4776-0.0930 0.0000 ( 16009 PWs)   bands (ev):

   -69.0263 -68.1156 -35.9877 -35.6055 -35.5857 -34.8452 -34.7640 -34.5300
   -20.7301 -20.6578 -20.6509 -20.6488 -20.6412 -20.6337 -20.6277 -19.8291
   -19.8253 -19.8130 -19.7879 -19.7714 -19.7463 -19.7298 -19.1230 -11.8877
    -7.4499  -6.2677  -5.4885  -5.1835  -4.6989  -4.1638  -1.6108  -0.5503
     1.5298   1.9084   2.6524   3.3548   4.0417   5.1911

          k =-0.4773-0.0009 0.0000 ( 16024 PWs)   bands (ev):

   -69.0266 -68.1159 -35.9397 -35.6375 -35.6015 -34.8017 -34.7651 -34.5717
   -20.7268 -20.6577 -20.6523 -20.6479 -20.6429 -20.6361 -20.6282 -19.8293
   -19.8223 -19.8155 -19.7865 -19.7728 -19.7469 -19.7299 -19.1096 -11.9119
    -7.0416  -6.3978  -5.6840  -5.2613  -4.6876  -4.1148  -1.2996  -0.9478
     1.3366   1.7962   2.5623   3.3511   4.0531   5.5550

          k =-0.4771 0.0913 0.0000 ( 16031 PWs)   bands (ev):

   -69.0269 -68.1162 -35.9864 -35.6079 -35.5790 -34.8360 -34.7646 -34.5323
   -20.7288 -20.6569 -20.6510 -20.6491 -20.6391 -20.6360 -20.6283 -19.8308
   -19.8215 -19.8164 -19.7858 -19.7720 -19.7463 -19.7300 -19.1237 -11.8935
    -7.4563  -6.2505  -5.4792  -5.1830  -4.6781  -4.1641  -1.6247  -0.5620
     1.5170   1.8894   2.6298   3.3702   4.0533   5.1914

          k =-0.4768 0.1835 0.0000 ( 16018 PWs)   bands (ev):

   -69.0271 -68.1164 -36.0552 -35.6090 -35.5019 -34.8888 -34.7661 -34.4709
   -20.7331 -20.6578 -20.6526 -20.6436 -20.6363 -20.6328 -20.6284 -19.8326
   -19.8232 -19.8152 -19.7859 -19.7700 -19.7449 -19.7300 -19.1514 -11.8514
    -7.9669  -5.9938  -5.5035  -5.0899  -4.7642  -3.8967  -1.9786  -0.1473
     1.7687   2.1923   2.9514   3.3988   3.9467   4.7046

          k =-0.4798-0.8303 0.0000 ( 16018 PWs)   bands (ev):

   -69.0272 -68.1164 -36.0831 -35.6105 -35.4691 -34.9101 -34.7671 -34.4453
   -20.7351 -20.6585 -20.6530 -20.6417 -20.6349 -20.6305 -20.6285 -19.8335
   -19.8241 -19.8146 -19.7861 -19.7691 -19.7442 -19.7300 -19.1652 -11.8291
    -8.1650  -5.7286  -5.6260  -5.2718  -4.7327  -3.6471  -2.1565   0.0137
     1.8483   2.4092   3.2012   3.4341   3.7569   4.5663

     the Fermi energy is    -0.1397 ev

!    total energy              =   -1405.82702090 Ry
     estimated scf accuracy    <          9.1E-15 Ry
     smearing contrib. (-TS)   =      -0.00001332 Ry
     internal energy E=F+TS    =   -1405.82700758 Ry

     The total energy is F=E-TS. E is the sum of the following terms:
     one-electron contribution =  -12409.27829959 Ry
     hartree contribution      =    6234.58069857 Ry
     xc contribution           =    -146.25465399 Ry
     ewald contribution        =    4915.12524743 Ry

     convergence has been achieved in  29 iterations

     negative rho (up, down):  1.128E-04 0.000E+00

     Forces acting on atoms (cartesian axes, Ry/au):

     atom    1 type  2   force =    -0.00002078   -0.00074179    0.00046576
     atom    2 type  1   force =    -0.00015523    0.00076120    0.00000110
     atom    3 type  1   force =    -0.00008713    0.00019800   -0.00044793
     atom    4 type  3   force =     0.00026314   -0.00021742   -0.00001893

     Total force =     0.000984     Total SCF correction =     0.000001


     Computing stress (Cartesian axis) and pressure


     negative rho (up, down):  1.128E-04 0.000E+00
          total   stress  (Ry/bohr**3)                   (kbar)     P=        0.15
   0.00000351   0.00000061   0.00000081            0.52        0.09        0.12
   0.00000061   0.00000585  -0.00000135            0.09        0.86       -0.20
   0.00000081  -0.00000135  -0.00000621            0.12       -0.20       -0.91


     Writing output data file /scratch/as3359/Ta2CO_loop/Ta.save/
 
     init_run     :     78.21s CPU     48.63s WALL (       2 calls)
     electrons    :  62830.81s CPU  32604.38s WALL (      47 calls)
     update_pot   :   1368.76s CPU    843.90s WALL (      45 calls)
     forces       :    987.93s CPU    506.94s WALL (      47 calls)
     stress       :   2656.03s CPU   1368.37s WALL (      47 calls)

     Called by init_run:
     wfcinit      :     23.24s CPU     11.96s WALL (       2 calls)
     potinit      :     16.15s CPU      8.13s WALL (       2 calls)
     hinit0       :     34.22s CPU     25.59s WALL (       2 calls)

     Called by electrons:
     c_bands      :  48813.50s CPU  24759.24s WALL (    1490 calls)
     sum_band     :  10241.10s CPU   5561.28s WALL (    1490 calls)
     v_of_rho     :    529.90s CPU    275.61s WALL (    1537 calls)
     newd         :   3195.52s CPU   1992.00s WALL (    1537 calls)
     mix_rho      :    103.10s CPU     52.76s WALL (    1490 calls)

     Called by c_bands:
     init_us_2    :    969.66s CPU    486.38s WALL (  227624 calls)
     cegterg      :  45854.10s CPU  23269.51s WALL (  112745 calls)

     Called by *egterg:
     cdiaghg      :   1616.93s CPU    825.31s WALL (  636728 calls)
     h_psi        :  34887.64s CPU  17756.36s WALL (  641538 calls)
     s_psi        :   1628.77s CPU    816.62s WALL (  641538 calls)
     g_psi        :    239.02s CPU    120.23s WALL (  528645 calls)

     Called by h_psi:
     h_psi:calbec :   1457.35s CPU    733.02s WALL (  641538 calls)
     vloc_psi     :  31158.36s CPU  15883.74s WALL (  641538 calls)
     add_vuspsi   :   1959.28s CPU    982.64s WALL (  641538 calls)

     General routines
     calbec       :   1864.30s CPU    938.00s WALL (  769188 calls)
     fft          :    389.08s CPU    198.99s WALL (   21107 calls)
     ffts         :     10.69s CPU      5.52s WALL (    3027 calls)
     fftw         :  30883.63s CPU  15757.76s WALL (29492428 calls)
     interpolate  :     33.76s CPU     17.37s WALL (    1537 calls)
 
     Parallel routines
 
     PWSCF        :     18h53m CPU      9h50m WALL

 
   This run was terminated on:   9:35: 1  23Mar2022            

=------------------------------------------------------------------------------=
   JOB DONE.
=------------------------------------------------------------------------------=
