
     Program PWSCF v.6.8 starts on 22Apr2022 at  8: 3:26 

     This program is part of the open-source Quantum ESPRESSO suite
     for quantum simulation of materials; please cite
         "P. Giannozzi et al., J. Phys.:Condens. Matter 21 395502 (2009);
         "P. Giannozzi et al., J. Phys.:Condens. Matter 29 465901 (2017);
         "P. Giannozzi et al., J. Chem. Phys. 152 154105 (2020);
          URL http://www.quantum-espresso.org", 
     in publications or presentations arising from this work. More details at
     http://www.quantum-espresso.org/quote

     Parallel version (MPI & OpenMP), running on       4 processor cores
     Number of MPI processes:                 2
     Threads/MPI process:                     2

     MPI processes distributed on     1 nodes
     R & G space division:  proc/nbgrp/npool/nimage =       2
     125290 MiB available memory on the printing compute node when the environment starts
 
     Reading input from Ta2CS2.vcrelax.in

     Current dimensions of program PWSCF are:
     Max number of different atomic species (ntypx) = 10
     Max number of k-points (npk) =  40000
     Max angular momentum in pseudopotentials (lmaxx) =  4
     file Ta.pbesol-spfn-rrkjus_psl.1.0.0.UPF: wavefunction(s)  5S 5P renormalized
     file S.pbesol-nl-kjpaw_psl.1.0.0.UPF: wavefunction(s)  3S renormalized

     Subspace diagonalization in iterative solution of the eigenvalue problem:
     a serial algorithm will be used

 
     Parallelization info
     --------------------
     sticks:   dense  smooth     PW     G-vecs:    dense   smooth      PW
     Min         856     336    105               265452    67176   11965
     Max         857     337    106               265455    67219   11976
     Sum        1713     673    211               530907   134395   23941
 
     Using Slab Decomposition
 


     bravais-lattice index     =            0
     lattice parameter (alat)  =       5.5500  a.u.
     unit-cell volume          =    1699.0018 (a.u.)^3
     number of atoms/cell      =            5
     number of atomic types    =            3
     number of electrons       =        70.00
     number of Kohn-Sham states=           42
     kinetic-energy cutoff     =      70.0000  Ry
     charge density cutoff     =     700.0000  Ry
     scf convergence threshold =      1.0E-12
     mixing beta               =       0.7000
     number of iterations used =            8  plain     mixing
     energy convergence thresh.=      1.0E-04
     force convergence thresh. =      1.0E-03
     press convergence thresh. =      5.0E-01
     Exchange-correlation= SLA  PW   PSX  PSC
                           (   1   4  10   8   0   0   0)
     nstep                     =           50


     celldm(1)=   5.550000  celldm(2)=   0.000000  celldm(3)=   0.000000
     celldm(4)=   0.000000  celldm(5)=   0.000000  celldm(6)=   0.000000

     crystal axes: (cart. coord. in units of alat)
               a(1) = (   1.070291  -0.003288   0.000000 )  
               a(2) = (  -0.533526   0.930205   0.000000 )  
               a(3) = (   0.000000   0.000000  10.000000 )  

     reciprocal axes: (cart. coord. in units 2 pi/alat)
               b(1) = (  0.935974  0.536835  0.000000 )  
               b(2) = (  0.003308  1.076929  0.000000 )  
               b(3) = (  0.000000  0.000000  0.100000 )  


     PseudoPot. # 1 for Ta read from file:
     /shared/home/as3359/pseudo/Ta.pbesol-spfn-rrkjus_psl.1.0.0.UPF
     MD5 check sum: f099565ffaca9b150a52e9412a28e20b
     Pseudo is Ultrasoft + core correction, Zval = 27.0
     Generated using &quot;atomic&quot; code by A. Dal Corso  v.6.3
     Using radial grid of 1273 points,  8 beta functions with: 
                l(1) =   0
                l(2) =   0
                l(3) =   1
                l(4) =   1
                l(5) =   2
                l(6) =   2
                l(7) =   3
                l(8) =   3
     Q(r) pseudized with 0 coefficients 


     PseudoPot. # 2 for C  read from file:
     /shared/home/as3359/pseudo/C.pbesol-n-rrkjus_psl.1.0.0.UPF
     MD5 check sum: 05995be603a8a7c99da3dc4413f31573
     Pseudo is Ultrasoft + core correction, Zval =  4.0
     Generated using &quot;atomic&quot; code by A. Dal Corso  v.6.3MaX
     Using radial grid of 1073 points,  4 beta functions with: 
                l(1) =   0
                l(2) =   0
                l(3) =   1
                l(4) =   1
     Q(r) pseudized with 0 coefficients 


     PseudoPot. # 3 for S  read from file:
     /shared/home/as3359/pseudo/S.pbesol-nl-kjpaw_psl.1.0.0.UPF
     MD5 check sum: bf3db50ec3f960682bbc396f1aadd1dd
     Pseudo is Projector augmented-wave + core cor, Zval =  6.0
     Generated using &quot;atomic&quot; code by A. Dal Corso  v.6.3
     Shape of augmentation charge: PSQ
     Using radial grid of 1151 points,  4 beta functions with: 
                l(1) =   0
                l(2) =   0
                l(3) =   1
                l(4) =   1
     Q(r) pseudized with 0 coefficients 


     atomic species   valence    mass     pseudopotential
        Ta            27.00   180.94788     Ta( 1.00)
        C              4.00    12.01070     C ( 1.00)
        S              6.00    32.06500     S ( 1.00)

     No symmetry found



   Cartesian axes

     site n.     atom                  positions (alat units)
         1           C   tau(   1) = (   0.0000000   0.0000000   0.0000000  )
         2           Ta  tau(   2) = (   0.6680342   0.3342024  -0.0390011  )
         3           Ta  tau(   3) = (   0.3334736   0.6666873   0.0428407  )
         4           S   tau(   4) = (   0.6663586   0.3337900   0.0985928  )
         5           S   tau(   5) = (   0.3337900   0.6663586  -0.0985928  )

     number of k points=    74  Marzari-Vanderbilt smearing, width (Ry)=  0.0010
                       cart. coord. in units 2pi/alat
        k(    1) = (   0.0000000   0.0000000   0.0000000), wk =   0.0138889
        k(    2) = (   0.0002757   0.0897441   0.0000000), wk =   0.0277778
        k(    3) = (   0.0005514   0.1794882   0.0000000), wk =   0.0277778
        k(    4) = (   0.0008270   0.2692322   0.0000000), wk =   0.0277778
        k(    5) = (   0.0011027   0.3589763   0.0000000), wk =   0.0277778
        k(    6) = (   0.0013784   0.4487204   0.0000000), wk =   0.0277778
        k(    7) = (  -0.0016541  -0.5384645   0.0000000), wk =   0.0138889
        k(    8) = (   0.0779979   0.0447362   0.0000000), wk =   0.0277778
        k(    9) = (   0.0782735   0.1344803   0.0000000), wk =   0.0277778
        k(   10) = (   0.0785492   0.2242244   0.0000000), wk =   0.0277778
        k(   11) = (   0.0788249   0.3139685   0.0000000), wk =   0.0277778
        k(   12) = (   0.0791006   0.4037125   0.0000000), wk =   0.0277778
        k(   13) = (   0.0793763   0.4934566   0.0000000), wk =   0.0277778
        k(   14) = (   0.0763438  -0.4937282   0.0000000), wk =   0.0277778
        k(   15) = (   0.0766195  -0.4039842   0.0000000), wk =   0.0277778
        k(   16) = (   0.0768951  -0.3142401   0.0000000), wk =   0.0277778
        k(   17) = (   0.0771708  -0.2244960   0.0000000), wk =   0.0277778
        k(   18) = (   0.0774465  -0.1347519   0.0000000), wk =   0.0277778
        k(   19) = (   0.0777222  -0.0450078   0.0000000), wk =   0.0277778
        k(   20) = (   0.1559957   0.0894725   0.0000000), wk =   0.0277778
        k(   21) = (   0.1562714   0.1792165   0.0000000), wk =   0.0277778
        k(   22) = (   0.1565471   0.2689606   0.0000000), wk =   0.0277778
        k(   23) = (   0.1568228   0.3587047   0.0000000), wk =   0.0277778
        k(   24) = (   0.1570984   0.4484488   0.0000000), wk =   0.0277778
        k(   25) = (   0.1573741   0.5381928   0.0000000), wk =   0.0277778
        k(   26) = (   0.1543416  -0.4489920   0.0000000), wk =   0.0277778
        k(   27) = (   0.1546173  -0.3592479   0.0000000), wk =   0.0277778
        k(   28) = (   0.1548930  -0.2695038   0.0000000), wk =   0.0277778
        k(   29) = (   0.1551687  -0.1797598   0.0000000), wk =   0.0277778
        k(   30) = (   0.1554444  -0.0900157   0.0000000), wk =   0.0277778
        k(   31) = (   0.1557200  -0.0002716   0.0000000), wk =   0.0277778
        k(   32) = (   0.2339936   0.1342087   0.0000000), wk =   0.0277778
        k(   33) = (   0.2342693   0.2239528   0.0000000), wk =   0.0277778
        k(   34) = (   0.2345449   0.3136969   0.0000000), wk =   0.0277778
        k(   35) = (   0.2348206   0.4034409   0.0000000), wk =   0.0277778
        k(   36) = (   0.2350963   0.4931850   0.0000000), wk =   0.0277778
        k(   37) = (   0.2353720   0.5829291   0.0000000), wk =   0.0277778
        k(   38) = (   0.2323395  -0.4042558   0.0000000), wk =   0.0277778
        k(   39) = (   0.2326152  -0.3145117   0.0000000), wk =   0.0277778
        k(   40) = (   0.2328909  -0.2247676   0.0000000), wk =   0.0277778
        k(   41) = (   0.2331665  -0.1350235   0.0000000), wk =   0.0277778
        k(   42) = (   0.2334422  -0.0452795   0.0000000), wk =   0.0277778
        k(   43) = (   0.2337179   0.0444646   0.0000000), wk =   0.0277778
        k(   44) = (   0.3119914   0.1789449   0.0000000), wk =   0.0277778
        k(   45) = (   0.3122671   0.2686890   0.0000000), wk =   0.0277778
        k(   46) = (   0.3125428   0.3584331   0.0000000), wk =   0.0277778
        k(   47) = (   0.3128185   0.4481772   0.0000000), wk =   0.0277778
        k(   48) = (   0.3130942   0.5379212   0.0000000), wk =   0.0277778
        k(   49) = (   0.3133698   0.6276653   0.0000000), wk =   0.0277778
        k(   50) = (   0.3103374  -0.3595195   0.0000000), wk =   0.0277778
        k(   51) = (   0.3106130  -0.2697755   0.0000000), wk =   0.0277778
        k(   52) = (   0.3108887  -0.1800314   0.0000000), wk =   0.0277778
        k(   53) = (   0.3111644  -0.0902873   0.0000000), wk =   0.0277778
        k(   54) = (   0.3114401  -0.0005432   0.0000000), wk =   0.0277778
        k(   55) = (   0.3117158   0.0892009   0.0000000), wk =   0.0277778
        k(   56) = (   0.3899893   0.2236812   0.0000000), wk =   0.0277778
        k(   57) = (   0.3902650   0.3134252   0.0000000), wk =   0.0277778
        k(   58) = (   0.3905407   0.4031693   0.0000000), wk =   0.0277778
        k(   59) = (   0.3908163   0.4929134   0.0000000), wk =   0.0277778
        k(   60) = (   0.3910920   0.5826575   0.0000000), wk =   0.0277778
        k(   61) = (   0.3913677   0.6724015   0.0000000), wk =   0.0277778
        k(   62) = (   0.3883352  -0.3147833   0.0000000), wk =   0.0277778
        k(   63) = (   0.3886109  -0.2250392   0.0000000), wk =   0.0277778
        k(   64) = (   0.3888866  -0.1352951   0.0000000), wk =   0.0277778
        k(   65) = (   0.3891623  -0.0455511   0.0000000), wk =   0.0277778
        k(   66) = (   0.3894379   0.0441930   0.0000000), wk =   0.0277778
        k(   67) = (   0.3897136   0.1339371   0.0000000), wk =   0.0277778
        k(   68) = (  -0.4679872  -0.2684174   0.0000000), wk =   0.0138889
        k(   69) = (  -0.4677115  -0.1786733   0.0000000), wk =   0.0277778
        k(   70) = (  -0.4674358  -0.0889292   0.0000000), wk =   0.0277778
        k(   71) = (  -0.4671601   0.0008148   0.0000000), wk =   0.0277778
        k(   72) = (  -0.4668844   0.0905589   0.0000000), wk =   0.0277778
        k(   73) = (  -0.4666088   0.1803030   0.0000000), wk =   0.0277778
        k(   74) = (  -0.4696413  -0.8068819   0.0000000), wk =   0.0138889

     Dense  grid:   530907 G-vectors     FFT dimensions: (  54,  54, 480)

     Smooth grid:   134395 G-vectors     FFT dimensions: (  32,  32, 300)

     Estimated max dynamical RAM per process >       2.91 GB

     Estimated total dynamical RAM >       5.81 GB

     Initial potential from superposition of free atoms

     starting charge   69.99835, renormalised to   70.00000

     negative rho (up, down):  7.249E-05 0.000E+00
     Starting wfcs are   46 randomized atomic wfcs
     Checking if some PAW data can be deallocated... 

     total cpu time spent up to now is       27.1 secs

     Self-consistent Calculation

     iteration #  1     ecut=    70.00 Ry     beta= 0.70
     Davidson diagonalization with overlap
     ethr =  1.00E-02,  avg # of iterations =  8.3

     negative rho (up, down):  5.228E-04 0.000E+00

     total cpu time spent up to now is       57.1 secs

     total energy              =   -1230.78699230 Ry
     estimated scf accuracy    <      27.34718857 Ry

     iteration #  2     ecut=    70.00 Ry     beta= 0.70
     Davidson diagonalization with overlap
     ethr =  1.00E-02,  avg # of iterations =  9.1

     total cpu time spent up to now is       85.6 secs

     total energy              =   -1211.43304298 Ry
     estimated scf accuracy    <     116.76541657 Ry

     iteration #  3     ecut=    70.00 Ry     beta= 0.70
     Davidson diagonalization with overlap
     ethr =  1.00E-02,  avg # of iterations =  7.8

     total cpu time spent up to now is      109.8 secs

     total energy              =   -1243.24151259 Ry
     estimated scf accuracy    <       4.93616677 Ry

     iteration #  4     ecut=    70.00 Ry     beta= 0.70
     Davidson diagonalization with overlap
     ethr =  7.05E-03,  avg # of iterations =  2.6

     total cpu time spent up to now is      125.7 secs

     total energy              =   -1243.32409992 Ry
     estimated scf accuracy    <       1.73440047 Ry

     iteration #  5     ecut=    70.00 Ry     beta= 0.70
     Davidson diagonalization with overlap
     ethr =  2.48E-03,  avg # of iterations =  2.3

     total cpu time spent up to now is      141.2 secs

     total energy              =   -1243.11946010 Ry
     estimated scf accuracy    <       1.34067899 Ry

     iteration #  6     ecut=    70.00 Ry     beta= 0.70
     Davidson diagonalization with overlap
     ethr =  1.92E-03,  avg # of iterations =  1.8

     total cpu time spent up to now is      156.3 secs

     total energy              =   -1242.84555433 Ry
     estimated scf accuracy    <       0.93306290 Ry

     iteration #  7     ecut=    70.00 Ry     beta= 0.70
     Davidson diagonalization with overlap
     ethr =  1.33E-03,  avg # of iterations =  2.1

     total cpu time spent up to now is      171.6 secs

     WARNING: integrated charge=    70.00001072, expected=    70.00000000

     total energy              =   -1242.74241430 Ry
     estimated scf accuracy    <       0.52111139 Ry

     iteration #  8     ecut=    70.00 Ry     beta= 0.70
     Davidson diagonalization with overlap
     ethr =  7.44E-04,  avg # of iterations =  2.4

     total cpu time spent up to now is      187.1 secs

     WARNING: integrated charge=    69.99995460, expected=    70.00000000

     total energy              =   -1242.44424665 Ry
     estimated scf accuracy    <       0.37973168 Ry

     iteration #  9     ecut=    70.00 Ry     beta= 0.70
     Davidson diagonalization with overlap
     ethr =  5.42E-04,  avg # of iterations =  6.9

     total cpu time spent up to now is      205.9 secs

     WARNING: integrated charge=    69.99995426, expected=    70.00000000

     total energy              =   -1242.45707887 Ry
     estimated scf accuracy    <       0.01725162 Ry

     iteration # 10     ecut=    70.00 Ry     beta= 0.70
     Davidson diagonalization with overlap
     ethr =  2.46E-05,  avg # of iterations =  8.3

     total cpu time spent up to now is      225.7 secs

     total energy              =   -1242.46837302 Ry
     estimated scf accuracy    <       0.00533956 Ry

     iteration # 11     ecut=    70.00 Ry     beta= 0.70
     Davidson diagonalization with overlap
     ethr =  7.63E-06,  avg # of iterations = 10.5

     negative rho (up, down):  5.568E-04 0.000E+00

     total cpu time spent up to now is      247.9 secs

     WARNING: integrated charge=    70.00018871, expected=    70.00000000

     total energy              =   -1242.44870995 Ry
     estimated scf accuracy    <       0.03310041 Ry

     iteration # 12     ecut=    70.00 Ry     beta= 0.70
     Davidson diagonalization with overlap
     c_bands:  1 eigenvalues not converged
     c_bands:  1 eigenvalues not converged
     c_bands:  1 eigenvalues not converged
     c_bands:  1 eigenvalues not converged
     c_bands:  1 eigenvalues not converged
     c_bands:  2 eigenvalues not converged
     c_bands:  1 eigenvalues not converged
     c_bands:  1 eigenvalues not converged
     c_bands:  1 eigenvalues not converged
     c_bands:  1 eigenvalues not converged
     c_bands:  1 eigenvalues not converged
     c_bands:  1 eigenvalues not converged
     c_bands:  1 eigenvalues not converged
     c_bands:  1 eigenvalues not converged
     ethr =  7.63E-06,  avg # of iterations = 16.5

     negative rho (up, down):  4.296E-04 0.000E+00

     total cpu time spent up to now is      274.9 secs

     WARNING: integrated charge=    70.00021760, expected=    70.00000000

     total energy              =   -1242.45392843 Ry
     estimated scf accuracy    <       0.00518585 Ry

     iteration # 13     ecut=    70.00 Ry     beta= 0.70
     Davidson diagonalization with overlap
     ethr =  7.41E-06,  avg # of iterations =  7.3

     negative rho (up, down):  4.405E-04 0.000E+00

     total cpu time spent up to now is      293.2 secs

     WARNING: integrated charge=    70.00013389, expected=    70.00000000

     total energy              =   -1242.45425372 Ry
     estimated scf accuracy    <       0.00019059 Ry

     iteration # 14     ecut=    70.00 Ry     beta= 0.70
     Davidson diagonalization with overlap
     ethr =  2.72E-07,  avg # of iterations =  7.6

     negative rho (up, down):  4.954E-04 0.000E+00

     total cpu time spent up to now is      312.3 secs

     WARNING: integrated charge=    70.00004777, expected=    70.00000000

     total energy              =   -1242.45428525 Ry
     estimated scf accuracy    <       0.00001626 Ry

     iteration # 15     ecut=    70.00 Ry     beta= 0.70
     Davidson diagonalization with overlap
     ethr =  2.32E-08,  avg # of iterations =  2.0

     negative rho (up, down):  5.119E-04 0.000E+00

     total cpu time spent up to now is      328.2 secs

     WARNING: integrated charge=    70.00001014, expected=    70.00000000

     total energy              =   -1242.45428705 Ry
     estimated scf accuracy    <       0.00000082 Ry

     iteration # 16     ecut=    70.00 Ry     beta= 0.70
     Davidson diagonalization with overlap
     ethr =  1.17E-09,  avg # of iterations =  3.5

     negative rho (up, down):  5.132E-04 0.000E+00

     total cpu time spent up to now is      345.4 secs

     total energy              =   -1242.45428723 Ry
     estimated scf accuracy    <       0.00000006 Ry

     iteration # 17     ecut=    70.00 Ry     beta= 0.70
     Davidson diagonalization with overlap
     ethr =  8.13E-11,  avg # of iterations =  3.3

     negative rho (up, down):  5.118E-04 0.000E+00

     total cpu time spent up to now is      362.6 secs

     total energy              =   -1242.45428724 Ry
     estimated scf accuracy    <       0.00000004 Ry

     iteration # 18     ecut=    70.00 Ry     beta= 0.70
     Davidson diagonalization with overlap
     ethr =  5.38E-11,  avg # of iterations =  2.0

     negative rho (up, down):  5.118E-04 0.000E+00

     total cpu time spent up to now is      378.2 secs

     total energy              =   -1242.45428724 Ry
     estimated scf accuracy    <          9.5E-09 Ry

     iteration # 19     ecut=    70.00 Ry     beta= 0.70
     Davidson diagonalization with overlap
     ethr =  1.35E-11,  avg # of iterations =  2.0

     negative rho (up, down):  5.118E-04 0.000E+00

     total cpu time spent up to now is      393.9 secs

     total energy              =   -1242.45428724 Ry
     estimated scf accuracy    <          2.0E-09 Ry

     iteration # 20     ecut=    70.00 Ry     beta= 0.70
     Davidson diagonalization with overlap
     ethr =  2.81E-12,  avg # of iterations =  2.1

     negative rho (up, down):  5.117E-04 0.000E+00

     total cpu time spent up to now is      409.5 secs

     total energy              =   -1242.45428724 Ry
     estimated scf accuracy    <          1.6E-11 Ry

     iteration # 21     ecut=    70.00 Ry     beta= 0.70
     Davidson diagonalization with overlap
     ethr =  1.00E-13,  avg # of iterations =  4.3

     negative rho (up, down):  5.117E-04 0.000E+00

     total cpu time spent up to now is      426.8 secs

     total energy              =   -1242.45428724 Ry
     estimated scf accuracy    <          1.9E-12 Ry

     iteration # 22     ecut=    70.00 Ry     beta= 0.70
     Davidson diagonalization with overlap
     ethr =  1.00E-13,  avg # of iterations =  1.0

     negative rho (up, down):  5.117E-04 0.000E+00

     total cpu time spent up to now is      441.3 secs

     End of self-consistent calculation

          k = 0.0000 0.0000 0.0000 ( 16709 PWs)   bands (ev):

   -99.6513 -99.4783 -98.9256 -98.5853 -98.4153 -97.1298 -95.8180 -95.2911
   -94.2620 -94.0927 -85.4265 -84.2199 -82.7960 -82.6104 -75.9126 -61.6937
   -56.8390 -54.8421 -46.9126 -41.4348 -39.2034 -34.7701 -34.2909 -28.0183
   -21.0873 -18.2808 -16.2109 -15.5232 -12.6072 -11.9274  -7.4803  -5.2947
    -2.0158  -1.6827  -0.0370   1.9173   3.1678   4.0999   4.8614   4.9477
     5.2921   5.4366

          k = 0.0003 0.0897 0.0000 ( 16692 PWs)   bands (ev):

   -99.6506 -99.4776 -98.9258 -98.5851 -98.4150 -97.1298 -95.8179 -95.2913
   -94.2621 -94.0924 -85.4291 -84.2224 -82.7881 -82.6077 -75.8943 -61.6872
   -56.8184 -54.7875 -47.0517 -42.4438 -38.5390 -35.0305 -33.2968 -27.9105
   -21.3514 -18.6237 -16.0212 -15.5045 -12.7258 -11.9267  -7.5758  -5.2467
    -2.0049  -1.4357   0.0445   1.9395   3.3280   4.2503   4.9680   5.0888
     5.4054   5.5641

          k = 0.0006 0.1795 0.0000 ( 16732 PWs)   bands (ev):

   -99.6496 -99.4761 -98.9262 -98.5849 -98.4147 -97.1296 -95.8177 -95.2920
   -94.2622 -94.0918 -85.4376 -84.2305 -82.7679 -82.6011 -75.8452 -61.6714
   -56.7588 -54.6270 -47.4276 -44.1676 -37.5121 -35.1921 -31.3536 -27.6098
   -22.0891 -19.2682 -15.9753 -15.2938 -12.9762 -11.9839  -7.8647  -5.2035
    -1.9793  -0.7558   0.2640   2.0177   3.8074   4.6579   5.2509   5.4912
     5.7388   5.9190

          k = 0.0008 0.2692 0.0000 ( 16798 PWs)   bands (ev):

   -99.6491 -99.4744 -98.9272 -98.5851 -98.4150 -97.1300 -95.8175 -95.2930
   -94.2625 -94.0910 -85.4489 -84.2413 -82.7405 -82.5920 -75.7779 -61.6519
   -56.6665 -54.3650 -47.9821 -45.7857 -36.6113 -35.0705 -29.1979 -27.1600
   -23.0220 -19.8947 -16.1228 -15.1235 -13.2421 -12.1917  -8.2649  -5.4074
    -1.8087   0.0545   0.6234   2.2164   4.4062   5.2313   5.4935   5.7770
     6.2527   6.4266

          k = 0.0011 0.3590 0.0000 ( 16802 PWs)   bands (ev):

   -99.6481 -99.4723 -98.9278 -98.5849 -98.4150 -97.1298 -95.8172 -95.2938
   -94.2629 -94.0901 -85.4593 -84.2518 -82.7138 -82.5827 -75.7083 -61.6330
   -56.5608 -54.0188 -48.7283 -46.9346 -36.2946 -34.2688 -27.7502 -26.6584
   -23.3926 -20.3766 -16.2947 -15.2466 -13.4860 -12.5972  -8.6156  -5.9519
    -1.2997   0.4401   1.3136   2.6330   4.2025   4.8053   6.0704   6.4901
     6.9463   7.2598

          k = 0.0014 0.4487 0.0000 ( 16832 PWs)   bands (ev):

   -99.6472 -99.4712 -98.9284 -98.5849 -98.4149 -97.1300 -95.8170 -95.2945
   -94.2630 -94.0896 -85.4668 -84.2598 -82.6950 -82.5760 -75.6558 -61.6216
   -56.4750 -53.6612 -49.5193 -47.5045 -36.3054 -33.2194 -27.7193 -26.3842
   -22.5997 -20.4413 -16.6043 -15.6521 -13.6792 -13.0051  -8.8130  -6.5402
    -0.5183   0.5932   1.8774   2.9516   3.3390   4.5175   6.7184   7.3128
     7.6897   8.2809

          k =-0.0017-0.5385 0.0000 ( 16826 PWs)   bands (ev):

   -99.6472 -99.4706 -98.9284 -98.5849 -98.4150 -97.1299 -95.8170 -95.2948
   -94.2632 -94.0894 -85.4696 -84.2626 -82.6883 -82.5733 -75.6352 -61.6174
   -56.4420 -53.4869 -49.8774 -47.6667 -36.3287 -32.7074 -28.0235 -26.2713
   -22.1875 -20.0852 -17.0068 -15.8494 -13.7487 -13.1605  -8.8674  -6.7886
     0.0112   0.6547   1.8455   2.6832   3.4437   4.4055   6.9189   7.4979
     8.6262   8.9344

          k = 0.0780 0.0447 0.0000 ( 16695 PWs)   bands (ev):

   -99.6509 -99.4782 -98.9255 -98.5852 -98.4151 -97.1297 -95.8180 -95.2911
   -94.2620 -94.0926 -85.4261 -84.2195 -82.7958 -82.6102 -75.9132 -61.6989
   -56.8439 -54.8512 -46.8469 -41.4818 -39.1770 -34.8305 -34.1632 -28.0589
   -21.1764 -18.2614 -16.2619 -15.6022 -12.6789 -11.8134  -7.4653  -5.3123
    -1.9528  -1.5906  -0.0030   2.0105   3.1585   4.2198   4.9173   5.0977
     5.4140   5.5741

          k = 0.0783 0.1345 0.0000 ( 16696 PWs)   bands (ev):

   -99.6506 -99.4776 -98.9256 -98.5851 -98.4149 -97.1294 -95.8178 -95.2913
   -94.2620 -94.0924 -85.4287 -84.2225 -82.7881 -82.6073 -75.8948 -61.6977
   -56.8258 -54.7768 -47.0493 -42.3587 -38.7038 -34.7887 -33.3663 -27.8801
   -21.3595 -18.6938 -16.0798 -15.6905 -12.8407 -11.7413  -7.7376  -5.1776
    -1.8408  -1.1139  -0.0382   2.0897   3.2960   4.5399   5.0987   5.3857
     5.6340   5.8492

          k = 0.0785 0.2242 0.0000 ( 16780 PWs)   bands (ev):

   -99.6501 -99.4762 -98.9269 -98.5850 -98.4150 -97.1303 -95.8177 -95.2920
   -94.2623 -94.0918 -85.4378 -84.2308 -82.7680 -82.6012 -75.8458 -61.6861
   -56.7663 -54.6048 -47.4739 -44.0717 -37.7166 -34.9331 -31.3756 -27.5363
   -22.0326 -19.4348 -16.1242 -15.4164 -13.0518 -11.8019  -8.2175  -5.0326
    -1.6706  -0.4400   0.2551   2.1992   3.6579   5.0433   5.4279   5.9242
     6.0883   6.3032

          k = 0.0788 0.3140 0.0000 ( 16799 PWs)   bands (ev):

   -99.6489 -99.4742 -98.9272 -98.5849 -98.4148 -97.1299 -95.8175 -95.2929
   -94.2627 -94.0910 -85.4487 -84.2415 -82.7404 -82.5920 -75.7783 -61.6655
   -56.6724 -54.3408 -48.0588 -45.6751 -36.8555 -34.7717 -29.1810 -27.1079
   -22.9410 -20.0870 -16.3153 -15.1664 -13.2742 -12.0541  -8.7086  -5.1609
    -1.3501  -0.1195   1.0867   2.4293   3.9890   5.3482   5.8384   5.9889
     6.7493   6.8979

          k = 0.0791 0.4037 0.0000 ( 16788 PWs)   bands (ev):

   -99.6478 -99.4724 -98.9275 -98.5847 -98.4147 -97.1295 -95.8171 -95.2938
   -94.2628 -94.0901 -85.4592 -84.2516 -82.7139 -82.5823 -75.7083 -61.6440
   -56.5654 -54.0036 -48.8107 -46.8129 -36.4549 -34.0539 -27.6850 -26.7160
   -23.2987 -20.5204 -16.4600 -15.2718 -13.5042 -12.5041  -9.0193  -5.6696
    -0.7838   0.1186   1.7128   2.9503   3.8141   4.5550   6.4060   6.7282
     7.4716   7.9405

          k = 0.0794 0.4935 0.0000 ( 16844 PWs)   bands (ev):

   -99.6475 -99.4712 -98.9284 -98.5850 -98.4151 -97.1300 -95.8171 -95.2945
   -94.2632 -94.0896 -85.4669 -84.2597 -82.6952 -82.5758 -75.6568 -61.6275
   -56.4800 -53.6689 -49.5649 -47.3968 -36.3594 -33.1342 -27.7854 -26.3767
   -22.5449 -20.4793 -16.6763 -15.7424 -13.7228 -12.8997  -9.0964  -6.2794
    -0.1397   0.4234   1.9614   2.6243   3.7000   4.3957   6.7570   7.3415
     8.3591   8.8872

          k = 0.0763-0.4937 0.0000 ( 16838 PWs)   bands (ev):

   -99.6472 -99.4708 -98.9286 -98.5849 -98.4150 -97.1299 -95.8171 -95.2948
   -94.2633 -94.0893 -85.4694 -84.2627 -82.6882 -82.5737 -75.6373 -61.6171
   -56.4467 -53.5321 -49.8633 -47.5786 -36.3026 -32.7498 -28.1480 -26.2793
   -22.1280 -20.0362 -17.0388 -15.9179 -13.8568 -13.0114  -8.9871  -6.5933
    -0.1997   0.6949   1.9644   2.5557   3.5105   4.4529   6.9059   7.5655
     8.2808   8.8787

          k = 0.0766-0.4040 0.0000 ( 16796 PWs)   bands (ev):

   -99.6472 -99.4709 -98.9281 -98.5848 -98.4148 -97.1297 -95.8170 -95.2945
   -94.2629 -94.0895 -85.4663 -84.2595 -82.6949 -82.5762 -75.6568 -61.6153
   -56.4790 -53.7333 -49.4447 -47.4454 -36.2170 -33.3538 -27.9047 -26.4025
   -22.5704 -20.3098 -16.6296 -15.6384 -13.7854 -12.8904  -8.7265  -6.4507
    -1.0483   0.8425   1.6241   2.9531   3.4647   4.6821   6.6969   7.1363
     7.4248   7.9072

          k = 0.0769-0.3142 0.0000 ( 16797 PWs)   bands (ev):

   -99.6479 -99.4722 -98.9277 -98.5848 -98.4148 -97.1297 -95.8173 -95.2938
   -94.2629 -94.0901 -85.4592 -84.2514 -82.7142 -82.5829 -75.7103 -61.6248
   -56.5634 -54.0977 -48.5884 -46.9349 -36.1648 -34.4366 -27.9491 -26.6880
   -23.4792 -20.1544 -16.3000 -15.2009 -13.5185 -12.5901  -8.3326  -5.9686
    -1.8207   0.5957   1.0015   2.6099   4.3150   5.0117   5.8888   6.4670
     6.7622   6.8871

          k = 0.0772-0.2245 0.0000 ( 16782 PWs)   bands (ev):

   -99.6491 -99.4745 -98.9269 -98.5852 -98.4151 -97.1297 -95.8175 -95.2929
   -94.2626 -94.0910 -85.4484 -84.2410 -82.7408 -82.5922 -75.7802 -61.6430
   -56.6673 -54.4367 -47.7974 -45.8444 -36.5060 -35.1902 -29.2400 -27.3183
   -23.1990 -19.6478 -16.1398 -15.0300 -13.2247 -12.2601  -7.8971  -5.4814
    -2.2101  -0.2951   0.8005   2.2469   4.4722   4.7587   5.3606   5.8774
     6.1261   6.2527

          k = 0.0774-0.1348 0.0000 ( 16718 PWs)   bands (ev):

   -99.6500 -99.4759 -98.9261 -98.5849 -98.4149 -97.1296 -95.8177 -95.2920
   -94.2623 -94.0918 -85.4372 -84.2300 -82.7680 -82.6011 -75.8467 -61.6659
   -56.7592 -54.6825 -47.2532 -44.2584 -37.4248 -35.2727 -31.3230 -27.7764
   -22.2944 -19.0645 -16.0428 -15.1547 -12.9319 -12.0550  -7.5717  -5.2844
    -2.2069  -1.0964   0.5084   2.0465   3.8219   4.3506   5.0842   5.3618
     5.6672   5.7992

          k = 0.0777-0.0450 0.0000 ( 16700 PWs)   bands (ev):

   -99.6507 -99.4776 -98.9259 -98.5851 -98.4150 -97.1298 -95.8179 -95.2913
   -94.2621 -94.0924 -85.4291 -84.2224 -82.7885 -82.6079 -75.8955 -61.6873
   -56.8206 -54.8212 -46.9215 -42.5633 -38.4036 -35.1729 -33.1776 -28.0251
   -21.5179 -18.5191 -16.0938 -15.4303 -12.7006 -11.9320  -7.4302  -5.3020
    -2.0779  -1.5644   0.1927   1.9874   3.3282   4.1543   4.9114   5.0905
     5.4266   5.5587

          k = 0.1560 0.0895 0.0000 ( 16720 PWs)   bands (ev):

   -99.6506 -99.4780 -98.9258 -98.5850 -98.4148 -97.1298 -95.8179 -95.2910
   -94.2620 -94.0925 -85.4262 -84.2196 -82.7964 -82.6103 -75.9154 -61.7149
   -56.8573 -54.8770 -46.6651 -41.6076 -39.1090 -34.8962 -33.9358 -28.1556
   -21.3557 -18.2700 -16.3827 -15.8106 -12.9047 -11.5230  -7.4078  -5.3884
    -1.7869  -1.2663   0.0597   2.2625   3.1177   4.6205   5.1328   5.5237
     5.7908   5.9800

          k = 0.1563 0.1792 0.0000 ( 16783 PWs)   bands (ev):

   -99.6508 -99.4777 -98.9265 -98.5851 -98.4151 -97.1304 -95.8179 -95.2913
   -94.2621 -94.0924 -85.4299 -84.2227 -82.7890 -82.6080 -75.8971 -61.7176
   -56.8398 -54.7940 -46.9202 -42.3257 -38.8439 -34.5508 -33.3773 -27.9077
   -21.4658 -18.7863 -16.2281 -15.9255 -13.0559 -11.4539  -7.8773  -5.1282
    -1.6153  -0.6303  -0.0489   2.4041   3.2569   5.0187   5.3545   5.9429
     6.1318   6.3844

          k = 0.1565 0.2690 0.0000 ( 16806 PWs)   bands (ev):

   -99.6499 -99.4762 -98.9267 -98.5850 -98.4149 -97.1300 -95.8177 -95.2921
   -94.2624 -94.0919 -85.4383 -84.2307 -82.7684 -82.6013 -75.8484 -61.7042
   -56.7787 -54.6235 -47.3860 -43.9808 -37.9353 -34.6458 -31.3885 -27.5334
   -22.0675 -19.5892 -16.4248 -15.4769 -13.1917 -11.5746  -8.5337  -4.8476
    -1.3301  -0.3403   0.6146   2.5672   3.4667   5.4879   5.7768   6.4249
     6.6814   6.8321

          k = 0.1568 0.3587 0.0000 ( 16789 PWs)   bands (ev):

   -99.6486 -99.4743 -98.9271 -98.5849 -98.4147 -97.1297 -95.8173 -95.2929
   -94.2625 -94.0910 -85.4490 -84.2410 -82.7408 -82.5917 -75.7807 -61.6802
   -56.6832 -54.3712 -48.0198 -45.5264 -37.0852 -34.4908 -29.1949 -27.1506
   -22.9071 -20.2273 -16.6245 -15.1596 -13.3589 -11.8887  -9.1004  -4.8566
    -0.9329  -0.2119   1.4328   2.9222   3.5787   5.2246   6.2234   6.4413
     7.4904   7.6881

          k = 0.1571 0.4484 0.0000 ( 16832 PWs)   bands (ev):

   -99.6477 -99.4726 -98.9278 -98.5850 -98.4147 -97.1298 -95.8172 -95.2938
   -94.2629 -94.0901 -85.4596 -84.2519 -82.7145 -82.5829 -75.7119 -61.6545
   -56.5770 -54.0557 -48.8168 -46.6019 -36.5731 -33.9089 -27.8097 -26.7901
   -23.1749 -20.5916 -16.7223 -15.2714 -13.6100 -12.3218  -9.3986  -5.2823
    -0.4509   0.0677   1.8587   2.8837   3.8860   4.4531   6.7028   6.9236
     8.2520   8.7247

          k = 0.1574 0.5382 0.0000 ( 16862 PWs)   bands (ev):

   -99.6473 -99.4713 -98.9285 -98.5849 -98.4149 -97.1300 -95.8170 -95.2946
   -94.2631 -94.0896 -85.4671 -84.2598 -82.6958 -82.5765 -75.6604 -61.6319
   -56.4925 -53.7514 -49.5664 -47.1583 -36.3491 -33.1470 -28.0839 -26.3687
   -22.3933 -20.4608 -16.8198 -15.8507 -13.8907 -12.6285  -9.4234  -5.8470
    -0.1080   0.4346   2.0157   2.3352   3.9004   4.4908   6.8473   7.3423
     9.0361   9.2077

          k = 0.1543-0.4490 0.0000 ( 16836 PWs)   bands (ev):

   -99.6469 -99.4708 -98.9286 -98.5849 -98.4148 -97.1299 -95.8170 -95.2948
   -94.2631 -94.0892 -85.4695 -84.2623 -82.6887 -82.5741 -75.6407 -61.6160
   -56.4601 -53.6466 -49.8290 -47.3414 -36.2137 -32.8710 -28.4779 -26.3148
   -21.9620 -19.9358 -17.1095 -16.0869 -14.0213 -12.7269  -9.2366  -6.1349
    -0.6362   0.7332   1.9917   2.5915   3.5921   4.5961   6.9157   7.5950
     8.0905   8.6660

          k = 0.1546-0.3592 0.0000 ( 16807 PWs)   bands (ev):

   -99.6471 -99.4710 -98.9283 -98.5848 -98.4147 -97.1298 -95.8170 -95.2946
   -94.2630 -94.0896 -85.4667 -84.2590 -82.6957 -82.5766 -75.6600 -61.6111
   -56.4917 -53.8575 -49.3756 -47.2325 -36.1075 -33.4873 -28.2902 -26.4623
   -22.4813 -20.1281 -16.7488 -15.6963 -13.9013 -12.6745  -8.8380  -6.0259
    -1.5556   0.7325   1.6108   3.1434   3.5152   4.8174   6.6805   6.9112
     7.5442   7.6673

          k = 0.1549-0.2695 0.0000 ( 16812 PWs)   bands (ev):

   -99.6481 -99.4723 -98.9276 -98.5849 -98.4149 -97.1297 -95.8173 -95.2939
   -94.2629 -94.0901 -85.4594 -84.2512 -82.7150 -82.5835 -75.7138 -61.6206
   -56.5740 -54.2100 -48.4558 -46.7980 -36.1368 -34.4437 -28.2834 -26.7935
   -23.5436 -19.9084 -16.4844 -15.1421 -13.5866 -12.4645  -8.2619  -5.6580
    -2.2510   0.1062   1.3810   2.8224   4.0951   4.9891   5.8758   6.4973
     6.7434   6.9189

          k = 0.1552-0.1798 0.0000 ( 16786 PWs)   bands (ev):

   -99.6492 -99.4745 -98.9268 -98.5853 -98.4151 -97.1296 -95.8176 -95.2930
   -94.2626 -94.0909 -85.4486 -84.2404 -82.7413 -82.5925 -75.7842 -61.6417
   -56.6761 -54.5285 -47.5675 -45.8335 -36.6439 -34.9834 -29.3394 -27.5618
   -23.4122 -19.4057 -16.3699 -14.9177 -13.2570 -12.1834  -7.7219  -5.3140
    -2.4944  -0.6598   1.1325   2.4642   4.1838   4.5841   5.3648   5.9139
     6.1738   6.3177

          k = 0.1554-0.0900 0.0000 ( 16732 PWs)   bands (ev):

   -99.6497 -99.4761 -98.9263 -98.5849 -98.4147 -97.1297 -95.8178 -95.2919
   -94.2623 -94.0917 -85.4374 -84.2296 -82.7685 -82.6014 -75.8507 -61.6703
   -56.7682 -54.7509 -46.9962 -44.3278 -37.4979 -35.0974 -31.3107 -28.0228
   -22.5591 -18.8867 -16.2975 -15.0585 -12.9662 -11.9487  -7.4205  -5.2349
    -2.3121  -1.2352   0.7706   2.2430   3.6468   4.3623   5.1227   5.5105
     5.8141   5.9459

          k = 0.1557-0.0003 0.0000 ( 16691 PWs)   bands (ev):

   -99.6505 -99.4776 -98.9257 -98.5850 -98.4148 -97.1295 -95.8179 -95.2912
   -94.2620 -94.0922 -85.4292 -84.2218 -82.7885 -82.6078 -75.8978 -61.6968
   -56.8318 -54.8653 -46.6901 -42.6943 -38.3366 -35.1552 -33.0531 -28.2039
   -21.7584 -18.4430 -16.2995 -15.4561 -12.8251 -11.7273  -7.3071  -5.3582
    -2.0030  -1.4784   0.3674   2.1855   3.2316   4.3906   5.0500   5.3775
     5.6936   5.8272

          k = 0.2340 0.1342 0.0000 ( 16788 PWs)   bands (ev):

   -99.6509 -99.4782 -98.9265 -98.5851 -98.4150 -97.1304 -95.8179 -95.2911
   -94.2621 -94.0926 -85.4265 -84.2199 -82.7975 -82.6105 -75.9183 -61.7369
   -56.8752 -54.9120 -46.4095 -41.7760 -39.0242 -34.8905 -33.7786 -28.2416
   -21.4668 -18.4018 -16.5064 -16.1006 -13.2488 -11.1828  -7.2957  -5.5460
    -1.5603  -0.7143   0.1506   2.5049   3.2032   5.2568   5.5319   6.2152
     6.4018   6.6206

          k = 0.2343 0.2240 0.0000 ( 16795 PWs)   bands (ev):

   -99.6505 -99.4778 -98.9263 -98.5851 -98.4148 -97.1300 -95.8179 -95.2914
   -94.2622 -94.0925 -85.4302 -84.2228 -82.7897 -82.6079 -75.9001 -61.7382
   -56.8560 -54.8320 -46.6909 -42.3565 -38.9147 -34.3656 -33.3783 -27.9473
   -21.5212 -18.9732 -16.4909 -16.0669 -13.3565 -11.1539  -7.9440  -5.1400
    -1.3687  -0.1792   0.1810   2.5939   3.5071   5.5333   5.8607   6.6520
     6.8521   7.0570

          k = 0.2345 0.3137 0.0000 ( 16796 PWs)   bands (ev):

   -99.6497 -99.4762 -98.9267 -98.5850 -98.4147 -97.1299 -95.8176 -95.2920
   -94.2624 -94.0918 -85.4382 -84.2305 -82.7686 -82.6013 -75.8520 -61.7213
   -56.7930 -54.6738 -47.1970 -43.9107 -38.0980 -34.4194 -31.4210 -27.5900
   -22.0737 -19.7643 -16.7555 -15.5012 -13.3951 -11.3518  -8.7323  -4.7200
    -1.0502  -0.1527   1.0139   2.8088   3.5812   5.7382   6.2647   6.5252
     7.5896   7.7037

          k = 0.2348 0.4034 0.0000 ( 16820 PWs)   bands (ev):

   -99.6484 -99.4743 -98.9275 -98.5849 -98.4145 -97.1301 -95.8173 -95.2929
   -94.2626 -94.0908 -85.4490 -84.2410 -82.7419 -82.5923 -75.7846 -61.6943
   -56.6976 -54.4416 -47.8977 -45.3625 -37.2392 -34.3079 -29.2732 -27.2830
   -22.8561 -20.3176 -16.9314 -15.1653 -13.4655 -11.7192  -9.3576  -4.5974
    -0.6887  -0.0327   1.6080   3.2206   3.3408   5.2544   6.3519   6.8990
     8.3114   8.6565

          k = 0.2351 0.4932 0.0000 ( 16874 PWs)   bands (ev):

   -99.6477 -99.4727 -98.9284 -98.5851 -98.4148 -97.1303 -95.8173 -95.2940
   -94.2630 -94.0902 -85.4596 -84.2519 -82.7155 -82.5838 -75.7167 -61.6626
   -56.5933 -54.1503 -48.7643 -46.3438 -36.6039 -33.8773 -28.1303 -26.8447
   -23.0352 -20.5915 -16.9813 -15.2941 -13.6924 -12.1203  -9.6663  -4.9163
    -0.3518   0.2157   1.9237   2.5462   3.9018   4.7554   6.6740   7.1607
     9.0961   9.3996

          k = 0.2354 0.5829 0.0000 ( 16870 PWs)   bands (ev):

   -99.6470 -99.4715 -98.9287 -98.5850 -98.4147 -97.1301 -95.8171 -95.2946
   -94.2632 -94.0895 -85.4671 -84.2593 -82.6966 -82.5771 -75.6658 -61.6336
   -56.5111 -53.8733 -49.5339 -46.8529 -36.2413 -33.2807 -28.5088 -26.4041
   -22.1829 -20.4298 -16.9851 -15.9438 -13.9786 -12.3824  -9.6768  -5.3880
    -0.3006   0.4210   1.9830   2.3286   3.9298   4.7051   6.9870   7.3540
     8.9154   9.5135

          k = 0.2323-0.4043 0.0000 ( 16815 PWs)   bands (ev):

   -99.6467 -99.4705 -98.9282 -98.5847 -98.4146 -97.1295 -95.8169 -95.2947
   -94.2631 -94.0891 -85.4692 -84.2613 -82.6894 -82.5745 -75.6465 -61.6135
   -56.4800 -53.7858 -49.7904 -47.0243 -36.0356 -33.0775 -28.9104 -26.3996
   -21.7271 -19.8775 -17.1761 -16.2947 -14.0599 -12.5112  -9.4517  -5.5839
    -1.0752   0.6276   1.9822   2.7154   3.6966   4.7975   6.9498   7.6378
     8.0803   8.6728

          k = 0.2326-0.3145 0.0000 ( 16795 PWs)   bands (ev):

   -99.6471 -99.4710 -98.9279 -98.5847 -98.4147 -97.1295 -95.8171 -95.2945
   -94.2631 -94.0894 -85.4667 -84.2580 -82.6967 -82.5768 -75.6651 -61.6097
   -56.5108 -53.9873 -49.3356 -46.9268 -35.9591 -33.6080 -28.7763 -26.5575
   -22.3495 -19.9783 -16.9521 -15.7574 -13.9119 -12.5050  -8.9892  -5.4363
    -1.9508   0.3582   1.8662   3.2868   3.5475   4.8925   6.6959   6.8868
     7.6227   7.7447

          k = 0.2329-0.2248 0.0000 ( 16789 PWs)   bands (ev):

   -99.6479 -99.4723 -98.9276 -98.5848 -98.4147 -97.1297 -95.8172 -95.2939
   -94.2628 -94.0901 -85.4588 -84.2505 -82.7157 -82.5838 -75.7174 -61.6220
   -56.5910 -54.3169 -48.3847 -46.5470 -36.1780 -34.3049 -28.7218 -26.9189
   -23.5471 -19.7157 -16.8005 -15.0724 -13.6197 -12.3161  -8.3452  -5.1337
    -2.5257  -0.2455   1.6837   3.0720   3.9860   4.8007   5.9862   6.6192
     6.8721   7.0316

          k = 0.2332-0.1350 0.0000 ( 16790 PWs)   bands (ev):

   -99.6491 -99.4745 -98.9270 -98.5852 -98.4150 -97.1297 -95.8175 -95.2929
   -94.2627 -94.0908 -85.4480 -84.2401 -82.7424 -82.5928 -75.7882 -61.6490
   -56.6919 -54.6111 -47.3838 -45.7274 -36.8554 -34.6225 -29.5318 -27.8020
   -23.5536 -19.2497 -16.7241 -14.8366 -13.3054 -12.0322  -7.7849  -4.9523
    -2.5866  -0.7958   1.3867   2.7433   3.9267   4.5991   5.5490   6.1917
     6.4310   6.5852

          k = 0.2334-0.0453 0.0000 ( 16782 PWs)   bands (ev):

   -99.6501 -99.4763 -98.9265 -98.5852 -98.4151 -97.1299 -95.8178 -95.2920
   -94.2624 -94.0917 -85.4373 -84.2297 -82.7695 -82.6019 -75.8551 -61.6840
   -56.7848 -54.8108 -46.7319 -44.3520 -37.6541 -34.7652 -31.3640 -28.2678
   -22.7448 -18.8267 -16.6252 -15.0563 -13.0853 -11.7382  -7.4565  -5.0925
    -2.1893  -1.1258   0.9807   2.5140   3.3628   4.7490   5.3700   5.9325
     6.2050   6.3488

          k = 0.2337 0.0445 0.0000 ( 16779 PWs)   bands (ev):

   -99.6507 -99.4778 -98.9264 -98.5852 -98.4151 -97.1301 -95.8179 -95.2913
   -94.2621 -94.0923 -85.4291 -84.2226 -82.7900 -82.6084 -75.9018 -61.7169
   -56.8497 -54.9085 -46.4158 -42.8087 -38.3471 -34.9933 -33.0016 -28.3711
   -21.9206 -18.4944 -16.5384 -15.5916 -13.0942 -11.4204  -7.2141  -5.4547
    -1.7446  -1.1490   0.5133   2.4476   3.0984   4.9738   5.3792   5.9416
     6.2153   6.3528

          k = 0.3120 0.1789 0.0000 ( 16802 PWs)   bands (ev):

   -99.6510 -99.4785 -98.9262 -98.5853 -98.4151 -97.1301 -95.8179 -95.2911
   -94.2622 -94.0926 -85.4265 -84.2197 -82.7980 -82.6107 -75.9222 -61.7576
   -56.8920 -54.9453 -46.1383 -41.9451 -38.9430 -34.8040 -33.7726 -28.2602
   -21.4222 -18.6545 -16.6007 -16.4114 -13.6043 -10.9060  -7.1389  -5.7674
    -1.3211  -0.1597   0.4321   2.5228   3.6183   5.6510   6.2479   6.8356
     7.2364   7.4153

          k = 0.3123 0.2687 0.0000 ( 16776 PWs)   bands (ev):

   -99.6504 -99.4774 -98.9264 -98.5849 -98.4147 -97.1301 -95.8177 -95.2912
   -94.2621 -94.0922 -85.4296 -84.2227 -82.7897 -82.6081 -75.9024 -61.7559
   -56.8708 -54.8770 -46.4210 -42.4536 -38.8959 -34.2197 -33.4423 -27.9905
   -21.4622 -19.2181 -16.7649 -16.1417 -13.6434 -10.9325  -7.9038  -5.2228
    -1.1586   0.0933   0.7138   2.5596   4.0465   5.6735   6.3610   6.9598
     7.9014   7.9667

          k = 0.3125 0.3584 0.0000 ( 16845 PWs)   bands (ev):

   -99.6498 -99.4764 -98.9272 -98.5851 -98.4148 -97.1304 -95.8176 -95.2921
   -94.2624 -94.0918 -85.4382 -84.2310 -82.7698 -82.6019 -75.8561 -61.7361
   -56.8075 -54.7380 -46.9612 -43.8870 -38.1728 -34.2684 -31.5006 -27.7186
   -22.0442 -19.8921 -17.0085 -15.5582 -13.5502 -11.2003  -8.7672  -4.6782
    -0.8624   0.1478   1.3415   2.7600   3.7914   5.6074   6.5018   6.9044
     8.3726   8.8231

          k = 0.3128 0.4482 0.0000 ( 16876 PWs)   bands (ev):

   -99.6487 -99.4748 -98.9280 -98.5852 -98.4148 -97.1306 -95.8175 -95.2930
   -94.2629 -94.0909 -85.4492 -84.2415 -82.7431 -82.5932 -75.7886 -61.7027
   -56.7132 -54.5269 -47.7381 -45.2227 -37.2976 -34.2113 -29.4298 -27.4833
   -22.8408 -20.2864 -17.1506 -15.2473 -13.4568 -11.6245  -9.4232  -4.4360
    -0.5341   0.1739   1.7032   2.8612   3.4944   5.3886   6.2881   7.3038
     9.0776   9.3633

          k = 0.3131 0.5379 0.0000 ( 16906 PWs)   bands (ev):

   -99.6483 -99.4728 -98.9285 -98.5853 -98.4152 -97.1305 -95.8173 -95.2940
   -94.2631 -94.0901 -85.4594 -84.2519 -82.7168 -82.5844 -75.7216 -61.6651
   -56.6115 -54.2564 -48.6818 -46.1019 -36.5291 -33.9423 -28.5422 -26.9166
   -22.9687 -20.4757 -17.1804 -15.3695 -13.5910 -12.0460  -9.7425  -4.6356
    -0.3178   0.1981   1.8146   2.4480   3.9662   4.8959   6.6215   7.5338
     9.3713   9.5753

          k = 0.3134 0.6277 0.0000 ( 16870 PWs)   bands (ev):

   -99.6471 -99.4715 -98.9286 -98.5850 -98.4148 -97.1301 -95.8172 -95.2946
   -94.2632 -94.0894 -85.4664 -84.2588 -82.6977 -82.5776 -75.6711 -61.6319
   -56.5318 -53.9962 -49.4844 -46.5619 -36.0118 -33.5323 -28.9362 -26.5045
   -22.0008 -20.3722 -17.1455 -16.0227 -13.8495 -12.3347  -9.7527  -4.9665
    -0.6490   0.3704   1.8874   2.4169   3.9850   4.9448   7.1001   7.5403
     8.6985   9.6271

          k = 0.3103-0.3595 0.0000 ( 16837 PWs)   bands (ev):

   -99.6469 -99.4708 -98.9283 -98.5850 -98.4149 -97.1296 -95.8170 -95.2948
   -94.2631 -94.0891 -85.4688 -84.2608 -82.6908 -82.5749 -75.6522 -61.6126
   -56.5022 -53.9095 -49.7586 -46.7179 -35.7461 -33.3887 -29.3148 -26.5222
   -21.4766 -19.8991 -17.2265 -16.4923 -13.8988 -12.5025  -9.5334  -5.0221
    -1.4718   0.4414   1.9980   2.7196   3.8052   5.1329   7.0379   7.7127
     8.1106   8.8288

          k = 0.3106-0.2698 0.0000 ( 16786 PWs)   bands (ev):

   -99.6473 -99.4710 -98.9277 -98.5848 -98.4148 -97.1293 -95.8170 -95.2944
   -94.2629 -94.0892 -85.4660 -84.2574 -82.6976 -82.5770 -75.6709 -61.6109
   -56.5321 -54.0882 -49.3275 -46.6183 -35.7493 -33.7665 -29.2160 -26.6589
   -22.1998 -19.9125 -17.1903 -15.8168 -13.7595 -12.4928  -9.1064  -4.8134
    -2.2157   0.0928   2.0267   3.1974   3.6561   5.1324   6.7532   6.9892
     7.8850   8.0268

          k = 0.3109-0.1800 0.0000 ( 16798 PWs)   bands (ev):

   -99.6482 -99.4723 -98.9278 -98.5849 -98.4149 -97.1298 -95.8173 -95.2939
   -94.2629 -94.0899 -85.4583 -84.2503 -82.7168 -82.5840 -75.7213 -61.6295
   -56.6106 -54.3909 -48.3813 -46.2611 -36.2046 -34.1611 -29.1263 -27.0241
   -23.4777 -19.6375 -17.1353 -15.0672 -13.5198 -12.2677  -8.5432  -4.5936
    -2.5557  -0.3672   1.8639   3.1405   4.0581   4.6871   6.2367   6.8492
     7.2331   7.4108

          k = 0.3112-0.0903 0.0000 ( 16784 PWs)   bands (ev):

   -99.6489 -99.4741 -98.9271 -98.5848 -98.4147 -97.1297 -95.8175 -95.2930
   -94.2626 -94.0908 -85.4476 -84.2398 -82.7431 -82.5930 -75.7907 -61.6627
   -56.7103 -54.6630 -47.3084 -45.5374 -37.0179 -34.3008 -29.7676 -27.9438
   -23.5584 -19.2482 -17.0543 -14.8736 -13.2869 -11.9229  -8.0596  -4.6011
    -2.3317  -0.6803   1.5498   2.8745   3.8342   4.7055   5.9287   6.7157
     6.9129   7.0691

          k = 0.3114-0.0005 0.0000 ( 16800 PWs)   bands (ev):

   -99.6499 -99.4761 -98.9266 -98.5849 -98.4148 -97.1299 -95.8177 -95.2920
   -94.2624 -94.0916 -85.4368 -84.2299 -82.7707 -82.6021 -75.8584 -61.7034
   -56.8031 -54.8477 -46.5440 -44.3038 -37.8106 -34.4236 -31.4972 -28.3929
   -22.7615 -18.9430 -16.8858 -15.1916 -13.2377 -11.5243  -7.6658  -4.9606
    -1.7536  -0.7936   1.1288   2.6638   3.2449   5.2182   5.8099   6.6241
     6.8341   6.9750

          k = 0.3117 0.0892 0.0000 ( 16793 PWs)   bands (ev):

   -99.6505 -99.4777 -98.9263 -98.5851 -98.4149 -97.1299 -95.8179 -95.2913
   -94.2622 -94.0923 -85.4289 -84.2225 -82.7908 -82.6085 -75.9052 -61.7382
   -56.8677 -54.9385 -46.1690 -42.8717 -38.4147 -34.7384 -33.0860 -28.4271
   -21.9062 -18.7023 -16.7154 -15.8302 -13.4132 -11.1343  -7.1996  -5.5549
    -1.4026  -0.5903   0.6852   2.5366   3.2178   5.5358   5.9499   6.7663
     6.9057   7.0449

          k = 0.3900 0.2237 0.0000 ( 16828 PWs)   bands (ev):

   -99.6508 -99.4784 -98.9266 -98.5850 -98.4148 -97.1305 -95.8179 -95.2911
   -94.2622 -94.0925 -85.4267 -84.2198 -82.7984 -82.6111 -75.9247 -61.7739
   -56.9037 -54.9693 -45.9300 -42.0725 -38.8854 -34.6636 -33.8965 -28.2291
   -21.2655 -18.9264 -16.7266 -16.6055 -13.8583 -10.7439  -6.9756  -5.9871
    -1.1457   0.1749   0.9039   2.4499   4.1601   5.6010   6.4803   7.3718
     8.4177   8.4744

          k = 0.3903 0.3134 0.0000 ( 16840 PWs)   bands (ev):

   -99.6507 -99.4779 -98.9270 -98.5851 -98.4149 -97.1307 -95.8179 -95.2913
   -94.2624 -94.0923 -85.4300 -84.2230 -82.7906 -82.6087 -75.9059 -61.7679
   -56.8818 -54.9181 -46.1801 -42.6006 -38.8020 -34.1199 -33.5508 -28.0703
   -21.3932 -19.3757 -16.9295 -16.2104 -13.8098 -10.8283  -7.7573  -5.3530
    -1.0223   0.3094   1.1498   2.4477   4.4022   5.3858   6.4450   7.5210
     8.8266   9.1496

          k = 0.3905 0.4032 0.0000 ( 16840 PWs)   bands (ev):

   -99.6498 -99.4762 -98.9271 -98.5850 -98.4148 -97.1304 -95.8176 -95.2919
   -94.2625 -94.0915 -85.4378 -84.2307 -82.7707 -82.6021 -75.8584 -61.7416
   -56.8182 -54.7971 -46.7341 -43.9294 -38.1541 -34.1678 -31.6047 -27.9190
   -22.1104 -19.8296 -17.1206 -15.6363 -13.5716 -11.1593  -8.6251  -4.7061
    -0.7482   0.3292   1.5163   2.5406   3.7619   5.4692   6.6635   7.3611
     8.8680   9.5488

          k = 0.3908 0.4929 0.0000 ( 16868 PWs)   bands (ev):

   -99.6487 -99.4746 -98.9279 -98.5851 -98.4147 -97.1305 -95.8175 -95.2930
   -94.2628 -94.0909 -85.4486 -84.2410 -82.7439 -82.5934 -75.7920 -61.7024
   -56.7254 -54.6032 -47.5764 -45.1529 -37.2720 -34.1542 -29.6350 -27.7009
   -22.9590 -20.0727 -17.2601 -15.3202 -13.3296 -11.6583  -9.2616  -4.3702
    -0.5110   0.1671   1.5913   2.6591   3.6580   5.2307   6.5139   7.7662
     8.7667   9.2329

          k = 0.3911 0.5827 0.0000 ( 16868 PWs)   bands (ev):

   -99.6478 -99.4727 -98.9282 -98.5852 -98.4148 -97.1302 -95.8173 -95.2939
   -94.2630 -94.0900 -85.4584 -84.2513 -82.7175 -82.5845 -75.7250 -61.6607
   -56.6257 -54.3458 -48.5890 -45.9424 -36.3803 -34.0439 -28.9394 -27.0068
   -23.0314 -20.2340 -17.3200 -15.4000 -13.3512 -12.1715  -9.5733  -4.4464
    -0.6283   0.1046   1.6595   2.5962   4.0559   4.9272   6.7126   7.9874
     8.6399   9.3124

          k = 0.3914 0.6724 0.0000 ( 16856 PWs)   bands (ev):

   -99.6474 -99.4714 -98.9281 -98.5851 -98.4150 -97.1296 -95.8171 -95.2945
   -94.2632 -94.0892 -85.4657 -84.2587 -82.6984 -82.5778 -75.6751 -61.6278
   -56.5484 -54.0906 -49.4308 -46.3602 -35.6936 -33.8517 -29.2764 -26.6332
   -21.9221 -20.2486 -17.2943 -16.0433 -13.5517 -12.5245  -9.6270  -4.6007
    -1.1839   0.2916   1.8066   2.5608   3.9998   5.3284   7.0987   7.8007
     8.2914   9.2118

          k = 0.3883-0.3148 0.0000 ( 16846 PWs)   bands (ev):

   -99.6473 -99.4709 -98.9282 -98.5852 -98.4152 -97.1296 -95.8171 -95.2948
   -94.2632 -94.0892 -85.4685 -84.2609 -82.6915 -82.5751 -75.6566 -61.6115
   -56.5195 -53.9911 -49.7381 -46.4995 -35.3712 -33.7863 -29.5832 -26.6339
   -21.2745 -19.9590 -17.2660 -16.6376 -13.5999 -12.6944  -9.5079  -4.5184
    -1.8613   0.3301   1.8925   2.7577   3.8675   5.6756   7.1001   7.5711
     8.1394   9.0168

          k = 0.3886-0.2250 0.0000 ( 16836 PWs)   bands (ev):

   -99.6474 -99.4712 -98.9281 -98.5851 -98.4150 -97.1297 -95.8171 -95.2945
   -94.2632 -94.0893 -85.4655 -84.2583 -82.6984 -82.5778 -75.6752 -61.6162
   -56.5488 -54.1420 -49.3452 -46.3919 -35.5166 -33.9846 -29.4664 -26.7287
   -22.0587 -19.9497 -17.3606 -15.9009 -13.4868 -12.6383  -9.2319  -4.3584
    -2.2471   0.0461   1.9729   3.0900   3.7077   5.5797   6.7810   7.1417
     8.3898   8.5301

          k = 0.3889-0.1353 0.0000 ( 16778 PWs)   bands (ev):

   -99.6480 -99.4724 -98.9272 -98.5851 -98.4149 -97.1291 -95.8172 -95.2937
   -94.2629 -94.0898 -85.4571 -84.2505 -82.7171 -82.5842 -75.7243 -61.6393
   -56.6258 -54.4199 -48.4263 -46.0274 -36.2033 -34.1071 -29.3182 -27.0799
   -23.3453 -19.7167 -17.3526 -15.1667 -13.3029 -12.3293  -8.8533  -4.3198
    -2.1361  -0.2558   1.8452   3.0927   3.9918   4.8731   6.6331   6.9942
     7.8918   8.0547

          k = 0.3892-0.0456 0.0000 ( 16793 PWs)   bands (ev):

   -99.6488 -99.4742 -98.9271 -98.5850 -98.4147 -97.1297 -95.8175 -95.2928
   -94.2627 -94.0906 -85.4469 -84.2400 -82.7440 -82.5933 -75.7927 -61.6791
   -56.7248 -54.6776 -47.3372 -45.3312 -37.1220 -34.1315 -29.8927 -27.9638
   -23.4211 -19.4311 -17.2425 -15.0508 -13.2196 -11.8557  -8.4706  -4.4306
    -1.6752  -0.3819   1.5684   2.8140   3.8372   4.8592   6.5381   7.0699
     7.6243   7.7771

          k = 0.3894 0.0442 0.0000 ( 16790 PWs)   bands (ev):

   -99.6498 -99.4761 -98.9269 -98.5848 -98.4146 -97.1301 -95.8177 -95.2919
   -94.2624 -94.0915 -85.4365 -84.2294 -82.7710 -82.6019 -75.8600 -61.7217
   -56.8168 -54.8564 -46.4871 -44.1838 -37.9483 -34.1933 -31.6361 -28.3385
   -22.6010 -19.2177 -17.0315 -15.4295 -13.3788 -11.3450  -7.9903  -4.8641
    -1.1871  -0.3003   1.2579   2.5326   3.4232   5.4031   6.5587   7.2334
     7.6040   7.7751

          k = 0.3897 0.1339 0.0000 ( 16782 PWs)   bands (ev):

   -99.6505 -99.4774 -98.9264 -98.5847 -98.4147 -97.1301 -95.8177 -95.2912
   -94.2621 -94.0922 -85.4289 -84.2218 -82.7911 -82.6083 -75.9065 -61.7565
   -56.8805 -54.9506 -46.0262 -42.8529 -38.5246 -34.4485 -33.2905 -28.3473
   -21.7231 -19.0056 -16.8391 -16.0856 -13.6736 -10.9332  -7.3199  -5.5694
    -1.1166  -0.0252   0.9889   2.4227   3.6071   5.6492   6.7312   7.0770
     7.8866   8.0305

          k =-0.4680-0.2684 0.0000 ( 16838 PWs)   bands (ev):

   -99.6510 -99.4784 -98.9267 -98.5849 -98.4149 -97.1306 -95.8179 -95.2912
   -94.2623 -94.0926 -85.4269 -84.2198 -82.7982 -82.6113 -75.9254 -61.7794
   -56.9081 -54.9776 -45.8511 -42.1202 -38.8646 -34.5757 -33.9923 -28.2086
   -21.1709 -19.0538 -16.8198 -16.6411 -13.9479 -10.6930  -6.8944  -6.0904
    -1.0834   0.2995   1.1374   2.4007   4.5222   5.3274   6.4433   7.8300
     9.0110   9.5106

          k =-0.4677-0.1787 0.0000 ( 16844 PWs)   bands (ev):

   -99.6507 -99.4779 -98.9270 -98.5851 -98.4149 -97.1307 -95.8178 -95.2914
   -94.2623 -94.0924 -85.4298 -84.2225 -82.7913 -82.6087 -75.9074 -61.7684
   -56.8857 -54.9442 -46.0325 -42.7517 -38.6648 -34.1968 -33.5071 -28.2014
   -21.4911 -19.2867 -16.9361 -16.2206 -13.8152 -10.8320  -7.5384  -5.4853
    -0.9895   0.2961   1.2668   2.3499   4.0913   5.4868   6.6220   7.6978
     8.6209   9.1663

          k =-0.4674-0.0889 0.0000 ( 16845 PWs)   bands (ev):

   -99.6500 -99.4763 -98.9271 -98.5851 -98.4149 -97.1305 -95.8177 -95.2920
   -94.2625 -94.0916 -85.4375 -84.2301 -82.7713 -82.6023 -75.8601 -61.7364
   -56.8223 -54.8390 -46.5627 -44.0402 -38.0692 -34.1240 -31.6754 -28.1524
   -22.3377 -19.5586 -17.1084 -15.6172 -13.4959 -11.2173  -8.3419  -4.7774
    -0.8156   0.1714   1.4291   2.4164   3.6243   5.4167   6.9582   7.5134
     8.2222   8.7995

          k =-0.4672 0.0008 0.0000 ( 16818 PWs)   bands (ev):

   -99.6486 -99.4743 -98.9273 -98.5849 -98.4146 -97.1299 -95.8174 -95.2928
   -94.2627 -94.0906 -85.4476 -84.2405 -82.7441 -82.5934 -75.7933 -61.6933
   -56.7299 -54.6559 -47.4359 -45.1887 -37.2022 -34.1114 -29.8255 -27.8751
   -23.1896 -19.7443 -17.2911 -15.2487 -13.2188 -11.7665  -8.9103  -4.3728
    -0.9217  -0.0505   1.5084   2.6992   3.7903   5.0301   6.7977   7.5389
     8.3739   8.7290

          k =-0.4669 0.0906 0.0000 ( 16836 PWs)   bands (ev):

   -99.6480 -99.4726 -98.9277 -98.5851 -98.4149 -97.1297 -95.8172 -95.2938
   -94.2630 -94.0898 -85.4578 -84.2511 -82.7177 -82.5845 -75.7262 -61.6515
   -56.6315 -54.4033 -48.5002 -45.9135 -36.2488 -34.1027 -29.2333 -27.0748
   -23.1807 -19.9442 -17.3976 -15.3146 -13.1858 -12.3435  -9.2326  -4.3296
    -1.3589  -0.0400   1.7053   2.8486   4.0408   4.9754   6.7798   7.5580
     8.5708   8.8228

          k =-0.4666 0.1803 0.0000 ( 16844 PWs)   bands (ev):

   -99.6476 -99.4714 -98.9282 -98.5852 -98.4151 -97.1297 -95.8172 -95.2946
   -94.2632 -94.0894 -85.4649 -84.2585 -82.6985 -82.5779 -75.6767 -61.6216
   -56.5550 -54.1419 -49.3821 -46.2981 -35.4519 -34.0707 -29.4720 -26.7220
   -21.9544 -20.0815 -17.3896 -15.9924 -13.3190 -12.7419  -9.4152  -4.3329
    -1.8288   0.1610   1.8413   2.8135   3.8992   5.7004   6.8811   7.5255
     8.4238   8.9459

          k =-0.4696-0.8069 0.0000 ( 16830 PWs)   bands (ev):

   -99.6472 -99.4707 -98.9281 -98.5850 -98.4150 -97.1295 -95.8170 -95.2949
   -94.2632 -94.0892 -85.4679 -84.2608 -82.6918 -82.5753 -75.6582 -61.6113
   -56.5259 -54.0188 -49.7309 -46.4203 -35.1354 -34.0329 -29.6737 -26.6792
   -21.1935 -19.9903 -17.2827 -16.6897 -13.3870 -12.8712  -9.4818  -4.2789
    -2.0703   0.3102   1.8204   2.7803   3.9043   6.0804   6.8925   7.6103
     8.1021   9.0239

     the Fermi energy is     1.9991 ev

!    total energy              =   -1242.45428724 Ry
     estimated scf accuracy    <          1.0E-13 Ry
     smearing contrib. (-TS)   =       0.00000551 Ry
     internal energy E=F+TS    =   -1242.45429275 Ry

     The total energy is F=E-TS. E is the sum of the following terms:
     one-electron contribution =  -17773.17422851 Ry
     hartree contribution      =    8846.26674911 Ry
     xc contribution           =    -172.64690133 Ry
     ewald contribution        =    7948.43965429 Ry
     one-center paw contrib.   =     -91.33956631 Ry

     convergence has been achieved in  22 iterations

     negative rho (up, down):  5.117E-04 0.000E+00

     Forces acting on atoms (cartesian axes, Ry/au):

     atom    1 type  2   force =    10.65436693   11.21249074   -0.37173451
     atom    2 type  1   force =    11.15677478   -5.03409585 -362.93631909
     atom    3 type  1   force =   -15.55591631   -1.39391420  336.28893528
     atom    4 type  3   force =    -2.23714510   -2.57369215  362.71410297
     atom    5 type  3   force =    -4.01808030   -2.21078853 -335.69498466

     Total force =   699.637098     Total SCF correction =     0.000004


     Computing stress (Cartesian axis) and pressure


     negative rho (up, down):  5.117E-04 0.000E+00
          total   stress  (Ry/bohr**3)                   (kbar)     P=    18106.05
   0.02185256  -0.00688133  -0.00300013         3214.62    -1012.28     -441.33
  -0.00688133   0.02992304   0.00031420        -1012.28     4401.83       46.22
  -0.00300013   0.00031420   0.31747159         -441.33       46.22    46701.68


     BFGS Geometry Optimization
     Energy error            =      0.0E+00 Ry
     Gradient error          =      3.6E+02 Ry/Bohr
     Cell gradient error     =      4.4E+03 kbar

     number of scf cycles    =   1
     number of bfgs steps    =   0

     enthalpy           new  =   -1242.4542872428 Ry

     new trust radius        =       0.5000000000 bohr
     new conv_thr            =            1.0E-12 Ry

     new unit-cell volume =   1702.03095 a.u.^3 (   252.21497 Ang^3 )
     density =      2.88396 g/cm^3

CELL_PARAMETERS (alat=  5.55000000)
   1.071096968  -0.003544691   0.000000000
  -0.534147586   0.931289797   0.000000000
   0.000000000   0.000000000  10.000000000

ATOMIC_POSITIONS (alat)
C             0.0000000000        0.0000000000        0.0000000000    0   0   0
Ta            0.6712277600        0.3331376032       -0.1290400376
Ta            0.3297045466        0.6669497849        0.1262688177
S             0.6662254791        0.3333369849        0.1885765823
S             0.3328858339        0.6664170695       -0.1818735559



     Writing output data file /scratch/as3359/Ta2CS2_loop/Ta.save/
     NEW-OLD atomic charge density approx. for the potential

     negative rho (up, down):  3.881E-02 0.000E+00
     extrapolated charge   70.12458, renormalised to   70.00000

     total cpu time spent up to now is      505.8 secs

     Self-consistent Calculation

     iteration #  1     ecut=    70.00 Ry     beta= 0.70
     Davidson diagonalization with overlap
     c_bands:  4 eigenvalues not converged
     c_bands:  4 eigenvalues not converged
     c_bands:  3 eigenvalues not converged
     c_bands:  5 eigenvalues not converged
     c_bands:  1 eigenvalues not converged
     c_bands:  3 eigenvalues not converged
     c_bands:  3 eigenvalues not converged
     c_bands:  4 eigenvalues not converged
     c_bands:  4 eigenvalues not converged
     c_bands:  5 eigenvalues not converged
     c_bands:  5 eigenvalues not converged
     c_bands:  4 eigenvalues not converged
     c_bands:  4 eigenvalues not converged
     c_bands:  3 eigenvalues not converged
     c_bands:  3 eigenvalues not converged
     c_bands:  1 eigenvalues not converged
     c_bands:  5 eigenvalues not converged
     c_bands:  4 eigenvalues not converged
     c_bands:  4 eigenvalues not converged
     c_bands:  3 eigenvalues not converged
     c_bands:  3 eigenvalues not converged
     c_bands:  3 eigenvalues not converged
     c_bands:  4 eigenvalues not converged
     c_bands:  4 eigenvalues not converged
     c_bands:  4 eigenvalues not converged
     c_bands:  4 eigenvalues not converged
     c_bands:  3 eigenvalues not converged
     c_bands:  4 eigenvalues not converged
     c_bands:  2 eigenvalues not converged
     c_bands:  3 eigenvalues not converged
     c_bands:  5 eigenvalues not converged
     c_bands:  1 eigenvalues not converged
     c_bands:  5 eigenvalues not converged
     c_bands:  4 eigenvalues not converged
     c_bands:  3 eigenvalues not converged
     c_bands:  3 eigenvalues not converged
     c_bands:  4 eigenvalues not converged
     c_bands:  3 eigenvalues not converged
     c_bands:  1 eigenvalues not converged
     c_bands:  1 eigenvalues not converged
     c_bands:  5 eigenvalues not converged
     c_bands:  5 eigenvalues not converged
     c_bands:  3 eigenvalues not converged
     c_bands:  3 eigenvalues not converged
     c_bands:  3 eigenvalues not converged
     c_bands:  1 eigenvalues not converged
     c_bands:  5 eigenvalues not converged
     ethr =  1.00E-06,  avg # of iterations = 26.6

     total cpu time spent up to now is      610.7 secs

     total energy              =   -1376.35305983 Ry
     estimated scf accuracy    <     103.45659602 Ry

     iteration #  2     ecut=    70.00 Ry     beta= 0.70
     Davidson diagonalization with overlap
     ethr =  1.00E-02,  avg # of iterations =  9.0

     total cpu time spent up to now is      641.8 secs

     total energy              =   -1469.22890652 Ry
     estimated scf accuracy    <     101.72601376 Ry

     iteration #  3     ecut=    70.00 Ry     beta= 0.70
     Davidson diagonalization with overlap
     ethr =  1.00E-02,  avg # of iterations =  3.0

     total cpu time spent up to now is      662.8 secs

     total energy              =   -1472.06387782 Ry
     estimated scf accuracy    <      17.43115448 Ry

     iteration #  4     ecut=    70.00 Ry     beta= 0.70
     Davidson diagonalization with overlap
     ethr =  1.00E-02,  avg # of iterations =  1.5

     total cpu time spent up to now is      677.7 secs

     total energy              =   -1465.38524990 Ry
     estimated scf accuracy    <      10.52993303 Ry

     iteration #  5     ecut=    70.00 Ry     beta= 0.70
     Davidson diagonalization with overlap
     ethr =  1.00E-02,  avg # of iterations =  2.1

     total cpu time spent up to now is      693.4 secs

     total energy              =   -1464.39064202 Ry
     estimated scf accuracy    <       2.35270857 Ry

     iteration #  6     ecut=    70.00 Ry     beta= 0.70
     Davidson diagonalization with overlap
     ethr =  3.36E-03,  avg # of iterations =  4.1

     total cpu time spent up to now is      710.5 secs

     total energy              =   -1464.33755651 Ry
     estimated scf accuracy    <       0.80816164 Ry

     iteration #  7     ecut=    70.00 Ry     beta= 0.70
     Davidson diagonalization with overlap
     ethr =  1.15E-03,  avg # of iterations =  3.8

     total cpu time spent up to now is      726.9 secs

     total energy              =   -1464.20563975 Ry
     estimated scf accuracy    <       0.64226170 Ry

     iteration #  8     ecut=    70.00 Ry     beta= 0.70
     Davidson diagonalization with overlap
     ethr =  9.18E-04,  avg # of iterations =  1.5

     negative rho (up, down):  5.058E-06 0.000E+00

     total cpu time spent up to now is      741.8 secs

     total energy              =   -1463.81880408 Ry
     estimated scf accuracy    <       0.56541315 Ry

     iteration #  9     ecut=    70.00 Ry     beta= 0.70
     Davidson diagonalization with overlap
     ethr =  8.08E-04,  avg # of iterations =  7.4

     negative rho (up, down):  2.289E-06 0.000E+00

     total cpu time spent up to now is      761.2 secs

     total energy              =   -1463.88764271 Ry
     estimated scf accuracy    <       0.01447037 Ry

     iteration # 10     ecut=    70.00 Ry     beta= 0.70
     Davidson diagonalization with overlap
     ethr =  2.07E-05,  avg # of iterations = 12.4

     negative rho (up, down):  3.578E-05 0.000E+00

     total cpu time spent up to now is      784.0 secs

     total energy              =   -1463.88405487 Ry
     estimated scf accuracy    <       0.01172946 Ry

     iteration # 11     ecut=    70.00 Ry     beta= 0.70
     Davidson diagonalization with overlap
     ethr =  1.68E-05,  avg # of iterations =  9.5

     negative rho (up, down):  2.416E-04 0.000E+00

     total cpu time spent up to now is      805.0 secs

     total energy              =   -1463.88564848 Ry
     estimated scf accuracy    <       0.00086538 Ry

     iteration # 12     ecut=    70.00 Ry     beta= 0.70
     Davidson diagonalization with overlap
     c_bands:  1 eigenvalues not converged
     c_bands:  1 eigenvalues not converged
     ethr =  1.24E-06,  avg # of iterations =  8.6

     negative rho (up, down):  2.841E-04 0.000E+00

     total cpu time spent up to now is      827.2 secs

     total energy              =   -1463.88582560 Ry
     estimated scf accuracy    <       0.00008931 Ry

     iteration # 13     ecut=    70.00 Ry     beta= 0.70
     Davidson diagonalization with overlap
