
     Program PWSCF v.6.8 starts on 24Mar2022 at 20:29:57 

     This program is part of the open-source Quantum ESPRESSO suite
     for quantum simulation of materials; please cite
         "P. Giannozzi et al., J. Phys.:Condens. Matter 21 395502 (2009);
         "P. Giannozzi et al., J. Phys.:Condens. Matter 29 465901 (2017);
         "P. Giannozzi et al., J. Chem. Phys. 152 154105 (2020);
          URL http://www.quantum-espresso.org", 
     in publications or presentations arising from this work. More details at
     http://www.quantum-espresso.org/quote

     Parallel version (MPI & OpenMP), running on       4 processor cores
     Number of MPI processes:                 2
     Threads/MPI process:                     2

     MPI processes distributed on     1 nodes
     R & G space division:  proc/nbgrp/npool/nimage =       2
     125243 MiB available memory on the printing compute node when the environment starts
 
     Reading input from Ta2CH2.vcrelax.in

     Current dimensions of program PWSCF are:
     Max number of different atomic species (ntypx) = 10
     Max number of k-points (npk) =  40000
     Max angular momentum in pseudopotentials (lmaxx) =  4
     file Ta.pbesol-spfn-rrkjus_psl.1.0.0.UPF: wavefunction(s)  5S 5P renormalized

     Subspace diagonalization in iterative solution of the eigenvalue problem:
     a serial algorithm will be used

 
     Parallelization info
     --------------------
     sticks:   dense  smooth     PW     G-vecs:    dense   smooth      PW
     Min         807     324     98               250741    63556   10218
     Max         808     325    101               250768    63579   10229
     Sum        1615     649    199               501509   127135   20447
 
     Using Slab Decomposition
 


     bravais-lattice index     =            0
     lattice parameter (alat)  =       5.5500  a.u.
     unit-cell volume          =    1603.2166 (a.u.)^3
     number of atoms/cell      =            5
     number of atomic types    =            3
     number of electrons       =        60.00
     number of Kohn-Sham states=           36
     kinetic-energy cutoff     =      70.0000  Ry
     charge density cutoff     =     700.0000  Ry
     scf convergence threshold =      1.0E-12
     mixing beta               =       0.7000
     number of iterations used =            8  plain     mixing
     energy convergence thresh.=      1.0E-04
     force convergence thresh. =      1.0E-03
     press convergence thresh. =      5.0E-01
     Exchange-correlation= PBESOL
                           (   1   4  10   8   0   0   0)
     nstep                     =           50


     celldm(1)=   5.550000  celldm(2)=   0.000000  celldm(3)=   0.000000
     celldm(4)=   0.000000  celldm(5)=   0.000000  celldm(6)=   0.000000

     crystal axes: (cart. coord. in units of alat)
               a(1) = (   1.040618   0.000000   0.000000 )  
               a(2) = (  -0.520309   0.901202   0.000000 )  
               a(3) = (   0.000000   0.000000  10.000000 )  

     reciprocal axes: (cart. coord. in units 2 pi/alat)
               b(1) = (  0.960967  0.554815  0.000000 )  
               b(2) = (  0.000000  1.109630  0.000000 )  
               b(3) = (  0.000000  0.000000  0.100000 )  


     PseudoPot. # 1 for Ta read from file:
     /shared/home/as3359/pseudo/Ta.pbesol-spfn-rrkjus_psl.1.0.0.UPF
     MD5 check sum: f099565ffaca9b150a52e9412a28e20b
     Pseudo is Ultrasoft + core correction, Zval = 27.0
     Generated using &quot;atomic&quot; code by A. Dal Corso  v.6.3
     Using radial grid of 1273 points,  8 beta functions with: 
                l(1) =   0
                l(2) =   0
                l(3) =   1
                l(4) =   1
                l(5) =   2
                l(6) =   2
                l(7) =   3
                l(8) =   3
     Q(r) pseudized with 0 coefficients 


     PseudoPot. # 2 for C  read from file:
     /shared/home/as3359/pseudo/C.pbesol-n-rrkjus_psl.1.0.0.UPF
     MD5 check sum: 05995be603a8a7c99da3dc4413f31573
     Pseudo is Ultrasoft + core correction, Zval =  4.0
     Generated using &quot;atomic&quot; code by A. Dal Corso  v.6.3MaX
     Using radial grid of 1073 points,  4 beta functions with: 
                l(1) =   0
                l(2) =   0
                l(3) =   1
                l(4) =   1
     Q(r) pseudized with 0 coefficients 


     PseudoPot. # 3 for H  read from file:
     /shared/home/as3359/pseudo/H.pbesol-rrkjus_psl.0.1.UPF
     MD5 check sum: 1dbb1a5c48b1283557b8117eb856a7ca
     Pseudo is Ultrasoft, Zval =  1.0
     Generated using "atomic" code by A. Dal Corso  v.5.0.2 svn rev. 9415
     Using radial grid of  929 points,  2 beta functions with: 
                l(1) =   0
                l(2) =   0
     Q(r) pseudized with 0 coefficients 


     atomic species   valence    mass     pseudopotential
        Ta            27.00   180.94788     Ta( 1.00)
        C              4.00    12.01070     C ( 1.00)
        H              1.00     1.00000     H ( 1.00)

     No symmetry found



   Cartesian axes

     site n.     atom                  positions (alat units)
         1           C   tau(   1) = (   0.0000000   0.0000000   0.0000000  )
         2           Ta  tau(   2) = (   0.5203090   0.3004005  -0.4101496  )
         3           Ta  tau(   3) = (  -0.0000000   0.6008011   0.4101496  )
         4           H   tau(   4) = (  -0.0031880  -0.0004963   0.9240391  )
         5           H   tau(   5) = (  -0.0011642   0.0030090  -0.9240391  )

     number of k points=    74  Marzari-Vanderbilt smearing, width (Ry)=  0.0010
                       cart. coord. in units 2pi/alat
        k(    1) = (   0.0000000   0.0000000   0.0000000), wk =   0.0138889
        k(    2) = (   0.0000000   0.0924691   0.0000000), wk =   0.0277778
        k(    3) = (   0.0000000   0.1849383   0.0000000), wk =   0.0277778
        k(    4) = (   0.0000000   0.2774074   0.0000000), wk =   0.0277778
        k(    5) = (   0.0000000   0.3698766   0.0000000), wk =   0.0277778
        k(    6) = (   0.0000000   0.4623457   0.0000000), wk =   0.0277778
        k(    7) = (   0.0000000  -0.5548148   0.0000000), wk =   0.0138889
        k(    8) = (   0.0800806   0.1387037   0.0000000), wk =   0.0277778
        k(    9) = (   0.0800806   0.2311728   0.0000000), wk =   0.0277778
        k(   10) = (   0.0800806   0.3236420   0.0000000), wk =   0.0277778
        k(   11) = (   0.0800806   0.4161111   0.0000000), wk =   0.0277778
        k(   12) = (   0.0800806   0.5085803   0.0000000), wk =   0.0277778
        k(   13) = (   0.1601612   0.2774074   0.0000000), wk =   0.0277778
        k(   14) = (   0.1601612   0.3698766   0.0000000), wk =   0.0277778
        k(   15) = (   0.1601612   0.4623457   0.0000000), wk =   0.0277778
        k(   16) = (   0.1601612   0.5548148   0.0000000), wk =   0.0277778
        k(   17) = (   0.2402419   0.4161111   0.0000000), wk =   0.0277778
        k(   18) = (   0.2402419   0.5085803   0.0000000), wk =   0.0277778
        k(   19) = (   0.3203225   0.5548148   0.0000000), wk =   0.0277778
        k(   20) = (  -0.0800806   0.0462346   0.0000000), wk =   0.0277778
        k(   21) = (   0.0800806   0.0462346   0.0000000), wk =   0.0277778
        k(   22) = (  -0.1601612   0.0924691   0.0000000), wk =   0.0277778
        k(   23) = (   0.1601612   0.0924691   0.0000000), wk =   0.0277778
        k(   24) = (  -0.2402419   0.1387037   0.0000000), wk =   0.0277778
        k(   25) = (   0.2402419   0.1387037   0.0000000), wk =   0.0277778
        k(   26) = (  -0.3203225   0.1849383   0.0000000), wk =   0.0277778
        k(   27) = (   0.3203225   0.1849383   0.0000000), wk =   0.0277778
        k(   28) = (  -0.4004031   0.2311728   0.0000000), wk =   0.0277778
        k(   29) = (   0.4004031   0.2311728   0.0000000), wk =   0.0277778
        k(   30) = (   0.4804837  -0.2774074   0.0000000), wk =   0.0138889
        k(   31) = (  -0.4804837  -0.2774074   0.0000000), wk =   0.0138889
        k(   32) = (  -0.0800806   0.1387037   0.0000000), wk =   0.0277778
        k(   33) = (   0.1601612  -0.0000000   0.0000000), wk =   0.0277778
        k(   34) = (  -0.0800806   0.2311728   0.0000000), wk =   0.0277778
        k(   35) = (  -0.1601612   0.1849383   0.0000000), wk =   0.0277778
        k(   36) = (   0.2402419   0.0462346   0.0000000), wk =   0.0277778
        k(   37) = (  -0.1601612  -0.1849383   0.0000000), wk =   0.0277778
        k(   38) = (   0.2402419  -0.0462346   0.0000000), wk =   0.0277778
        k(   39) = (  -0.0800806   0.3236420   0.0000000), wk =   0.0277778
        k(   40) = (  -0.2402419   0.2311728   0.0000000), wk =   0.0277778
        k(   41) = (   0.3203225   0.0924691   0.0000000), wk =   0.0277778
        k(   42) = (  -0.2402419  -0.2311728   0.0000000), wk =   0.0277778
        k(   43) = (   0.3203225  -0.0924691   0.0000000), wk =   0.0277778
        k(   44) = (  -0.0800806   0.4161111   0.0000000), wk =   0.0277778
        k(   45) = (  -0.3203225   0.2774074   0.0000000), wk =   0.0277778
        k(   46) = (   0.4004031   0.1387037   0.0000000), wk =   0.0277778
        k(   47) = (  -0.3203225  -0.2774074   0.0000000), wk =   0.0277778
        k(   48) = (   0.4004031  -0.1387037   0.0000000), wk =   0.0277778
        k(   49) = (  -0.0800806   0.5085803   0.0000000), wk =   0.0277778
        k(   50) = (  -0.4004031   0.3236420   0.0000000), wk =   0.0277778
        k(   51) = (   0.4804837   0.1849383   0.0000000), wk =   0.0277778
        k(   52) = (  -0.4004031  -0.3236420   0.0000000), wk =   0.0277778
        k(   53) = (   0.4804837  -0.1849383   0.0000000), wk =   0.0277778
        k(   54) = (  -0.1601612   0.2774074   0.0000000), wk =   0.0277778
        k(   55) = (   0.3203225  -0.0000000   0.0000000), wk =   0.0277778
        k(   56) = (  -0.1601612   0.3698766   0.0000000), wk =   0.0277778
        k(   57) = (  -0.2402419   0.3236420   0.0000000), wk =   0.0277778
        k(   58) = (   0.4004031   0.0462346   0.0000000), wk =   0.0277778
        k(   59) = (  -0.2402419  -0.3236420   0.0000000), wk =   0.0277778
        k(   60) = (   0.4004031  -0.0462346   0.0000000), wk =   0.0277778
        k(   61) = (  -0.1601612   0.4623457   0.0000000), wk =   0.0277778
        k(   62) = (  -0.3203225   0.3698766   0.0000000), wk =   0.0277778
        k(   63) = (   0.4804837   0.0924691   0.0000000), wk =   0.0277778
        k(   64) = (  -0.3203225  -0.3698766   0.0000000), wk =   0.0277778
        k(   65) = (   0.4804837  -0.0924691   0.0000000), wk =   0.0277778
        k(   66) = (  -0.4004031   0.4161111   0.0000000), wk =   0.0277778
        k(   67) = (   0.5605644   0.1387037   0.0000000), wk =   0.0277778
        k(   68) = (  -0.2402419   0.4161111   0.0000000), wk =   0.0277778
        k(   69) = (   0.4804837  -0.0000000   0.0000000), wk =   0.0277778
        k(   70) = (  -0.2402419   0.5085803   0.0000000), wk =   0.0277778
        k(   71) = (  -0.3203225   0.4623457   0.0000000), wk =   0.0277778
        k(   72) = (   0.5605644   0.0462346   0.0000000), wk =   0.0277778
        k(   73) = (  -0.3203225  -0.4623457   0.0000000), wk =   0.0277778
        k(   74) = (   0.5605644  -0.0462346   0.0000000), wk =   0.0277778

     Dense  grid:   501509 G-vectors     FFT dimensions: (  50,  50, 480)

     Smooth grid:   127135 G-vectors     FFT dimensions: (  32,  32, 300)

     Estimated max dynamical RAM per process >       2.69 GB

     Estimated total dynamical RAM >       5.38 GB

     Initial potential from superposition of free atoms

     starting charge   59.99840, renormalised to   60.00000

     negative rho (up, down):  4.496E-05 0.000E+00
     Starting wfcs are   40 randomized atomic wfcs

     total cpu time spent up to now is       22.9 secs

     Self-consistent Calculation

     iteration #  1     ecut=    70.00 Ry     beta= 0.70
     Davidson diagonalization with overlap
     ethr =  1.00E-02,  avg # of iterations =  2.0

     negative rho (up, down):  1.454E-05 0.000E+00

     total cpu time spent up to now is       40.6 secs

     total energy              =   -1375.07874734 Ry
     estimated scf accuracy    <       1.01814608 Ry

     iteration #  2     ecut=    70.00 Ry     beta= 0.70
     Davidson diagonalization with overlap
     ethr =  1.70E-03,  avg # of iterations =  6.0

     negative rho (up, down):  5.452E-05 0.000E+00

     total cpu time spent up to now is       63.0 secs

     total energy              =   -1374.82806226 Ry
     estimated scf accuracy    <       4.37907143 Ry

     iteration #  3     ecut=    70.00 Ry     beta= 0.70
     Davidson diagonalization with overlap
     ethr =  1.70E-03,  avg # of iterations =  4.0
     Minimization algorithm failed to find Fermi energy: reverting to bisection
     Possible cause: smearing is larger than the electronic band-gap.

     negative rho (up, down):  1.860E-05 0.000E+00

     total cpu time spent up to now is       83.4 secs

     total energy              =   -1375.60756247 Ry
     estimated scf accuracy    <       0.27973427 Ry

     iteration #  4     ecut=    70.00 Ry     beta= 0.70
     Davidson diagonalization with overlap
     ethr =  4.66E-04,  avg # of iterations =  2.2

     negative rho (up, down):  3.925E-05 0.000E+00

     total cpu time spent up to now is      101.2 secs

     total energy              =   -1375.64733729 Ry
     estimated scf accuracy    <       0.01583861 Ry

     iteration #  5     ecut=    70.00 Ry     beta= 0.70
     Davidson diagonalization with overlap
     ethr =  2.64E-05,  avg # of iterations =  8.9

     negative rho (up, down):  4.576E-05 0.000E+00

     total cpu time spent up to now is      124.7 secs

     total energy              =   -1375.63629858 Ry
     estimated scf accuracy    <       0.23682015 Ry

     iteration #  6     ecut=    70.00 Ry     beta= 0.70
     Davidson diagonalization with overlap
     ethr =  2.64E-05,  avg # of iterations =  9.4

     negative rho (up, down):  6.539E-05 0.000E+00

     total cpu time spent up to now is      146.5 secs

     total energy              =   -1375.65004677 Ry
     estimated scf accuracy    <       0.00939397 Ry

     iteration #  7     ecut=    70.00 Ry     beta= 0.70
     Davidson diagonalization with overlap
     ethr =  1.57E-05,  avg # of iterations =  3.0

     negative rho (up, down):  6.534E-05 0.000E+00

     total cpu time spent up to now is      163.5 secs

     total energy              =   -1375.65082966 Ry
     estimated scf accuracy    <       0.00051319 Ry

     iteration #  8     ecut=    70.00 Ry     beta= 0.70
     Davidson diagonalization with overlap
     ethr =  8.55E-07,  avg # of iterations =  6.6

     negative rho (up, down):  6.599E-05 0.000E+00

     total cpu time spent up to now is      185.1 secs

     total energy              =   -1375.65091871 Ry
     estimated scf accuracy    <       0.00004253 Ry

     iteration #  9     ecut=    70.00 Ry     beta= 0.70
     Davidson diagonalization with overlap
     ethr =  7.09E-08,  avg # of iterations =  2.3

     negative rho (up, down):  6.726E-05 0.000E+00

     total cpu time spent up to now is      202.2 secs

     total energy              =   -1375.65092440 Ry
     estimated scf accuracy    <       0.00000049 Ry

     iteration # 10     ecut=    70.00 Ry     beta= 0.70
     Davidson diagonalization with overlap
     ethr =  8.10E-10,  avg # of iterations =  5.4

     negative rho (up, down):  6.730E-05 0.000E+00

     total cpu time spent up to now is      225.1 secs

     total energy              =   -1375.65092473 Ry
     estimated scf accuracy    <       0.00000032 Ry

     iteration # 11     ecut=    70.00 Ry     beta= 0.70
     Davidson diagonalization with overlap
     ethr =  5.28E-10,  avg # of iterations =  2.0

     negative rho (up, down):  6.730E-05 0.000E+00

     total cpu time spent up to now is      243.0 secs

     total energy              =   -1375.65092474 Ry
     estimated scf accuracy    <       0.00000005 Ry

     iteration # 12     ecut=    70.00 Ry     beta= 0.70
     Davidson diagonalization with overlap
     ethr =  8.99E-11,  avg # of iterations =  2.9

     negative rho (up, down):  6.730E-05 0.000E+00

     total cpu time spent up to now is      260.7 secs

     total energy              =   -1375.65092475 Ry
     estimated scf accuracy    <          4.3E-09 Ry

     iteration # 13     ecut=    70.00 Ry     beta= 0.70
     Davidson diagonalization with overlap
     ethr =  7.11E-12,  avg # of iterations =  2.2

     negative rho (up, down):  6.731E-05 0.000E+00

     total cpu time spent up to now is      277.9 secs

     total energy              =   -1375.65092476 Ry
     estimated scf accuracy    <          9.4E-10 Ry

     iteration # 14     ecut=    70.00 Ry     beta= 0.70
     Davidson diagonalization with overlap
     ethr =  1.56E-12,  avg # of iterations =  2.0

     negative rho (up, down):  6.730E-05 0.000E+00

     total cpu time spent up to now is      296.4 secs

     total energy              =   -1375.65092475 Ry
     estimated scf accuracy    <          8.9E-11 Ry

     iteration # 15     ecut=    70.00 Ry     beta= 0.70
     Davidson diagonalization with overlap
     ethr =  1.48E-13,  avg # of iterations =  3.1

     negative rho (up, down):  6.731E-05 0.000E+00

     total cpu time spent up to now is      314.3 secs

     total energy              =   -1375.65092475 Ry
     estimated scf accuracy    <          3.1E-11 Ry

     iteration # 16     ecut=    70.00 Ry     beta= 0.70
     Davidson diagonalization with overlap
     ethr =  1.00E-13,  avg # of iterations =  2.0

     negative rho (up, down):  6.730E-05 0.000E+00

     total cpu time spent up to now is      330.7 secs

     total energy              =   -1375.65092475 Ry
     estimated scf accuracy    <          9.2E-12 Ry

     iteration # 17     ecut=    70.00 Ry     beta= 0.70
     Davidson diagonalization with overlap
     ethr =  1.00E-13,  avg # of iterations =  1.0

     negative rho (up, down):  6.730E-05 0.000E+00

     total cpu time spent up to now is      346.0 secs

     End of self-consistent calculation

          k = 0.0000 0.0000 0.0000 ( 15945 PWs)   bands (ev):

   -68.2200 -68.1713 -35.1985 -34.5958 -34.3862 -34.3862 -34.3179 -34.3179
   -19.8750 -19.8627 -19.8540 -19.8535 -19.8509 -19.8503 -19.8241 -19.8236
   -19.8230 -19.8218 -19.8212 -19.8203 -19.7603 -19.7587 -13.2416  -8.2083
    -5.0659  -4.3281  -4.3273  -4.2426  -1.2685  -0.3093  -0.3088   1.7283
     1.7295   2.7324   2.7332   3.5307

          k = 0.0000 0.0925 0.0000 ( 15937 PWs)   bands (ev):

   -68.2162 -68.1690 -35.1860 -34.6043 -34.4291 -34.4022 -34.3610 -34.3238
   -19.8736 -19.8630 -19.8528 -19.8525 -19.8513 -19.8501 -19.8241 -19.8237
   -19.8233 -19.8214 -19.8210 -19.8176 -19.7630 -19.7616 -13.1183  -7.9976
    -5.2675  -4.3466  -4.2853  -4.1921  -1.1764  -0.6210  -0.1318   1.2462
     1.5788   2.7622   2.9790   4.0309

          k = 0.0000 0.1849 0.0000 ( 15883 PWs)   bands (ev):

   -68.2058 -68.1629 -35.1529 -34.6564 -34.5177 -34.4736 -34.4433 -34.3424
   -19.8704 -19.8633 -19.8547 -19.8506 -19.8484 -19.8479 -19.8285 -19.8254
   -19.8227 -19.8216 -19.8144 -19.8104 -19.7702 -19.7691 -12.7925  -7.4392
    -5.7029  -4.3966  -4.2035  -4.0684  -1.4722  -0.7322   0.3490   0.6676
     1.5785   2.7991   3.3142   4.4790

          k = 0.0000 0.2774 0.0000 ( 15835 PWs)   bands (ev):

   -68.1912 -68.1548 -35.1144 -34.8000 -34.6217 -34.5566 -34.4959 -34.3708
   -19.8702 -19.8601 -19.8571 -19.8506 -19.8440 -19.8436 -19.8344 -19.8272
   -19.8236 -19.8200 -19.8045 -19.8005 -19.7798 -19.7783 -12.3811  -6.9352
    -5.8880  -4.3976  -4.1729  -3.9730  -2.1662  -0.1641   0.4501   1.0101
     2.1288   2.6710   3.4696   4.6841

          k = 0.0000 0.3699 0.0000 ( 15813 PWs)   bands (ev):

   -68.1758 -68.1476 -35.1022 -34.9612 -34.7291 -34.5828 -34.5461 -34.4011
   -19.8723 -19.8601 -19.8537 -19.8514 -19.8432 -19.8395 -19.8374 -19.8285
   -19.8252 -19.8175 -19.7940 -19.7906 -19.7892 -19.7860 -12.0230  -7.0717
    -5.3725  -4.4199  -4.2214  -3.8296  -2.4927   0.4993   0.7305   1.8117
     2.2394   3.1570   3.4978   4.8443

          k = 0.0000 0.4623 0.0000 ( 15860 PWs)   bands (ev):

   -68.1635 -68.1433 -35.1412 -35.0664 -34.7622 -34.6066 -34.5817 -34.4238
   -19.8743 -19.8603 -19.8533 -19.8524 -19.8432 -19.8377 -19.8361 -19.8292
   -19.8259 -19.8153 -19.7959 -19.7908 -19.7858 -19.7834 -11.8049  -7.2902
    -5.0025  -4.5416  -4.2939  -3.4431  -2.4425   0.9159   1.1573   2.0714
     2.5857   3.5659   4.2785   4.8238

          k = 0.0000-0.5548 0.0000 ( 15870 PWs)   bands (ev):

   -68.1585 -68.1423 -35.1712 -35.0986 -34.7601 -34.6190 -34.5946 -34.4323
   -19.8750 -19.8595 -19.8554 -19.8528 -19.8422 -19.8376 -19.8351 -19.8296
   -19.8257 -19.8143 -19.7983 -19.7923 -19.7827 -19.7808 -11.7359  -7.3698
    -4.9216  -4.6176  -4.3263  -3.1454  -2.4064   0.8513   1.4088   2.2431
     2.8653   3.7236   4.8097   4.8541

          k = 0.0801 0.1387 0.0000 ( 15907 PWs)   bands (ev):

   -68.2092 -68.1648 -35.1631 -34.6316 -34.4862 -34.4722 -34.4003 -34.3450
   -19.8710 -19.8638 -19.8533 -19.8516 -19.8496 -19.8486 -19.8266 -19.8251
   -19.8226 -19.8220 -19.8166 -19.8127 -19.7680 -19.7668 -12.8935  -7.6050
    -5.5767  -4.4191  -4.3242  -3.9762  -1.1434  -0.9942   0.1405   1.0965
     1.2333   2.9285   3.2015   4.4259

          k = 0.0801 0.2312 0.0000 ( 15867 PWs)   bands (ev):

   -68.1967 -68.1577 -35.1265 -34.7279 -34.5947 -34.5400 -34.4586 -34.3770
   -19.8681 -19.8634 -19.8559 -19.8515 -19.8452 -19.8449 -19.8318 -19.8265
   -19.8229 -19.8215 -19.8082 -19.8041 -19.7763 -19.7755 -12.5239  -6.9726
    -5.9501  -4.5483  -4.3392  -3.6855  -1.8568  -0.5816   0.1639   1.1554
     1.6808   2.7758   3.6170   4.6727

          k = 0.0801 0.3236 0.0000 ( 15853 PWs)   bands (ev):

   -68.1816 -68.1501 -35.0980 -34.8807 -34.7043 -34.5777 -34.5212 -34.4105
   -19.8695 -19.8594 -19.8570 -19.8519 -19.8422 -19.8409 -19.8367 -19.8279
   -19.8241 -19.8194 -19.7980 -19.7943 -19.7859 -19.7841 -12.1395  -6.7936
    -5.7237  -4.6120  -4.3691  -3.4847  -2.3590  -0.0363   0.1950   1.7664
     2.3522   2.7949   3.7519   4.8410

          k = 0.0801 0.4161 0.0000 ( 15858 PWs)   bands (ev):

   -68.1675 -68.1445 -35.1099 -35.0129 -34.7582 -34.6219 -34.5606 -34.4402
   -19.8717 -19.8598 -19.8546 -19.8509 -19.8438 -19.8389 -19.8365 -19.8288
   -19.8253 -19.8171 -19.7942 -19.7907 -19.7883 -19.7856 -11.8558  -7.0479
    -5.1275  -4.6441  -4.4085  -3.3578  -2.4340   0.3165   0.8362   1.9025
     2.7625   3.5927   3.9497   4.9092

          k = 0.0801 0.5086 0.0000 ( 15845 PWs)   bands (ev):

   -68.1585 -68.1422 -35.1492 -35.0779 -34.7575 -34.6587 -34.5792 -34.4578
   -19.8730 -19.8596 -19.8547 -19.8521 -19.8424 -19.8381 -19.8363 -19.8293
   -19.8256 -19.8154 -19.7988 -19.7937 -19.7827 -19.7809 -11.7174  -7.2074
    -4.9068  -4.6792  -4.3828  -3.1782  -2.3149   0.7364   1.0467   1.9546
     3.4516   3.6086   4.6353   4.7735

          k = 0.1602 0.2774 0.0000 ( 15858 PWs)   bands (ev):

   -68.1837 -68.1511 -35.0976 -34.8273 -34.7162 -34.5673 -34.5014 -34.4357
   -19.8651 -19.8631 -19.8564 -19.8535 -19.8421 -19.8409 -19.8359 -19.8277
   -19.8228 -19.8214 -19.7994 -19.7956 -19.7844 -19.7842 -12.1805  -6.3193
    -6.2255  -4.8016  -4.3514  -3.2459  -2.2184  -0.4326  -0.1139   1.8600
     2.4581   2.5408   4.0719   4.8198

          k = 0.1602 0.3699 0.0000 ( 15848 PWs)   bands (ev):

   -68.1698 -68.1453 -35.0877 -34.9376 -34.7826 -34.6140 -34.5564 -34.4829
   -19.8664 -19.8589 -19.8570 -19.8534 -19.8423 -19.8391 -19.8374 -19.8284
   -19.8234 -19.8201 -19.7934 -19.7923 -19.7896 -19.7869 -11.8745  -6.5367
    -5.6440  -4.8881  -4.3088  -3.0283  -2.3097  -0.6084   0.4810   1.9677
     2.9162   3.5162   4.1265   4.9349

          k = 0.1602 0.4623 0.0000 ( 15846 PWs)   bands (ev):

   -68.1585 -68.1422 -35.1022 -35.0209 -34.7846 -34.6878 -34.5774 -34.5161
   -19.8679 -19.8585 -19.8558 -19.8500 -19.8447 -19.8388 -19.8372 -19.8285
   -19.8248 -19.8183 -19.7997 -19.7969 -19.7829 -19.7810 -11.6802  -6.7653
    -5.2128  -4.8668  -4.2499  -3.0466  -2.1249  -0.3913   1.2053   1.9281
     3.2342   3.8962   4.2058   4.8005

          k = 0.1602 0.5548 0.0000 ( 15864 PWs)   bands (ev):

   -68.1537 -68.1418 -35.1140 -35.0493 -34.7553 -34.7422 -34.5806 -34.5304
   -19.8686 -19.8590 -19.8532 -19.8520 -19.8418 -19.8399 -19.8383 -19.8285
   -19.8254 -19.8174 -19.8021 -19.7985 -19.7801 -19.7789 -11.6163  -6.8492
    -5.1052  -4.8272  -4.2082  -3.0857  -1.9985  -0.1749   1.4637   2.0920
     3.2381   3.8136   4.1961   4.5578

          k = 0.2402 0.4161 0.0000 ( 15846 PWs)   bands (ev):

   -68.1585 -68.1422 -35.0783 -34.9674 -34.8403 -34.6601 -34.6062 -34.5411
   -19.8642 -19.8575 -19.8562 -19.8521 -19.8450 -19.8385 -19.8378 -19.8281
   -19.8231 -19.8211 -19.7997 -19.7989 -19.7830 -19.7810 -11.6615  -6.3340
    -5.7072  -4.8551  -4.1582  -2.9052  -1.9342  -1.0060   1.1020   1.9785
     3.3056   3.8511   4.0141   4.9864

          k = 0.2402 0.5086 0.0000 ( 15834 PWs)   bands (ev):

   -68.1504 -68.1420 -35.0567 -34.9924 -34.8655 -34.7260 -34.6074 -34.5792
   -19.8642 -19.8566 -19.8538 -19.8496 -19.8459 -19.8408 -19.8387 -19.8269
   -19.8250 -19.8206 -19.8038 -19.8025 -19.7787 -19.7778 -11.5466  -6.3540
    -5.6061  -4.7996  -4.0396  -2.9715  -1.6083  -0.9289   1.7864   2.1589
     3.0597   3.5022   3.5233   4.6975

          k = 0.3203 0.5548 0.0000 ( 15774 PWs)   bands (ev):

   -68.1447 -68.1447 -34.9758 -34.9676 -34.9662 -34.7519 -34.6091 -34.6077
   -19.8635 -19.8526 -19.8524 -19.8509 -19.8447 -19.8445 -19.8395 -19.8253
   -19.8252 -19.8225 -19.8051 -19.8050 -19.7769 -19.7769 -11.4965  -5.9608
    -5.9600  -4.7879  -3.9531  -2.9564  -1.2065  -1.2064   2.2600   2.2605
     2.8482   3.0594   3.0622   4.6932

          k =-0.0801 0.0462 0.0000 ( 15937 PWs)   bands (ev):

   -68.2162 -68.1690 -35.1860 -34.6043 -34.4292 -34.4022 -34.3609 -34.3238
   -19.8736 -19.8631 -19.8528 -19.8523 -19.8513 -19.8503 -19.8242 -19.8237
   -19.8230 -19.8216 -19.8209 -19.8177 -19.7630 -19.7616 -13.1183  -7.9975
    -5.2677  -4.3461  -4.2850  -4.1935  -1.1766  -0.6205  -0.1321   1.2470
     1.5792   2.7618   2.9795   4.0310

          k = 0.0801 0.0462 0.0000 ( 15937 PWs)   bands (ev):

   -68.2162 -68.1690 -35.1860 -34.6042 -34.4293 -34.4022 -34.3609 -34.3238
   -19.8736 -19.8631 -19.8528 -19.8522 -19.8512 -19.8506 -19.8244 -19.8235
   -19.8228 -19.8218 -19.8209 -19.8177 -19.7630 -19.7616 -13.1182  -7.9974
    -5.2678  -4.3455  -4.2846  -4.1949  -1.1767  -0.6200  -0.1323   1.2478
     1.5795   2.7614   2.9801   4.0298

          k =-0.1602 0.0925 0.0000 ( 15883 PWs)   bands (ev):

   -68.2058 -68.1629 -35.1529 -34.6562 -34.5182 -34.4732 -34.4434 -34.3424
   -19.8705 -19.8634 -19.8544 -19.8507 -19.8485 -19.8479 -19.8282 -19.8256
   -19.8225 -19.8217 -19.8144 -19.8104 -19.7702 -19.7691 -12.7924  -7.4389
    -5.7031  -4.3966  -4.2032  -4.0710  -1.4729  -0.7311   0.3488   0.6710
     1.5786   2.8000   3.3149   4.4774

          k = 0.1602 0.0925 0.0000 ( 15883 PWs)   bands (ev):

   -68.2058 -68.1629 -35.1529 -34.6559 -34.5188 -34.4729 -34.4434 -34.3424
   -19.8706 -19.8634 -19.8542 -19.8508 -19.8484 -19.8480 -19.8280 -19.8259
   -19.8225 -19.8218 -19.8144 -19.8105 -19.7702 -19.7691 -12.7923  -7.4386
    -5.7033  -4.3965  -4.2028  -4.0736  -1.4736  -0.7299   0.3487   0.6745
     1.5788   2.8008   3.3157   4.4758

          k =-0.2402 0.1387 0.0000 ( 15835 PWs)   bands (ev):

   -68.1912 -68.1548 -35.1144 -34.7998 -34.6217 -34.5566 -34.4959 -34.3709
   -19.8704 -19.8600 -19.8570 -19.8508 -19.8442 -19.8434 -19.8341 -19.8274
   -19.8236 -19.8200 -19.8045 -19.8005 -19.7799 -19.7783 -12.3810  -6.9342
    -5.8885  -4.3982  -4.1725  -3.9773  -2.1677  -0.1616   0.4561   1.0100
     2.1289   2.6739   3.4704   4.6799

          k = 0.2402 0.1387 0.0000 ( 15835 PWs)   bands (ev):

   -68.1912 -68.1548 -35.1144 -34.7997 -34.6218 -34.5567 -34.4959 -34.3709
   -19.8705 -19.8598 -19.8568 -19.8509 -19.8442 -19.8432 -19.8338 -19.8277
   -19.8237 -19.8200 -19.8045 -19.8006 -19.7799 -19.7783 -12.3808  -6.9332
    -5.8890  -4.3987  -4.1721  -3.9816  -2.1692  -0.1589   0.4621   1.0100
     2.1289   2.6768   3.4712   4.6757

          k =-0.3203 0.1849 0.0000 ( 15813 PWs)   bands (ev):

   -68.1758 -68.1476 -35.1021 -34.9613 -34.7287 -34.5831 -34.5461 -34.4011
   -19.8726 -19.8598 -19.8536 -19.8516 -19.8432 -19.8393 -19.8372 -19.8286
   -19.8252 -19.8176 -19.7940 -19.7906 -19.7893 -19.7860 -12.0229  -7.0705
    -5.3724  -4.4205  -4.2211  -3.8358  -2.4955   0.5073   0.7370   1.8118
     2.2416   3.1570   3.4984   4.8407

          k = 0.3203 0.1849 0.0000 ( 15813 PWs)   bands (ev):

   -68.1758 -68.1476 -35.1021 -34.9615 -34.7283 -34.5833 -34.5461 -34.4011
   -19.8728 -19.8595 -19.8535 -19.8517 -19.8433 -19.8391 -19.8371 -19.8288
   -19.8251 -19.8176 -19.7940 -19.7907 -19.7893 -19.7860 -12.0228  -7.0692
    -5.3724  -4.4211  -4.2207  -3.8421  -2.4984   0.5159   0.7429   1.8120
     2.2437   3.1570   3.4991   4.8372

          k =-0.4004 0.2312 0.0000 ( 15860 PWs)   bands (ev):

   -68.1635 -68.1433 -35.1408 -35.0670 -34.7615 -34.6071 -34.5818 -34.4239
   -19.8746 -19.8600 -19.8530 -19.8525 -19.8434 -19.8377 -19.8360 -19.8293
   -19.8257 -19.8153 -19.7960 -19.7908 -19.7858 -19.7835 -11.8048  -7.2888
    -5.0022  -4.5423  -4.2936  -3.4510  -2.4459   0.9263   1.1695   2.0704
     2.5862   3.5663   4.2785   4.8236

          k = 0.4004 0.2312 0.0000 ( 15860 PWs)   bands (ev):

   -68.1635 -68.1433 -35.1404 -35.0677 -34.7609 -34.6075 -34.5818 -34.4239
   -19.8748 -19.8597 -19.8528 -19.8526 -19.8435 -19.8375 -19.8361 -19.8294
   -19.8256 -19.8154 -19.7960 -19.7907 -19.7858 -19.7835 -11.8047  -7.2875
    -5.0020  -4.5431  -4.2933  -3.4590  -2.4493   0.9383   1.1800   2.0694
     2.5867   3.5667   4.2785   4.8233

          k = 0.4805-0.2774 0.0000 ( 15870 PWs)   bands (ev):

   -68.1585 -68.1423 -35.1707 -35.0994 -34.7593 -34.6195 -34.5947 -34.4323
   -19.8753 -19.8592 -19.8551 -19.8529 -19.8424 -19.8375 -19.8350 -19.8298
   -19.8256 -19.8144 -19.7984 -19.7923 -19.7827 -19.7809 -11.7358  -7.3684
    -4.9213  -4.6185  -4.3260  -3.1548  -2.4090   0.8610   1.4243   2.2424
     2.8660   3.7238   4.8046   4.8545

          k =-0.4805-0.2774 0.0000 ( 15870 PWs)   bands (ev):

   -68.1585 -68.1423 -35.1702 -35.1002 -34.7586 -34.6200 -34.5946 -34.4323
   -19.8756 -19.8589 -19.8548 -19.8530 -19.8426 -19.8374 -19.8351 -19.8298
   -19.8254 -19.8145 -19.7985 -19.7923 -19.7827 -19.7809 -11.7358  -7.3670
    -4.9211  -4.6195  -4.3256  -3.1641  -2.4118   0.8717   1.4388   2.2418
     2.8668   3.7240   4.8000   4.8543

          k =-0.0801 0.1387 0.0000 ( 15907 PWs)   bands (ev):

   -68.2092 -68.1648 -35.1631 -34.6318 -34.4860 -34.4721 -34.4004 -34.3450
   -19.8710 -19.8637 -19.8535 -19.8515 -19.8498 -19.8483 -19.8268 -19.8248
   -19.8229 -19.8219 -19.8166 -19.8126 -19.7680 -19.7668 -12.8935  -7.6051
    -5.5765  -4.4194  -4.3236  -3.9752  -1.1436  -0.9941   0.1401   1.0948
     1.2332   2.9274   3.2010   4.4270

          k = 0.1602-0.0000 0.0000 ( 15907 PWs)   bands (ev):

   -68.2092 -68.1648 -35.1631 -34.6315 -34.4862 -34.4723 -34.4002 -34.3450
   -19.8710 -19.8638 -19.8530 -19.8517 -19.8493 -19.8489 -19.8263 -19.8253
   -19.8224 -19.8223 -19.8165 -19.8127 -19.7680 -19.7668 -12.8934  -7.6048
    -5.5769  -4.4187  -4.3249  -3.9772  -1.1431  -0.9944   0.1410   1.0983
     1.2333   2.9297   3.2020   4.4248

          k =-0.0801 0.2312 0.0000 ( 15867 PWs)   bands (ev):

   -68.1967 -68.1577 -35.1265 -34.7279 -34.5947 -34.5399 -34.4587 -34.3769
   -19.8681 -19.8633 -19.8559 -19.8515 -19.8454 -19.8448 -19.8319 -19.8264
   -19.8229 -19.8215 -19.8082 -19.8041 -19.7763 -19.7755 -12.5240  -6.9727
    -5.9501  -4.5478  -4.3382  -3.6856  -1.8573  -0.5810   0.1638   1.1537
     1.6801   2.7746   3.6150   4.6750

          k =-0.1602 0.1849 0.0000 ( 15867 PWs)   bands (ev):

   -68.1967 -68.1577 -35.1265 -34.7278 -34.5950 -34.5397 -34.4588 -34.3769
   -19.8682 -19.8632 -19.8558 -19.8517 -19.8454 -19.8448 -19.8318 -19.8265
   -19.8228 -19.8215 -19.8082 -19.8041 -19.7763 -19.7754 -12.5239  -6.9722
    -5.9504  -4.5478  -4.3387  -3.6871  -1.8581  -0.5796   0.1658   1.1548
     1.6795   2.7756   3.6153   4.6734

          k = 0.2402 0.0462 0.0000 ( 15867 PWs)   bands (ev):

   -68.1967 -68.1577 -35.1265 -34.7275 -34.5953 -34.5397 -34.4586 -34.3771
   -19.8684 -19.8633 -19.8554 -19.8518 -19.8453 -19.8447 -19.8313 -19.8269
   -19.8231 -19.8214 -19.8082 -19.8042 -19.7763 -19.7754 -12.5237  -6.9716
    -5.9506  -4.5488  -4.3411  -3.6881  -1.8582  -0.5796   0.1679   1.1593
     1.6802   2.7791   3.6194   4.6673

          k =-0.1602-0.1849 0.0000 ( 15867 PWs)   bands (ev):

   -68.1967 -68.1577 -35.1265 -34.7276 -34.5953 -34.5396 -34.4587 -34.3770
   -19.8684 -19.8632 -19.8555 -19.8518 -19.8452 -19.8449 -19.8315 -19.8268
   -19.8229 -19.8215 -19.8082 -19.8041 -19.7763 -19.7754 -12.5238  -6.9717
    -5.9507  -4.5483  -4.3402  -3.6883  -1.8586  -0.5789   0.1679   1.1576
     1.6795   2.7778   3.6175   4.6696

          k = 0.2402-0.0462 0.0000 ( 15867 PWs)   bands (ev):

   -68.1967 -68.1577 -35.1265 -34.7277 -34.5950 -34.5399 -34.4585 -34.3771
   -19.8682 -19.8634 -19.8556 -19.8516 -19.8453 -19.8448 -19.8315 -19.8268
   -19.8230 -19.8214 -19.8082 -19.8042 -19.7763 -19.7754 -12.5238  -6.9721
    -5.9504  -4.5488  -4.3406  -3.6868  -1.8573  -0.5810   0.1659   1.1582
     1.6809   2.7781   3.6192   4.6689

          k =-0.0801 0.3236 0.0000 ( 15853 PWs)   bands (ev):

   -68.1816 -68.1501 -35.0980 -34.8807 -34.7041 -34.5780 -34.5212 -34.4104
   -19.8695 -19.8594 -19.8569 -19.8520 -19.8421 -19.8411 -19.8369 -19.8278
   -19.8241 -19.8195 -19.7980 -19.7942 -19.7859 -19.7841 -12.1395  -6.7934
    -5.7239  -4.6111  -4.3679  -3.4865  -2.3594  -0.0337   0.1941   1.7648
     2.3518   2.7936   3.7488   4.8438

          k =-0.2402 0.2312 0.0000 ( 15853 PWs)   bands (ev):

   -68.1816 -68.1501 -35.0980 -34.8807 -34.7039 -34.5780 -34.5213 -34.4104
   -19.8697 -19.8591 -19.8567 -19.8522 -19.8422 -19.8409 -19.8368 -19.8279
   -19.8240 -19.8195 -19.7980 -19.7943 -19.7860 -19.7841 -12.1394  -6.7922
    -5.7244  -4.6113  -4.3683  -3.4905  -2.3615  -0.0275   0.1967   1.7659
     2.3537   2.7932   3.7484   4.8409

          k = 0.3203 0.0925 0.0000 ( 15853 PWs)   bands (ev):

   -68.1816 -68.1501 -35.0981 -34.8807 -34.7042 -34.5775 -34.5214 -34.4106
   -19.8699 -19.8589 -19.8568 -19.8522 -19.8425 -19.8404 -19.8363 -19.8283
   -19.8242 -19.8195 -19.7980 -19.7944 -19.7860 -19.7841 -12.1392  -6.7914
    -5.7244  -4.6134  -4.3713  -3.4909  -2.3626  -0.0266   0.2008   1.7703
     2.3565   2.7955   3.7543   4.8324

          k =-0.2402-0.2312 0.0000 ( 15853 PWs)   bands (ev):

   -68.1816 -68.1501 -35.0981 -34.8807 -34.7040 -34.5778 -34.5214 -34.4104
   -19.8699 -19.8588 -19.8567 -19.8523 -19.8424 -19.8406 -19.8365 -19.8282
   -19.8241 -19.8195 -19.7980 -19.7943 -19.7860 -19.7841 -12.1393  -6.7912
    -5.7247  -4.6125  -4.3700  -3.4927  -2.3631  -0.0238   0.1999   1.7687
     2.3561   2.7941   3.7511   4.8351

          k = 0.3203-0.0925 0.0000 ( 15853 PWs)   bands (ev):

   -68.1816 -68.1501 -35.0980 -34.8807 -34.7043 -34.5775 -34.5213 -34.4106
   -19.8697 -19.8591 -19.8570 -19.8520 -19.8424 -19.8406 -19.8364 -19.8282
   -19.8242 -19.8194 -19.7980 -19.7943 -19.7859 -19.7841 -12.1393  -6.7926
    -5.7239  -4.6131  -4.3709  -3.4869  -2.3605  -0.0329   0.1984   1.7691
     2.3547   2.7959   3.7546   4.8354

          k =-0.0801 0.4161 0.0000 ( 15858 PWs)   bands (ev):

   -68.1675 -68.1445 -35.1099 -35.0129 -34.7579 -34.6223 -34.5605 -34.4400
   -19.8716 -19.8598 -19.8545 -19.8510 -19.8438 -19.8388 -19.8369 -19.8287
   -19.8252 -19.8171 -19.7942 -19.7907 -19.7883 -19.7856 -11.8558  -7.0479
    -5.1277  -4.6430  -4.4073  -3.3608  -2.4340   0.3186   0.8362   1.9039
     2.7584   3.5891   3.9502   4.9131

          k =-0.3203 0.2774 0.0000 ( 15858 PWs)   bands (ev):

   -68.1675 -68.1445 -35.1097 -35.0134 -34.7573 -34.6226 -34.5607 -34.4400
   -19.8719 -19.8595 -19.8544 -19.8510 -19.8438 -19.8386 -19.8370 -19.8288
   -19.8251 -19.8172 -19.7943 -19.7907 -19.7883 -19.7857 -11.8557  -7.0467
    -5.1276  -4.6437  -4.4066  -3.3681  -2.4370   0.3270   0.8436   1.9058
     2.7587   3.5872   3.9498   4.9144

          k = 0.4004 0.1387 0.0000 ( 15858 PWs)   bands (ev):

   -68.1675 -68.1445 -35.1095 -35.0137 -34.7574 -34.6219 -34.5610 -34.4402
   -19.8722 -19.8592 -19.8544 -19.8509 -19.8439 -19.8387 -19.8364 -19.8291
   -19.8251 -19.8172 -19.7943 -19.7906 -19.7883 -19.7857 -11.8556  -7.0456
    -5.1270  -4.6465  -4.4086  -3.3695  -2.4400   0.3314   0.8509   1.9049
     2.7673   3.5927   3.9484   4.9079

          k =-0.3203-0.2774 0.0000 ( 15858 PWs)   bands (ev):

   -68.1675 -68.1445 -35.1095 -35.0137 -34.7571 -34.6224 -34.5609 -34.4401
   -19.8722 -19.8592 -19.8543 -19.8510 -19.8439 -19.8385 -19.8368 -19.8290
   -19.8251 -19.8172 -19.7943 -19.7907 -19.7883 -19.7857 -11.8556  -7.0455
    -5.1272  -4.6455  -4.4072  -3.3724  -2.4401   0.3335   0.8509   1.9063
     2.7631   3.5890   3.9489   4.9117

          k = 0.4004-0.1387 0.0000 ( 15858 PWs)   bands (ev):

   -68.1675 -68.1445 -35.1097 -35.0133 -34.7579 -34.6216 -34.5609 -34.4403
   -19.8720 -19.8595 -19.8545 -19.8509 -19.8438 -19.8389 -19.8363 -19.8290
   -19.8252 -19.8172 -19.7943 -19.7907 -19.7883 -19.7857 -11.8557  -7.0468
    -5.1271  -4.6459  -4.4092  -3.3622  -2.4369   0.3227   0.8437   1.9030
     2.7670   3.5945   3.9488   4.9066

          k =-0.0801 0.5086 0.0000 ( 15845 PWs)   bands (ev):

   -68.1585 -68.1422 -35.1492 -35.0780 -34.7573 -34.6589 -34.5791 -34.4578
   -19.8730 -19.8595 -19.8548 -19.8521 -19.8424 -19.8379 -19.8365 -19.8293
   -19.8256 -19.8154 -19.7988 -19.7937 -19.7827 -19.7809 -11.7174  -7.2074
    -4.9071  -4.6786  -4.3821  -3.1799  -2.3145   0.7372   1.0471   1.9546
     3.4497   3.6058   4.6387   4.7764

          k =-0.4004 0.3236 0.0000 ( 15845 PWs)   bands (ev):

   -68.1585 -68.1422 -35.1486 -35.0788 -34.7565 -34.6593 -34.5794 -34.4578
   -19.8733 -19.8592 -19.8546 -19.8520 -19.8426 -19.8377 -19.8366 -19.8294
   -19.8254 -19.8155 -19.7989 -19.7937 -19.7827 -19.7809 -11.7174  -7.2062
    -4.9069  -4.6798  -4.3804  -3.1892  -2.3176   0.7459   1.0585   1.9567
     3.4492   3.6041   4.6376   4.7825

          k = 0.4805 0.1849 0.0000 ( 15845 PWs)   bands (ev):

   -68.1585 -68.1422 -35.1482 -35.0795 -34.7561 -34.6590 -34.5797 -34.4578
   -19.8736 -19.8590 -19.8544 -19.8520 -19.8427 -19.8379 -19.8362 -19.8295
   -19.8253 -19.8156 -19.7990 -19.7937 -19.7827 -19.7810 -11.7173  -7.2049
    -4.9061  -4.6823  -4.3800  -3.1950  -2.3215   0.7541   1.0682   1.9587
     3.4522   3.6083   4.6294   4.7832

          k =-0.4004-0.3236 0.0000 ( 15845 PWs)   bands (ev):

   -68.1585 -68.1422 -35.1482 -35.0795 -34.7559 -34.6593 -34.5797 -34.4578
   -19.8736 -19.8590 -19.8544 -19.8520 -19.8427 -19.8377 -19.8365 -19.8295
   -19.8253 -19.8156 -19.7990 -19.7937 -19.7827 -19.7810 -11.7173  -7.2049
    -4.9064  -4.6817  -4.3793  -3.1967  -2.3211   0.7548   1.0686   1.9587
     3.4504   3.6055   4.6332   4.7857

          k = 0.4805-0.1849 0.0000 ( 15845 PWs)   bands (ev):

   -68.1585 -68.1422 -35.1487 -35.0787 -34.7569 -34.6587 -34.5795 -34.4579
   -19.8734 -19.8593 -19.8545 -19.8521 -19.8426 -19.8381 -19.8361 -19.8294
   -19.8255 -19.8155 -19.7989 -19.7937 -19.7827 -19.7809 -11.7174  -7.2062
    -4.9063  -4.6810  -4.3818  -3.1858  -2.3183   0.7444   1.0577   1.9566
     3.4529   3.6099   4.6304   4.7771

          k =-0.1602 0.2774 0.0000 ( 15858 PWs)   bands (ev):

   -68.1837 -68.1511 -35.0976 -34.8274 -34.7159 -34.5675 -34.5017 -34.4354
   -19.8649 -19.8631 -19.8566 -19.8535 -19.8419 -19.8413 -19.8362 -19.8274
   -19.8226 -19.8215 -19.7994 -19.7956 -19.7844 -19.7842 -12.1807  -6.3195
    -6.2256  -4.8010  -4.3495  -3.2459  -2.2186  -0.4319  -0.1158   1.8580
     2.4584   2.5371   4.0674   4.8255

          k = 0.3203-0.0000 0.0000 ( 15858 PWs)   bands (ev):

   -68.1837 -68.1511 -35.0976 -34.8272 -34.7164 -34.5671 -34.5012 -34.4360
   -19.8652 -19.8632 -19.8562 -19.8536 -19.8423 -19.8406 -19.8356 -19.8279
   -19.8230 -19.8212 -19.7994 -19.7957 -19.7844 -19.7842 -12.1804  -6.3191
    -6.2254  -4.8022  -4.3534  -3.2460  -2.2183  -0.4335  -0.1120   1.8620
     2.4580   2.5445   4.0765   4.8142

          k =-0.1602 0.3699 0.0000 ( 15848 PWs)   bands (ev):

   -68.1698 -68.1453 -35.0877 -34.9377 -34.7822 -34.6144 -34.5568 -34.4824
   -19.8663 -19.8588 -19.8569 -19.8536 -19.8423 -19.8391 -19.8378 -19.8282
   -19.8233 -19.8202 -19.7934 -19.7923 -19.7896 -19.7868 -11.8746  -6.5366
    -5.6438  -4.8882  -4.3067  -3.0299  -2.3105  -0.6070   0.4804   1.9689
     2.9105   3.5156   4.1214   4.9413

          k =-0.2402 0.3236 0.0000 ( 15848 PWs)   bands (ev):

   -68.1698 -68.1453 -35.0876 -34.9378 -34.7820 -34.6143 -34.5572 -34.4823
   -19.8665 -19.8586 -19.8566 -19.8539 -19.8423 -19.8389 -19.8379 -19.8282
   -19.8232 -19.8202 -19.7935 -19.7923 -19.7896 -19.7868 -11.8745  -6.5358
    -5.6441  -4.8885  -4.3064  -3.0334  -2.3122  -0.6032   0.4830   1.9704
     2.9110   3.5155   4.1193   4.9423

          k = 0.4004 0.0462 0.0000 ( 15848 PWs)   bands (ev):

   -68.1698 -68.1453 -35.0876 -34.9377 -34.7827 -34.6132 -34.5568 -34.4832
   -19.8669 -19.8586 -19.8566 -19.8537 -19.8423 -19.8387 -19.8374 -19.8287
   -19.8233 -19.8203 -19.7935 -19.7922 -19.7896 -19.7869 -11.8744  -6.5352
    -5.6448  -4.8885  -4.3105  -3.0336  -2.3123  -0.6024   0.4868   1.9693
     2.9229   3.5166   4.1272   4.9307

          k =-0.2402-0.3236 0.0000 ( 15848 PWs)   bands (ev):

   -68.1698 -68.1453 -35.0876 -34.9379 -34.7822 -34.6137 -34.5572 -34.4827
   -19.8668 -19.8585 -19.8565 -19.8539 -19.8423 -19.8387 -19.8378 -19.8285
   -19.8232 -19.8203 -19.7935 -19.7922 -19.7896 -19.7869 -11.8744  -6.5351
    -5.6446  -4.8886  -4.3083  -3.0352  -2.3131  -0.6009   0.4861   1.9706
     2.9171   3.5160   4.1222   4.9369

          k = 0.4004-0.0462 0.0000 ( 15848 PWs)   bands (ev):

   -68.1698 -68.1453 -35.0876 -34.9376 -34.7829 -34.6133 -34.5564 -34.4834
   -19.8667 -19.8588 -19.8568 -19.8534 -19.8423 -19.8389 -19.8372 -19.8287
   -19.8233 -19.8202 -19.7934 -19.7923 -19.7896 -19.7869 -11.8744  -6.5361
    -5.6445  -4.8882  -4.3108  -3.0302  -2.3106  -0.6062   0.4842   1.9678
     2.9224   3.5167   4.1294   4.9297

          k =-0.1602 0.4623 0.0000 ( 15846 PWs)   bands (ev):

   -68.1585 -68.1422 -35.1022 -35.0211 -34.7839 -34.6884 -34.5778 -34.5157
   -19.8679 -19.8585 -19.8558 -19.8500 -19.8448 -19.8387 -19.8376 -19.8283
   -19.8248 -19.8183 -19.7997 -19.7969 -19.7829 -19.7809 -11.6803  -6.7653
    -5.2117  -4.8677  -4.2483  -3.0488  -2.1253  -0.3900   1.2056   1.9286
     3.2302   3.8904   4.2091   4.8064

          k =-0.3203 0.3699 0.0000 ( 15846 PWs)   bands (ev):

   -68.1585 -68.1422 -35.1018 -35.0216 -34.7834 -34.6883 -34.5784 -34.5155
   -19.8682 -19.8582 -19.8557 -19.8500 -19.8448 -19.8385 -19.8377 -19.8284
   -19.8247 -19.8184 -19.7998 -19.7968 -19.7829 -19.7810 -11.6802  -6.7645
    -5.2114  -4.8681  -4.2475  -3.0556  -2.1281  -0.3845   1.2144   1.9296
     3.2285   3.8874   4.2081   4.8147

          k = 0.4805 0.0925 0.0000 ( 15846 PWs)   bands (ev):

   -68.1585 -68.1422 -35.1016 -35.0220 -34.7843 -34.6869 -34.5781 -34.5162
   -19.8686 -19.8581 -19.8556 -19.8499 -19.8447 -19.8387 -19.8372 -19.8287
   -19.8246 -19.8185 -19.7998 -19.7968 -19.7829 -19.7810 -11.6802  -6.7637
    -5.2133  -4.8664  -4.2498  -3.0580  -2.1303  -0.3815   1.2226   1.9297
     3.2351   3.8963   4.1999   4.8112

          k =-0.3203-0.3699 0.0000 ( 15846 PWs)   bands (ev):

   -68.1585 -68.1422 -35.1015 -35.0221 -34.7836 -34.6875 -34.5785 -34.5157
   -19.8685 -19.8580 -19.8556 -19.8499 -19.8448 -19.8386 -19.8375 -19.8286
   -19.8246 -19.8185 -19.7998 -19.7967 -19.7829 -19.7810 -11.6802  -6.7637
    -5.2122  -4.8674  -4.2482  -3.0602  -2.1307  -0.3802   1.2229   1.9302
     3.2309   3.8906   4.2035   4.8170

          k = 0.4805-0.0925 0.0000 ( 15846 PWs)   bands (ev):

   -68.1585 -68.1422 -35.1019 -35.0214 -34.7848 -34.6870 -34.5776 -34.5164
   -19.8683 -19.8583 -19.8557 -19.8500 -19.8447 -19.8389 -19.8371 -19.8287
   -19.8247 -19.8184 -19.7997 -19.7968 -19.7829 -19.7810 -11.6802  -6.7646
    -5.2136  -4.8661  -4.2507  -3.0512  -2.1274  -0.3871   1.2138   1.9286
     3.2368   3.8990   4.2012   4.8030

          k =-0.4004 0.4161 0.0000 ( 15864 PWs)   bands (ev):

   -68.1537 -68.1418 -35.1134 -35.0501 -34.7555 -34.7413 -34.5811 -34.5304
   -19.8689 -19.8588 -19.8530 -19.8519 -19.8419 -19.8399 -19.8382 -19.8286
   -19.8252 -19.8175 -19.8021 -19.7984 -19.7802 -19.7789 -11.6162  -6.8484
    -5.1056  -4.8266  -4.2074  -3.0930  -2.0017  -0.1696   1.4751   2.0955
     3.2344   3.8123   4.1922   4.5645

          k = 0.5606 0.1387 0.0000 ( 15864 PWs)   bands (ev):

   -68.1537 -68.1418 -35.1129 -35.0509 -34.7556 -34.7406 -34.5815 -34.5303
   -19.8692 -19.8586 -19.8528 -19.8519 -19.8421 -19.8398 -19.8381 -19.8287
   -19.8251 -19.8176 -19.8022 -19.7984 -19.7802 -19.7789 -11.6162  -6.8475
    -5.1060  -4.8260  -4.2066  -3.1002  -2.0051  -0.1641   1.4865   2.0988
     3.2303   3.8112   4.1887   4.5708

          k =-0.2402 0.4161 0.0000 ( 15846 PWs)   bands (ev):

   -68.1585 -68.1422 -35.0783 -34.9676 -34.8396 -34.6607 -34.6068 -34.5404
   -19.8640 -19.8575 -19.8563 -19.8522 -19.8451 -19.8384 -19.8381 -19.8279
   -19.8232 -19.8210 -19.7997 -19.7989 -19.7830 -19.7810 -11.6615  -6.3342
    -5.7065  -4.8560  -4.1564  -2.9042  -1.9351  -1.0059   1.0992   1.9787
     3.3015   3.8471   4.0168   4.9887

          k = 0.4805-0.0000 0.0000 ( 15846 PWs)   bands (ev):

   -68.1585 -68.1422 -35.0782 -34.9673 -34.8410 -34.6594 -34.6056 -34.5420
   -19.8644 -19.8575 -19.8562 -19.8520 -19.8448 -19.8385 -19.8377 -19.8283
   -19.8231 -19.8212 -19.7997 -19.7989 -19.7830 -19.7810 -11.6614  -6.3339
    -5.7078  -4.8541  -4.1600  -2.9062  -1.9332  -1.0062   1.1049   1.9782
     3.3104   3.8539   4.0121   4.9844

          k =-0.2402 0.5086 0.0000 ( 15834 PWs)   bands (ev):

   -68.1504 -68.1420 -35.0567 -34.9926 -34.8650 -34.7263 -34.6082 -34.5784
   -19.8642 -19.8566 -19.8537 -19.8497 -19.8461 -19.8407 -19.8388 -19.8269
   -19.8250 -19.8206 -19.8039 -19.8025 -19.7787 -19.7777 -11.5466  -6.3539
    -5.6057  -4.8002  -4.0389  -2.9714  -1.6092  -0.9281   1.7854   2.1585
     3.0577   3.4999   3.5266   4.6993

          k =-0.3203 0.4623 0.0000 ( 15834 PWs)   bands (ev):

   -68.1504 -68.1420 -35.0563 -34.9933 -34.8649 -34.7259 -34.6086 -34.5783
   -19.8644 -19.8567 -19.8534 -19.8495 -19.8462 -19.8408 -19.8388 -19.8269
   -19.8249 -19.8206 -19.8039 -19.8024 -19.7787 -19.7778 -11.5466  -6.3538
    -5.6054  -4.8000  -4.0386  -2.9749  -1.6111  -0.9253   1.7931   2.1581
     3.0561   3.4987   3.5245   4.7024

          k = 0.5606 0.0462 0.0000 ( 15834 PWs)   bands (ev):

   -68.1504 -68.1420 -35.0560 -34.9934 -34.8658 -34.7249 -34.6073 -34.5798
   -19.8646 -19.8567 -19.8534 -19.8492 -19.8459 -19.8409 -19.8386 -19.8271
   -19.8249 -19.8207 -19.8040 -19.8024 -19.7787 -19.7778 -11.5466  -6.3538
    -5.6058  -4.7986  -4.0398  -2.9786  -1.6115  -0.9240   1.8032   2.1584
     3.0586   3.4969   3.5210   4.7020

          k =-0.3203-0.4623 0.0000 ( 15834 PWs)   bands (ev):

   -68.1504 -68.1420 -35.0560 -34.9936 -34.8652 -34.7253 -34.6082 -34.5790
   -19.8646 -19.8567 -19.8532 -19.8493 -19.8461 -19.8409 -19.8386 -19.8271
   -19.8248 -19.8207 -19.8040 -19.8024 -19.7787 -19.7778 -11.5466  -6.3537
    -5.6055  -4.7992  -4.0391  -2.9785  -1.6123  -0.9232   1.8020   2.1581
     3.0562   3.5025   3.5169   4.7037

          k = 0.5606-0.0462 0.0000 ( 15834 PWs)   bands (ev):

   -68.1504 -68.1420 -35.0564 -34.9928 -34.8659 -34.7253 -34.6069 -34.5800
   -19.8645 -19.8567 -19.8537 -19.8493 -19.8458 -19.8409 -19.8386 -19.8271
   -19.8249 -19.8206 -19.8039 -19.8024 -19.7787 -19.7778 -11.5466  -6.3539
    -5.6061  -4.7988  -4.0401  -2.9751  -1.6094  -0.9269   1.7953   2.1589
     3.0606   3.4966   3.5241   4.6990

     the Fermi energy is     0.2024 ev

!    total energy              =   -1375.65092475 Ry
     estimated scf accuracy    <          5.8E-13 Ry
     smearing contrib. (-TS)   =      -0.00001592 Ry
     internal energy E=F+TS    =   -1375.65090883 Ry

     The total energy is F=E-TS. E is the sum of the following terms:
     one-electron contribution =  -11301.43040456 Ry
     hartree contribution      =    5679.54965018 Ry
     xc contribution           =    -140.13516740 Ry
     ewald contribution        =    4386.36501295 Ry

     convergence has been achieved in  17 iterations

     negative rho (up, down):  6.730E-05 0.000E+00

     Forces acting on atoms (cartesian axes, Ry/au):

     atom    1 type  2   force =     0.00017404   -0.00008660    0.00000029
     atom    2 type  1   force =     0.00000021    0.00047631   -0.08243706
     atom    3 type  1   force =    -0.00041417   -0.00024693    0.08243625
     atom    4 type  3   force =     0.00012216   -0.00006928   -0.05204711
     atom    5 type  3   force =     0.00011777   -0.00007351    0.05204763

     Total force =     0.137877     Total SCF correction =     0.000003


     Computing stress (Cartesian axis) and pressure


     negative rho (up, down):  6.730E-05 0.000E+00
          total   stress  (Ry/bohr**3)                   (kbar)     P=      -17.18
  -0.00012555  -0.00000100  -0.00000057          -18.47       -0.15       -0.08
  -0.00000100  -0.00012202  -0.00000101           -0.15      -17.95       -0.15
  -0.00000057  -0.00000101  -0.00010289           -0.08       -0.15      -15.14


     BFGS Geometry Optimization
     Energy error            =      0.0E+00 Ry
     Gradient error          =      8.2E-02 Ry/Bohr
     Cell gradient error     =      1.8E+01 kbar

     number of scf cycles    =   1
     number of bfgs steps    =   0

     enthalpy           new  =   -1375.6509247546 Ry

     new trust radius        =       0.0824384381 bohr
     new conv_thr            =            1.0E-12 Ry

     new unit-cell volume =   1593.30908 a.u.^3 (   236.10405 Ang^3 )
     density =      2.64378 g/cm^3

CELL_PARAMETERS (alat=  5.55000000)
   1.037351601  -0.000026106   0.000000000
  -0.518698408   0.898465509   0.000000000
   0.000000000   0.000000000  10.000000000

ATOMIC_POSITIONS (crystal)
C             0.0000000000        0.0000000000        0.0000000000    0   0   0
Ta            0.6667143184        0.3334285640       -0.0425003117
Ta            0.3332369360        0.6666172984        0.0425002970
H            -0.0033246790       -0.0005645876        0.0914661249
H             0.0005637789        0.0033242072       -0.0914661155



     Writing output data file /scratch/as3359/Ta2CH2-VCrelax/Ta.save/
     NEW-OLD atomic charge density approx. for the potential

     negative rho (up, down):  4.726E-05 0.000E+00
     extrapolated charge   59.62692, renormalised to   60.00000

     total cpu time spent up to now is      401.0 secs

     Self-consistent Calculation

     iteration #  1     ecut=    70.00 Ry     beta= 0.70
     Davidson diagonalization with overlap
     c_bands:  1 eigenvalues not converged
     c_bands:  1 eigenvalues not converged
     c_bands:  1 eigenvalues not converged
     c_bands:  2 eigenvalues not converged
     c_bands:  1 eigenvalues not converged
     c_bands:  2 eigenvalues not converged
     c_bands:  1 eigenvalues not converged
     c_bands:  1 eigenvalues not converged
     c_bands:  1 eigenvalues not converged
     c_bands:  1 eigenvalues not converged
     c_bands:  1 eigenvalues not converged
     c_bands:  1 eigenvalues not converged
     c_bands:  1 eigenvalues not converged
     c_bands:  1 eigenvalues not converged
     c_bands:  1 eigenvalues not converged
     c_bands:  1 eigenvalues not converged
     c_bands:  1 eigenvalues not converged
     c_bands:  1 eigenvalues not converged
     c_bands:  1 eigenvalues not converged
     c_bands:  1 eigenvalues not converged
     c_bands:  2 eigenvalues not converged
     c_bands:  2 eigenvalues not converged
     c_bands:  2 eigenvalues not converged
     c_bands:  2 eigenvalues not converged
     c_bands:  2 eigenvalues not converged
     c_bands:  1 eigenvalues not converged
     c_bands:  1 eigenvalues not converged
     c_bands:  1 eigenvalues not converged
     c_bands:  1 eigenvalues not converged
     c_bands:  1 eigenvalues not converged
     c_bands:  2 eigenvalues not converged
     c_bands:  2 eigenvalues not converged
     c_bands:  2 eigenvalues not converged
     c_bands:  2 eigenvalues not converged
     c_bands:  2 eigenvalues not converged
     c_bands:  1 eigenvalues not converged
     c_bands:  1 eigenvalues not converged
     c_bands:  1 eigenvalues not converged
     c_bands:  1 eigenvalues not converged
     ethr =  1.00E-06,  avg # of iterations = 17.7

     negative rho (up, down):  4.211E-05 0.000E+00

     total cpu time spent up to now is      458.6 secs

     total energy              =   -1374.62665765 Ry
     estimated scf accuracy    <       0.93204606 Ry

     iteration #  2     ecut=    70.00 Ry     beta= 0.70
     Davidson diagonalization with overlap
     ethr =  1.55E-03,  avg # of iterations = 15.5

     total cpu time spent up to now is      498.9 secs

     total energy              =   -1369.34860331 Ry
     estimated scf accuracy    <     154.57041977 Ry

     iteration #  3     ecut=    70.00 Ry     beta= 0.70
     Davidson diagonalization with overlap
     ethr =  1.55E-03,  avg # of iterations =  9.8

     total cpu time spent up to now is      526.1 secs

     total energy              =   -1375.49144572 Ry
     estimated scf accuracy    <       3.30864896 Ry

     iteration #  4     ecut=    70.00 Ry     beta= 0.70
     Davidson diagonalization with overlap
     ethr =  1.55E-03,  avg # of iterations =  3.3

     total cpu time spent up to now is      545.7 secs

     total energy              =   -1375.68954764 Ry
     estimated scf accuracy    <       0.33509114 Ry

     iteration #  5     ecut=    70.00 Ry     beta= 0.70
     Davidson diagonalization with overlap
     ethr =  5.58E-04,  avg # of iterations =  3.7

     total cpu time spent up to now is      563.0 secs

     total energy              =   -1375.69112064 Ry
     estimated scf accuracy    <       0.15596187 Ry

     iteration #  6     ecut=    70.00 Ry     beta= 0.70
     Davidson diagonalization with overlap
     ethr =  2.60E-04,  avg # of iterations =  3.1

     total cpu time spent up to now is      579.7 secs

     total energy              =   -1375.68750218 Ry
     estimated scf accuracy    <       0.12783523 Ry

     iteration #  7     ecut=    70.00 Ry     beta= 0.70
     Davidson diagonalization with overlap
     ethr =  2.13E-04,  avg # of iterations =  2.1

     total cpu time spent up to now is      595.9 secs

     total energy              =   -1375.67124675 Ry
     estimated scf accuracy    <       0.09969601 Ry

     iteration #  8     ecut=    70.00 Ry     beta= 0.70
     Davidson diagonalization with overlap
     ethr =  1.66E-04,  avg # of iterations =  3.6

     total cpu time spent up to now is      613.3 secs

     total energy              =   -1375.66984725 Ry
     estimated scf accuracy    <       0.03283258 Ry

     iteration #  9     ecut=    70.00 Ry     beta= 0.70
     Davidson diagonalization with overlap
     c_bands:  1 eigenvalues not converged
     c_bands:  1 eigenvalues not converged
     ethr =  5.47E-05,  avg # of iterations =  5.0

     total cpu time spent up to now is      631.5 secs

     total energy              =   -1375.66887307 Ry
     estimated scf accuracy    <       0.01439530 Ry

     iteration # 10     ecut=    70.00 Ry     beta= 0.70
     Davidson diagonalization with overlap
     ethr =  2.40E-05,  avg # of iterations =  3.3

     negative rho (up, down):  3.934E-03 0.000E+00

     total cpu time spent up to now is      648.6 secs

     total energy              =   -1375.66715056 Ry
     estimated scf accuracy    <       0.00660313 Ry

     iteration # 11     ecut=    70.00 Ry     beta= 0.70
     Davidson diagonalization with overlap
     ethr =  1.10E-05,  avg # of iterations =  5.4

     negative rho (up, down):  1.007E-03 0.000E+00

     total cpu time spent up to now is      667.9 secs

     total energy              =   -1375.66792512 Ry
     estimated scf accuracy    <       0.00018366 Ry

     iteration # 12     ecut=    70.00 Ry     beta= 0.70
     Davidson diagonalization with overlap
     c_bands:  1 eigenvalues not converged
     c_bands:  1 eigenvalues not converged
     ethr =  3.06E-07,  avg # of iterations =  7.2

     negative rho (up, down):  2.237E-04 0.000E+00

     total cpu time spent up to now is      690.8 secs

     total energy              =   -1375.66791755 Ry
     estimated scf accuracy    <       0.00008562 Ry

     iteration # 13     ecut=    70.00 Ry     beta= 0.70
     Davidson diagonalization with overlap
     c_bands:  1 eigenvalues not converged
     ethr =  1.43E-07,  avg # of iterations =  3.4

     negative rho (up, down):  1.544E-04 0.000E+00

     total cpu time spent up to now is      709.8 secs

     total energy              =   -1375.66793724 Ry
     estimated scf accuracy    <       0.00002565 Ry

     iteration # 14     ecut=    70.00 Ry     beta= 0.70
     Davidson diagonalization with overlap
     ethr =  4.28E-08,  avg # of iterations =  2.0

     negative rho (up, down):  1.051E-04 0.000E+00

     total cpu time spent up to now is      726.1 secs

     total energy              =   -1375.66793673 Ry
     estimated scf accuracy    <       0.00000577 Ry

     iteration # 15     ecut=    70.00 Ry     beta= 0.70
     Davidson diagonalization with overlap
     ethr =  9.62E-09,  avg # of iterations =  2.4

     negative rho (up, down):  6.948E-05 0.000E+00

     total cpu time spent up to now is      743.7 secs

     total energy              =   -1375.66793773 Ry
     estimated scf accuracy    <       0.00000051 Ry

     iteration # 16     ecut=    70.00 Ry     beta= 0.70
     Davidson diagonalization with overlap
     ethr =  8.45E-10,  avg # of iterations =  2.7

     negative rho (up, down):  6.939E-05 0.000E+00

     total cpu time spent up to now is      762.6 secs

     total energy              =   -1375.66793765 Ry
     estimated scf accuracy    <       0.00000052 Ry

     iteration # 17     ecut=    70.00 Ry     beta= 0.70
     Davidson diagonalization with overlap
     ethr =  8.45E-10,  avg # of iterations =  2.5

     negative rho (up, down):  6.680E-05 0.000E+00

     total cpu time spent up to now is      779.7 secs

     total energy              =   -1375.66793746 Ry
     estimated scf accuracy    <       0.00000650 Ry

     iteration # 18     ecut=    70.00 Ry     beta= 0.70
     Davidson diagonalization with overlap
     ethr =  8.45E-10,  avg # of iterations =  2.0

     negative rho (up, down):  6.293E-05 0.000E+00

     total cpu time spent up to now is      796.5 secs

     total energy              =   -1375.66793779 Ry
     estimated scf accuracy    <       0.00000002 Ry

     iteration # 19     ecut=    70.00 Ry     beta= 0.70
     Davidson diagonalization with overlap
     ethr =  3.73E-11,  avg # of iterations =  3.3

     negative rho (up, down):  6.366E-05 0.000E+00

     total cpu time spent up to now is      816.3 secs

     total energy              =   -1375.66793780 Ry
     estimated scf accuracy    <          2.9E-09 Ry

     iteration # 20     ecut=    70.00 Ry     beta= 0.70
     Davidson diagonalization with overlap
     ethr =  4.75E-12,  avg # of iterations =  2.3

     negative rho (up, down):  6.395E-05 0.000E+00

     total cpu time spent up to now is      834.7 secs

     total energy              =   -1375.66793780 Ry
     estimated scf accuracy    <          4.8E-10 Ry

     iteration # 21     ecut=    70.00 Ry     beta= 0.70
     Davidson diagonalization with overlap
     ethr =  8.02E-13,  avg # of iterations =  2.0

     negative rho (up, down):  6.409E-05 0.000E+00

     total cpu time spent up to now is      853.0 secs

     total energy              =   -1375.66793780 Ry
     estimated scf accuracy    <          2.4E-11 Ry

     iteration # 22     ecut=    70.00 Ry     beta= 0.70
     Davidson diagonalization with overlap
     ethr =  1.00E-13,  avg # of iterations =  2.1

     negative rho (up, down):  6.414E-05 0.000E+00

     total cpu time spent up to now is      869.3 secs

     total energy              =   -1375.66793780 Ry
     estimated scf accuracy    <          2.1E-12 Ry

     iteration # 23     ecut=    70.00 Ry     beta= 0.70
     Davidson diagonalization with overlap
     ethr =  1.00E-13,  avg # of iterations =  1.0

     negative rho (up, down):  6.415E-05 0.000E+00

     total cpu time spent up to now is      884.6 secs

     End of self-consistent calculation

          k = 0.0000 0.0000 0.0000 ( 15945 PWs)   bands (ev):

   -68.1396 -68.1033 -35.0727 -34.5656 -34.2735 -34.2734 -34.2234 -34.2232
   -19.8052 -19.7919 -19.7804 -19.7800 -19.7796 -19.7791 -19.7561 -19.7557
   -19.7556 -19.7552 -19.7523 -19.7470 -19.6867 -19.6856 -13.0810  -8.1442
    -5.1526  -4.0796  -3.8710  -3.8697  -1.4143  -0.0944  -0.0919   1.8840
     1.8860   2.6473   2.6491   3.3838

          k = 0.0000 0.0928 0.0000 ( 15937 PWs)   bands (ev):

   -68.1359 -68.1007 -35.0602 -34.5682 -34.3212 -34.2886 -34.2686 -34.2302
   -19.8038 -19.7917 -19.7809 -19.7796 -19.7794 -19.7785 -19.7579 -19.7560
   -19.7558 -19.7552 -19.7495 -19.7443 -19.6894 -19.6885 -12.9567  -7.9338
    -5.2537  -4.1021  -3.9542  -3.8319  -1.2896  -0.4326   0.0960   1.3824
     1.6915   2.6837   2.9214   3.9232

          k = 0.0000 0.1855 0.0000 ( 15883 PWs)   bands (ev):

   -68.1258 -68.0938 -35.0266 -34.5878 -34.4381 -34.3884 -34.3278 -34.2515
   -19.8003 -19.7914 -19.7838 -19.7794 -19.7776 -19.7752 -19.7624 -19.7575
   -19.7561 -19.7541 -19.7418 -19.7371 -19.6969 -19.6961 -12.6263  -7.3730
    -5.5356  -4.3130  -3.9205  -3.7677  -1.3481  -0.7311   0.6094   0.8147
     1.6575   2.6573   3.2492   4.4941

          k = 0.0000 0.2783 0.0000 ( 15835 PWs)   bands (ev):

   -68.1117 -68.0846 -34.9857 -34.6899 -34.5462 -34.5145 -34.3784 -34.2830
   -19.7983 -19.7891 -19.7874 -19.7800 -19.7755 -19.7710 -19.7675 -19.7592
   -19.7565 -19.7521 -19.7312 -19.7271 -19.7068 -19.7056 -12.2024  -6.8111
    -5.7260  -4.4465  -3.8727  -3.7677  -2.0119  -0.0989   0.5971   1.2924
     2.2116   2.4558   3.3885   4.8120

          k = 0.0000 0.3710 0.0000 ( 15813 PWs)   bands (ev):

   -68.0969 -68.0759 -34.9701 -34.8454 -34.6644 -34.5422 -34.4269 -34.3160
   -19.7996 -19.7904 -19.7846 -19.7811 -19.7767 -19.7688 -19.7682 -19.7602
   -19.7563 -19.7494 -19.7202 -19.7170 -19.7164 -19.7138 -11.8213  -6.8862
    -5.3039  -4.5156  -3.8486  -3.7813  -2.3325   0.6806   0.8285   2.0108
     2.0682   3.2758   3.4389   5.0764

          k = 0.0000 0.4638 0.0000 ( 15860 PWs)   bands (ev):

   -68.0854 -68.0704 -35.0139 -34.9495 -34.7013 -34.5607 -34.4616 -34.3405
   -19.8014 -19.7915 -19.7851 -19.7824 -19.7766 -19.7681 -19.7670 -19.7607
   -19.7549 -19.7472 -19.7231 -19.7190 -19.7118 -19.7097 -11.5775  -7.1261
    -4.9625  -4.6234  -3.9429  -3.4641  -2.2896   1.0244   1.3343   1.8354
     2.6878   3.6895   4.4160   5.1440

          k =-0.0000-0.5565 0.0000 ( 15870 PWs)   bands (ev):

   -68.0808 -68.0687 -35.0471 -34.9824 -34.6989 -34.5703 -34.4741 -34.3496
   -19.8022 -19.7914 -19.7869 -19.7829 -19.7757 -19.7684 -19.7658 -19.7610
   -19.7541 -19.7462 -19.7255 -19.7207 -19.7086 -19.7071 -11.4970  -7.2200
    -4.8914  -4.6875  -3.9826  -3.2133  -2.2451   0.9260   1.5914   1.9936
     2.8332   4.0098   4.9969   5.1094

          k = 0.0803 0.1391 0.0000 ( 15907 PWs)   bands (ev):

   -68.1290 -68.0960 -35.0371 -34.5779 -34.3946 -34.3703 -34.2986 -34.2529
   -19.8012 -19.7916 -19.7824 -19.7805 -19.7777 -19.7763 -19.7606 -19.7572
   -19.7563 -19.7544 -19.7442 -19.7394 -19.6946 -19.6938 -12.7291  -7.5415
    -5.4426  -4.1666  -4.1634  -3.6508  -1.0505  -0.9737   0.3808   1.2647
     1.2889   2.8132   3.1494   4.3965

          k = 0.0803 0.2319 0.0000 ( 15867 PWs)   bands (ev):

   -68.1169 -68.0879 -34.9991 -34.6305 -34.5072 -34.4854 -34.3520 -34.2873
   -19.7975 -19.7913 -19.7855 -19.7809 -19.7756 -19.7724 -19.7654 -19.7586
   -19.7566 -19.7532 -19.7351 -19.7307 -19.7032 -19.7026 -12.3510  -6.8995
    -5.7324  -4.4021  -4.2450  -3.4152  -1.6978  -0.5373   0.3157   1.3662
     1.7845   2.6304   3.5257   4.7235

          k = 0.0803 0.3246 0.0000 ( 15853 PWs)   bands (ev):

   -68.1024 -68.0790 -34.9671 -34.7670 -34.6274 -34.5342 -34.4135 -34.3245
   -19.7971 -19.7888 -19.7875 -19.7818 -19.7748 -19.7700 -19.7683 -19.7599
   -19.7563 -19.7512 -19.7243 -19.7208 -19.7130 -19.7116 -11.9484  -6.6181
    -5.6058  -4.4766  -4.3546  -3.2972  -2.1866   0.1853   0.2112   1.9162
     2.3223   2.8889   3.6506   5.0068

          k = 0.0803 0.4174 0.0000 ( 15858 PWs)   bands (ev):

   -68.0892 -68.0720 -34.9792 -34.8970 -34.6923 -34.5608 -34.4619 -34.3572
   -19.7989 -19.7906 -19.7851 -19.7814 -19.7770 -19.7693 -19.7674 -19.7605
   -19.7553 -19.7489 -19.7214 -19.7185 -19.7145 -19.7120 -11.6389  -6.8700
    -5.0634  -4.5278  -4.3663  -3.2866  -2.2571   0.4489   0.9654   1.7806
     2.9889   3.5343   4.0828   5.1792

          k = 0.0803 0.5101 0.0000 ( 15845 PWs)   bands (ev):

   -68.0808 -68.0687 -35.0241 -34.9612 -34.6952 -34.5828 -34.4872 -34.3763
   -19.8004 -19.7910 -19.7860 -19.7827 -19.7757 -19.7688 -19.7670 -19.7608
   -19.7544 -19.7472 -19.7261 -19.7220 -19.7087 -19.7072 -11.4805  -7.0542
    -4.8657  -4.6247  -4.2136  -3.2315  -2.1365   0.8261   1.1460   1.8665
     3.5307   3.7370   4.8308   5.1036

          k = 0.1607 0.2783 0.0000 ( 15858 PWs)   bands (ev):

   -68.1044 -68.0802 -34.9675 -34.7172 -34.6255 -34.5255 -34.4018 -34.3489
   -19.7929 -19.7920 -19.7870 -19.7833 -19.7739 -19.7696 -19.7687 -19.7597
   -19.7560 -19.7523 -19.7258 -19.7222 -19.7115 -19.7115 -11.9932  -6.2454
    -5.9720  -4.5901  -4.4337  -3.0555  -2.0328  -0.2338  -0.1022   1.9336
     2.5492   2.6257   3.9759   4.9106

          k = 0.1607 0.3710 0.0000 ( 15848 PWs)   bands (ev):

   -68.0913 -68.0730 -34.9558 -34.8241 -34.6959 -34.5582 -34.4687 -34.4029
   -19.7940 -19.7884 -19.7877 -19.7836 -19.7752 -19.7700 -19.7683 -19.7603
   -19.7545 -19.7515 -19.7207 -19.7197 -19.7160 -19.7133 -11.6646  -6.3350
    -5.5155  -4.7190  -4.4170  -2.9640  -2.0883  -0.4917   0.6132   1.8938
     3.0897   3.6306   4.1409   5.1499

          k = 0.1607 0.4638 0.0000 ( 15846 PWs)   bands (ev):

   -68.0808 -68.0687 -34.9744 -34.9048 -34.6997 -34.6085 -34.5085 -34.4401
   -19.7960 -19.7890 -19.7863 -19.7809 -19.7769 -19.7701 -19.7686 -19.7600
   -19.7546 -19.7499 -19.7271 -19.7248 -19.7089 -19.7072 -11.4472  -6.5993
    -5.0221  -4.7644  -4.3439  -3.0904  -1.9094  -0.2965   1.3606   1.9073
     3.3403   3.9391   4.3747   5.1272

          k = 0.1607 0.5565 0.0000 ( 15864 PWs)   bands (ev):

   -68.0765 -68.0676 -34.9895 -34.9314 -34.6787 -34.6478 -34.5177 -34.4544
   -19.7968 -19.7893 -19.7845 -19.7831 -19.7746 -19.7700 -19.7694 -19.7600
   -19.7549 -19.7492 -19.7295 -19.7266 -19.7062 -19.7051 -11.3732  -6.6996
    -4.8713  -4.7710  -4.2758  -3.1858  -1.7896  -0.0988   1.6008   2.0626
     3.4903   3.8723   4.3240   4.8787

          k = 0.2410 0.4174 0.0000 ( 15846 PWs)   bands (ev):

   -68.0808 -68.0687 -34.9488 -34.8535 -34.7358 -34.5947 -34.5307 -34.4770
   -19.7932 -19.7875 -19.7847 -19.7835 -19.7773 -19.7700 -19.7696 -19.7596
   -19.7535 -19.7525 -19.7273 -19.7266 -19.7090 -19.7073 -11.4304  -6.1380
    -5.5494  -4.7501  -4.2661  -2.9585  -1.6957  -0.8978   1.2697   1.9971
     3.3075   3.8755   4.2698   5.3066

          k = 0.2410 0.5101 0.0000 ( 15834 PWs)   bands (ev):

   -68.0736 -68.0673 -34.9309 -34.8732 -34.7486 -34.6544 -34.5466 -34.5221
   -19.7940 -19.7852 -19.7842 -19.7811 -19.7769 -19.7719 -19.7713 -19.7583
   -19.7552 -19.7521 -19.7315 -19.7304 -19.7048 -19.7039 -11.3009  -6.1916
    -5.4071  -4.7283  -4.1376  -3.0934  -1.3921  -0.8100   1.9586   2.2399
     3.1152   3.5398   3.8186   4.9666

          k = 0.3213 0.5565 0.0000 ( 15774 PWs)   bands (ev):

   -68.0689 -68.0689 -34.8528 -34.8427 -34.8417 -34.6784 -34.5566 -34.5554
   -19.7937 -19.7829 -19.7828 -19.7778 -19.7767 -19.7766 -19.7726 -19.7558
   -19.7557 -19.7547 -19.7329 -19.7328 -19.7030 -19.7030 -11.2457  -5.7839
    -5.7836  -4.7246  -4.0501  -3.1047  -1.0335  -1.0330   2.4310   2.4315
     3.0272   3.0284   3.2841   4.9655

          k =-0.0803 0.0464 0.0000 ( 15937 PWs)   bands (ev):

   -68.1359 -68.1007 -35.0602 -34.5682 -34.3212 -34.2887 -34.2685 -34.2303
   -19.8038 -19.7917 -19.7808 -19.7796 -19.7794 -19.7785 -19.7577 -19.7561
   -19.7560 -19.7550 -19.7495 -19.7444 -19.6894 -19.6885 -12.9567  -7.9337
    -5.2537  -4.1011  -3.9555  -3.8325  -1.2898  -0.4314   0.0949   1.3831
     1.6918   2.6848   2.9212   3.9222

          k = 0.0803 0.0464 0.0000 ( 15937 PWs)   bands (ev):

   -68.1359 -68.1007 -35.0602 -34.5682 -34.3212 -34.2888 -34.2683 -34.2304
   -19.8038 -19.7918 -19.7807 -19.7797 -19.7794 -19.7785 -19.7575 -19.7563
   -19.7561 -19.7549 -19.7494 -19.7444 -19.6894 -19.6885 -12.9566  -7.9336
    -5.2536  -4.1001  -3.9567  -3.8331  -1.2899  -0.4301   0.0939   1.3837
     1.6921   2.6859   2.9211   3.9212

          k =-0.1607 0.0927 0.0000 ( 15883 PWs)   bands (ev):

   -68.1258 -68.0938 -35.0266 -34.5877 -34.4384 -34.3882 -34.3279 -34.2516
   -19.8003 -19.7914 -19.7837 -19.7795 -19.7777 -19.7751 -19.7621 -19.7577
   -19.7563 -19.7540 -19.7418 -19.7371 -19.6969 -19.6961 -12.6262  -7.3726
    -5.5354  -4.3129  -3.9233  -3.7683  -1.3490  -0.7293   0.6087   0.8183
     1.6573   2.6597   3.2495   4.4921

          k = 0.1607 0.0928 0.0000 ( 15883 PWs)   bands (ev):

   -68.1258 -68.0938 -35.0266 -34.5876 -34.4386 -34.3879 -34.3280 -34.2517
   -19.8004 -19.7914 -19.7835 -19.7796 -19.7778 -19.7750 -19.7619 -19.7578
   -19.7565 -19.7539 -19.7418 -19.7371 -19.6969 -19.6961 -12.6261  -7.3722
    -5.5351  -4.3127  -3.9261  -3.7689  -1.3499  -0.7275   0.6079   0.8219
     1.6571   2.6620   3.2498   4.4901

          k =-0.2410 0.1391 0.0000 ( 15835 PWs)   bands (ev):

   -68.1117 -68.0846 -34.9857 -34.6897 -34.5464 -34.5144 -34.3785 -34.2832
   -19.7984 -19.7890 -19.7872 -19.7801 -19.7756 -19.7709 -19.7673 -19.7593
   -19.7566 -19.7520 -19.7312 -19.7271 -19.7068 -19.7056 -12.2022  -6.8097
    -5.7259  -4.4473  -3.8773  -3.7683  -2.0134  -0.0965   0.6038   1.2922
     2.2112   2.4598   3.3890   4.8081

          k = 0.2410 0.1391 0.0000 ( 15835 PWs)   bands (ev):

   -68.1116 -68.0846 -34.9857 -34.6895 -34.5466 -34.5143 -34.3786 -34.2833
   -19.7986 -19.7889 -19.7871 -19.7802 -19.7757 -19.7707 -19.7671 -19.7595
   -19.7568 -19.7520 -19.7312 -19.7271 -19.7068 -19.7056 -12.2019  -6.8083
    -5.7258  -4.4481  -3.8820  -3.7689  -2.0148  -0.0941   0.6103   1.2919
     2.2106   2.4638   3.3895   4.8043

          k =-0.3213 0.1855 0.0000 ( 15813 PWs)   bands (ev):

   -68.0969 -68.0759 -34.9700 -34.8455 -34.6640 -34.5424 -34.4271 -34.3161
   -19.7998 -19.7902 -19.7845 -19.7812 -19.7767 -19.7688 -19.7680 -19.7603
   -19.7563 -19.7494 -19.7202 -19.7171 -19.7164 -19.7137 -11.8210  -6.8844
    -5.3036  -4.5164  -3.8494  -3.7880  -2.3351   0.6856   0.8377   2.0143
     2.0685   3.2754   3.4394   5.0737

          k = 0.3213 0.1855 0.0000 ( 15813 PWs)   bands (ev):

   -68.0969 -68.0759 -34.9700 -34.8456 -34.6637 -34.5426 -34.4272 -34.3162
   -19.8000 -19.7900 -19.7844 -19.7813 -19.7768 -19.7686 -19.7680 -19.7604
   -19.7563 -19.7494 -19.7202 -19.7171 -19.7164 -19.7137 -11.8208  -6.8825
    -5.3033  -4.5172  -3.8500  -3.7948  -2.3377   0.6913   0.8463   2.0179
     2.0684   3.2750   3.4399   5.0709

          k =-0.4017 0.2319 0.0000 ( 15860 PWs)   bands (ev):

   -68.0854 -68.0704 -35.0136 -34.9500 -34.7007 -34.5610 -34.4617 -34.3407
   -19.8016 -19.7913 -19.7848 -19.7825 -19.7767 -19.7681 -19.7669 -19.7608
   -19.7548 -19.7472 -19.7232 -19.7189 -19.7118 -19.7098 -11.5773  -7.1242
    -4.9623  -4.6239  -3.9437  -3.4724  -2.2927   1.0334   1.3470   1.8363
     2.6880   3.6900   4.4161   5.1450

          k = 0.4017 0.2319 0.0000 ( 15860 PWs)   bands (ev):

   -68.0854 -68.0704 -35.0133 -34.9506 -34.7001 -34.5614 -34.4619 -34.3408
   -19.8018 -19.7911 -19.7847 -19.7825 -19.7769 -19.7680 -19.7669 -19.7608
   -19.7548 -19.7472 -19.7232 -19.7189 -19.7118 -19.7098 -11.5770  -7.1224
    -4.9620  -4.6245  -3.9444  -3.4808  -2.2958   1.0435   1.3587   1.8370
     2.6882   3.6904   4.4162   5.1459

          k = 0.4820-0.2782 0.0000 ( 15870 PWs)   bands (ev):

   -68.0808 -68.0687 -35.0468 -34.9830 -34.6981 -34.5707 -34.4743 -34.3497
   -19.8024 -19.7912 -19.7866 -19.7830 -19.7759 -19.7684 -19.7657 -19.7611
   -19.7540 -19.7463 -19.7256 -19.7207 -19.7086 -19.7072 -11.4968  -7.2181
    -4.8915  -4.6881  -3.9834  -3.2226  -2.2477   0.9349   1.6064   1.9948
     2.8334   4.0103   4.9974   5.1069

          k =-0.4820-0.2783 0.0000 ( 15870 PWs)   bands (ev):

   -68.0808 -68.0687 -35.0465 -34.9836 -34.6974 -34.5712 -34.4744 -34.3499
   -19.8026 -19.7910 -19.7864 -19.7831 -19.7760 -19.7684 -19.7657 -19.7611
   -19.7539 -19.7463 -19.7256 -19.7206 -19.7086 -19.7072 -11.4966  -7.2163
    -4.8915  -4.6887  -3.9841  -3.2319  -2.2504   0.9445   1.6208   1.9959
     2.8336   4.0107   4.9981   5.1043

          k =-0.0803 0.1391 0.0000 ( 15907 PWs)   bands (ev):

   -68.1290 -68.0960 -35.0371 -34.5779 -34.3945 -34.3703 -34.2986 -34.2528
   -19.8012 -19.7916 -19.7826 -19.7804 -19.7775 -19.7765 -19.7608 -19.7571
   -19.7561 -19.7546 -19.7443 -19.7394 -19.6946 -19.6938 -12.7292  -7.5417
    -5.4427  -4.1654  -4.1638  -3.6496  -1.0502  -0.9745   0.3806   1.2637
     1.2885   2.8117   3.1482   4.3983

          k = 0.1607 0.0000 0.0000 ( 15907 PWs)   bands (ev):

   -68.1290 -68.0960 -35.0371 -34.5778 -34.3946 -34.3703 -34.2986 -34.2530
   -19.8012 -19.7917 -19.7822 -19.7806 -19.7778 -19.7761 -19.7604 -19.7574
   -19.7565 -19.7543 -19.7442 -19.7394 -19.6946 -19.6938 -12.7290  -7.5413
    -5.4424  -4.1663  -4.1646  -3.6520  -1.0507  -0.9729   0.3809   1.2658
     1.2892   2.8148   3.1505   4.3945

          k =-0.0803 0.2319 0.0000 ( 15867 PWs)   bands (ev):

   -68.1169 -68.0879 -34.9991 -34.6305 -34.5074 -34.4853 -34.3520 -34.2872
   -19.7975 -19.7912 -19.7856 -19.7809 -19.7755 -19.7726 -19.7655 -19.7585
   -19.7564 -19.7533 -19.7351 -19.7307 -19.7032 -19.7026 -12.3511  -6.8997
    -5.7327  -4.4007  -4.2442  -3.4153  -1.6985  -0.5366   0.3155   1.3649
     1.7843   2.6285   3.5234   4.7261

          k =-0.1607 0.1855 0.0000 ( 15867 PWs)   bands (ev):

   -68.1169 -68.0879 -34.9991 -34.6304 -34.5079 -34.4848 -34.3521 -34.2873
   -19.7975 -19.7911 -19.7855 -19.7810 -19.7755 -19.7726 -19.7654 -19.7585
   -19.7565 -19.7532 -19.7351 -19.7307 -19.7032 -19.7026 -12.3511  -6.8991
    -5.7326  -4.4003  -4.2459  -3.4167  -1.6994  -0.5352   0.3179   1.3656
     1.7837   2.6298   3.5236   4.7246

          k = 0.2410 0.0464 0.0000 ( 15867 PWs)   bands (ev):

   -68.1169 -68.0879 -34.9990 -34.6303 -34.5081 -34.4848 -34.3520 -34.2875
   -19.7976 -19.7913 -19.7852 -19.7811 -19.7758 -19.7722 -19.7650 -19.7588
   -19.7568 -19.7530 -19.7351 -19.7308 -19.7032 -19.7026 -12.3507  -6.8982
    -5.7320  -4.4025  -4.2491  -3.4179  -1.6990  -0.5353   0.3208   1.3687
     1.7837   2.6351   3.5282   4.7179

          k =-0.1607-0.1855 0.0000 ( 15867 PWs)   bands (ev):

   -68.1169 -68.0879 -34.9990 -34.6302 -34.5082 -34.4846 -34.3521 -34.2874
   -19.7976 -19.7912 -19.7853 -19.7811 -19.7757 -19.7724 -19.7652 -19.7587
   -19.7567 -19.7531 -19.7351 -19.7308 -19.7032 -19.7026 -12.3508  -6.8984
    -5.7323  -4.4012  -4.2483  -3.4180  -1.6997  -0.5345   0.3205   1.3675
     1.7835   2.6331   3.5260   4.7205

          k = 0.2410-0.0464 0.0000 ( 15867 PWs)   bands (ev):

   -68.1169 -68.0879 -34.9990 -34.6304 -34.5076 -34.4852 -34.3520 -34.2875
   -19.7975 -19.7913 -19.7853 -19.7810 -19.7758 -19.7722 -19.7651 -19.7587
   -19.7568 -19.7530 -19.7351 -19.7308 -19.7032 -19.7026 -12.3508  -6.8988
    -5.7321  -4.4030  -4.2474  -3.4165  -1.6981  -0.5367   0.3183   1.3680
     1.7843   2.6338   3.5281   4.7194

          k =-0.0803 0.3246 0.0000 ( 15853 PWs)   bands (ev):

   -68.1024 -68.0790 -34.9671 -34.7669 -34.6273 -34.5343 -34.4135 -34.3244
   -19.7971 -19.7888 -19.7874 -19.7818 -19.7747 -19.7700 -19.7685 -19.7598
   -19.7562 -19.7512 -19.7243 -19.7208 -19.7130 -19.7116 -11.9485  -6.6179
    -5.6064  -4.4750  -4.3533  -3.2993  -2.1871   0.1864   0.2121   1.9170
     2.3189   2.8879   3.6477   5.0096

          k =-0.2410 0.2319 0.0000 ( 15853 PWs)   bands (ev):

   -68.1024 -68.0790 -34.9671 -34.7669 -34.6271 -34.5344 -34.4136 -34.3245
   -19.7973 -19.7886 -19.7873 -19.7820 -19.7747 -19.7698 -19.7685 -19.7598
   -19.7563 -19.7512 -19.7243 -19.7208 -19.7131 -19.7116 -11.9483  -6.6161
    -5.6069  -4.4748  -4.3552  -3.3034  -2.1891   0.1915   0.2160   1.9188
     2.3205   2.8873   3.6474   5.0071

          k = 0.3213 0.0928 0.0000 ( 15853 PWs)   bands (ev):

   -68.1024 -68.0790 -34.9671 -34.7669 -34.6273 -34.5342 -34.4137 -34.3247
   -19.7974 -19.7884 -19.7874 -19.7820 -19.7749 -19.7697 -19.7681 -19.7601
   -19.7564 -19.7511 -19.7243 -19.7208 -19.7131 -19.7116 -11.9479  -6.6148
    -5.6062  -4.4776  -4.3601  -3.3033  -2.1901   0.1956   0.2170   1.9192
     2.3291   2.8887   3.6529   4.9991

          k =-0.2410-0.2319 0.0000 ( 15853 PWs)   bands (ev):

   -68.1024 -68.0790 -34.9671 -34.7669 -34.6271 -34.5344 -34.4137 -34.3246
   -19.7974 -19.7884 -19.7873 -19.7820 -19.7748 -19.7697 -19.7683 -19.7600
   -19.7564 -19.7512 -19.7243 -19.7208 -19.7131 -19.7115 -11.9480  -6.6145
    -5.6068  -4.4762  -4.3586  -3.3054  -2.1906   0.1973   0.2173   1.9200
     2.3256   2.8877   3.6501   5.0018

          k = 0.3213-0.0927 0.0000 ( 15853 PWs)   bands (ev):

   -68.1024 -68.0790 -34.9671 -34.7670 -34.6274 -34.5342 -34.4136 -34.3246
   -19.7973 -19.7886 -19.7875 -19.7818 -19.7749 -19.7698 -19.7680 -19.7600
   -19.7564 -19.7511 -19.7243 -19.7208 -19.7131 -19.7116 -11.9481  -6.6165
    -5.6057  -4.4779  -4.3581  -3.2992  -2.1881   0.1888   0.2147   1.9173
     2.3275   2.8894   3.6532   5.0016

          k =-0.0803 0.4174 0.0000 ( 15858 PWs)   bands (ev):

   -68.0892 -68.0720 -34.9791 -34.8970 -34.6921 -34.5610 -34.4619 -34.3571
   -19.7989 -19.7906 -19.7851 -19.7814 -19.7769 -19.7691 -19.7677 -19.7604
   -19.7553 -19.7489 -19.7215 -19.7185 -19.7145 -19.7120 -11.6389  -6.8698
    -5.0639  -4.5265  -4.3642  -3.2902  -2.2571   0.4502   0.9666   1.7815
     2.9848   3.5310   4.0837   5.1827

          k =-0.3213 0.2782 0.0000 ( 15858 PWs)   bands (ev):

   -68.0892 -68.0720 -34.9790 -34.8973 -34.6916 -34.5613 -34.4620 -34.3572
   -19.7991 -19.7904 -19.7850 -19.7815 -19.7769 -19.7690 -19.7678 -19.7604
   -19.7552 -19.7489 -19.7215 -19.7185 -19.7145 -19.7120 -11.6387  -6.8681
    -5.0639  -4.5273  -4.3644  -3.2976  -2.2599   0.4575   0.9746   1.7843
     2.9853   3.5295   4.0835   5.1850

          k = 0.4017 0.1391 0.0000 ( 15858 PWs)   bands (ev):

   -68.0891 -68.0720 -34.9789 -34.8976 -34.6914 -34.5612 -34.4622 -34.3574
   -19.7994 -19.7902 -19.7849 -19.7815 -19.7770 -19.7692 -19.7674 -19.7606
   -19.7552 -19.7489 -19.7215 -19.7185 -19.7145 -19.7121 -11.6384  -6.8666
    -5.0628  -4.5305  -4.3691  -3.2979  -2.2627   0.4627   0.9799   1.7851
     2.9943   3.5344   4.0814   5.1799

          k =-0.3213-0.2783 0.0000 ( 15858 PWs)   bands (ev):

   -68.0892 -68.0720 -34.9789 -34.8976 -34.6913 -34.5614 -34.4622 -34.3573
   -19.7993 -19.7902 -19.7849 -19.7815 -19.7770 -19.7690 -19.7676 -19.7605
   -19.7552 -19.7490 -19.7215 -19.7185 -19.7145 -19.7121 -11.6385  -6.8664
    -5.0634  -4.5294  -4.3668  -3.3015  -2.2628   0.4639   0.9812   1.7860
     2.9900   3.5312   4.0824   5.1834

          k = 0.4017-0.1391 0.0000 ( 15858 PWs)   bands (ev):

   -68.0892 -68.0720 -34.9791 -34.8973 -34.6919 -34.5609 -34.4620 -34.3573
   -19.7992 -19.7904 -19.7850 -19.7814 -19.7770 -19.7693 -19.7672 -19.7606
[...]
   -19.2531 -19.2454 -19.2371 -19.2320 -19.2267 -19.2211 -19.2182 -19.2098
   -19.2080 -19.2025 -19.1836 -19.1789 -19.1453 -19.1448 -12.0357  -7.0692
    -5.5892  -4.3084  -3.8489  -2.7975  -1.3687  -0.1380   0.7451   1.9397
     2.2393   2.7777   3.9389   5.3480

          k = 0.2458 0.0473 0.0000 ( 15230 PWs)   bands (ev):

   -67.5834 -67.5582 -34.5071 -34.1396 -34.0115 -33.9901 -33.7934 -33.7388
   -19.2528 -19.2454 -19.2372 -19.2322 -19.2270 -19.2206 -19.2181 -19.2102
   -19.2083 -19.2022 -19.1836 -19.1790 -19.1453 -19.1447 -12.0344  -7.0680
    -5.5824  -4.3154  -3.8564  -2.8049  -1.3644  -0.1405   0.7555   1.9368
     2.2372   2.7936   3.9483   5.3336

          k =-0.1639-0.1891 0.0000 ( 15236 PWs)   bands (ev):

   -67.5834 -67.5582 -34.5072 -34.1390 -34.0113 -33.9894 -33.7941 -33.7389
   -19.2529 -19.2454 -19.2371 -19.2321 -19.2270 -19.2208 -19.2180 -19.2101
   -19.2082 -19.2023 -19.1836 -19.1790 -19.1453 -19.1447 -12.0350  -7.0682
    -5.5850  -4.3122  -3.8537  -2.8026  -1.3667  -0.1377   0.7513   1.9374
     2.2384   2.7870   3.9426   5.3405

          k = 0.2457-0.0472 0.0000 ( 15232 PWs)   bands (ev):

   -67.5834 -67.5582 -34.5072 -34.1396 -34.0106 -33.9906 -33.7934 -33.7388
   -19.2530 -19.2453 -19.2372 -19.2321 -19.2269 -19.2207 -19.2181 -19.2101
   -19.2082 -19.2023 -19.1836 -19.1790 -19.1452 -19.1448 -12.0347  -7.0686
    -5.5847  -4.3140  -3.8542  -2.8013  -1.3646  -0.1426   0.7522   1.9384
     2.2365   2.7900   3.9489   5.3361

          k =-0.0819 0.3308 0.0000 ( 15195 PWs)   bands (ev):

   -67.5660 -67.5455 -34.4696 -34.2811 -34.1603 -34.0630 -33.8642 -33.7870
   -19.2515 -19.2417 -19.2414 -19.2338 -19.2278 -19.2213 -19.2187 -19.2110
   -19.2058 -19.1998 -19.1702 -19.1666 -19.1572 -19.1556 -11.5868  -6.6413
    -5.5410  -4.6327  -4.0019  -2.8102  -1.8137   0.5075   0.8194   2.1926
     2.8399   3.4083   4.0765   5.9485

          k =-0.2457 0.2363 0.0000 ( 15195 PWs)   bands (ev):

   -67.5659 -67.5455 -34.4695 -34.2815 -34.1605 -34.0631 -33.8645 -33.7873
   -19.2512 -19.2419 -19.2414 -19.2337 -19.2279 -19.2214 -19.2187 -19.2113
   -19.2058 -19.1997 -19.1702 -19.1666 -19.1572 -19.1555 -11.5861  -6.6391
    -5.5372  -4.6375  -4.0055  -2.8191  -1.8126   0.5174   0.8239   2.1982
     2.8401   3.4051   4.0774   5.9431

          k = 0.3277 0.0946 0.0000 ( 15193 PWs)   bands (ev):

   -67.5657 -67.5454 -34.4696 -34.2835 -34.1615 -34.0633 -33.8636 -33.7869
   -19.2511 -19.2421 -19.2411 -19.2339 -19.2279 -19.2212 -19.2183 -19.2117
   -19.2062 -19.1995 -19.1702 -19.1667 -19.1571 -19.1555 -11.5842  -6.6371
    -5.5315  -4.6468  -4.0167  -2.8206  -1.8130   0.5316   0.8142   2.2060
     2.8545   3.4074   4.0799   5.9333

          k =-0.2458-0.2363 0.0000 ( 15193 PWs)   bands (ev):

   -67.5658 -67.5454 -34.4696 -34.2826 -34.1611 -34.0633 -33.8641 -33.7871
   -19.2510 -19.2421 -19.2411 -19.2338 -19.2280 -19.2213 -19.2184 -19.2116
   -19.2061 -19.1995 -19.1702 -19.1667 -19.1572 -19.1555 -11.5849  -6.6368
    -5.5333  -4.6437  -4.0124  -2.8235  -1.8125   0.5280   0.8220   2.2039
     2.8466   3.4045   4.0794   5.9363

          k = 0.3276-0.0945 0.0000 ( 15197 PWs)   bands (ev):

   -67.5658 -67.5454 -34.4696 -34.2831 -34.1614 -34.0631 -33.8634 -33.7869
   -19.2512 -19.2419 -19.2414 -19.2339 -19.2278 -19.2213 -19.2182 -19.2115
   -19.2061 -19.1996 -19.1702 -19.1667 -19.1571 -19.1555 -11.5848  -6.6397
    -5.5339  -4.6431  -4.0137  -2.8131  -1.8134   0.5239   0.8099   2.2013
     2.8543   3.4099   4.0788   5.9378

          k =-0.0818 0.4253 0.0000 ( 15170 PWs)   bands (ev):

   -67.5501 -67.5350 -34.5035 -34.4322 -34.2343 -34.0813 -33.9213 -33.8290
   -19.2530 -19.2449 -19.2389 -19.2341 -19.2313 -19.2200 -19.2189 -19.2112
   -19.2026 -19.1970 -19.1671 -19.1641 -19.1581 -19.1558 -11.2420  -6.7887
    -5.1717  -4.7551  -4.0076  -3.0145  -1.8159   0.8271   1.5746   2.0172
     3.6540   3.9490   4.7813   6.2955

          k =-0.3276 0.2835 0.0000 ( 15168 PWs)   bands (ev):

   -67.5499 -67.5350 -34.5041 -34.4327 -34.2336 -34.0818 -33.9217 -33.8293
   -19.2529 -19.2449 -19.2385 -19.2341 -19.2316 -19.2201 -19.2192 -19.2116
   -19.2026 -19.1968 -19.1671 -19.1639 -19.1581 -19.1558 -11.2408  -6.7864
    -5.1691  -4.7613  -4.0116  -3.0247  -1.8142   0.8400   1.5798   2.0250
     3.6530   3.9493   4.7810   6.2886

          k = 0.4096 0.1419 0.0000 ( 15170 PWs)   bands (ev):

   -67.5497 -67.5349 -34.5054 -34.4347 -34.2326 -34.0824 -33.9213 -33.8291
   -19.2530 -19.2447 -19.2386 -19.2340 -19.2313 -19.2202 -19.2188 -19.2120
   -19.2028 -19.1969 -19.1671 -19.1638 -19.1581 -19.1558 -11.2386  -6.7850
    -5.1651  -4.7692  -4.0251  -3.0223  -1.8162   0.8489   1.5763   2.0368
     3.6621   3.9502   4.7842   6.2891

          k =-0.3277-0.2836 0.0000 ( 15170 PWs)   bands (ev):

   -67.5497 -67.5350 -34.5049 -34.4341 -34.2328 -34.0823 -33.9216 -33.8293
   -19.2530 -19.2447 -19.2384 -19.2340 -19.2316 -19.2201 -19.2190 -19.2120
   -19.2027 -19.1968 -19.1671 -19.1638 -19.1581 -19.1558 -11.2393  -6.7842
    -5.1662  -4.7675  -4.0197  -3.0281  -1.8147   0.8499   1.5812   2.0334
     3.6569   3.9499   4.7821   6.2865

          k = 0.4096-0.1417 0.0000 ( 15170 PWs)   bands (ev):

   -67.5498 -67.5350 -34.5050 -34.4337 -34.2336 -34.0818 -33.9210 -33.8291
   -19.2529 -19.2449 -19.2390 -19.2339 -19.2312 -19.2203 -19.2185 -19.2117
   -19.2028 -19.1969 -19.1670 -19.1639 -19.1581 -19.1558 -11.2396  -6.7878
    -5.1671  -4.7645  -4.0219  -3.0132  -1.8169   0.8383   1.5710   2.0305
     3.6625   3.9502   4.7843   6.2932

          k =-0.0818 0.5199 0.0000 ( 15115 PWs)   bands (ev):

   -67.5403 -67.5295 -34.5766 -34.5092 -34.2265 -34.0963 -33.9525 -33.8534
   -19.2546 -19.2461 -19.2404 -19.2349 -19.2309 -19.2208 -19.2168 -19.2112
   -19.2008 -19.1950 -19.1725 -19.1683 -19.1511 -19.1497 -11.0653  -6.9716
    -5.0875  -4.7597  -3.7706  -3.2407  -1.6590   1.1851   1.6766   2.2618
     3.9722   4.4376   5.7501   6.2790

          k =-0.4095 0.3308 0.0000 ( 15111 PWs)   bands (ev):

   -67.5400 -67.5295 -34.5776 -34.5101 -34.2248 -34.0975 -33.9530 -33.8537
   -19.2546 -19.2460 -19.2402 -19.2348 -19.2309 -19.2209 -19.2173 -19.2116
   -19.2008 -19.1949 -19.1725 -19.1681 -19.1510 -19.1497 -11.0634  -6.9706
    -5.0860  -4.7664  -3.7761  -3.2480  -1.6574   1.1964   1.6817   2.2727
     3.9728   4.4380   5.7541   6.2778

          k = 0.4915 0.1891 0.0000 ( 15105 PWs)   bands (ev):

   -67.5398 -67.5295 -34.5787 -34.5119 -34.2228 -34.0987 -33.9530 -33.8537
   -19.2548 -19.2457 -19.2403 -19.2345 -19.2309 -19.2208 -19.2175 -19.2120
   -19.2008 -19.1950 -19.1725 -19.1679 -19.1510 -19.1497 -11.0615  -6.9695
    -5.0851  -4.7716  -3.7875  -3.2469  -1.6583   1.2046   1.6872   2.2805
     3.9760   4.4367   5.7579   6.2783

          k =-0.4096-0.3309 0.0000 ( 15111 PWs)   bands (ev):

   -67.5398 -67.5295 -34.5785 -34.5117 -34.2230 -34.0986 -33.9532 -33.8538
   -19.2548 -19.2457 -19.2401 -19.2346 -19.2309 -19.2208 -19.2175 -19.2120
   -19.2007 -19.1950 -19.1725 -19.1679 -19.1510 -19.1497 -11.0618  -6.9691
    -5.0850  -4.7714  -3.7837  -3.2513  -1.6575   1.2054   1.6870   2.2812
     3.9749   4.4378   5.7573   6.2773

          k = 0.4915-0.1890 0.0000 ( 15105 PWs)   bands (ev):

   -67.5400 -67.5295 -34.5780 -34.5105 -34.2246 -34.0975 -33.9527 -33.8536
   -19.2546 -19.2460 -19.2405 -19.2346 -19.2308 -19.2209 -19.2171 -19.2116
   -19.2008 -19.1950 -19.1724 -19.1681 -19.1510 -19.1497 -11.0630  -6.9713
    -5.0862  -4.7667  -3.7837  -3.2392  -1.6589   1.1951   1.6819   2.2715
     3.9749   4.4363   5.7548   6.2784

          k =-0.1638 0.2835 0.0000 ( 15173 PWs)   bands (ev):

   -67.5683 -67.5471 -34.4694 -34.2242 -34.1462 -34.0542 -33.8604 -33.8149
   -19.2476 -19.2450 -19.2395 -19.2357 -19.2260 -19.2214 -19.2197 -19.2110
   -19.2058 -19.2009 -19.1720 -19.1683 -19.1556 -19.1553 -11.6359  -6.4258
    -5.6932  -4.6246  -4.2158  -2.5240  -1.6899   0.0532   0.4404   2.2147
     3.0355   3.2012   4.4785   5.7438

          k = 0.3277 0.0001 0.0000 ( 15169 PWs)   bands (ev):

   -67.5681 -67.5471 -34.4693 -34.2275 -34.1471 -34.0545 -33.8588 -33.8143
   -19.2472 -19.2452 -19.2398 -19.2355 -19.2262 -19.2211 -19.2191 -19.2114
   -19.2063 -19.2007 -19.1720 -19.1684 -19.1556 -19.1553 -11.6338  -6.4247
    -5.6864  -4.6364  -4.2258  -2.5261  -1.6905   0.0709   0.4263   2.2224
     3.0480   3.2070   4.4932   5.7232

          k =-0.1638 0.3781 0.0000 ( 15159 PWs)   bands (ev):

   -67.5526 -67.5365 -34.4639 -34.3501 -34.2278 -34.0809 -33.9445 -33.8849
   -19.2474 -19.2420 -19.2410 -19.2366 -19.2286 -19.2216 -19.2200 -19.2115
   -19.2026 -19.1996 -19.1665 -19.1653 -19.1600 -19.1574 -11.2685  -6.2088
    -5.4688  -4.7969  -4.3782  -2.6505  -1.6815  -0.1892   1.2154   2.1649
     3.6368   4.2052   4.8759   6.3444

          k =-0.2457 0.3308 0.0000 ( 15163 PWs)   bands (ev):

   -67.5525 -67.5365 -34.4641 -34.3504 -34.2277 -34.0810 -33.9449 -33.8849
   -19.2474 -19.2420 -19.2408 -19.2367 -19.2287 -19.2215 -19.2202 -19.2116
   -19.2027 -19.1995 -19.1665 -19.1653 -19.1600 -19.1574 -11.2681  -6.2058
    -5.4713  -4.7975  -4.3799  -2.6556  -1.6816  -0.1831   1.2181   2.1672
     3.6368   4.2038   4.8775   6.3412

          k = 0.4096 0.0473 0.0000 ( 15157 PWs)   bands (ev):

   -67.5523 -67.5365 -34.4655 -34.3536 -34.2273 -34.0810 -33.9436 -33.8843
   -19.2477 -19.2420 -19.2408 -19.2364 -19.2286 -19.2215 -19.2197 -19.2121
   -19.2031 -19.1995 -19.1665 -19.1652 -19.1600 -19.1574 -11.2653  -6.2052
    -5.4685  -4.8076  -4.3910  -2.6503  -1.6874  -0.1734   1.2073   2.1820
     3.6404   4.2189   4.8892   6.3313

          k =-0.2458-0.3309 0.0000 ( 15161 PWs)   bands (ev):

   -67.5524 -67.5365 -34.4648 -34.3520 -34.2276 -34.0809 -33.9443 -33.8846
   -19.2476 -19.2418 -19.2407 -19.2366 -19.2287 -19.2214 -19.2200 -19.2119
   -19.2029 -19.1995 -19.1665 -19.1652 -19.1600 -19.1574 -11.2667  -6.2038
    -5.4711  -4.8024  -4.3858  -2.6554  -1.6841  -0.1759   1.2149   2.1744
     3.6385   4.2098   4.8833   6.3356

          k = 0.4096-0.0472 0.0000 ( 15153 PWs)   bands (ev):

   -67.5523 -67.5365 -34.4654 -34.3532 -34.2276 -34.0809 -33.9432 -33.8845
   -19.2476 -19.2421 -19.2411 -19.2362 -19.2285 -19.2216 -19.2195 -19.2119
   -19.2030 -19.1995 -19.1665 -19.1653 -19.1600 -19.1574 -11.2657  -6.2083
    -5.4661  -4.8070  -4.3899  -2.6457  -1.6871  -0.1786   1.2049   2.1799
     3.6404   4.2198   4.8880   6.3334

          k =-0.1638 0.4726 0.0000 ( 15123 PWs)   bands (ev):

   -67.5403 -67.5295 -34.5087 -34.4409 -34.2259 -34.1165 -34.0024 -33.9337
   -19.2498 -19.2431 -19.2397 -19.2338 -19.2309 -19.2221 -19.2198 -19.2109
   -19.2017 -19.1981 -19.1741 -19.1717 -19.1513 -19.1498 -11.0247  -6.4507
    -4.9309  -4.8629  -4.3982  -3.0304  -1.4521   0.0256   1.9841   2.3076
     3.8295   4.5252   5.4248   6.3581

          k =-0.3276 0.3780 0.0000 ( 15123 PWs)   bands (ev):

   -67.5401 -67.5295 -34.5094 -34.4415 -34.2251 -34.1166 -34.0031 -33.9336
   -19.2499 -19.2428 -19.2394 -19.2337 -19.2311 -19.2220 -19.2201 -19.2112
   -19.2018 -19.1980 -19.1741 -19.1715 -19.1513 -19.1498 -11.0235  -6.4493
    -4.9344  -4.8640  -4.3999  -3.0364  -1.4522   0.0337   1.9895   2.3130
     3.8307   4.5227   5.4254   6.3629

          k = 0.4915 0.0946 0.0000 ( 15115 PWs)   bands (ev):

   -67.5399 -67.5295 -34.5113 -34.4440 -34.2235 -34.1166 -34.0028 -33.9333
   -19.2504 -19.2424 -19.2397 -19.2331 -19.2310 -19.2218 -19.2201 -19.2115
   -19.2019 -19.1981 -19.1741 -19.1714 -19.1513 -19.1498 -11.0210  -6.4499
    -4.9312  -4.8717  -4.4110  -3.0321  -1.4558   0.0389   1.9853   2.3261
     3.8255   4.5417   5.4244   6.3679

          k =-0.3277-0.3781 0.0000 ( 15117 PWs)   bands (ev):

   -67.5399 -67.5295 -34.5105 -34.4431 -34.2240 -34.1165 -34.0032 -33.9334
   -19.2503 -19.2424 -19.2394 -19.2334 -19.2312 -19.2219 -19.2202 -19.2115
   -19.2018 -19.1980 -19.1741 -19.1714 -19.1513 -19.1498 -11.0220  -6.4485
    -4.9344  -4.8681  -4.4056  -3.0374  -1.4539   0.0399   1.9906   2.3210
     3.8289   4.5304   5.4247   6.3677

          k = 0.4915-0.0944 0.0000 ( 15119 PWs)   bands (ev):

   -67.5400 -67.5295 -34.5109 -34.4430 -34.2245 -34.1163 -34.0021 -33.9335
   -19.2501 -19.2428 -19.2400 -19.2332 -19.2308 -19.2220 -19.2198 -19.2113
   -19.2019 -19.1982 -19.1741 -19.1715 -19.1513 -19.1498 -11.0219  -6.4519
    -4.9281  -4.8708  -4.4103  -3.0261  -1.4552   0.0321   1.9802   2.3216
     3.8249   4.5438   5.4239   6.3626

          k =-0.4095 0.4253 0.0000 ( 15080 PWs)   bands (ev):

   -67.5351 -67.5274 -34.5377 -34.4716 -34.2063 -34.1435 -34.0188 -33.9519
   -19.2511 -19.2430 -19.2387 -19.2358 -19.2288 -19.2227 -19.2193 -19.2110
   -19.2019 -19.1973 -19.1769 -19.1737 -19.1480 -19.1470 -10.9391  -6.5622
    -4.8979  -4.7316  -4.3110  -3.2793  -1.3143   0.2356   2.2238   2.4723
     4.0556   4.4528   5.5818   6.1236

          k = 0.5734 0.1419 0.0000 ( 15078 PWs)   bands (ev):

   -67.5349 -67.5274 -34.5385 -34.4731 -34.2045 -34.1441 -34.0195 -33.9516
   -19.2515 -19.2425 -19.2386 -19.2356 -19.2288 -19.2226 -19.2196 -19.2114
   -19.2019 -19.1973 -19.1769 -19.1735 -19.1479 -19.1471 -10.9378  -6.5615
    -4.8990  -4.7354  -4.3128  -3.2832  -1.3153   0.2418   2.2287   2.4799
     4.0537   4.4564   5.5799   6.1276

          k =-0.2457 0.4253 0.0000 ( 15090 PWs)   bands (ev):

   -67.5402 -67.5295 -34.4701 -34.3850 -34.2487 -34.1148 -34.0339 -33.9827
   -19.2468 -19.2408 -19.2371 -19.2365 -19.2311 -19.2228 -19.2211 -19.2107
   -19.2013 -19.2006 -19.1746 -19.1737 -19.1515 -19.1498 -11.0038  -5.7659
    -5.6047  -4.7436  -4.5285  -2.8606  -1.2569  -0.5995   1.9044   2.4478
     3.6730   4.5592   5.2458   6.6369

          k = 0.4915 0.0001 0.0000 ( 15090 PWs)   bands (ev):

   -67.5399 -67.5295 -34.4726 -34.3889 -34.2465 -34.1141 -34.0323 -33.9829
   -19.2474 -19.2412 -19.2366 -19.2361 -19.2309 -19.2223 -19.2212 -19.2111
   -19.2012 -19.2010 -19.1745 -19.1736 -19.1514 -19.1498 -11.0009  -5.7712
    -5.6037  -4.7478  -4.5377  -2.8545  -1.2639  -0.5924   1.8957   2.4632
     3.6663   4.5880   5.2481   6.6451

          k =-0.2457 0.5198 0.0000 ( 15101 PWs)   bands (ev):

   -67.5321 -67.5264 -34.4617 -34.3970 -34.2506 -34.1830 -34.0663 -34.0394
   -19.2480 -19.2382 -19.2370 -19.2348 -19.2296 -19.2249 -19.2223 -19.2089
   -19.2031 -19.2009 -19.1796 -19.1784 -19.1463 -19.1456 -10.8557  -5.9384
    -5.1442  -4.7275  -4.6183  -3.1536  -0.9451  -0.4713   2.5628   2.7639
     3.5074   4.1623   5.1636   6.3211

          k =-0.3276 0.4726 0.0000 ( 15095 PWs)   bands (ev):

   -67.5320 -67.5264 -34.4625 -34.3974 -34.2504 -34.1821 -34.0670 -34.0392
   -19.2482 -19.2381 -19.2366 -19.2348 -19.2299 -19.2248 -19.2224 -19.2091
   -19.2032 -19.2007 -19.1796 -19.1783 -19.1463 -19.1456 -10.8549  -5.9384
    -5.1464  -4.7300  -4.6167  -3.1556  -0.9469  -0.4669   2.5677   2.7664
     3.5067   4.1625   5.1629   6.3215

          k = 0.5734 0.0474 0.0000 ( 15095 PWs)   bands (ev):

   -67.5318 -67.5265 -34.4644 -34.3999 -34.2488 -34.1805 -34.0660 -34.0402
   -19.2486 -19.2384 -19.2361 -19.2345 -19.2296 -19.2246 -19.2228 -19.2093
   -19.2031 -19.2009 -19.1796 -19.1782 -19.1463 -19.1456 -10.8532  -5.9409
    -5.1482  -4.7330  -4.6189  -3.1543  -0.9499  -0.4634   2.5646   2.7789
     3.4974   4.1793   5.1623   6.3256

          k =-0.3277-0.4727 0.0000 ( 15099 PWs)   bands (ev):

   -67.5318 -67.5265 -34.4636 -34.3990 -34.2498 -34.1807 -34.0666 -34.0397
   -19.2485 -19.2381 -19.2362 -19.2346 -19.2299 -19.2247 -19.2226 -19.2093
   -19.2032 -19.2008 -19.1797 -19.1782 -19.1463 -19.1456 -10.8539  -5.9392
    -5.1483  -4.7325  -4.6168  -3.1563  -0.9490  -0.4632   2.5687   2.7729
     3.5025   4.1701   5.1617   6.3241

          k = 0.5734-0.0472 0.0000 ( 15095 PWs)   bands (ev):

   -67.5318 -67.5265 -34.4640 -34.3990 -34.2493 -34.1812 -34.0651 -34.0406
   -19.2484 -19.2385 -19.2365 -19.2345 -19.2293 -19.2247 -19.2227 -19.2092
   -19.2031 -19.2009 -19.1796 -19.1783 -19.1463 -19.1456 -10.8537  -5.9414
    -5.1462  -4.7306  -4.6209  -3.1521  -0.9483  -0.4672   2.5606   2.7765
     3.4979   4.1796   5.1630   6.3240

     the Fermi energy is     0.8299 ev

!    total energy              =   -1375.69711057 Ry
     estimated scf accuracy    <          7.4E-15 Ry
     smearing contrib. (-TS)   =      -0.00000378 Ry
     internal energy E=F+TS    =   -1375.69710679 Ry

     The total energy is F=E-TS. E is the sum of the following terms:
     one-electron contribution =  -11616.51536111 Ry
     hartree contribution      =    5838.39817889 Ry
     xc contribution           =    -140.31142963 Ry
     ewald contribution        =    4542.73150507 Ry

     convergence has been achieved in  21 iterations

     negative rho (up, down):  6.646E-05 0.000E+00

     Forces acting on atoms (cartesian axes, Ry/au):

     atom    1 type  2   force =    -0.00045460    0.00025786   -0.00000133
     atom    2 type  1   force =     0.00004005    0.00027677   -0.00027142
     atom    3 type  1   force =     0.00009773   -0.00035237    0.00027190
     atom    4 type  3   force =     0.00026844   -0.00055675   -0.00005519
     atom    5 type  3   force =     0.00004838    0.00037449    0.00005603

     Total force =     0.000944     Total SCF correction =     0.000001


     Computing stress (Cartesian axis) and pressure


     negative rho (up, down):  6.646E-05 0.000E+00
          total   stress  (Ry/bohr**3)                   (kbar)     P=       -0.36
  -0.00000322   0.00000012   0.00000076           -0.47        0.02        0.11
   0.00000012  -0.00000042  -0.00000381            0.02       -0.06       -0.56
   0.00000076  -0.00000381  -0.00000370            0.11       -0.56       -0.54


     Writing output data file /scratch/as3359/Ta2CH2-VCrelax/Ta.save/
 
     init_run     :     70.41s CPU     44.20s WALL (       2 calls)
     electrons    :  14740.80s CPU   7655.92s WALL (      13 calls)
     update_pot   :    308.67s CPU    192.47s WALL (      11 calls)
     forces       :    246.40s CPU    126.72s WALL (      13 calls)
     stress       :    659.05s CPU    340.38s WALL (      13 calls)

     Called by init_run:
     wfcinit      :     22.28s CPU     11.46s WALL (       2 calls)
     potinit      :     15.16s CPU      7.63s WALL (       2 calls)
     hinit0       :     28.41s CPU     22.23s WALL (       2 calls)

     Called by electrons:
     c_bands      :  11161.55s CPU   5662.43s WALL (     375 calls)
     sum_band     :   2598.21s CPU   1405.94s WALL (     375 calls)
     v_of_rho     :    147.75s CPU     76.78s WALL (     388 calls)
     newd         :    819.74s CPU    506.40s WALL (     388 calls)
     mix_rho      :     28.02s CPU     14.39s WALL (     375 calls)

     Called by c_bands:
     init_us_2    :    249.38s CPU    124.92s WALL (   57572 calls)
     cegterg      :  10277.52s CPU   5217.31s WALL (   27861 calls)

     Called by *egterg:
     cdiaghg      :    342.52s CPU    175.13s WALL (  147485 calls)
     h_psi        :   7808.47s CPU   3974.83s WALL (  148553 calls)
     s_psi        :    364.36s CPU    182.68s WALL (  148553 calls)
     g_psi        :     55.57s CPU     27.95s WALL (  120544 calls)

     Called by h_psi:
     h_psi:calbec :    368.23s CPU    185.16s WALL (  148553 calls)
     vloc_psi     :   6918.72s CPU   3527.57s WALL (  148553 calls)
     add_vuspsi   :    445.59s CPU    223.42s WALL (  148553 calls)

     General routines
     calbec       :    483.19s CPU    243.02s WALL (  181113 calls)
     fft          :     89.08s CPU     45.49s WALL (    5354 calls)
     ffts         :      2.91s CPU      1.49s WALL (     763 calls)
     fftw         :   6967.42s CPU   3556.52s WALL ( 6470022 calls)
     interpolate  :      9.41s CPU      4.82s WALL (     388 calls)
 
     Parallel routines
 
     PWSCF        :      4h27m CPU      2h19m WALL

 
   This run was terminated on:  22:49:33  24Mar2022            

=------------------------------------------------------------------------------=
   JOB DONE.
=------------------------------------------------------------------------------=
