
     Program PWSCF v.6.8 starts on 14Apr2022 at 11:20:29 

     This program is part of the open-source Quantum ESPRESSO suite
     for quantum simulation of materials; please cite
         "P. Giannozzi et al., J. Phys.:Condens. Matter 21 395502 (2009);
         "P. Giannozzi et al., J. Phys.:Condens. Matter 29 465901 (2017);
         "P. Giannozzi et al., J. Chem. Phys. 152 154105 (2020);
          URL http://www.quantum-espresso.org", 
     in publications or presentations arising from this work. More details at
     http://www.quantum-espresso.org/quote

     Parallel version (MPI & OpenMP), running on       4 processor cores
     Number of MPI processes:                 2
     Threads/MPI process:                     2

     MPI processes distributed on     1 nodes
     R & G space division:  proc/nbgrp/npool/nimage =       2
     122119 MiB available memory on the printing compute node when the environment starts
 
     Reading input from Ta2C.nscf.in

     Current dimensions of program PWSCF are:
     Max number of different atomic species (ntypx) = 10
     Max number of k-points (npk) =  40000
     Max angular momentum in pseudopotentials (lmaxx) =  4

     Atomic positions and unit cell read from directory:
     /scratch/as3359/Ta2C_dos/Ta.save/
 
     file Ta.pbesol-spfn-rrkjus_psl.1.0.0.UPF: wavefunction(s)  5S 5P renormalized
     Message from routine set_cutoff:
     ecutrho < 4*ecutwfc, are you sure?

     Subspace diagonalization in iterative solution of the eigenvalue problem:
     a serial algorithm will be used

 
     Parallelization info
     --------------------
     sticks:   dense  smooth     PW     G-vecs:    dense   smooth      PW
     Min         519     519    204               129359   129359   31524
     Max         520     520    205               129370   129370   31531
     Sum        1039    1039    409               258729   258729   63055
 
     Using Slab Decomposition
 


     bravais-lattice index     =            0
     lattice parameter (alat)  =       5.5500  a.u.
     unit-cell volume          =    1602.9280 (a.u.)^3
     number of atoms/cell      =            3
     number of atomic types    =            2
     number of electrons       =        58.00
     number of Kohn-Sham states=           35
     kinetic-energy cutoff     =     150.0000  Ry
     charge density cutoff     =     450.0000  Ry
     Exchange-correlation= PBESOL
                           (   1   4  10   8   0   0   0)

     celldm(1)=   5.550000  celldm(2)=   0.000000  celldm(3)=   0.000000
     celldm(4)=   0.000000  celldm(5)=   0.000000  celldm(6)=   0.000000

     crystal axes: (cart. coord. in units of alat)
               a(1) = (   1.040524   0.000000   0.000000 )  
               a(2) = (  -0.520262   0.901120   0.000000 )  
               a(3) = (   0.000000   0.000000  10.000000 )  

     reciprocal axes: (cart. coord. in units 2 pi/alat)
               b(1) = (  0.961054  0.554865  0.000000 )  
               b(2) = (  0.000000  1.109730  0.000000 )  
               b(3) = (  0.000000  0.000000  0.100000 )  


     PseudoPot. # 1 for Ta read from file:
     /shared/home/as3359/pseudo/Ta.pbesol-spfn-rrkjus_psl.1.0.0.UPF
     MD5 check sum: f099565ffaca9b150a52e9412a28e20b
     Pseudo is Ultrasoft + core correction, Zval = 27.0
     Generated using &quot;atomic&quot; code by A. Dal Corso  v.6.3
     Using radial grid of 1273 points,  8 beta functions with: 
                l(1) =   0
                l(2) =   0
                l(3) =   1
                l(4) =   1
                l(5) =   2
                l(6) =   2
                l(7) =   3
                l(8) =   3
     Q(r) pseudized with 0 coefficients 


     PseudoPot. # 2 for C  read from file:
     /shared/home/as3359/pseudo/C.pbesol-n-rrkjus_psl.1.0.0.UPF
     MD5 check sum: 05995be603a8a7c99da3dc4413f31573
     Pseudo is Ultrasoft + core correction, Zval =  4.0
     Generated using &quot;atomic&quot; code by A. Dal Corso  v.6.3MaX
     Using radial grid of 1073 points,  4 beta functions with: 
                l(1) =   0
                l(2) =   0
                l(3) =   1
                l(4) =   1
     Q(r) pseudized with 0 coefficients 


     atomic species   valence    mass     pseudopotential
        Ta            27.00   180.94788     Ta( 1.00)
        C              4.00    12.01070     C ( 1.00)

     No symmetry found



   Cartesian axes

     site n.     atom                  positions (alat units)
         1           C   tau(   1) = (   0.0000000   0.0000000   0.0000000  )
         2           Ta  tau(   2) = (   0.5202621   0.3003735  -0.4102757  )
         3           Ta  tau(   3) = (   0.0000000   0.6007470   0.4102757  )

     number of k points=   113 (tetrahedron method)

     Number of k-points >= 100: set verbosity='high' to print them.

     Dense  grid:   258729 G-vectors     FFT dimensions: (  40,  40, 375)

     Estimated max dynamical RAM per process >       1.16 GB

     Estimated total dynamical RAM >       2.33 GB

     The potential is recalculated from file :
     /scratch/as3359/Ta2C_dos/Ta.save/charge-density


     negative rho (up, down):  1.784E-04 0.000E+00
     Starting wfcs are   38 randomized atomic wfcs

     Band Structure Calculation
     Davidson diagonalization with overlap
     c_bands:  1 eigenvalues not converged
     c_bands:  1 eigenvalues not converged
     c_bands:  1 eigenvalues not converged

     ethr =  1.00E-13,  avg # of iterations = 61.4

     total cpu time spent up to now is      596.1 secs

     End of band structure calculation

     Number of k-points >= 100: set verbosity='high' to print the bands.

     the Fermi energy is    -0.2074 ev
     (compare with:    -0.2074 eV, computed in scf)

     Writing output data file /scratch/as3359/Ta2C_dos/Ta.save/
 
     init_run     :      5.66s CPU      3.93s WALL (       1 calls)
     electrons    :   1168.28s CPU    591.79s WALL (       1 calls)

     Called by init_run:
     wfcinit      :      0.00s CPU      0.00s WALL (       1 calls)
     potinit      :      0.23s CPU      0.14s WALL (       1 calls)
     hinit0       :      3.84s CPU      2.74s WALL (       1 calls)

     Called by electrons:
     c_bands      :   1168.21s CPU    591.75s WALL (       1 calls)
     v_of_rho     :      0.19s CPU      0.10s WALL (       1 calls)
     newd         :      1.24s CPU      0.70s WALL (       1 calls)

     Called by c_bands:
     init_us_2    :      1.14s CPU      0.57s WALL (     113 calls)
     cegterg      :   1118.36s CPU    565.76s WALL (     393 calls)

     Called by *egterg:
     cdiaghg      :     17.74s CPU      9.07s WALL (    7046 calls)
     h_psi        :    812.74s CPU    412.15s WALL (    7439 calls)
     s_psi        :     46.67s CPU     23.37s WALL (    7439 calls)
     g_psi        :     10.02s CPU      5.02s WALL (    6933 calls)

     Called by h_psi:
     h_psi:calbec :     38.31s CPU     19.19s WALL (    7439 calls)
     vloc_psi     :    718.05s CPU    364.38s WALL (    7439 calls)
     add_vuspsi   :     48.80s CPU     24.44s WALL (    7439 calls)

     General routines
     calbec       :     38.25s CPU     19.17s WALL (    7439 calls)
     fft          :      0.77s CPU      0.53s WALL (      12 calls)
     fftw         :    641.87s CPU    326.01s WALL (  240130 calls)
     davcio       :      0.98s CPU      1.01s WALL (     226 calls)
 
     Parallel routines
 
     PWSCF        :  19m42.41s CPU  10m 3.60s WALL

 
   This run was terminated on:  11:30:33  14Apr2022            

=------------------------------------------------------------------------------=
   JOB DONE.
=------------------------------------------------------------------------------=
