
     Program PWSCF v.6.8 starts on 14Apr2022 at 11: 0: 9 

     This program is part of the open-source Quantum ESPRESSO suite
     for quantum simulation of materials; please cite
         "P. Giannozzi et al., J. Phys.:Condens. Matter 21 395502 (2009);
         "P. Giannozzi et al., J. Phys.:Condens. Matter 29 465901 (2017);
         "P. Giannozzi et al., J. Chem. Phys. 152 154105 (2020);
          URL http://www.quantum-espresso.org", 
     in publications or presentations arising from this work. More details at
     http://www.quantum-espresso.org/quote

     Parallel version (MPI & OpenMP), running on       4 processor cores
     Number of MPI processes:                 2
     Threads/MPI process:                     2

     MPI processes distributed on     1 nodes
     R & G space division:  proc/nbgrp/npool/nimage =       2
     125265 MiB available memory on the printing compute node when the environment starts
 
     Reading input from Ta2C.scf.in

     Current dimensions of program PWSCF are:
     Max number of different atomic species (ntypx) = 10
     Max number of k-points (npk) =  40000
     Max angular momentum in pseudopotentials (lmaxx) =  4
     Message from routine iosys:
     BEWARE:  force calculation with tetrahedra (not recommanded)
     Message from routine iosys:
     BEWARE: stress calculation with tetrahedra (not recommanded)
     file Ta.pbesol-spfn-rrkjus_psl.1.0.0.UPF: wavefunction(s)  5S 5P renormalized
     Message from routine set_cutoff:
     ecutrho < 4*ecutwfc, are you sure?

     Subspace diagonalization in iterative solution of the eigenvalue problem:
     a serial algorithm will be used

 
     Parallelization info
     --------------------
     sticks:   dense  smooth     PW     G-vecs:    dense   smooth      PW
     Min         519     519    204               129359   129359   31524
     Max         520     520    205               129370   129370   31531
     Sum        1039    1039    409               258729   258729   63055
 
     Using Slab Decomposition
 


     bravais-lattice index     =            0
     lattice parameter (alat)  =       5.5500  a.u.
     unit-cell volume          =    1602.9280 (a.u.)^3
     number of atoms/cell      =            3
     number of atomic types    =            2
     number of electrons       =        58.00
     number of Kohn-Sham states=           35
     kinetic-energy cutoff     =     150.0000  Ry
     charge density cutoff     =     450.0000  Ry
     scf convergence threshold =      1.0E-12
     mixing beta               =       0.7000
     number of iterations used =            8  plain     mixing
     Exchange-correlation= PBESOL
                           (   1   4  10   8   0   0   0)

     celldm(1)=   5.550000  celldm(2)=   0.000000  celldm(3)=   0.000000
     celldm(4)=   0.000000  celldm(5)=   0.000000  celldm(6)=   0.000000

     crystal axes: (cart. coord. in units of alat)
               a(1) = (   1.040524   0.000000   0.000000 )  
               a(2) = (  -0.520262   0.901120   0.000000 )  
               a(3) = (   0.000000   0.000000  10.000000 )  

     reciprocal axes: (cart. coord. in units 2 pi/alat)
               b(1) = (  0.961054  0.554865  0.000000 )  
               b(2) = (  0.000000  1.109730  0.000000 )  
               b(3) = (  0.000000  0.000000  0.100000 )  


     PseudoPot. # 1 for Ta read from file:
     /shared/home/as3359/pseudo/Ta.pbesol-spfn-rrkjus_psl.1.0.0.UPF
     MD5 check sum: f099565ffaca9b150a52e9412a28e20b
     Pseudo is Ultrasoft + core correction, Zval = 27.0
     Generated using &quot;atomic&quot; code by A. Dal Corso  v.6.3
     Using radial grid of 1273 points,  8 beta functions with: 
                l(1) =   0
                l(2) =   0
                l(3) =   1
                l(4) =   1
                l(5) =   2
                l(6) =   2
                l(7) =   3
                l(8) =   3
     Q(r) pseudized with 0 coefficients 


     PseudoPot. # 2 for C  read from file:
     /shared/home/as3359/pseudo/C.pbesol-n-rrkjus_psl.1.0.0.UPF
     MD5 check sum: 05995be603a8a7c99da3dc4413f31573
     Pseudo is Ultrasoft + core correction, Zval =  4.0
     Generated using &quot;atomic&quot; code by A. Dal Corso  v.6.3MaX
     Using radial grid of 1073 points,  4 beta functions with: 
                l(1) =   0
                l(2) =   0
                l(3) =   1
                l(4) =   1
     Q(r) pseudized with 0 coefficients 


     atomic species   valence    mass     pseudopotential
        Ta            27.00   180.94788     Ta( 1.00)
        C              4.00    12.01070     C ( 1.00)

     No symmetry found



   Cartesian axes

     site n.     atom                  positions (alat units)
         1           C   tau(   1) = (   0.0000000   0.0000000   0.0000000  )
         2           Ta  tau(   2) = (   0.5202621   0.3003735  -0.4102757  )
         3           Ta  tau(   3) = (   0.0000000   0.6007470   0.4102757  )

     number of k points=   113 (tetrahedron method)

     Number of k-points >= 100: set verbosity='high' to print them.

     Dense  grid:   258729 G-vectors     FFT dimensions: (  40,  40, 375)

     Estimated max dynamical RAM per process >       2.71 GB

     Estimated total dynamical RAM >       5.42 GB

     Initial potential from superposition of free atoms

     starting charge   57.99842, renormalised to   58.00000

     negative rho (up, down):  4.386E-04 0.000E+00
     Starting wfcs are   38 randomized atomic wfcs

     total cpu time spent up to now is       26.0 secs

     Self-consistent Calculation

     iteration #  1     ecut=   150.00 Ry     beta= 0.70
     Davidson diagonalization with overlap
     ethr =  1.00E-02,  avg # of iterations =  2.2

     negative rho (up, down):  1.210E-04 0.000E+00

     total cpu time spent up to now is       76.5 secs

     total energy              =   -1372.46584830 Ry
     estimated scf accuracy    <       1.28447435 Ry

     iteration #  2     ecut=   150.00 Ry     beta= 0.70
     Davidson diagonalization with overlap
     ethr =  2.21E-03,  avg # of iterations = 11.7

     total cpu time spent up to now is      157.4 secs

     total energy              =   -1370.74973268 Ry
     estimated scf accuracy    <      16.09749163 Ry

     iteration #  3     ecut=   150.00 Ry     beta= 0.70
     Davidson diagonalization with overlap
     ethr =  2.21E-03,  avg # of iterations =  8.7

     total cpu time spent up to now is      231.0 secs

     total energy              =   -1373.22082592 Ry
     estimated scf accuracy    <       0.34038955 Ry

     iteration #  4     ecut=   150.00 Ry     beta= 0.70
     Davidson diagonalization with overlap
     ethr =  5.87E-04,  avg # of iterations =  3.3

     total cpu time spent up to now is      283.8 secs

     total energy              =   -1373.25843815 Ry
     estimated scf accuracy    <       0.08584287 Ry

     iteration #  5     ecut=   150.00 Ry     beta= 0.70
     Davidson diagonalization with overlap
     ethr =  1.48E-04,  avg # of iterations =  5.5

     total cpu time spent up to now is      339.8 secs

     total energy              =   -1373.22979195 Ry
     estimated scf accuracy    <       1.22554144 Ry

     iteration #  6     ecut=   150.00 Ry     beta= 0.70
     Davidson diagonalization with overlap
     ethr =  1.48E-04,  avg # of iterations =  3.0

     total cpu time spent up to now is      389.1 secs

     total energy              =   -1373.26339345 Ry
     estimated scf accuracy    <       0.03670049 Ry

     iteration #  7     ecut=   150.00 Ry     beta= 0.70
     Davidson diagonalization with overlap
     ethr =  6.33E-05,  avg # of iterations =  2.8

     total cpu time spent up to now is      436.1 secs

     total energy              =   -1373.25698120 Ry
     estimated scf accuracy    <       0.01878516 Ry

     iteration #  8     ecut=   150.00 Ry     beta= 0.70
     Davidson diagonalization with overlap
     ethr =  3.24E-05,  avg # of iterations =  2.2

     total cpu time spent up to now is      484.7 secs

     total energy              =   -1373.25704638 Ry
     estimated scf accuracy    <       0.00416658 Ry

     iteration #  9     ecut=   150.00 Ry     beta= 0.70
     Davidson diagonalization with overlap
     ethr =  7.18E-06,  avg # of iterations =  3.3

     negative rho (up, down):  3.266E-05 0.000E+00

     total cpu time spent up to now is      533.8 secs

     total energy              =   -1373.25623481 Ry
     estimated scf accuracy    <       0.00174553 Ry

     iteration # 10     ecut=   150.00 Ry     beta= 0.70
     Davidson diagonalization with overlap
     ethr =  3.01E-06,  avg # of iterations =  4.1

     negative rho (up, down):  2.218E-03 0.000E+00

     total cpu time spent up to now is      586.7 secs

     total energy              =   -1373.25648939 Ry
     estimated scf accuracy    <       0.00015439 Ry

     iteration # 11     ecut=   150.00 Ry     beta= 0.70
     Davidson diagonalization with overlap
     ethr =  2.66E-07,  avg # of iterations =  2.9

     negative rho (up, down):  1.372E-04 0.000E+00

     total cpu time spent up to now is      636.0 secs

     total energy              =   -1373.25646044 Ry
     estimated scf accuracy    <       0.00010729 Ry

     iteration # 12     ecut=   150.00 Ry     beta= 0.70
     Davidson diagonalization with overlap
     ethr =  1.85E-07,  avg # of iterations =  2.0

     negative rho (up, down):  1.316E-04 0.000E+00

     total cpu time spent up to now is      683.0 secs

     total energy              =   -1373.25646317 Ry
     estimated scf accuracy    <       0.00003325 Ry

     iteration # 13     ecut=   150.00 Ry     beta= 0.70
     Davidson diagonalization with overlap
     ethr =  5.73E-08,  avg # of iterations =  1.3

     negative rho (up, down):  1.716E-04 0.000E+00

     total cpu time spent up to now is      727.6 secs

     total energy              =   -1373.25646473 Ry
     estimated scf accuracy    <       0.00002266 Ry

     iteration # 14     ecut=   150.00 Ry     beta= 0.70
     Davidson diagonalization with overlap
     ethr =  3.91E-08,  avg # of iterations =  1.0

     negative rho (up, down):  1.780E-04 0.000E+00

     total cpu time spent up to now is      771.2 secs

     total energy              =   -1373.25646552 Ry
     estimated scf accuracy    <       0.00000443 Ry

     iteration # 15     ecut=   150.00 Ry     beta= 0.70
     Davidson diagonalization with overlap
     ethr =  7.65E-09,  avg # of iterations =  1.0

     negative rho (up, down):  1.783E-04 0.000E+00

     total cpu time spent up to now is      815.3 secs

     total energy              =   -1373.25646544 Ry
     estimated scf accuracy    <       0.00000006 Ry

     iteration # 16     ecut=   150.00 Ry     beta= 0.70
     Davidson diagonalization with overlap
     ethr =  1.12E-10,  avg # of iterations =  3.4

     negative rho (up, down):  1.787E-04 0.000E+00

     total cpu time spent up to now is      872.6 secs

     total energy              =   -1373.25646542 Ry
     estimated scf accuracy    <       0.00000008 Ry

     iteration # 17     ecut=   150.00 Ry     beta= 0.70
     Davidson diagonalization with overlap
     ethr =  1.12E-10,  avg # of iterations =  1.9

     negative rho (up, down):  1.785E-04 0.000E+00

     total cpu time spent up to now is      919.3 secs

     total energy              =   -1373.25646545 Ry
     estimated scf accuracy    <       0.00000007 Ry

     iteration # 18     ecut=   150.00 Ry     beta= 0.70
     Davidson diagonalization with overlap
     ethr =  1.12E-10,  avg # of iterations =  1.0

     negative rho (up, down):  1.785E-04 0.000E+00

     total cpu time spent up to now is      962.9 secs

     total energy              =   -1373.25646545 Ry
     estimated scf accuracy    <          1.5E-09 Ry

     iteration # 19     ecut=   150.00 Ry     beta= 0.70
     Davidson diagonalization with overlap
     ethr =  2.62E-12,  avg # of iterations =  3.1

     negative rho (up, down):  1.785E-04 0.000E+00

     total cpu time spent up to now is     1020.4 secs

     total energy              =   -1373.25646545 Ry
     estimated scf accuracy    <          5.9E-11 Ry

     iteration # 20     ecut=   150.00 Ry     beta= 0.70
     Davidson diagonalization with overlap
     ethr =  1.02E-13,  avg # of iterations =  3.2

     negative rho (up, down):  1.785E-04 0.000E+00

     total cpu time spent up to now is     1078.8 secs

     total energy              =   -1373.25646546 Ry
     estimated scf accuracy    <          2.4E-10 Ry

     iteration # 21     ecut=   150.00 Ry     beta= 0.70
     Davidson diagonalization with overlap
     ethr =  1.02E-13,  avg # of iterations =  2.0

     negative rho (up, down):  1.784E-04 0.000E+00

     total cpu time spent up to now is     1126.8 secs

     total energy              =   -1373.25646545 Ry
     estimated scf accuracy    <          7.4E-12 Ry

     iteration # 22     ecut=   150.00 Ry     beta= 0.70
     Davidson diagonalization with overlap
     ethr =  1.00E-13,  avg # of iterations =  1.0

     negative rho (up, down):  1.784E-04 0.000E+00

     total cpu time spent up to now is     1170.4 secs

     End of self-consistent calculation

     Number of k-points >= 100: set verbosity='high' to print the bands.

     the Fermi energy is    -0.2074 ev

!    total energy              =   -1373.25646545 Ry
     estimated scf accuracy    <          6.4E-13 Ry

     The total energy is the sum of the following terms:
     one-electron contribution =  -10823.30395483 Ry
     hartree contribution      =    5439.82153770 Ry
     xc contribution           =    -138.76462382 Ry
     ewald contribution        =    4148.99057550 Ry

     convergence has been achieved in  22 iterations

     negative rho (up, down):  1.784E-04 0.000E+00

     Forces acting on atoms (cartesian axes, Ry/au):

     atom    1 type  2   force =    -0.00000006    0.00000008   -0.00000206
     atom    2 type  1   force =     0.00000681   -0.00000443   -0.00035189
     atom    3 type  1   force =    -0.00000675    0.00000435    0.00035396

     Total force =     0.000499     Total SCF correction =     0.000010


     Computing stress (Cartesian axis) and pressure


     negative rho (up, down):  1.784E-04 0.000E+00
          total   stress  (Ry/bohr**3)                   (kbar)     P=        0.50
   0.00000503  -0.00000013  -0.00000002            0.74       -0.02       -0.00
  -0.00000013   0.00000486   0.00000001           -0.02        0.71        0.00
  -0.00000002   0.00000001   0.00000031           -0.00        0.00        0.04


     Writing output data file /scratch/as3359/Ta2C_dos/Ta.save/
 
     init_run     :     47.44s CPU     25.59s WALL (       1 calls)
     electrons    :   2257.13s CPU   1144.67s WALL (       1 calls)
     forces       :     13.72s CPU      6.99s WALL (       1 calls)
     stress       :     67.94s CPU     34.44s WALL (       1 calls)

     Called by init_run:
     wfcinit      :     41.10s CPU     21.28s WALL (       1 calls)
     potinit      :      1.34s CPU      0.68s WALL (       1 calls)
     hinit0       :      3.87s CPU      2.79s WALL (       1 calls)

     Called by electrons:
     c_bands      :   1880.34s CPU    949.55s WALL (      22 calls)
     sum_band     :    354.65s CPU    181.88s WALL (      22 calls)
     v_of_rho     :      3.38s CPU      1.87s WALL (      23 calls)
     newd         :     18.06s CPU     10.85s WALL (      23 calls)
     mix_rho      :      1.24s CPU      0.74s WALL (      22 calls)

     Called by c_bands:
     init_us_2    :     53.34s CPU     26.70s WALL (    5311 calls)
     cegterg      :   1690.10s CPU    853.95s WALL (    2486 calls)

     Called by *egterg:
     cdiaghg      :     21.24s CPU     10.88s WALL (   10470 calls)
     h_psi        :   1308.19s CPU    662.71s WALL (   10583 calls)
     s_psi        :     76.11s CPU     38.08s WALL (   10583 calls)
     g_psi        :     11.27s CPU      5.65s WALL (    7984 calls)

     Called by h_psi:
     h_psi:calbec :     61.00s CPU     30.55s WALL (   10583 calls)
     vloc_psi     :   1155.37s CPU    586.03s WALL (   10583 calls)
     add_vuspsi   :     78.60s CPU     39.35s WALL (   10583 calls)

     General routines
     calbec       :     87.40s CPU     43.78s WALL (   13634 calls)
     fft          :      1.93s CPU      1.15s WALL (     278 calls)
     ffts         :      0.09s CPU      0.05s WALL (      22 calls)
     fftw         :   1258.12s CPU    638.77s WALL (  498550 calls)
 
     Parallel routines
 
     PWSCF        :  39m54.21s CPU  20m19.08s WALL

 
   This run was terminated on:  11:20:28  14Apr2022            

=------------------------------------------------------------------------------=
   JOB DONE.
=------------------------------------------------------------------------------=
