
     Program PWSCF v.6.8 starts on  8Apr2022 at 10: 8:27 

     This program is part of the open-source Quantum ESPRESSO suite
     for quantum simulation of materials; please cite
         "P. Giannozzi et al., J. Phys.:Condens. Matter 21 395502 (2009);
         "P. Giannozzi et al., J. Phys.:Condens. Matter 29 465901 (2017);
         "P. Giannozzi et al., J. Chem. Phys. 152 154105 (2020);
          URL http://www.quantum-espresso.org", 
     in publications or presentations arising from this work. More details at
     http://www.quantum-espresso.org/quote

     Parallel version (MPI & OpenMP), running on       4 processor cores
     Number of MPI processes:                 2
     Threads/MPI process:                     2

     MPI processes distributed on     1 nodes
     R & G space division:  proc/nbgrp/npool/nimage =       2
     125245 MiB available memory on the printing compute node when the environment starts
 
     Reading input from MoS2.vcrelax.in

     Current dimensions of program PWSCF are:
     Max number of different atomic species (ntypx) = 10
     Max number of k-points (npk) =  40000
     Max angular momentum in pseudopotentials (lmaxx) =  4
     file Mo.pbesol-spn-kjpaw_psl.1.0.0.UPF: wavefunction(s)  4S 4D renormalized
     file S.pbesol-nl-kjpaw_psl.1.0.0.UPF: wavefunction(s)  3S renormalized
     Message from routine setup:
     using ibrav=0 with symmetry is DISCOURAGED, use correct ibrav instead

     Subspace diagonalization in iterative solution of the eigenvalue problem:
     a serial algorithm will be used

 
     Parallelization info
     --------------------
     sticks:   dense  smooth     PW     G-vecs:    dense   smooth      PW
     Min         366     291     93                64972    46541    8519
     Max         367     292     94                64991    46568    8544
     Sum         733     583    187               129963    93109   17063
 
     Using Slab Decomposition
 


     bravais-lattice index     =            0
     lattice parameter (alat)  =       6.0720  a.u.
     unit-cell volume          =    1479.6792 (a.u.)^3
     number of atoms/cell      =            6
     number of atomic types    =            2
     number of electrons       =        52.00
     number of Kohn-Sham states=           26
     kinetic-energy cutoff     =      60.0000  Ry
     charge density cutoff     =     300.0000  Ry
     scf convergence threshold =      1.0E-12
     mixing beta               =       0.3000
     number of iterations used =            8  plain     mixing
     energy convergence thresh.=      1.0E-04
     force convergence thresh. =      1.0E-03
     press convergence thresh. =      5.0E-01
     Exchange-correlation= SLA  PW   PSX  PSC
                           (   1   4  10   8   0   0   0)
     nstep                     =           50


     celldm(1)=   6.072000  celldm(2)=   0.000000  celldm(3)=   0.000000
     celldm(4)=   0.000000  celldm(5)=   0.000000  celldm(6)=   0.000000

     crystal axes: (cart. coord. in units of alat)
               a(1) = (   0.976384  -0.000017   0.000000 )  
               a(2) = (  -0.487931   0.846187   0.000000 )  
               a(3) = (   0.000000   0.000000   8.000000 )  

     reciprocal axes: (cart. coord. in units 2 pi/alat)
               b(1) = (  1.024198  0.590577  0.000000 )  
               b(2) = (  0.000021  1.181785  0.000000 )  
               b(3) = (  0.000000  0.000000  0.125000 )  


     PseudoPot. # 1 for Mo read from file:
     /shared/home/as3359/pseudo/Mo.pbesol-spn-kjpaw_psl.1.0.0.UPF
     MD5 check sum: de57925cfc675213e43241dcc441eda8
     Pseudo is Projector augmented-wave + core cor, Zval = 14.0
     Generated using &quot;atomic&quot; code by A. Dal Corso  v.6.3
     Shape of augmentation charge: PSQ
     Using radial grid of 1229 points,  6 beta functions with: 
                l(1) =   0
                l(2) =   0
                l(3) =   1
                l(4) =   1
                l(5) =   2
                l(6) =   2
     Q(r) pseudized with 0 coefficients 


     PseudoPot. # 2 for S  read from file:
     /shared/home/as3359/pseudo/S.pbesol-nl-kjpaw_psl.1.0.0.UPF
     MD5 check sum: bf3db50ec3f960682bbc396f1aadd1dd
     Pseudo is Projector augmented-wave + core cor, Zval =  6.0
     Generated using &quot;atomic&quot; code by A. Dal Corso  v.6.3
     Shape of augmentation charge: PSQ
     Using radial grid of 1151 points,  4 beta functions with: 
                l(1) =   0
                l(2) =   0
                l(3) =   1
                l(4) =   1
     Q(r) pseudized with 0 coefficients 


     atomic species   valence    mass     pseudopotential
        Mo            14.00    95.94000     Mo( 1.00)
        S              6.00    32.06500     S ( 1.00)

      2 Sym. Ops. (no inversion) found ( 1 have fractional translation)



   Cartesian axes

     site n.     atom                  positions (alat units)
         1           Mo  tau(   1) = (   0.0000000   0.0000000   1.2000000  )
         2           S   tau(   2) = (   0.4883508   0.2821722   1.6000000  )
         3           S   tau(   3) = (   0.4883508   0.2821722   0.8000000  )
         4           Mo  tau(   4) = (   0.0000000   0.0000000   2.8000000  )
         5           S   tau(   5) = (   0.4883508   0.2821722   3.2000000  )
         6           S   tau(   6) = (   0.4883508   0.2821722   2.4000000  )

     number of k points=    74
                       cart. coord. in units 2pi/alat
        k(    1) = (   0.0000000   0.0000000   0.0000000), wk =   0.0138889
        k(    2) = (   0.0000017   0.0984820   0.0000000), wk =   0.0277778
        k(    3) = (   0.0000035   0.1969641   0.0000000), wk =   0.0277778
        k(    4) = (   0.0000052   0.2954461   0.0000000), wk =   0.0277778
        k(    5) = (   0.0000070   0.3939282   0.0000000), wk =   0.0277778
        k(    6) = (   0.0000087   0.4924102   0.0000000), wk =   0.0277778
        k(    7) = (  -0.0000105  -0.5908923   0.0000000), wk =   0.0138889
        k(    8) = (   0.0853498   0.0492147   0.0000000), wk =   0.0277778
        k(    9) = (   0.0853516   0.1476968   0.0000000), wk =   0.0277778
        k(   10) = (   0.0853533   0.2461788   0.0000000), wk =   0.0277778
        k(   11) = (   0.0853550   0.3446609   0.0000000), wk =   0.0277778
        k(   12) = (   0.0853568   0.4431429   0.0000000), wk =   0.0277778
        k(   13) = (   0.0853585   0.5416249   0.0000000), wk =   0.0277778
        k(   14) = (   0.0853394  -0.5416775   0.0000000), wk =   0.0277778
        k(   15) = (   0.0853411  -0.4431955   0.0000000), wk =   0.0277778
        k(   16) = (   0.0853428  -0.3447135   0.0000000), wk =   0.0277778
        k(   17) = (   0.0853446  -0.2462314   0.0000000), wk =   0.0277778
        k(   18) = (   0.0853463  -0.1477494   0.0000000), wk =   0.0277778
        k(   19) = (   0.0853481  -0.0492673   0.0000000), wk =   0.0277778
        k(   20) = (   0.1706996   0.0984294   0.0000000), wk =   0.0277778
        k(   21) = (   0.1707014   0.1969115   0.0000000), wk =   0.0277778
        k(   22) = (   0.1707031   0.2953935   0.0000000), wk =   0.0277778
        k(   23) = (   0.1707049   0.3938756   0.0000000), wk =   0.0277778
        k(   24) = (   0.1707066   0.4923576   0.0000000), wk =   0.0277778
        k(   25) = (   0.1707083   0.5908397   0.0000000), wk =   0.0277778
        k(   26) = (   0.1706892  -0.4924628   0.0000000), wk =   0.0277778
        k(   27) = (   0.1706909  -0.3939808   0.0000000), wk =   0.0277778
        k(   28) = (   0.1706927  -0.2954987   0.0000000), wk =   0.0277778
        k(   29) = (   0.1706944  -0.1970167   0.0000000), wk =   0.0277778
        k(   30) = (   0.1706961  -0.0985346   0.0000000), wk =   0.0277778
        k(   31) = (   0.1706979  -0.0000526   0.0000000), wk =   0.0277778
        k(   32) = (   0.2560494   0.1476442   0.0000000), wk =   0.0277778
        k(   33) = (   0.2560512   0.2461262   0.0000000), wk =   0.0277778
        k(   34) = (   0.2560529   0.3446082   0.0000000), wk =   0.0277778
        k(   35) = (   0.2560547   0.4430903   0.0000000), wk =   0.0277778
        k(   36) = (   0.2560564   0.5415723   0.0000000), wk =   0.0277778
        k(   37) = (   0.2560582   0.6400544   0.0000000), wk =   0.0277778
        k(   38) = (   0.2560390  -0.4432481   0.0000000), wk =   0.0277778
        k(   39) = (   0.2560407  -0.3447661   0.0000000), wk =   0.0277778
        k(   40) = (   0.2560425  -0.2462840   0.0000000), wk =   0.0277778
        k(   41) = (   0.2560442  -0.1478020   0.0000000), wk =   0.0277778
        k(   42) = (   0.2560460  -0.0493199   0.0000000), wk =   0.0277778
        k(   43) = (   0.2560477   0.0491621   0.0000000), wk =   0.0277778
        k(   44) = (   0.3413993   0.1968589   0.0000000), wk =   0.0277778
        k(   45) = (   0.3414010   0.2953409   0.0000000), wk =   0.0277778
        k(   46) = (   0.3414027   0.3938230   0.0000000), wk =   0.0277778
        k(   47) = (   0.3414045   0.4923050   0.0000000), wk =   0.0277778
        k(   48) = (   0.3414062   0.5907871   0.0000000), wk =   0.0277778
        k(   49) = (   0.3414080   0.6892691   0.0000000), wk =   0.0277778
        k(   50) = (   0.3413888  -0.3940334   0.0000000), wk =   0.0277778
        k(   51) = (   0.3413905  -0.2955513   0.0000000), wk =   0.0277778
        k(   52) = (   0.3413923  -0.1970693   0.0000000), wk =   0.0277778
        k(   53) = (   0.3413940  -0.0985872   0.0000000), wk =   0.0277778
        k(   54) = (   0.3413958  -0.0001052   0.0000000), wk =   0.0277778
        k(   55) = (   0.3413975   0.0983768   0.0000000), wk =   0.0277778
        k(   56) = (   0.4267491   0.2460736   0.0000000), wk =   0.0277778
        k(   57) = (   0.4267508   0.3445556   0.0000000), wk =   0.0277778
        k(   58) = (   0.4267526   0.4430377   0.0000000), wk =   0.0277778
        k(   59) = (   0.4267543   0.5415197   0.0000000), wk =   0.0277778
        k(   60) = (   0.4267560   0.6400018   0.0000000), wk =   0.0277778
        k(   61) = (   0.4267578   0.7384838   0.0000000), wk =   0.0277778
        k(   62) = (   0.4267386  -0.3448187   0.0000000), wk =   0.0277778
        k(   63) = (   0.4267404  -0.2463366   0.0000000), wk =   0.0277778
        k(   64) = (   0.4267421  -0.1478546   0.0000000), wk =   0.0277778
        k(   65) = (   0.4267438  -0.0493725   0.0000000), wk =   0.0277778
        k(   66) = (   0.4267456   0.0491095   0.0000000), wk =   0.0277778
        k(   67) = (   0.4267473   0.1475916   0.0000000), wk =   0.0277778
        k(   68) = (  -0.5120989  -0.2952883   0.0000000), wk =   0.0138889
        k(   69) = (  -0.5120971  -0.1968063   0.0000000), wk =   0.0277778
        k(   70) = (  -0.5120954  -0.0983242   0.0000000), wk =   0.0277778
        k(   71) = (  -0.5120937   0.0001578   0.0000000), wk =   0.0277778
        k(   72) = (  -0.5120919   0.0986398   0.0000000), wk =   0.0277778
        k(   73) = (  -0.5120902   0.1971219   0.0000000), wk =   0.0277778
        k(   74) = (  -0.5121093  -0.8861806   0.0000000), wk =   0.0138889

     Dense  grid:   129963 G-vectors     FFT dimensions: (  36,  36, 270)

     Smooth grid:    93109 G-vectors     FFT dimensions: (  30,  30, 240)

     Estimated max dynamical RAM per process >     424.55 MB

     Estimated total dynamical RAM >     849.10 MB

     Initial potential from superposition of free atoms

     starting charge   51.99828, renormalised to   52.00000

     negative rho (up, down):  3.401E-04 0.000E+00
     Starting wfcs are   36 randomized atomic wfcs
     Checking if some PAW data can be deallocated... 

     total cpu time spent up to now is        7.7 secs

     Self-consistent Calculation

     iteration #  1     ecut=    60.00 Ry     beta= 0.30
     Davidson diagonalization with overlap
     ethr =  1.00E-02,  avg # of iterations =  2.0

     Threshold (ethr) on eigenvalues was too large:
     Diagonalizing with lowered threshold

     Davidson diagonalization with overlap
     ethr =  3.91E-04,  avg # of iterations =  4.3

     negative rho (up, down):  3.585E-04 0.000E+00

     total cpu time spent up to now is       25.7 secs

     total energy              =    -979.14610619 Ry
     estimated scf accuracy    <       0.29705356 Ry

     iteration #  2     ecut=    60.00 Ry     beta= 0.30
     Davidson diagonalization with overlap
     ethr =  5.71E-04,  avg # of iterations =  2.1

     negative rho (up, down):  3.739E-04 0.000E+00

     total cpu time spent up to now is       33.8 secs

     total energy              =    -979.16271658 Ry
     estimated scf accuracy    <       0.05182919 Ry

     iteration #  3     ecut=    60.00 Ry     beta= 0.30
     Davidson diagonalization with overlap
     ethr =  9.97E-05,  avg # of iterations =  2.7

     negative rho (up, down):  3.886E-04 0.000E+00

     total cpu time spent up to now is       42.5 secs

     total energy              =    -979.16723998 Ry
     estimated scf accuracy    <       0.01355208 Ry

     iteration #  4     ecut=    60.00 Ry     beta= 0.30
     Davidson diagonalization with overlap
     ethr =  2.61E-05,  avg # of iterations =  4.1

     negative rho (up, down):  4.010E-04 0.000E+00

     total cpu time spent up to now is       51.1 secs

     total energy              =    -979.16853610 Ry
     estimated scf accuracy    <       0.00439486 Ry

     iteration #  5     ecut=    60.00 Ry     beta= 0.30
     Davidson diagonalization with overlap
     ethr =  8.45E-06,  avg # of iterations =  3.9

     negative rho (up, down):  4.119E-04 0.000E+00

     total cpu time spent up to now is       59.7 secs

     total energy              =    -979.16807916 Ry
     estimated scf accuracy    <       0.00190550 Ry

     iteration #  6     ecut=    60.00 Ry     beta= 0.30
     Davidson diagonalization with overlap
     ethr =  3.66E-06,  avg # of iterations =  6.0

     negative rho (up, down):  4.165E-04 0.000E+00

     total cpu time spent up to now is       72.8 secs

     total energy              =    -979.16720443 Ry
     estimated scf accuracy    <       0.01229788 Ry

     iteration #  7     ecut=    60.00 Ry     beta= 0.30
     Davidson diagonalization with overlap
     ethr =  3.66E-06,  avg # of iterations =  5.4

     negative rho (up, down):  4.201E-04 0.000E+00

     total cpu time spent up to now is       83.5 secs

     total energy              =    -979.16874591 Ry
     estimated scf accuracy    <       0.00019706 Ry

     iteration #  8     ecut=    60.00 Ry     beta= 0.30
     Davidson diagonalization with overlap
     ethr =  3.79E-07,  avg # of iterations =  5.8

     negative rho (up, down):  4.227E-04 0.000E+00

     total cpu time spent up to now is       96.5 secs

     total energy              =    -979.16877893 Ry
     estimated scf accuracy    <       0.00048059 Ry

     iteration #  9     ecut=    60.00 Ry     beta= 0.30
     Davidson diagonalization with overlap
     ethr =  3.79E-07,  avg # of iterations =  3.9

     negative rho (up, down):  4.244E-04 0.000E+00

     total cpu time spent up to now is      106.9 secs

     total energy              =    -979.16903048 Ry
     estimated scf accuracy    <       0.00005766 Ry

     iteration # 10     ecut=    60.00 Ry     beta= 0.30
     Davidson diagonalization with overlap
     ethr =  1.11E-07,  avg # of iterations =  3.8

     negative rho (up, down):  4.259E-04 0.000E+00

     total cpu time spent up to now is      114.6 secs

     total energy              =    -979.16900480 Ry
     estimated scf accuracy    <       0.00006837 Ry

     iteration # 11     ecut=    60.00 Ry     beta= 0.30
     Davidson diagonalization with overlap
     c_bands:  1 eigenvalues not converged
     ethr =  1.11E-07,  avg # of iterations =  4.1

     negative rho (up, down):  4.269E-04 0.000E+00

     total cpu time spent up to now is      123.9 secs

     total energy              =    -979.16902987 Ry
     estimated scf accuracy    <       0.00001511 Ry

     iteration # 12     ecut=    60.00 Ry     beta= 0.30
     Davidson diagonalization with overlap
     ethr =  2.91E-08,  avg # of iterations =  4.7

     negative rho (up, down):  4.278E-04 0.000E+00

     total cpu time spent up to now is      133.1 secs

     total energy              =    -979.16902203 Ry
     estimated scf accuracy    <       0.00004802 Ry

     iteration # 13     ecut=    60.00 Ry     beta= 0.30
     Davidson diagonalization with overlap
     ethr =  2.91E-08,  avg # of iterations =  2.5

     negative rho (up, down):  4.281E-04 0.000E+00

     total cpu time spent up to now is      140.9 secs

     total energy              =    -979.16902010 Ry
     estimated scf accuracy    <       0.00001687 Ry

     iteration # 14     ecut=    60.00 Ry     beta= 0.30
     Davidson diagonalization with overlap
     ethr =  2.91E-08,  avg # of iterations =  3.3

     negative rho (up, down):  4.284E-04 0.000E+00

     total cpu time spent up to now is      149.1 secs

     total energy              =    -979.16902059 Ry
     estimated scf accuracy    <       0.00000273 Ry

     iteration # 15     ecut=    60.00 Ry     beta= 0.30
     Davidson diagonalization with overlap
     ethr =  5.25E-09,  avg # of iterations =  6.4

     negative rho (up, down):  4.287E-04 0.000E+00

     total cpu time spent up to now is      160.6 secs

     total energy              =    -979.16902345 Ry
     estimated scf accuracy    <       0.00000414 Ry

     iteration # 16     ecut=    60.00 Ry     beta= 0.30
     Davidson diagonalization with overlap
     ethr =  5.25E-09,  avg # of iterations =  1.5

     negative rho (up, down):  4.288E-04 0.000E+00

     total cpu time spent up to now is      167.4 secs

     total energy              =    -979.16902271 Ry
     estimated scf accuracy    <       0.00000619 Ry

     iteration # 17     ecut=    60.00 Ry     beta= 0.30
     Davidson diagonalization with overlap
     ethr =  5.25E-09,  avg # of iterations =  1.0

     negative rho (up, down):  4.290E-04 0.000E+00

     total cpu time spent up to now is      174.0 secs

     total energy              =    -979.16902239 Ry
     estimated scf accuracy    <       0.00000431 Ry

     iteration # 18     ecut=    60.00 Ry     beta= 0.30
     Davidson diagonalization with overlap
     ethr =  5.25E-09,  avg # of iterations =  1.1

     negative rho (up, down):  4.290E-04 0.000E+00

     total cpu time spent up to now is      180.6 secs

     total energy              =    -979.16902187 Ry
     estimated scf accuracy    <       0.00000265 Ry

     iteration # 19     ecut=    60.00 Ry     beta= 0.30
     Davidson diagonalization with overlap
     ethr =  5.10E-09,  avg # of iterations =  3.0

     negative rho (up, down):  4.291E-04 0.000E+00

     total cpu time spent up to now is      188.5 secs

     total energy              =    -979.16902202 Ry
     estimated scf accuracy    <       0.00000038 Ry

     iteration # 20     ecut=    60.00 Ry     beta= 0.30
     Davidson diagonalization with overlap
     ethr =  7.34E-10,  avg # of iterations =  5.2

     negative rho (up, down):  4.291E-04 0.000E+00

     total cpu time spent up to now is      199.2 secs

     total energy              =    -979.16902218 Ry
     estimated scf accuracy    <       0.00000009 Ry

     iteration # 21     ecut=    60.00 Ry     beta= 0.30
     Davidson diagonalization with overlap
     c_bands:  1 eigenvalues not converged
     ethr =  1.80E-10,  avg # of iterations =  3.4

     negative rho (up, down):  4.292E-04 0.000E+00

     total cpu time spent up to now is      207.5 secs

     total energy              =    -979.16902219 Ry
     estimated scf accuracy    <          3.3E-09 Ry

     iteration # 22     ecut=    60.00 Ry     beta= 0.30
     Davidson diagonalization with overlap
     c_bands:  1 eigenvalues not converged
     c_bands:  1 eigenvalues not converged
     ethr =  6.40E-12,  avg # of iterations =  7.5

     negative rho (up, down):  4.292E-04 0.000E+00

     total cpu time spent up to now is      221.7 secs

     total energy              =    -979.16902220 Ry
     estimated scf accuracy    <       0.00000001 Ry

     iteration # 23     ecut=    60.00 Ry     beta= 0.30
     Davidson diagonalization with overlap
     c_bands:  1 eigenvalues not converged
     ethr =  6.40E-12,  avg # of iterations =  4.1

     negative rho (up, down):  4.292E-04 0.000E+00

     total cpu time spent up to now is      231.5 secs

     total energy              =    -979.16902220 Ry
     estimated scf accuracy    <          4.4E-10 Ry

     iteration # 24     ecut=    60.00 Ry     beta= 0.30
     Davidson diagonalization with overlap
     c_bands:  1 eigenvalues not converged
     ethr =  8.40E-13,  avg # of iterations =  5.9

     negative rho (up, down):  4.292E-04 0.000E+00

     total cpu time spent up to now is      242.4 secs

     total energy              =    -979.16902220 Ry
     estimated scf accuracy    <          2.8E-10 Ry

     iteration # 25     ecut=    60.00 Ry     beta= 0.30
     Davidson diagonalization with overlap
     c_bands:  1 eigenvalues not converged
     ethr =  5.41E-13,  avg # of iterations =  5.1

     negative rho (up, down):  4.292E-04 0.000E+00

     total cpu time spent up to now is      252.8 secs

     total energy              =    -979.16902220 Ry
     estimated scf accuracy    <          5.4E-10 Ry

     iteration # 26     ecut=    60.00 Ry     beta= 0.30
     Davidson diagonalization with overlap
     c_bands:  1 eigenvalues not converged
     ethr =  5.41E-13,  avg # of iterations =  4.9

     negative rho (up, down):  4.292E-04 0.000E+00

     total cpu time spent up to now is      263.0 secs

     total energy              =    -979.16902220 Ry
     estimated scf accuracy    <          1.1E-10 Ry

     iteration # 27     ecut=    60.00 Ry     beta= 0.30
     Davidson diagonalization with overlap
     c_bands:  1 eigenvalues not converged
     ethr =  2.06E-13,  avg # of iterations =  5.3

     negative rho (up, down):  4.292E-04 0.000E+00

     total cpu time spent up to now is      273.8 secs

     total energy              =    -979.16902220 Ry
     estimated scf accuracy    <          1.5E-10 Ry

     iteration # 28     ecut=    60.00 Ry     beta= 0.30
     Davidson diagonalization with overlap
     c_bands:  1 eigenvalues not converged
     ethr =  2.06E-13,  avg # of iterations =  1.3

     negative rho (up, down):  4.292E-04 0.000E+00

     total cpu time spent up to now is      280.4 secs

     total energy              =    -979.16902220 Ry
     estimated scf accuracy    <          1.2E-10 Ry

     iteration # 29     ecut=    60.00 Ry     beta= 0.30
     Davidson diagonalization with overlap
     c_bands:  1 eigenvalues not converged
     ethr =  2.06E-13,  avg # of iterations =  2.6

     negative rho (up, down):  4.292E-04 0.000E+00

     total cpu time spent up to now is      288.0 secs

     total energy              =    -979.16902220 Ry
     estimated scf accuracy    <          1.9E-11 Ry

     iteration # 30     ecut=    60.00 Ry     beta= 0.30
     Davidson diagonalization with overlap
     c_bands:  1 eigenvalues not converged
     ethr =  1.00E-13,  avg # of iterations =  3.2

     negative rho (up, down):  4.292E-04 0.000E+00

     total cpu time spent up to now is      295.7 secs

     total energy              =    -979.16902220 Ry
     estimated scf accuracy    <          1.1E-12 Ry

     iteration # 31     ecut=    60.00 Ry     beta= 0.30
     Davidson diagonalization with overlap
     c_bands:  1 eigenvalues not converged
     ethr =  1.00E-13,  avg # of iterations =  1.3

     negative rho (up, down):  4.292E-04 0.000E+00

     total cpu time spent up to now is      302.2 secs

     End of self-consistent calculation

          k = 0.0000 0.0000 0.0000 ( 11709 PWs)   bands (ev):

   -58.9946 -58.9945 -33.3025 -33.3016 -33.1489 -33.1489 -33.1475 -33.1475
   -14.0578 -13.6893 -11.4205 -10.6442  -5.8972  -4.6052  -2.9983  -2.9904
    -2.9509  -2.9430  -1.1421  -1.1353  -1.0470  -1.0402  -0.2350   1.7755
     2.4571   4.3667

          k = 0.0000 0.0985 0.0000 ( 11683 PWs)   bands (ev):

   -58.9908 -58.9907 -33.2947 -33.2938 -33.1878 -33.1878 -33.1562 -33.1562
   -13.9383 -13.5658 -11.3978 -10.6450  -5.8095  -4.5352  -3.1689  -3.0823
    -2.8537  -2.8017  -1.5585  -1.3050  -1.2478  -1.2064   0.0654   1.8745
     2.3402   4.1238

          k = 0.0000 0.1970 0.0000 ( 11647 PWs)   bands (ev):

   -58.9806 -58.9806 -33.2937 -33.2936 -33.2732 -33.2724 -33.1790 -33.1789
   -13.6055 -13.2227 -11.3354 -10.6476  -5.6061  -4.4695  -3.5193  -3.2244
    -2.4649  -2.3938  -2.1866  -1.7030  -1.6949  -1.6024   0.2280   1.8345
     1.9077   3.2828

          k = 0.0000 0.2954 0.0000 ( 11649 PWs)   bands (ev):

   -58.9668 -58.9667 -33.4354 -33.4353 -33.2438 -33.2431 -33.2098 -33.2098
   -13.1331 -12.7393 -11.2487 -10.6522  -5.4649  -4.6541  -3.7541  -2.9960
    -2.7188  -2.2018  -2.1661  -2.0511  -1.8306  -1.7761  -0.0319   1.2189
     1.3091   2.5391

          k = 0.0000 0.3939 0.0000 ( 11567 PWs)   bands (ev):

   -58.9528 -58.9527 -33.5738 -33.5736 -33.2405 -33.2405 -33.2141 -33.2136
   -12.6360 -12.2368 -11.1586 -10.6580  -5.4674  -4.8702  -3.9045  -3.0584
    -2.8519  -2.5650  -2.4306  -2.4039  -1.1812  -1.0589  -0.3865   0.7132
     0.7329   2.1908

          k = 0.0000 0.4924 0.0000 ( 11578 PWs)   bands (ev):

   -58.9426 -58.9425 -33.6732 -33.6731 -33.2628 -33.2628 -33.1923 -33.1919
   -12.2544 -11.8564 -11.0883 -10.6628  -5.4417  -4.9219  -4.1973  -3.2685
    -3.0798  -2.8124  -2.6775  -2.5348  -0.6217  -0.5667  -0.4326   0.7039
     0.7311   2.1753

          k =-0.0000-0.5909 0.0000 ( 11612 PWs)   bands (ev):

   -58.9390 -58.9388 -33.7093 -33.7091 -33.2710 -33.2710 -33.1843 -33.1839
   -12.1111 -11.7146 -11.0607 -10.6646  -5.3800  -4.8931  -4.3906  -3.3666
    -3.1998  -2.8979  -2.7626  -2.6793  -0.6153  -0.3962  -0.1694   0.8594
     0.8880   2.3122

          k = 0.0853 0.0492 0.0000 ( 11681 PWs)   bands (ev):

   -58.9908 -58.9907 -33.2947 -33.2938 -33.1868 -33.1868 -33.1573 -33.1573
   -13.9383 -13.5657 -11.3977 -10.6448  -5.8094  -4.5351  -3.1658  -3.0792
    -2.8572  -2.8051  -1.5539  -1.3109  -1.2427  -1.2123   0.0663   1.8747
     2.3408   4.1251

          k = 0.0854 0.1477 0.0000 ( 11651 PWs)   bands (ev):

   -58.9839 -58.9838 -33.2800 -33.2792 -33.2576 -33.2575 -33.1745 -33.1745
   -13.7121 -13.3323 -11.3549 -10.6463  -5.6609  -4.4607  -3.4267  -3.2263
    -2.5939  -2.5230  -1.9705  -1.6704  -1.6081  -1.4492   0.2828   1.9177
     2.0714   3.5598

          k = 0.0854 0.2462 0.0000 ( 11630 PWs)   bands (ev):

   -58.9718 -58.9718 -33.3766 -33.3765 -33.2546 -33.2539 -33.2060 -33.2060
   -13.3081 -12.9175 -11.2789 -10.6481  -5.4765  -4.5355  -3.6946  -3.1418
    -2.5249  -2.2321  -2.2271  -2.0156  -2.0044  -1.6989   0.2253   1.5208
     1.5947   2.8492

          k = 0.0854 0.3447 0.0000 ( 11615 PWs)   bands (ev):

   -58.9579 -58.9579 -33.5109 -33.5107 -33.2426 -33.2425 -33.2250 -33.2244
   -12.8196 -12.4205 -11.1867 -10.6488  -5.4116  -4.7483  -3.7998  -3.1220
    -2.9322  -2.7014  -2.3805  -1.8800  -1.5300  -1.4059  -0.1396   0.9152
     0.9192   2.3604

          k = 0.0854 0.4431 0.0000 ( 11610 PWs)   bands (ev):

   -58.9459 -58.9458 -33.6248 -33.6246 -33.2740 -33.2740 -33.1992 -33.1988
   -12.3748 -11.9735 -11.1003 -10.6477  -5.3920  -4.8456  -4.0438  -3.4808
    -3.4031  -2.5655  -2.4680  -1.9919  -1.1072  -0.8433  -0.3601   0.5977
     0.6169   2.1186

          k = 0.0854 0.5416 0.0000 ( 11605 PWs)   bands (ev):

   -58.9389 -58.9389 -33.6897 -33.6895 -33.2920 -33.2920 -33.1843 -33.1839
   -12.1085 -11.7088 -11.0457 -10.6462  -5.2904  -4.7956  -4.3673  -3.7070
    -3.6822  -2.7508  -2.4954  -2.0799  -0.9322  -0.4064  -0.3383   0.7013
     0.7299   2.1062

          k = 0.0853-0.5417 0.0000 ( 11609 PWs)   bands (ev):

   -58.9389 -58.9389 -33.6899 -33.6897 -33.2919 -33.2919 -33.1843 -33.1839
   -12.1084 -11.7087 -11.0457 -10.6462  -5.2904  -4.7957  -4.3673  -3.7067
    -3.6817  -2.7509  -2.4962  -2.0805  -0.9313  -0.4056  -0.3385   0.7007
     0.7291   2.1061

          k = 0.0853-0.4432 0.0000 ( 11610 PWs)   bands (ev):

   -58.9459 -58.9458 -33.6253 -33.6251 -33.2737 -33.2736 -33.1992 -33.1988
   -12.3745 -11.9733 -11.1003 -10.6477  -5.3921  -4.8458  -4.0438  -3.4799
    -3.4018  -2.5660  -2.4699  -1.9935  -1.1054  -0.8419  -0.3607   0.5964
     0.6164   2.1191

          k = 0.0853-0.3447 0.0000 ( 11617 PWs)   bands (ev):

   -58.9579 -58.9579 -33.5116 -33.5115 -33.2420 -33.2420 -33.2250 -33.2244
   -12.8193 -12.4202 -11.1867 -10.6488  -5.4117  -4.7484  -3.7998  -3.1206
    -2.9307  -2.7012  -2.3825  -1.8825  -1.5295  -1.4053  -0.1397   0.9144
     0.9189   2.3611

          k = 0.0853-0.2462 0.0000 ( 11624 PWs)   bands (ev):

   -58.9718 -58.9718 -33.3776 -33.3775 -33.2545 -33.2538 -33.2052 -33.2052
   -13.3078 -12.9172 -11.2789 -10.6481  -5.4764  -4.5354  -3.6938  -3.1410
    -2.5244  -2.2330  -2.2253  -2.0166  -2.0053  -1.7013   0.2255   1.5204
     1.5945   2.8494

          k = 0.0853-0.1477 0.0000 ( 11651 PWs)   bands (ev):

   -58.9839 -58.9838 -33.2800 -33.2792 -33.2588 -33.2587 -33.1734 -33.1734
   -13.7118 -13.3321 -11.3549 -10.6462  -5.6608  -4.4604  -3.4245  -3.2242
    -2.5964  -2.5256  -1.9722  -1.6689  -1.6070  -1.4507   0.2827   1.9178
     2.0711   3.5596

          k = 0.0853-0.0493 0.0000 ( 11677 PWs)   bands (ev):

   -58.9908 -58.9907 -33.2946 -33.2938 -33.1879 -33.1878 -33.1562 -33.1562
   -13.9382 -13.5656 -11.3976 -10.6448  -5.8094  -4.5350  -3.1629  -3.0763
    -2.8603  -2.8083  -1.5554  -1.3096  -1.2445  -1.2107   0.0662   1.8748
     2.3408   4.1250

          k = 0.1707 0.0984 0.0000 ( 11653 PWs)   bands (ev):

   -58.9806 -58.9806 -33.2928 -33.2927 -33.2731 -33.2724 -33.1801 -33.1801
   -13.6054 -13.2226 -11.3348 -10.6469  -5.6061  -4.4695  -3.5170  -3.2221
    -2.4682  -2.3970  -2.1831  -1.7093  -1.6911  -1.6087   0.2290   1.8355
     1.9097   3.2851

          k = 0.1707 0.1969 0.0000 ( 11626 PWs)   bands (ev):

   -58.9718 -58.9718 -33.3762 -33.3761 -33.2545 -33.2538 -33.2067 -33.2067
   -13.3080 -12.9175 -11.2785 -10.6476  -5.4766  -4.5355  -3.6932  -3.1405
    -2.5223  -2.2357  -2.2273  -2.0173  -2.0070  -1.7007   0.2259   1.5220
     1.5958   2.8500

          k = 0.1707 0.2954 0.0000 ( 11599 PWs)   bands (ev):

   -58.9598 -58.9597 -33.4785 -33.4784 -33.2530 -33.2529 -33.2289 -33.2284
   -12.8850 -12.4857 -11.1939 -10.6416  -5.3631  -4.6618  -3.7510  -3.1876
    -2.9909  -2.8313  -2.3633  -1.6923  -1.6770  -1.5315   0.0333   1.0165
     1.0876   2.5365

          k = 0.1707 0.3939 0.0000 ( 11599 PWs)   bands (ev):

   -58.9477 -58.9477 -33.5746 -33.5745 -33.3038 -33.3037 -33.2032 -33.2028
   -12.4412 -12.0364 -11.0971 -10.6265  -5.2771  -4.7071  -3.9685  -3.6907
    -3.6240  -2.4468  -2.2936  -1.5730  -1.5425  -1.2884  -0.1743   0.5195
     0.6685   2.1999

          k = 0.1707 0.4924 0.0000 ( 11614 PWs)   bands (ev):

   -58.9389 -58.9389 -33.6426 -33.6425 -33.3423 -33.3422 -33.1843 -33.1840
   -12.1033 -11.6973 -11.0149 -10.6084  -5.1063  -4.5778  -4.4550  -4.1736
    -3.7756  -2.4979  -2.1463  -1.6139  -1.5048  -1.0783  -0.1829   0.4932
     0.5375   1.9291

          k = 0.1707 0.5908 0.0000 ( 11610 PWs)   bands (ev):

   -58.9356 -58.9356 -33.6673 -33.6672 -33.3564 -33.3563 -33.1774 -33.1770
   -11.9772 -11.5714 -10.9816 -10.6001  -4.9517  -4.6215  -4.4483  -4.3408
    -3.9978  -2.7385  -2.0040  -1.6847  -1.4499  -0.9227  -0.2386   0.6033
     0.6751   1.8548

          k = 0.1707-0.4925 0.0000 ( 11612 PWs)   bands (ev):

   -58.9389 -58.9388 -33.6433 -33.6432 -33.3417 -33.3417 -33.1843 -33.1839
   -12.1030 -11.6970 -11.0149 -10.6084  -5.1065  -4.5781  -4.4548  -4.1730
    -3.7758  -2.4984  -2.1478  -1.6121  -1.5063  -1.0760  -0.1827   0.4920
     0.5355   1.9297

          k = 0.1707-0.3940 0.0000 ( 11593 PWs)   bands (ev):

   -58.9476 -58.9476 -33.5759 -33.5758 -33.3028 -33.3027 -33.2032 -33.2027
   -12.4406 -12.0358 -11.0970 -10.6265  -5.2775  -4.7075  -3.9681  -3.6896
    -3.6236  -2.4469  -2.2955  -1.5754  -1.5408  -1.2863  -0.1753   0.5174
     0.6684   2.2010

          k = 0.1707-0.2955 0.0000 ( 11601 PWs)   bands (ev):

   -58.9597 -58.9597 -33.4801 -33.4800 -33.2517 -33.2517 -33.2289 -33.2283
   -12.8844 -12.4850 -11.1937 -10.6416  -5.3632  -4.6619  -3.7502  -3.1864
    -2.9896  -2.8302  -2.3652  -1.6950  -1.6773  -1.5316   0.0330   1.0152
     1.0872   2.5373

          k = 0.1707-0.1970 0.0000 ( 11624 PWs)   bands (ev):

   -58.9718 -58.9717 -33.3777 -33.3776 -33.2545 -33.2538 -33.2054 -33.2054
   -13.3075 -12.9169 -11.2783 -10.6475  -5.4764  -4.5351  -3.6914  -3.1386
    -2.5224  -2.2368  -2.2261  -2.0195  -2.0087  -1.7028   0.2261   1.5214
     1.5956   2.8498

          k = 0.1707-0.0985 0.0000 ( 11651 PWs)   bands (ev):

   -58.9806 -58.9806 -33.2940 -33.2939 -33.2731 -33.2723 -33.1791 -33.1791
   -13.6051 -13.2223 -11.3347 -10.6469  -5.6058  -4.4690  -3.5147  -3.2198
    -2.4709  -2.3998  -2.1840  -1.7090  -1.6923  -1.6081   0.2292   1.8357
     1.9097   3.2848

          k = 0.1707-0.0001 0.0000 ( 11645 PWs)   bands (ev):

   -58.9838 -58.9837 -33.2800 -33.2792 -33.2580 -33.2580 -33.1744 -33.1744
   -13.7117 -13.3320 -11.3544 -10.6458  -5.6607  -4.4603  -3.4231  -3.2230
    -2.5988  -2.5278  -1.9696  -1.6731  -1.6091  -1.4500   0.2832   1.9183
     2.0725   3.5616

          k = 0.2560 0.1476 0.0000 ( 11645 PWs)   bands (ev):

   -58.9667 -58.9667 -33.4346 -33.4345 -33.2437 -33.2430 -33.2111 -33.2110
   -13.1328 -12.7391 -11.2474 -10.6508  -5.4651  -4.6542  -3.7520  -2.9940
    -2.7167  -2.2083  -2.1642  -2.0578  -1.8339  -1.7791  -0.0304   1.2215
     1.3119   2.5406

          k = 0.2561 0.2461 0.0000 ( 11615 PWs)   bands (ev):

   -58.9579 -58.9578 -33.5103 -33.5102 -33.2436 -33.2435 -33.2249 -33.2243
   -12.8194 -12.4204 -11.1856 -10.6475  -5.4119  -4.7481  -3.7977  -3.1220
    -2.9322  -2.7013  -2.3845  -1.8827  -1.5325  -1.4083  -0.1382   0.9174
     0.9206   2.3612

          k = 0.2561 0.3446 0.0000 ( 11595 PWs)   bands (ev):

   -58.9477 -58.9476 -33.5743 -33.5742 -33.3043 -33.3043 -33.2032 -33.2027
   -12.4411 -12.0364 -11.0964 -10.6257  -5.2772  -4.7069  -3.9689  -3.6918
    -3.6233  -2.4459  -2.2948  -1.5742  -1.5437  -1.2898  -0.1737   0.5202
     0.6691   2.2004

          k = 0.2561 0.4431 0.0000 ( 11581 PWs)   bands (ev):

   -58.9388 -58.9388 -33.6116 -33.6115 -33.3750 -33.3749 -33.1843 -33.1839
   -12.1007 -11.6916 -10.9988 -10.5885  -5.0133  -4.5621  -4.4570  -4.3538
    -3.5822  -2.2951  -2.1249  -1.8036  -1.7750  -1.1988  -0.0681   0.4061
     0.4797   1.8919

          k = 0.2561 0.5416 0.0000 ( 11590 PWs)   bands (ev):

   -58.9337 -58.9337 -33.6233 -33.6231 -33.4256 -33.4255 -33.1734 -33.1731
   -11.9000 -11.4888 -10.9314 -10.5579  -5.0107  -4.7339  -4.4705  -4.0255
    -3.8050  -2.6234  -2.6001  -1.7627  -1.6329  -0.9704  -0.2526   0.6262
     0.7844   1.6285

          k = 0.2561 0.6401 0.0000 ( 11588 PWs)   bands (ev):

   -58.9337 -58.9336 -33.6240 -33.6238 -33.4250 -33.4249 -33.1734 -33.1730
   -11.8998 -11.4886 -10.9314 -10.5579  -5.0106  -4.7338  -4.4703  -4.0257
    -3.8058  -2.6222  -2.6005  -1.7616  -1.6336  -0.9711  -0.2521   0.6251
     0.7833   1.6287

          k = 0.2560-0.4432 0.0000 ( 11585 PWs)   bands (ev):

   -58.9388 -58.9387 -33.6132 -33.6131 -33.3737 -33.3736 -33.1842 -33.1839
   -12.1001 -11.6910 -10.9987 -10.5885  -5.0136  -4.5618  -4.4571  -4.3535
    -3.5822  -2.2948  -2.1251  -1.8040  -1.7733  -1.2003  -0.0680   0.4048
     0.4774   1.8928

          k = 0.2560-0.3448 0.0000 ( 11597 PWs)   bands (ev):

   -58.9476 -58.9476 -33.5761 -33.5760 -33.3030 -33.3030 -33.2031 -33.2026
   -12.4403 -12.0356 -11.0961 -10.6256  -5.2775  -4.7071  -3.9687  -3.6911
    -3.6218  -2.4442  -2.2967  -1.5763  -1.5432  -1.2897  -0.1746   0.5179
     0.6685   2.2011

          k = 0.2560-0.2463 0.0000 ( 11615 PWs)   bands (ev):

   -58.9578 -58.9578 -33.5119 -33.5118 -33.2424 -33.2424 -33.2248 -33.2243
   -12.8186 -12.4196 -11.1853 -10.6474  -5.4118  -4.7479  -3.7961  -3.1212
    -2.9312  -2.6995  -2.3863  -1.8848  -1.5338  -1.4096  -0.1381   0.9160
     0.9198   2.3612

          k = 0.2560-0.1478 0.0000 ( 11641 PWs)   bands (ev):

   -58.9667 -58.9666 -33.4359 -33.4358 -33.2436 -33.2429 -33.2102 -33.2102
   -13.1322 -12.7385 -11.2472 -10.6507  -5.4649  -4.6537  -3.7500  -2.9918
    -2.7171  -2.2088  -2.1649  -2.0582  -1.8363  -1.7814  -0.0301   1.2211
     1.3116   2.5401

          k = 0.2560-0.0493 0.0000 ( 11624 PWs)   bands (ev):

   -58.9717 -58.9717 -33.3775 -33.3774 -33.2544 -33.2537 -33.2059 -33.2059
   -13.3073 -12.9167 -11.2777 -10.6469  -5.4763  -4.5352  -3.6919  -3.1394
    -2.5242  -2.2368  -2.2286  -2.0196  -2.0084  -1.7017   0.2263   1.5224
     1.5965   2.8504

          k = 0.2560 0.0492 0.0000 ( 11626 PWs)   bands (ev):

   -58.9718 -58.9717 -33.3769 -33.3768 -33.2544 -33.2538 -33.2063 -33.2063
   -13.3075 -12.9170 -11.2778 -10.6469  -5.4765  -4.5355  -3.6930  -3.1404
    -2.5235  -2.2366  -2.2279  -2.0184  -2.0077  -1.7020   0.2262   1.5225
     1.5965   2.8508

          k = 0.3414 0.1969 0.0000 ( 11563 PWs)   bands (ev):

   -58.9527 -58.9526 -33.5732 -33.5731 -33.2418 -33.2418 -33.2140 -33.2135
   -12.6356 -12.2367 -11.1566 -10.6558  -5.4677  -4.8700  -3.9027  -3.0577
    -2.8511  -2.5721  -2.4376  -2.4029  -1.1845  -1.0619  -0.3840   0.7159
     0.7363   2.1925

          k = 0.3414 0.2953 0.0000 ( 11614 PWs)   bands (ev):

   -58.9458 -58.9458 -33.6242 -33.6241 -33.2752 -33.2752 -33.1991 -33.1987
   -12.3745 -11.9736 -11.0985 -10.6456  -5.3918  -4.8449  -4.0431  -3.4816
    -3.4058  -2.5647  -2.4721  -1.9952  -1.1096  -0.8458  -0.3586   0.6001
     0.6191   2.1204

          k = 0.3414 0.3938 0.0000 ( 11614 PWs)   bands (ev):

   -58.9389 -58.9388 -33.6422 -33.6420 -33.3432 -33.3432 -33.1842 -33.1839
   -12.1031 -11.6974 -11.0135 -10.6068  -5.1060  -4.5771  -4.4567  -4.1759
    -3.7746  -2.4967  -2.1485  -1.6159  -1.5075  -1.0809  -0.1823   0.4952
     0.5392   1.9308

          k = 0.3414 0.4923 0.0000 ( 11592 PWs)   bands (ev):

   -58.9337 -58.9336 -33.6230 -33.6228 -33.4261 -33.4261 -33.1733 -33.1730
   -11.8999 -11.4888 -10.9307 -10.5571  -5.0116  -4.7351  -4.4706  -4.0254
    -3.8041  -2.6244  -2.5987  -1.7646  -1.6343  -0.9720  -0.2521   0.6270
     0.7850   1.6297

          k = 0.3414 0.5908 0.0000 ( 11591 PWs)   bands (ev):

   -58.9318 -58.9318 -33.5977 -33.5975 -33.4750 -33.4750 -33.1693 -33.1690
   -11.8247 -11.4114 -10.8953 -10.5337  -5.1795  -4.9363  -3.8287  -3.8096
    -3.4277  -3.3495  -3.1424  -2.0057  -1.3841  -0.7598  -0.4459   0.9272
     1.1040   1.4699

          k = 0.3414 0.6893 0.0000 ( 11592 PWs)   bands (ev):

   -58.9337 -58.9336 -33.6245 -33.6243 -33.4249 -33.4249 -33.1733 -33.1729
   -11.8993 -11.4884 -10.9305 -10.5570  -5.0119  -4.7351  -4.4706  -4.0254
    -3.8035  -2.6244  -2.5972  -1.7653  -1.6352  -0.9732  -0.2518   0.6264
     0.7842   1.6303

          k = 0.3414-0.3940 0.0000 ( 11616 PWs)   bands (ev):

   -58.9388 -58.9387 -33.6439 -33.6437 -33.3420 -33.3420 -33.1841 -33.1838
   -12.1022 -11.6966 -11.0132 -10.6067  -5.1062  -4.5769  -4.4570  -4.1759
    -3.7730  -2.4944  -2.1501  -1.6160  -1.5093  -1.0818  -0.1823   0.4942
     0.5377   1.9312

          k = 0.3414-0.2956 0.0000 ( 11612 PWs)   bands (ev):

   -58.9457 -58.9457 -33.6259 -33.6257 -33.2742 -33.2742 -33.1990 -33.1985
   -12.3734 -11.9726 -11.0981 -10.6454  -5.3918  -4.8445  -4.0425  -3.4802
    -3.4056  -2.5626  -2.4740  -1.9968  -1.1101  -0.8468  -0.3588   0.5983
     0.6180   2.1203

          k = 0.3414-0.1971 0.0000 ( 11565 PWs)   bands (ev):

   -58.9526 -58.9526 -33.5746 -33.5744 -33.2410 -33.2410 -33.2139 -33.2133
   -12.6347 -12.2359 -11.1563 -10.6556  -5.4675  -4.8695  -3.9011  -3.0573
    -2.8503  -2.5732  -2.4387  -2.4015  -1.1864  -1.0637  -0.3837   0.7150
     0.7351   2.1920

          k = 0.3414-0.0986 0.0000 ( 11615 PWs)   bands (ev):

   -58.9578 -58.9577 -33.5120 -33.5118 -33.2426 -33.2426 -33.2248 -33.2242
   -12.8183 -12.4194 -11.1847 -10.6467  -5.4121  -4.7486  -3.7974  -3.1228
    -2.9328  -2.7005  -2.3858  -1.8846  -1.5329  -1.4087  -0.1382   0.9167
     0.9202   2.3612

          k = 0.3414-0.0001 0.0000 ( 11606 PWs)   bands (ev):

   -58.9597 -58.9596 -33.4799 -33.4798 -33.2525 -33.2524 -33.2288 -33.2282
   -12.8839 -12.4847 -11.1925 -10.6403  -5.3636  -4.6628  -3.7512  -3.1888
    -2.9921  -2.8312  -2.3658  -1.6958  -1.6768  -1.5308   0.0335   1.0169
     1.0879   2.5374

          k = 0.3414 0.0984 0.0000 ( 11621 PWs)   bands (ev):

   -58.9578 -58.9578 -33.5111 -33.5110 -33.2432 -33.2432 -33.2248 -33.2243
   -12.8188 -12.4199 -11.1849 -10.6469  -5.4122  -4.7490  -3.7989  -3.1222
    -2.9322  -2.7020  -2.3860  -1.8849  -1.5311  -1.4069  -0.1383   0.9173
     0.9207   2.3619

          k = 0.4267 0.2461 0.0000 ( 11584 PWs)   bands (ev):

   -58.9425 -58.9424 -33.6728 -33.6726 -33.2642 -33.2642 -33.1921 -33.1917
   -12.2540 -11.8565 -11.0858 -10.6599  -5.4412  -4.9209  -4.1968  -3.2690
    -3.0811  -2.8197  -2.6848  -2.5341  -0.6256  -0.5635  -0.4361   0.7074
     0.7347   2.1779

          k = 0.4268 0.3446 0.0000 ( 11609 PWs)   bands (ev):

   -58.9388 -58.9388 -33.6892 -33.6891 -33.2934 -33.2933 -33.1842 -33.1838
   -12.1081 -11.7090 -11.0433 -10.6435  -5.2894  -4.7942  -4.3680  -3.7088
    -3.6859  -2.7504  -2.5002  -2.0844  -0.9331  -0.4100  -0.3384   0.7048
     0.7333   2.1091

          k = 0.4268 0.4430 0.0000 ( 11612 PWs)   bands (ev):

   -58.9356 -58.9355 -33.6669 -33.6667 -33.3574 -33.3574 -33.1773 -33.1769
   -11.9768 -11.5715 -10.9797 -10.5979  -4.9516  -4.6234  -4.4480  -4.3437
    -3.9977  -2.7374  -2.0075  -1.6859  -1.4537  -0.9257  -0.2380   0.6053
     0.6768   1.8573

          k = 0.4268 0.5415 0.0000 ( 11590 PWs)   bands (ev):

   -58.9337 -58.9336 -33.6237 -33.6235 -33.4257 -33.4256 -33.1733 -33.1730
   -11.8994 -11.4885 -10.9302 -10.5566  -5.0124  -4.7356  -4.4710  -4.0269
    -3.8059  -2.6220  -2.5981  -1.7633  -1.6356  -0.9734  -0.2511   0.6239
     0.7820   1.6300

          k = 0.4268 0.6400 0.0000 ( 11592 PWs)   bands (ev):

   -58.9337 -58.9336 -33.6245 -33.6243 -33.4251 -33.4250 -33.1732 -33.1729
   -11.8991 -11.4883 -10.9301 -10.5565  -5.0127  -4.7358  -4.4711  -4.0267
    -3.8044  -2.6231  -2.5963  -1.7651  -1.6358  -0.9740  -0.2514   0.6244
     0.7824   1.6303

          k = 0.4268 0.7385 0.0000 ( 11610 PWs)   bands (ev):

   -58.9355 -58.9355 -33.6683 -33.6682 -33.3565 -33.3565 -33.1772 -33.1768
   -11.9760 -11.5708 -10.9794 -10.5977  -4.9517  -4.6238  -4.4472  -4.3442
    -3.9961  -2.7354  -2.0083  -1.6871  -1.4549  -0.9279  -0.2384   0.6057
     0.6771   1.8576

          k = 0.4267-0.3448 0.0000 ( 11611 PWs)   bands (ev):

   -58.9387 -58.9387 -33.6908 -33.6906 -33.2925 -33.2925 -33.1840 -33.1836
   -12.1070 -11.7080 -11.0429 -10.6432  -5.2889  -4.7933  -4.3679  -3.7078
    -3.6864  -2.7485  -2.5017  -2.0859  -0.9335  -0.4112  -0.3388   0.7042
     0.7326   2.1089

          k = 0.4267-0.2463 0.0000 ( 11586 PWs)   bands (ev):

   -58.9424 -58.9424 -33.6742 -33.6740 -33.2635 -33.2635 -33.1920 -33.1916
   -12.2529 -11.8555 -11.0853 -10.6596  -5.4408  -4.9200  -4.1960  -3.2683
    -3.0811  -2.8213  -2.6862  -2.5322  -0.6272  -0.5629  -0.4374   0.7066
     0.7338   2.1775

          k = 0.4267-0.1479 0.0000 ( 11614 PWs)   bands (ev):

   -58.9457 -58.9457 -33.6260 -33.6258 -33.2743 -33.2743 -33.1990 -33.1985
   -12.3732 -11.9725 -11.0977 -10.6449  -5.3923  -4.8454  -4.0433  -3.4810
    -3.4065  -2.5627  -2.4740  -1.9969  -1.1092  -0.8468  -0.3594   0.5983
     0.6179   2.1201

          k = 0.4267-0.0494 0.0000 ( 11593 PWs)   bands (ev):

   -58.9475 -58.9475 -33.5762 -33.5760 -33.3034 -33.3033 -33.2030 -33.2025
   -12.4398 -12.0353 -11.0951 -10.6245  -5.2783  -4.7086  -3.9706  -3.6930
    -3.6235  -2.4454  -2.2970  -1.5771  -1.5411  -1.2879  -0.1755   0.5178
     0.6685   2.2010

          k = 0.4267 0.0491 0.0000 ( 11599 PWs)   bands (ev):

   -58.9476 -58.9476 -33.5757 -33.5755 -33.3037 -33.3036 -33.2031 -33.2026
   -12.4401 -12.0355 -11.0952 -10.6245  -5.2783  -4.7089  -3.9703  -3.6925
    -3.6246  -2.4472  -2.2971  -1.5774  -1.5399  -1.2859  -0.1757   0.5180
     0.6689   2.2014

          k = 0.4267 0.1476 0.0000 ( 11612 PWs)   bands (ev):

   -58.9458 -58.9457 -33.6248 -33.6247 -33.2750 -33.2749 -33.1991 -33.1986
   -12.3740 -11.9732 -11.0980 -10.6452  -5.3925  -4.8460  -4.0440  -3.4815
    -3.4053  -2.5654  -2.4740  -1.9969  -1.1070  -0.8445  -0.3598   0.5989
     0.6185   2.1207

          k =-0.5121-0.2953 0.0000 ( 11612 PWs)   bands (ev):

   -58.9388 -58.9387 -33.7088 -33.7086 -33.2724 -33.2724 -33.1841 -33.1837
   -12.1106 -11.7148 -11.0581 -10.6615  -5.3786  -4.8914  -4.3910  -3.3678
    -3.2018  -2.9054  -2.7700  -2.6792  -0.6118  -0.4005  -0.1733   0.8631
     0.8918   2.3153

          k =-0.5121-0.1968 0.0000 ( 11611 PWs)   bands (ev):

   -58.9388 -58.9388 -33.6895 -33.6893 -33.2933 -33.2932 -33.1841 -33.1837
   -12.1079 -11.7088 -11.0432 -10.6433  -5.2897  -4.7947  -4.3683  -3.7086
    -3.6857  -2.7505  -2.5011  -2.0851  -0.9317  -0.4093  -0.3389   0.7035
     0.7319   2.1085

          k =-0.5121-0.0983 0.0000 ( 11614 PWs)   bands (ev):

   -58.9388 -58.9387 -33.6430 -33.6429 -33.3428 -33.3427 -33.1842 -33.1838
   -12.1024 -11.6969 -11.0129 -10.6061  -5.1071  -4.5788  -4.4575  -4.1762
    -3.7757  -2.4970  -2.1503  -1.6126  -1.5094  -1.0780  -0.1827   0.4926
     0.5354   1.9312

          k =-0.5121 0.0002 0.0000 ( 11583 PWs)   bands (ev):

   -58.9387 -58.9387 -33.6132 -33.6130 -33.3742 -33.3742 -33.1842 -33.1838
   -12.0996 -11.6908 -10.9974 -10.5871  -5.0148  -4.5637  -4.4590  -4.3555
    -3.5837  -2.2936  -2.1260  -1.8041  -1.7710  -1.2019  -0.0686   0.4037
     0.4755   1.8933

          k =-0.5121 0.0986 0.0000 ( 11614 PWs)   bands (ev):

   -58.9388 -58.9387 -33.6440 -33.6439 -33.3421 -33.3421 -33.1841 -33.1837
   -12.1019 -11.6964 -11.0126 -10.6060  -5.1070  -4.5783  -4.4580  -4.1769
    -3.7738  -2.4943  -2.1505  -1.6145  -1.5097  -1.0812  -0.1828   0.4927
     0.5360   1.9310

          k =-0.5121 0.1971 0.0000 ( 11613 PWs)   bands (ev):

   -58.9387 -58.9387 -33.6908 -33.6907 -33.2925 -33.2925 -33.1840 -33.1836
   -12.1069 -11.7079 -11.0427 -10.6431  -5.2892  -4.7937  -4.3681  -3.7080
    -3.6866  -2.7484  -2.5018  -2.0860  -0.9331  -0.4114  -0.3392   0.7036
     0.7320   2.1084

          k =-0.5121-0.8862 0.0000 ( 11612 PWs)   bands (ev):

   -58.9388 -58.9386 -33.7103 -33.7101 -33.2717 -33.2717 -33.1840 -33.1836
   -12.1095 -11.7138 -11.0576 -10.6612  -5.3778  -4.8902  -4.3906  -3.3673
    -3.2018  -2.9071  -2.7716  -2.6780  -0.6111  -0.4021  -0.1745   0.8629
     0.8915   2.3149

     highest occupied level (ev):     4.3667

!    total energy              =    -979.16902220 Ry

     total all-electron energy =    -19376.084713 Ry
     estimated scf accuracy    <          4.4E-14 Ry

     The total energy is the sum of the following terms:
     one-electron contribution =   -3673.75634632 Ry
     hartree contribution      =    1846.90242274 Ry
     xc contribution           =     -60.19231513 Ry
     ewald contribution        =    1533.78282779 Ry
     one-center paw contrib.   =    -625.90561128 Ry

     convergence has been achieved in  31 iterations

     negative rho (up, down):  4.292E-04 0.000E+00

     Forces acting on atoms (cartesian axes, Ry/au):

     atom    1 type  1   force =    -0.00091586    0.00060698    0.00127363
     atom    2 type  2   force =     0.00057304   -0.00035128    0.20055282
     atom    3 type  2   force =     0.00034281   -0.00025570   -0.30167162
     atom    4 type  1   force =    -0.00091586    0.00060698   -0.00127363
     atom    5 type  2   force =     0.00034281   -0.00025570    0.30167162
     atom    6 type  2   force =     0.00057304   -0.00035128   -0.20055282

     Total force =     0.512307     Total SCF correction =     0.000001


     Computing stress (Cartesian axis) and pressure


     negative rho (up, down):  4.292E-04 0.000E+00
          total   stress  (Ry/bohr**3)                   (kbar)     P=      204.71
   0.00093937   0.00000214   0.00000000          138.19        0.31        0.00
   0.00000214   0.00094109   0.00000000            0.31      138.44        0.00
   0.00000000   0.00000000   0.00229431            0.00        0.00      337.50


     BFGS Geometry Optimization
     Energy error            =      0.0E+00 Ry
     Gradient error          =      3.0E-01 Ry/Bohr
     Cell gradient error     =      1.4E+02 kbar

     number of scf cycles    =   1
     number of bfgs steps    =   0

     enthalpy           new  =    -979.1690222003 Ry

     new trust radius        =       0.3016719218 bohr
     new conv_thr            =            1.0E-12 Ry

     new unit-cell volume =   1550.05902 a.u.^3 (   229.69505 Ang^3 )
     density =      2.31439 g/cm^3

CELL_PARAMETERS (alat=  6.07200000)
   0.999313618   0.000034454   0.000000000
  -0.499344745   0.866069050   0.000000000
   0.000000000   0.000000000   8.000000000

ATOMIC_POSITIONS (crystal)
Mo            0.0000000000        0.0000000000        0.1500262193    0   0   1
S             0.6668746694        0.3334086167        0.2041286400
S             0.6668451324        0.3334272217        0.0937896982
Mo            0.0000000000        0.0000000000        0.3499737807    0   0   1
S             0.6668451316        0.3334272188        0.4062103018
S             0.6668746702        0.3334086196        0.2958713600



     Writing output data file /scratch/as3359/MoS2_loop/Ta.save/
     NEW-OLD atomic charge density approx. for the potential

     negative rho (up, down):  2.549E-04 0.000E+00
     extrapolated charge   54.36096, renormalised to   52.00000

     total cpu time spent up to now is      315.1 secs

     Self-consistent Calculation

     iteration #  1     ecut=    60.00 Ry     beta= 0.30
     Davidson diagonalization with overlap
     c_bands:  4 eigenvalues not converged
     c_bands:  1 eigenvalues not converged
     c_bands:  2 eigenvalues not converged
     c_bands:  1 eigenvalues not converged
     c_bands:  1 eigenvalues not converged
     c_bands:  4 eigenvalues not converged
     c_bands:  3 eigenvalues not converged
     c_bands:  3 eigenvalues not converged
     c_bands:  1 eigenvalues not converged
     c_bands:  1 eigenvalues not converged
     c_bands:  1 eigenvalues not converged
     c_bands:  1 eigenvalues not converged
     c_bands:  3 eigenvalues not converged
     c_bands:  5 eigenvalues not converged
     c_bands:  4 eigenvalues not converged
     c_bands:  4 eigenvalues not converged
     c_bands:  5 eigenvalues not converged
     c_bands:  3 eigenvalues not converged
     c_bands:  2 eigenvalues not converged
     c_bands:  2 eigenvalues not converged
     c_bands:  2 eigenvalues not converged
     c_bands:  3 eigenvalues not converged
     c_bands:  4 eigenvalues not converged
     c_bands:  5 eigenvalues not converged
     c_bands:  3 eigenvalues not converged
     c_bands:  4 eigenvalues not converged
     c_bands:  4 eigenvalues not converged
     c_bands:  3 eigenvalues not converged
     c_bands:  3 eigenvalues not converged
     c_bands:  1 eigenvalues not converged
     c_bands:  1 eigenvalues not converged
     c_bands:  2 eigenvalues not converged
     c_bands:  3 eigenvalues not converged
     c_bands:  3 eigenvalues not converged
     c_bands:  3 eigenvalues not converged
     c_bands:  4 eigenvalues not converged
     c_bands:  4 eigenvalues not converged
     c_bands:  2 eigenvalues not converged
     c_bands:  2 eigenvalues not converged
     c_bands:  3 eigenvalues not converged
     c_bands:  1 eigenvalues not converged
     c_bands:  2 eigenvalues not converged
     c_bands:  3 eigenvalues not converged
     c_bands:  2 eigenvalues not converged
     c_bands:  4 eigenvalues not converged
     c_bands:  2 eigenvalues not converged
     c_bands:  2 eigenvalues not converged
     c_bands:  3 eigenvalues not converged
     c_bands:  4 eigenvalues not converged
     c_bands:  3 eigenvalues not converged
     c_bands:  1 eigenvalues not converged
     c_bands:  1 eigenvalues not converged
     c_bands:  2 eigenvalues not converged
     c_bands:  2 eigenvalues not converged
     c_bands:  2 eigenvalues not converged
     c_bands:  2 eigenvalues not converged
     c_bands:  1 eigenvalues not converged
     c_bands:  1 eigenvalues not converged
     c_bands:  3 eigenvalues not converged
     c_bands:  3 eigenvalues not converged
     c_bands:  3 eigenvalues not converged
     c_bands:  2 eigenvalues not converged
     c_bands:  1 eigenvalues not converged
     c_bands:  4 eigenvalues not converged
     c_bands:  2 eigenvalues not converged
     c_bands:  3 eigenvalues not converged
     c_bands:  1 eigenvalues not converged
     ethr =  1.00E-06,  avg # of iterations = 42.5

     total cpu time spent up to now is      398.1 secs

     total energy              =    2093.69628890 Ry
     estimated scf accuracy    <    5859.26395207 Ry

     iteration #  2     ecut=    60.00 Ry     beta= 0.30
     Davidson diagonalization with overlap
     c_bands:  2 eigenvalues not converged
     c_bands:  4 eigenvalues not converged
     c_bands:  2 eigenvalues not converged
     c_bands:  1 eigenvalues not converged
     c_bands:  3 eigenvalues not converged
     c_bands:  1 eigenvalues not converged
     c_bands:  2 eigenvalues not converged
     c_bands:  1 eigenvalues not converged
     c_bands:  1 eigenvalues not converged
     c_bands:  1 eigenvalues not converged
     c_bands:  1 eigenvalues not converged
     c_bands:  3 eigenvalues not converged
     c_bands:  1 eigenvalues not converged
     c_bands:  1 eigenvalues not converged
     c_bands:  1 eigenvalues not converged
     c_bands:  3 eigenvalues not converged
     c_bands:  2 eigenvalues not converged
     c_bands:  1 eigenvalues not converged
     c_bands:  1 eigenvalues not converged
     c_bands:  2 eigenvalues not converged
     c_bands:  3 eigenvalues not converged
     c_bands:  2 eigenvalues not converged
     c_bands:  3 eigenvalues not converged
     c_bands:  2 eigenvalues not converged
     c_bands:  1 eigenvalues not converged
     c_bands:  1 eigenvalues not converged
     c_bands:  2 eigenvalues not converged
     c_bands:  1 eigenvalues not converged
     c_bands:  4 eigenvalues not converged
     c_bands:  4 eigenvalues not converged
     c_bands:  1 eigenvalues not converged
     ethr =  1.00E-02,  avg # of iterations = 58.3

     total cpu time spent up to now is      518.1 secs

     total energy              =   -1273.35452506 Ry
     estimated scf accuracy    <    1255.64533080 Ry

     iteration #  3     ecut=    60.00 Ry     beta= 0.30
     Davidson diagonalization with overlap
     ethr =  1.00E-02,  avg # of iterations = 28.9

     total cpu time spent up to now is      571.8 secs

     total energy              =   -1229.77433598 Ry
     estimated scf accuracy    <     491.29222013 Ry

     iteration #  4     ecut=    60.00 Ry     beta= 0.30
     Davidson diagonalization with overlap
     ethr =  1.00E-02,  avg # of iterations =  8.4

     negative rho (up, down):  1.425E-02 0.000E+00

     total cpu time spent up to now is      584.6 secs

     total energy              =    -988.82592067 Ry
     estimated scf accuracy    <     344.30470620 Ry

     iteration #  5     ecut=    60.00 Ry     beta= 0.30
     Davidson diagonalization with overlap
     c_bands:  4 eigenvalues not converged
     c_bands:  5 eigenvalues not converged
     c_bands:  5 eigenvalues not converged
     c_bands:  2 eigenvalues not converged
     c_bands:  4 eigenvalues not converged
     c_bands:  4 eigenvalues not converged
     c_bands:  1 eigenvalues not converged
     c_bands:  2 eigenvalues not converged
     c_bands:  1 eigenvalues not converged
     c_bands:  3 eigenvalues not converged
     c_bands:  3 eigenvalues not converged
     c_bands:  2 eigenvalues not converged
     c_bands:  1 eigenvalues not converged
     c_bands:  5 eigenvalues not converged
     c_bands:  5 eigenvalues not converged
     c_bands:  2 eigenvalues not converged
     c_bands:  2 eigenvalues not converged
     c_bands:  2 eigenvalues not converged
     c_bands:  1 eigenvalues not converged
     c_bands:  2 eigenvalues not converged
     c_bands:  2 eigenvalues not converged
     c_bands:  3 eigenvalues not converged
     c_bands:  4 eigenvalues not converged
     c_bands:  1 eigenvalues not converged
     c_bands:  2 eigenvalues not converged
     c_bands:  5 eigenvalues not converged
     c_bands:  3 eigenvalues not converged
     c_bands:  2 eigenvalues not converged
     c_bands:  1 eigenvalues not converged
     c_bands:  5 eigenvalues not converged
     c_bands:  4 eigenvalues not converged
     c_bands:  2 eigenvalues not converged
     c_bands:  4 eigenvalues not converged
     c_bands:  4 eigenvalues not converged
     c_bands:  3 eigenvalues not converged
     c_bands:  1 eigenvalues not converged
     c_bands:  3 eigenvalues not converged
     c_bands:  1 eigenvalues not converged
     c_bands:  2 eigenvalues not converged
     c_bands:  2 eigenvalues not converged
     c_bands:  1 eigenvalues not converged
     c_bands:  4 eigenvalues not converged
     c_bands:  5 eigenvalues not converged
     c_bands:  2 eigenvalues not converged
     c_bands:  5 eigenvalues not converged
     c_bands:  2 eigenvalues not converged
     c_bands:  1 eigenvalues not converged
     c_bands:  2 eigenvalues not converged
     c_bands:  2 eigenvalues not converged
     c_bands:  2 eigenvalues not converged
     c_bands:  3 eigenvalues not converged
     c_bands:  1 eigenvalues not converged
     c_bands:  2 eigenvalues not converged
     c_bands:  1 eigenvalues not converged
     ethr =  1.00E-02,  avg # of iterations = 20.6

     total cpu time spent up to now is      629.9 secs

     total energy              =   -1064.95065350 Ry
     estimated scf accuracy    <     163.39257467 Ry

     iteration #  6     ecut=    60.00 Ry     beta= 0.30
     Davidson diagonalization with overlap
     c_bands:  2 eigenvalues not converged
     c_bands:  2 eigenvalues not converged
     c_bands:  1 eigenvalues not converged
     c_bands:  1 eigenvalues not converged
     c_bands:  1 eigenvalues not converged
     c_bands:  1 eigenvalues not converged
     c_bands:  1 eigenvalues not converged
     c_bands:  3 eigenvalues not converged
     c_bands:  2 eigenvalues not converged
     c_bands:  1 eigenvalues not converged
     ethr =  1.00E-02,  avg # of iterations = 17.3

     total cpu time spent up to now is      655.2 secs

     total energy              =   -1111.04174549 Ry
     estimated scf accuracy    <     191.24340142 Ry

     iteration #  7     ecut=    60.00 Ry     beta= 0.30
     Davidson diagonalization with overlap
     ethr =  1.00E-02,  avg # of iterations =  1.2

     total cpu time spent up to now is      661.7 secs

     total energy              =   -1113.74586187 Ry
     estimated scf accuracy    <     193.28924347 Ry

     iteration #  8     ecut=    60.00 Ry     beta= 0.30
     Davidson diagonalization with overlap
     ethr =  1.00E-02,  avg # of iterations =  2.2

     total cpu time spent up to now is      668.5 secs

     total energy              =   -1039.84767210 Ry
     estimated scf accuracy    <     198.36441173 Ry

     iteration #  9     ecut=    60.00 Ry     beta= 0.30
     Davidson diagonalization with overlap
     c_bands:  1 eigenvalues not converged
     ethr =  1.00E-02,  avg # of iterations = 13.9

     total cpu time spent up to now is      690.2 secs

     total energy              =   -1013.97199450 Ry
     estimated scf accuracy    <     172.01915339 Ry

     iteration # 10     ecut=    60.00 Ry     beta= 0.30
     Davidson diagonalization with overlap
     ethr =  1.00E-02,  avg # of iterations =  3.6

     negative rho (up, down):  1.158E-02 0.000E+00

     total cpu time spent up to now is      699.8 secs

     total energy              =    -997.15240921 Ry
     estimated scf accuracy    <      94.50080173 Ry

     iteration # 11     ecut=    60.00 Ry     beta= 0.30
     Davidson diagonalization with overlap
     c_bands:  1 eigenvalues not converged
     c_bands:  1 eigenvalues not converged
     c_bands:  1 eigenvalues not converged
     c_bands:  1 eigenvalues not converged
     c_bands:  1 eigenvalues not converged
     c_bands:  2 eigenvalues not converged
     c_bands:  1 eigenvalues not converged
     c_bands:  1 eigenvalues not converged
     c_bands:  2 eigenvalues not converged
     c_bands:  1 eigenvalues not converged
     c_bands:  1 eigenvalues not converged
     c_bands:  2 eigenvalues not converged
     c_bands:  2 eigenvalues not converged
     c_bands:  2 eigenvalues not converged
     ethr =  1.00E-02,  avg # of iterations = 19.3

     negative rho (up, down):  8.728E-03 0.000E+00

     total cpu time spent up to now is      732.5 secs

     total energy              =   -1004.21509794 Ry
     estimated scf accuracy    <    1453.68164098 Ry

     iteration # 12     ecut=    60.00 Ry     beta= 0.30
     Davidson diagonalization with overlap
     c_bands:  1 eigenvalues not converged
     ethr =  1.00E-02,  avg # of iterations = 14.9

     negative rho (up, down):  8.873E-03 0.000E+00

     total cpu time spent up to now is      754.4 secs

     total energy              =   -1028.14099417 Ry
     estimated scf accuracy    <     190.58527277 Ry

     iteration # 13     ecut=    60.00 Ry     beta= 0.30
     Davidson diagonalization with overlap
     ethr =  1.00E-02,  avg # of iterations =  7.0

     negative rho (up, down):  1.347E-01 0.000E+00

     total cpu time spent up to now is      765.6 secs

     total energy              =    -987.42161196 Ry
     estimated scf accuracy    <     146.11090038 Ry

     iteration # 14     ecut=    60.00 Ry     beta= 0.30
     Davidson diagonalization with overlap
     c_bands:  1 eigenvalues not converged
     c_bands:  1 eigenvalues not converged
     ethr =  1.00E-02,  avg # of iterations = 14.3

     negative rho (up, down):  1.581E-01 0.000E+00

     total cpu time spent up to now is      786.3 secs

     total energy              =   -1010.11650179 Ry
     estimated scf accuracy    <      38.92303302 Ry

     iteration # 15     ecut=    60.00 Ry     beta= 0.30
     Davidson diagonalization with overlap
     ethr =  1.00E-02,  avg # of iterations =  1.8

     negative rho (up, down):  1.766E-01 0.000E+00

     total cpu time spent up to now is      793.2 secs

     total energy              =   -1009.89738476 Ry
     estimated scf accuracy    <      40.23594234 Ry

     iteration # 16     ecut=    60.00 Ry     beta= 0.30
     Davidson diagonalization with overlap
     ethr =  1.00E-02,  avg # of iterations =  1.0

     negative rho (up, down):  3.456E-01 0.000E+00

     total cpu time spent up to now is      799.6 secs

     total energy              =   -1005.36875620 Ry
     estimated scf accuracy    <      39.10639566 Ry

     iteration # 17     ecut=    60.00 Ry     beta= 0.30
     Davidson diagonalization with overlap
     c_bands:  2 eigenvalues not converged
     c_bands:  1 eigenvalues not converged
     c_bands:  1 eigenvalues not converged
     c_bands:  1 eigenvalues not converged
     c_bands:  1 eigenvalues not converged
     c_bands:  2 eigenvalues not converged
     c_bands:  1 eigenvalues not converged
     c_bands:  1 eigenvalues not converged
     c_bands:  1 eigenvalues not converged
     c_bands:  1 eigenvalues not converged
     c_bands:  1 eigenvalues not converged
     c_bands:  1 eigenvalues not converged
     c_bands:  1 eigenvalues not converged
     c_bands:  1 eigenvalues not converged
     c_bands:  1 eigenvalues not converged
     c_bands:  1 eigenvalues not converged
     c_bands:  1 eigenvalues not converged
     c_bands:  1 eigenvalues not converged
     c_bands:  1 eigenvalues not converged
     c_bands:  1 eigenvalues not converged
     c_bands:  1 eigenvalues not converged
     c_bands:  1 eigenvalues not converged
     c_bands:  1 eigenvalues not converged
     c_bands:  1 eigenvalues not converged
     c_bands:  2 eigenvalues not converged
     c_bands:  1 eigenvalues not converged
     c_bands:  1 eigenvalues not converged
     c_bands:  1 eigenvalues not converged
     c_bands:  1 eigenvalues not converged
     c_bands:  1 eigenvalues not converged
     ethr =  1.00E-02,  avg # of iterations = 18.7

     negative rho (up, down):  4.559E-01 0.000E+00

     total cpu time spent up to now is      819.6 secs

     total energy              =   -1015.52755875 Ry
     estimated scf accuracy    <     129.57107661 Ry

     iteration # 18     ecut=    60.00 Ry     beta= 0.30
     Davidson diagonalization with overlap
     ethr =  1.00E-02,  avg # of iterations =  3.2

     negative rho (up, down):  5.540E-01 0.000E+00

     total cpu time spent up to now is      826.8 secs

     total energy              =    -999.98706399 Ry
     estimated scf accuracy    <     112.31413908 Ry

     iteration # 19     ecut=    60.00 Ry     beta= 0.30
     Davidson diagonalization with overlap
     ethr =  1.00E-02,  avg # of iterations = 10.5

     negative rho (up, down):  5.313E-01 0.000E+00

     total cpu time spent up to now is      844.2 secs

     total energy              =   -1007.30432678 Ry
     estimated scf accuracy    <      37.10888578 Ry

     iteration # 20     ecut=    60.00 Ry     beta= 0.30
     Davidson diagonalization with overlap
     ethr =  1.00E-02,  avg # of iterations = 10.6

     negative rho (up, down):  8.345E-02 0.000E+00

     total cpu time spent up to now is      857.1 secs

     total energy              =    -978.85494976 Ry
     estimated scf accuracy    <      38.55638053 Ry

     iteration # 21     ecut=    60.00 Ry     beta= 0.30
     Davidson diagonalization with overlap
     ethr =  1.00E-02,  avg # of iterations = 12.6

     negative rho (up, down):  4.061E-01 0.000E+00

     total cpu time spent up to now is      875.3 secs

     total energy              =    -961.70101431 Ry
     estimated scf accuracy    <     191.96255377 Ry

     iteration # 22     ecut=    60.00 Ry     beta= 0.30
     Davidson diagonalization with overlap
     ethr =  1.00E-02,  avg # of iterations =  9.7

     negative rho (up, down):  2.166E-02 0.000E+00

     total cpu time spent up to now is      892.8 secs

     total energy              =    -980.09275879 Ry
     estimated scf accuracy    <      42.53614186 Ry

     iteration # 23     ecut=    60.00 Ry     beta= 0.30
     Davidson diagonalization with overlap
     ethr =  1.00E-02,  avg # of iterations =  6.9

     negative rho (up, down):  6.089E-02 0.000E+00

     total cpu time spent up to now is      905.7 secs

     total energy              =    -997.16415938 Ry
     estimated scf accuracy    <     186.58324244 Ry

     iteration # 24     ecut=    60.00 Ry     beta= 0.30
     Davidson diagonalization with overlap
     ethr =  1.00E-02,  avg # of iterations =  4.9

     negative rho (up, down):  1.637E-01 0.000E+00

     total cpu time spent up to now is      914.9 secs

     total energy              =    -987.85297365 Ry
     estimated scf accuracy    <     308.81047157 Ry

     iteration # 25     ecut=    60.00 Ry     beta= 0.30
     Davidson diagonalization with overlap
     ethr =  1.00E-02,  avg # of iterations =  5.0

     negative rho (up, down):  6.232E-02 0.000E+00

     total cpu time spent up to now is      923.4 secs

     total energy              =    -978.47261216 Ry
     estimated scf accuracy    <     207.55774508 Ry

     iteration # 26     ecut=    60.00 Ry     beta= 0.30
     Davidson diagonalization with overlap
     ethr =  1.00E-02,  avg # of iterations =  8.5

     negative rho (up, down):  8.765E-02 0.000E+00

     total cpu time spent up to now is      935.2 secs

     total energy              =    -979.37776073 Ry
     estimated scf accuracy    <      37.21268486 Ry

     iteration # 27     ecut=    60.00 Ry     beta= 0.30
     Davidson diagonalization with overlap
     ethr =  1.00E-02,  avg # of iterations =  6.6

     negative rho (up, down):  1.706E-01 0.000E+00

     total cpu time spent up to now is      944.4 secs

     total energy              =    -980.81818384 Ry
     estimated scf accuracy    <       8.27890955 Ry

     iteration # 28     ecut=    60.00 Ry     beta= 0.30
     Davidson diagonalization with overlap
     ethr =  1.00E-02,  avg # of iterations =  2.1

     negative rho (up, down):  4.711E-02 0.000E+00

     total cpu time spent up to now is      951.8 secs

     total energy              =    -980.42688555 Ry
     estimated scf accuracy    <       6.68622385 Ry

     iteration # 29     ecut=    60.00 Ry     beta= 0.30
     Davidson diagonalization with overlap
     ethr =  1.00E-02,  avg # of iterations =  6.4

     negative rho (up, down):  1.196E-03 0.000E+00

     total cpu time spent up to now is      961.6 secs

     total energy              =    -982.07792936 Ry
     estimated scf accuracy    <       7.69106597 Ry

     iteration # 30     ecut=    60.00 Ry     beta= 0.30
     Davidson diagonalization with overlap
     ethr =  1.00E-02,  avg # of iterations =  1.0

     negative rho (up, down):  1.340E-02 0.000E+00

     total cpu time spent up to now is      968.0 secs

     total energy              =    -980.38167629 Ry
     estimated scf accuracy    <       7.10846528 Ry

     iteration # 31     ecut=    60.00 Ry     beta= 0.30
     Davidson diagonalization with overlap
     ethr =  1.00E-02,  avg # of iterations =  2.0

     negative rho (up, down):  8.008E-02 0.000E+00

     total cpu time spent up to now is      974.9 secs

     total energy              =    -979.49662588 Ry
     estimated scf accuracy    <       3.84481312 Ry

     iteration # 32     ecut=    60.00 Ry     beta= 0.30
     Davidson diagonalization with overlap
     ethr =  7.39E-03,  avg # of iterations =  2.0

     negative rho (up, down):  3.828E-02 0.000E+00

     total cpu time spent up to now is      981.8 secs

     total energy              =    -979.75122153 Ry
     estimated scf accuracy    <       1.78175626 Ry

     iteration # 33     ecut=    60.00 Ry     beta= 0.30
     Davidson diagonalization with overlap
     ethr =  3.43E-03,  avg # of iterations =  1.0

     negative rho (up, down):  4.304E-02 0.000E+00

     total cpu time spent up to now is      988.3 secs

     total energy              =    -979.79402935 Ry
     estimated scf accuracy    <       1.86553667 Ry

     iteration # 34     ecut=    60.00 Ry     beta= 0.30
     Davidson diagonalization with overlap
     ethr =  3.43E-03,  avg # of iterations =  1.0

     negative rho (up, down):  3.131E-02 0.000E+00

     total cpu time spent up to now is      994.7 secs

     total energy              =    -979.19376336 Ry
     estimated scf accuracy    <       2.08951277 Ry

     iteration # 35     ecut=    60.00 Ry     beta= 0.30
     Davidson diagonalization with overlap
     ethr =  3.43E-03,  avg # of iterations =  2.1

     negative rho (up, down):  9.024E-02 0.000E+00

     total cpu time spent up to now is     1002.3 secs

     total energy              =    -979.27172563 Ry
     estimated scf accuracy    <       0.67420344 Ry

     iteration # 36     ecut=    60.00 Ry     beta= 0.30
     Davidson diagonalization with overlap
     ethr =  1.30E-03,  avg # of iterations =  2.8

     negative rho (up, down):  7.305E-02 0.000E+00

     total cpu time spent up to now is     1010.1 secs

     total energy              =    -979.30540125 Ry
     estimated scf accuracy    <       0.14202116 Ry

     iteration # 37     ecut=    60.00 Ry     beta= 0.30
     Davidson diagonalization with overlap
     ethr =  2.73E-04,  avg # of iterations =  7.8

     negative rho (up, down):  2.039E-02 0.000E+00

     total cpu time spent up to now is     1020.7 secs

     total energy              =    -979.33620209 Ry
     estimated scf accuracy    <       0.14068355 Ry

     iteration # 38     ecut=    60.00 Ry     beta= 0.30
     Davidson diagonalization with overlap
     ethr =  2.71E-04,  avg # of iterations =  3.1

     negative rho (up, down):  2.249E-02 0.000E+00

     total cpu time spent up to now is     1028.4 secs

     total energy              =    -979.33044338 Ry
     estimated scf accuracy    <       0.04338854 Ry

     iteration # 39     ecut=    60.00 Ry     beta= 0.30
     Davidson diagonalization with overlap
     c_bands:  1 eigenvalues not converged
     c_bands:  1 eigenvalues not converged
     ethr =  8.34E-05,  avg # of iterations =  8.7

     negative rho (up, down):  7.343E-03 0.000E+00

     total cpu time spent up to now is     1041.8 secs

     total energy              =    -979.32779861 Ry
     estimated scf accuracy    <       0.82285117 Ry

     iteration # 40     ecut=    60.00 Ry     beta= 0.30
     Davidson diagonalization with overlap
     ethr =  8.34E-05,  avg # of iterations =  6.3

     negative rho (up, down):  3.640E-03 0.000E+00

     total cpu time spent up to now is     1052.6 secs

     total energy              =    -979.33046289 Ry
     estimated scf accuracy    <       0.14185324 Ry

     iteration # 41     ecut=    60.00 Ry     beta= 0.30
     Davidson diagonalization with overlap
     ethr =  8.34E-05,  avg # of iterations =  5.4

     negative rho (up, down):  3.146E-03 0.000E+00

     total cpu time spent up to now is     1062.7 secs

     total energy              =    -979.35452048 Ry
     estimated scf accuracy    <       0.00484695 Ry

     iteration # 42     ecut=    60.00 Ry     beta= 0.30
     Davidson diagonalization with overlap
     ethr =  9.32E-06,  avg # of iterations =  8.9

     negative rho (up, down):  8.391E-04 0.000E+00

     total cpu time spent up to now is     1074.4 secs

     total energy              =    -979.34963410 Ry
     estimated scf accuracy    <       0.04612573 Ry

     iteration # 43     ecut=    60.00 Ry     beta= 0.30
     Davidson diagonalization with overlap
     ethr =  9.32E-06,  avg # of iterations =  7.9

     negative rho (up, down):  4.820E-04 0.000E+00

     total cpu time spent up to now is     1085.3 secs

     total energy              =    -979.35321255 Ry
     estimated scf accuracy    <       0.00057714 Ry

     iteration # 44     ecut=    60.00 Ry     beta= 0.30
     Davidson diagonalization with overlap
     ethr =  1.11E-06,  avg # of iterations =  6.5

     negative rho (up, down):  2.516E-04 0.000E+00

     total cpu time spent up to now is     1096.3 secs

     total energy              =    -979.35339349 Ry
     estimated scf accuracy    <       0.00085395 Ry

     iteration # 45     ecut=    60.00 Ry     beta= 0.30
     Davidson diagonalization with overlap
     ethr =  1.11E-06,  avg # of iterations =  3.5

     negative rho (up, down):  2.487E-04 0.000E+00

     total cpu time spent up to now is     1104.4 secs

     total energy              =    -979.35346944 Ry
     estimated scf accuracy    <       0.00002655 Ry

     iteration # 46     ecut=    60.00 Ry     beta= 0.30
     Davidson diagonalization with overlap
     c_bands:  1 eigenvalues not converged
     ethr =  5.11E-08,  avg # of iterations =  7.8

     negative rho (up, down):  2.621E-04 0.000E+00

     total cpu time spent up to now is     1117.2 secs

     total energy              =    -979.35347997 Ry
     estimated scf accuracy    <       0.00020593 Ry

     iteration # 47     ecut=    60.00 Ry     beta= 0.30
     Davidson diagonalization with overlap
     c_bands:  1 eigenvalues not converged
     ethr =  5.11E-08,  avg # of iterations =  5.7

     negative rho (up, down):  2.318E-04 0.000E+00

     total cpu time spent up to now is     1127.2 secs

     total energy              =    -979.35349645 Ry
     estimated scf accuracy    <       0.00001683 Ry

     iteration # 48     ecut=    60.00 Ry     beta= 0.30
     Davidson diagonalization with overlap
     c_bands:  1 eigenvalues not converged
     ethr =  3.24E-08,  avg # of iterations =  3.5

     negative rho (up, down):  2.638E-04 0.000E+00

     total cpu time spent up to now is     1134.8 secs

     total energy              =    -979.35350192 Ry
     estimated scf accuracy    <       0.00000551 Ry

     iteration # 49     ecut=    60.00 Ry     beta= 0.30
     Davidson diagonalization with overlap
     c_bands:  1 eigenvalues not converged
     ethr =  1.06E-08,  avg # of iterations =  2.1

     negative rho (up, down):  2.131E-04 0.000E+00

     total cpu time spent up to now is     1141.6 secs

     total energy              =    -979.35350298 Ry
     estimated scf accuracy    <       0.00000683 Ry

     iteration # 50     ecut=    60.00 Ry     beta= 0.30
     Davidson diagonalization with overlap
     ethr =  1.06E-08,  avg # of iterations =  1.7

     negative rho (up, down):  3.131E-04 0.000E+00

     total cpu time spent up to now is     1148.2 secs

     total energy              =    -979.35350386 Ry
     estimated scf accuracy    <       0.00000898 Ry

     iteration # 51     ecut=    60.00 Ry     beta= 0.30
     Davidson diagonalization with overlap
     ethr =  1.06E-08,  avg # of iterations =  1.7

     negative rho (up, down):  2.567E-04 0.000E+00

     total cpu time spent up to now is     1154.9 secs

     total energy              =    -979.35350156 Ry
     estimated scf accuracy    <       0.00001391 Ry

     iteration # 52     ecut=    60.00 Ry     beta= 0.30
     Davidson diagonalization with overlap
     ethr =  1.06E-08,  avg # of iterations =  3.9

     negative rho (up, down):  2.281E-04 0.000E+00

     total cpu time spent up to now is     1163.2 secs

     total energy              =    -979.35350223 Ry
     estimated scf accuracy    <       0.00000453 Ry

     iteration # 53     ecut=    60.00 Ry     beta= 0.30
     Davidson diagonalization with overlap
     ethr =  8.71E-09,  avg # of iterations =  1.4

     negative rho (up, down):  2.177E-04 0.000E+00

     total cpu time spent up to now is     1169.7 secs

     total energy              =    -979.35350239 Ry
     estimated scf accuracy    <       0.00000412 Ry

     iteration # 54     ecut=    60.00 Ry     beta= 0.30
     Davidson diagonalization with overlap
     ethr =  7.91E-09,  avg # of iterations =  3.9

     negative rho (up, down):  1.512E-04 0.000E+00

     total cpu time spent up to now is     1178.0 secs

     total energy              =    -979.35350137 Ry
     estimated scf accuracy    <       0.00001126 Ry

     iteration # 55     ecut=    60.00 Ry     beta= 0.30
     Davidson diagonalization with overlap
     ethr =  7.91E-09,  avg # of iterations =  2.2

     negative rho (up, down):  1.678E-04 0.000E+00

     total cpu time spent up to now is     1184.9 secs

     total energy              =    -979.35349965 Ry
     estimated scf accuracy    <       0.00000565 Ry

     iteration # 56     ecut=    60.00 Ry     beta= 0.30
     Davidson diagonalization with overlap
     c_bands:  1 eigenvalues not converged
     ethr =  7.91E-09,  avg # of iterations =  7.3

     negative rho (up, down):  2.267E-04 0.000E+00

     total cpu time spent up to now is     1195.6 secs

     total energy              =    -979.35350011 Ry
     estimated scf accuracy    <       0.00000939 Ry

     iteration # 57     ecut=    60.00 Ry     beta= 0.30
     Davidson diagonalization with overlap
     ethr =  7.91E-09,  avg # of iterations =  5.9

     negative rho (up, down):  2.629E-04 0.000E+00

     total cpu time spent up to now is     1204.8 secs

     total energy              =    -979.35350081 Ry
     estimated scf accuracy    <       0.00000141 Ry

     iteration # 58     ecut=    60.00 Ry     beta= 0.30
     Davidson diagonalization with overlap
     c_bands:  1 eigenvalues not converged
     ethr =  2.71E-09,  avg # of iterations =  6.0

     negative rho (up, down):  2.340E-04 0.000E+00

     total cpu time spent up to now is     1214.3 secs

[...]
    -1.8557  -1.7773  -1.4631  -1.4004  -0.3292  -0.3162   0.5416   0.6567
     1.2024   1.2187

          k = 0.1707 0.4925 0.0000 ( 11616 PWs)   bands (ev):

   -58.7238 -58.7237 -33.0914 -33.0914 -32.8900 -32.8900 -32.8678 -32.8678
   -10.2746 -10.2636 -10.1014 -10.0889  -3.5343  -3.5159  -3.1052  -3.0905
    -1.9861  -1.9199  -1.3617  -1.3157  -0.4538  -0.4247   0.1463   0.2612
     1.4547   1.4763

          k = 0.1707 0.5910 0.0000 ( 11612 PWs)   bands (ev):

   -58.7211 -58.7211 -33.1101 -33.1101 -32.8848 -32.8847 -32.8795 -32.8795
   -10.1180 -10.1074 -10.0369 -10.0253  -3.6125  -3.5956  -3.3090  -3.2943
    -2.1241  -2.0646  -1.2742  -1.2401  -0.4435  -0.4085  -0.0485   0.0728
     1.6337   1.6624

          k = 0.1705-0.4925 0.0000 ( 11614 PWs)   bands (ev):

   -58.7238 -58.7237 -33.0913 -33.0913 -32.8900 -32.8900 -32.8678 -32.8678
   -10.2748 -10.2637 -10.1016 -10.0891  -3.5340  -3.5156  -3.1050  -3.0903
    -1.9862  -1.9199  -1.3616  -1.3156  -0.4541  -0.4249   0.1462   0.2611
     1.4551   1.4768

          k = 0.1705-0.3940 0.0000 ( 11595 PWs)   bands (ev):

   -58.7310 -58.7310 -33.0392 -33.0392 -32.9042 -32.9042 -32.8363 -32.8363
   -10.6690 -10.6570 -10.2652 -10.2504  -3.3261  -3.3001  -2.5462  -2.5302
    -1.8556  -1.7772  -1.4631  -1.4004  -0.3297  -0.3167   0.5415   0.6566
     1.2029   1.2191

          k = 0.1706-0.2955 0.0000 ( 11609 PWs)   bands (ev):

   -58.7409 -58.7409 -32.9654 -32.9654 -32.9236 -32.9236 -32.7951 -32.7951
   -11.1467 -11.1337 -10.4648 -10.4471  -3.1416  -3.0887  -1.9438  -1.8866
    -1.8274  -1.7936  -1.3469  -1.2859  -0.0056   0.0012   0.8513   0.9826
     1.1278   1.1615

          k = 0.1706-0.1970 0.0000 ( 11626 PWs)   bands (ev):

   -58.7508 -58.7508 -32.9429 -32.9429 -32.8867 -32.8867 -32.7577 -32.7577
   -11.5737 -11.5604 -10.6433 -10.6229  -3.2409  -3.1530  -1.7829  -1.7617
    -1.4307  -1.3433  -0.6672  -0.6469  -0.0019   0.0008   0.8689   1.0300
     1.3215   1.3991

          k = 0.1706-0.0985 0.0000 ( 11653 PWs)   bands (ev):

   -58.7581 -58.7581 -32.9571 -32.9570 -32.8225 -32.8225 -32.7364 -32.7364
   -11.8622 -11.8487 -10.7634 -10.7411  -3.4555  -3.3561  -1.4492  -1.4408
    -1.1082  -0.9931  -0.2197  -0.2183  -0.0762  -0.0741   0.7745   0.9607
     1.5433   1.6741

          k = 0.1706-0.0000 0.0000 ( 11651 PWs)   bands (ev):

   -58.7608 -58.7607 -32.9622 -32.9622 -32.7952 -32.7952 -32.7322 -32.7322
   -11.9636 -11.9500 -10.8054 -10.7824  -3.5460  -3.4443  -1.2856  -1.2804
    -0.8973  -0.7582  -0.3316  -0.3301  -0.0779  -0.0721   0.9010   1.0755
     1.6196   1.7765

          k = 0.2560 0.1477 0.0000 ( 11651 PWs)   bands (ev):

   -58.7467 -58.7466 -32.9348 -32.9347 -32.9318 -32.9318 -32.7616 -32.7616
   -11.3972 -11.3840 -10.5713 -10.5520  -3.2210  -3.1501  -1.9286  -1.8898
    -1.7649  -1.6963  -0.5315  -0.5291   0.2274   0.2300   0.5075   0.6833
     1.1409   1.2030

          k = 0.2560 0.2462 0.0000 ( 11621 PWs)   bands (ev):

   -58.7394 -58.7394 -32.9904 -32.9904 -32.9206 -32.9206 -32.7876 -32.7876
   -11.0743 -11.0615 -10.4375 -10.4202  -3.2459  -3.2022  -2.0890  -2.0420
    -1.9801  -1.9187  -1.0621  -1.0281   0.2281   0.2375   0.5659   0.7072
     1.0567   1.0942

          k = 0.2560 0.3447 0.0000 ( 11595 PWs)   bands (ev):

   -58.7310 -58.7309 -33.0392 -33.0392 -32.9042 -32.9042 -32.8365 -32.8365
   -10.6688 -10.6567 -10.2648 -10.2500  -3.3263  -3.3003  -2.5465  -2.5305
    -1.8554  -1.7770  -1.4636  -1.4008  -0.3296  -0.3166   0.5416   0.6567
     1.2026   1.2188

          k = 0.2560 0.4432 0.0000 ( 11589 PWs)   bands (ev):

   -58.7237 -58.7237 -33.0657 -33.0657 -32.8944 -32.8944 -32.8900 -32.8900
   -10.2825 -10.2713 -10.0947 -10.0821  -3.3304  -3.3108  -3.1293  -3.1197
    -1.7293  -1.6511  -1.4112  -1.3522  -1.0505  -1.0336   0.2394   0.3447
     1.4310   1.4422

          k = 0.2561 0.5417 0.0000 ( 11592 PWs)   bands (ev):

   -58.7196 -58.7195 -33.0711 -33.0711 -32.9377 -32.9377 -32.8818 -32.8817
   -10.0416 -10.0311  -9.9850  -9.9738  -3.4952  -3.4858  -3.2027  -3.1862
    -1.9807  -1.9343  -1.3394  -1.2901  -1.1939  -1.1511  -0.1185  -0.0055
     1.7473   1.7627

          k = 0.2561 0.6402 0.0000 ( 11594 PWs)   bands (ev):

   -58.7196 -58.7195 -33.0711 -33.0711 -32.9377 -32.9377 -32.8818 -32.8817
   -10.0416 -10.0312  -9.9851  -9.9739  -3.4950  -3.4857  -3.2025  -3.1859
    -1.9808  -1.9344  -1.3396  -1.2902  -1.1938  -1.1510  -0.1186  -0.0057
     1.7475   1.7629

          k = 0.2558-0.4433 0.0000 ( 11587 PWs)   bands (ev):

   -58.7237 -58.7237 -33.0657 -33.0657 -32.8943 -32.8943 -32.8900 -32.8900
   -10.2827 -10.2715 -10.0950 -10.0823  -3.3301  -3.3105  -3.1289  -3.1193
    -1.7293  -1.6510  -1.4110  -1.3520  -1.0508  -1.0339   0.2392   0.3446
     1.4314   1.4427

          k = 0.2559-0.3448 0.0000 ( 11595 PWs)   bands (ev):

   -58.7310 -58.7310 -33.0392 -33.0392 -32.9042 -32.9042 -32.8364 -32.8364
   -10.6690 -10.6569 -10.2652 -10.2503  -3.3260  -3.3000  -2.5462  -2.5302
    -1.8555  -1.7770  -1.4633  -1.4005  -0.3299  -0.3169   0.5415   0.6566
     1.2029   1.2192

          k = 0.2559-0.2463 0.0000 ( 11619 PWs)   bands (ev):

   -58.7394 -58.7394 -32.9905 -32.9905 -32.9206 -32.9206 -32.7874 -32.7874
   -11.0745 -11.0617 -10.4378 -10.4206  -3.2459  -3.2021  -2.0892  -2.0420
    -1.9803  -1.9190  -1.0613  -1.0273   0.2283   0.2377   0.5659   0.7071
     1.0566   1.0942

          k = 0.2559-0.1478 0.0000 ( 11653 PWs)   bands (ev):

   -58.7467 -58.7467 -32.9348 -32.9348 -32.9319 -32.9319 -32.7615 -32.7614
   -11.3973 -11.3841 -10.5715 -10.5522  -3.2210  -3.1501  -1.9290  -1.8903
    -1.7652  -1.6967  -0.5303  -0.5280   0.2281   0.2307   0.5074   0.6831
     1.1403   1.2025

          k = 0.2559-0.0493 0.0000 ( 11626 PWs)   bands (ev):

   -58.7508 -58.7508 -32.9429 -32.9429 -32.8867 -32.8867 -32.7578 -32.7578
   -11.5736 -11.5602 -10.6432 -10.6227  -3.2409  -3.1529  -1.7830  -1.7618
    -1.4308  -1.3434  -0.6673  -0.6470  -0.0020   0.0007   0.8689   1.0301
     1.3216   1.3992

          k = 0.2559 0.0492 0.0000 ( 11626 PWs)   bands (ev):

   -58.7508 -58.7508 -32.9429 -32.9429 -32.8866 -32.8866 -32.7579 -32.7579
   -11.5736 -11.5602 -10.6431 -10.6227  -3.2409  -3.1529  -1.7827  -1.7615
    -1.4304  -1.3430  -0.6680  -0.6477  -0.0024   0.0003   0.8689   1.0301
     1.3219   1.3994

          k = 0.3413 0.1970 0.0000 ( 11564 PWs)   bands (ev):

   -58.7351 -58.7350 -33.0394 -33.0394 -32.9124 -32.9123 -32.7866 -32.7866
   -10.8715 -10.8591 -10.3591 -10.3431  -3.4556  -3.4257  -2.3926  -2.3483
    -2.0450  -1.9758  -0.9125  -0.9099   0.1932   0.3535   0.6713   0.6760
     0.8899   0.9439

          k = 0.3413 0.2955 0.0000 ( 11614 PWs)   bands (ev):

   -58.7295 -58.7294 -33.0790 -33.0790 -32.9011 -32.9011 -32.8133 -32.8133
   -10.5808 -10.5690 -10.2392 -10.2250  -3.5953  -3.5734  -2.6936  -2.6641
    -2.0428  -1.9728  -1.2302  -1.2026   0.2086   0.3224   0.3272   0.3727
     1.1984   1.2305

          k = 0.3413 0.3940 0.0000 ( 11614 PWs)   bands (ev):

   -58.7237 -58.7237 -33.0913 -33.0913 -32.8899 -32.8899 -32.8680 -32.8680
   -10.2744 -10.2634 -10.1010 -10.0885  -3.5340  -3.5156  -3.1055  -3.0908
    -1.9859  -1.9197  -1.3624  -1.3164  -0.4545  -0.4254   0.1465   0.2615
     1.4550   1.4767

          k = 0.3414 0.4925 0.0000 ( 11594 PWs)   bands (ev):

   -58.7196 -58.7195 -33.0710 -33.0710 -32.9378 -32.9378 -32.8818 -32.8817
   -10.0414 -10.0310  -9.9848  -9.9736  -3.4954  -3.4861  -3.2026  -3.1861
    -1.9806  -1.9342  -1.3399  -1.2905  -1.1942  -1.1515  -0.1182  -0.0053
     1.7474   1.7628

          k = 0.3414 0.5910 0.0000 ( 11595 PWs)   bands (ev):

   -58.7180 -58.7179 -33.0385 -33.0385 -32.9885 -32.9885 -32.8788 -32.8788
    -9.9558  -9.9453  -9.9374  -9.9269  -3.6503  -3.6421  -2.7910  -2.7759
    -2.2647  -2.2499  -1.6781  -1.5959  -1.0259  -0.9962  -0.3192  -0.1960
     1.9444   1.9583

          k = 0.3414 0.6895 0.0000 ( 11594 PWs)   bands (ev):

   -58.7196 -58.7195 -33.0710 -33.0710 -32.9377 -32.9377 -32.8818 -32.8817
   -10.0416 -10.0311  -9.9850  -9.9738  -3.4951  -3.4858  -3.2024  -3.1859
    -1.9807  -1.9343  -1.3397  -1.2903  -1.1939  -1.1511  -0.1185  -0.0056
     1.7476   1.7630

          k = 0.3412-0.3940 0.0000 ( 11614 PWs)   bands (ev):

   -58.7238 -58.7237 -33.0913 -33.0913 -32.8900 -32.8900 -32.8679 -32.8679
   -10.2747 -10.2636 -10.1014 -10.0889  -3.5339  -3.5155  -3.1051  -3.0904
    -1.9861  -1.9199  -1.3618  -1.3158  -0.4543  -0.4252   0.1462   0.2612
     1.4552   1.4769

          k = 0.3412-0.2955 0.0000 ( 11614 PWs)   bands (ev):

   -58.7295 -58.7295 -33.0791 -33.0791 -32.9012 -32.9012 -32.8131 -32.8131
   -10.5810 -10.5692 -10.2397 -10.2255  -3.5953  -3.5734  -2.6934  -2.6639
    -2.0431  -1.9730  -1.2293  -1.2017   0.2084   0.3223   0.3273   0.3727
     1.1985   1.2307

          k = 0.3412-0.1970 0.0000 ( 11564 PWs)   bands (ev):

   -58.7351 -58.7351 -33.0395 -33.0395 -32.9124 -32.9124 -32.7864 -32.7864
   -10.8717 -10.8593 -10.3594 -10.3435  -3.4556  -3.4258  -2.3927  -2.3484
    -2.0454  -1.9761  -0.9113  -0.9087   0.1929   0.3532   0.6721   0.6768
     0.8893   0.9434

          k = 0.3412-0.0985 0.0000 ( 11621 PWs)   bands (ev):

   -58.7394 -58.7394 -32.9905 -32.9905 -32.9206 -32.9206 -32.7875 -32.7875
   -11.0744 -11.0616 -10.4377 -10.4204  -3.2460  -3.2023  -2.0895  -2.0424
    -1.9805  -1.9192  -1.0612  -1.0272   0.2289   0.2382   0.5660   0.7071
     1.0562   1.0938

          k = 0.3413-0.0000 0.0000 ( 11609 PWs)   bands (ev):

   -58.7409 -58.7409 -32.9654 -32.9654 -32.9236 -32.9236 -32.7952 -32.7952
   -11.1464 -11.1335 -10.4645 -10.4468  -3.1417  -3.0888  -1.9440  -1.8867
    -1.8277  -1.7940  -1.3472  -1.2861  -0.0052   0.0015   0.8514   0.9827
     1.1275   1.1613

          k = 0.3413 0.0985 0.0000 ( 11621 PWs)   bands (ev):

   -58.7394 -58.7394 -32.9904 -32.9904 -32.9206 -32.9206 -32.7876 -32.7876
   -11.0743 -11.0615 -10.4375 -10.4202  -3.2460  -3.2023  -2.0891  -2.0421
    -1.9802  -1.9188  -1.0621  -1.0281   0.2283   0.2377   0.5660   0.7072
     1.0565   1.0941

          k = 0.4266 0.2462 0.0000 ( 11590 PWs)   bands (ev):

   -58.7268 -58.7267 -33.1172 -33.1172 -32.8959 -32.8959 -32.8048 -32.8048
   -10.4291 -10.4178 -10.1873 -10.1742  -3.8466  -3.8275  -2.8526  -2.8197
    -2.1697  -2.1049  -1.1594  -1.1567  -0.0034   0.1453   0.9729   0.9801
     1.0719   1.1426

          k = 0.4266 0.3447 0.0000 ( 11609 PWs)   bands (ev):

   -58.7237 -58.7237 -33.1296 -33.1296 -32.8899 -32.8899 -32.8281 -32.8280
   -10.2582 -10.2473 -10.1138 -10.1016  -3.8729  -3.8550  -3.0531  -3.0282
    -2.1909  -2.1289  -1.2764  -1.2590  -0.0094   0.1251   0.4629   0.4948
     1.4416   1.4848

          k = 0.4267 0.4432 0.0000 ( 11616 PWs)   bands (ev):

   -58.7211 -58.7210 -33.1101 -33.1101 -32.8847 -32.8847 -32.8798 -32.8798
   -10.1177 -10.1071 -10.0363 -10.0248  -3.6123  -3.5954  -3.3095  -3.2948
    -2.1240  -2.0646  -1.2752  -1.2410  -0.4442  -0.4092  -0.0480   0.0733
     1.6339   1.6626

          k = 0.4267 0.5417 0.0000 ( 11594 PWs)   bands (ev):

   -58.7196 -58.7195 -33.0710 -33.0710 -32.9378 -32.9378 -32.8818 -32.8817
   -10.0414 -10.0309  -9.9847  -9.9735  -3.4955  -3.4861  -3.2027  -3.1862
    -1.9805  -1.9341  -1.3398  -1.2904  -1.1943  -1.1515  -0.1182  -0.0053
     1.7473   1.7627

          k = 0.4267 0.6402 0.0000 ( 11592 PWs)   bands (ev):

   -58.7196 -58.7195 -33.0711 -33.0711 -32.9378 -32.9378 -32.8818 -32.8817
   -10.0415 -10.0310  -9.9849  -9.9737  -3.4953  -3.4860  -3.2028  -3.1863
    -1.9806  -1.9342  -1.3395  -1.2901  -1.1940  -1.1513  -0.1183  -0.0054
     1.7472   1.7626

          k = 0.4267 0.7387 0.0000 ( 11614 PWs)   bands (ev):

   -58.7211 -58.7211 -33.1101 -33.1101 -32.8847 -32.8847 -32.8796 -32.8796
   -10.1179 -10.1073 -10.0367 -10.0252  -3.6124  -3.5955  -3.3091  -3.2945
    -2.1240  -2.0646  -1.2745  -1.2404  -0.4438  -0.4088  -0.0483   0.0729
     1.6337   1.6624

          k = 0.4265-0.3448 0.0000 ( 11609 PWs)   bands (ev):

   -58.7237 -58.7237 -33.1297 -33.1297 -32.8899 -32.8899 -32.8279 -32.8279
   -10.2585 -10.2476 -10.1143 -10.1021  -3.8730  -3.8552  -3.0527  -3.0279
    -2.1909  -2.1290  -1.2754  -1.2580  -0.0099   0.1246   0.4633   0.4953
     1.4415   1.4847

          k = 0.4265-0.2463 0.0000 ( 11586 PWs)   bands (ev):

   -58.7268 -58.7267 -33.1172 -33.1172 -32.8959 -32.8959 -32.8046 -32.8046
   -10.4294 -10.4180 -10.1878 -10.1747  -3.8468  -3.8277  -2.8524  -2.8195
    -2.1698  -2.1050  -1.1581  -1.1554  -0.0038   0.1448   0.9738   0.9810
     1.0712   1.1419

          k = 0.4265-0.1478 0.0000 ( 11614 PWs)   bands (ev):

   -58.7295 -58.7295 -33.0791 -33.0791 -32.9012 -32.9012 -32.8131 -32.8131
   -10.5809 -10.5691 -10.2395 -10.2254  -3.5955  -3.5737  -2.6936  -2.6641
    -2.0431  -1.9730  -1.2294  -1.2017   0.2085   0.3226   0.3278   0.3730
     1.1980   1.2302

          k = 0.4266-0.0493 0.0000 ( 11599 PWs)   bands (ev):

   -58.7310 -58.7310 -33.0393 -33.0392 -32.9042 -32.9042 -32.8364 -32.8364
   -10.6687 -10.6567 -10.2649 -10.2500  -3.3264  -3.3005  -2.5467  -2.5307
    -1.8557  -1.7772  -1.4633  -1.4006  -0.3291  -0.3161   0.5417   0.6567
     1.2022   1.2185

          k = 0.4266 0.0492 0.0000 ( 11597 PWs)   bands (ev):

   -58.7310 -58.7309 -33.0392 -33.0392 -32.9042 -32.9042 -32.8365 -32.8365
   -10.6687 -10.6566 -10.2647 -10.2499  -3.3264  -3.3004  -2.5467  -2.5307
    -1.8555  -1.7770  -1.4636  -1.4009  -0.3293  -0.3163   0.5417   0.6568
     1.2023   1.2186

          k = 0.4266 0.1477 0.0000 ( 11614 PWs)   bands (ev):

   -58.7295 -58.7294 -33.0790 -33.0790 -32.9011 -32.9011 -32.8133 -32.8133
   -10.5807 -10.5689 -10.2392 -10.2250  -3.5954  -3.5735  -2.6936  -2.6642
    -2.0429  -1.9728  -1.2303  -1.2027   0.2086   0.3227   0.3275   0.3727
     1.1982   1.2303

          k =-0.5119-0.2954 0.0000 ( 11612 PWs)   bands (ev):

   -58.7237 -58.7237 -33.1454 -33.1454 -32.8899 -32.8899 -32.8115 -32.8114
   -10.2500 -10.2392 -10.1202 -10.1082  -4.0179  -4.0001  -3.0243  -2.9943
    -2.2575  -2.1970  -1.2444  -1.2416  -0.0657   0.0786   1.0732   1.0816
     1.2469   1.3250

          k =-0.5119-0.1969 0.0000 ( 11611 PWs)   bands (ev):

   -58.7237 -58.7237 -33.1297 -33.1297 -32.8899 -32.8899 -32.8281 -32.8280
   -10.2582 -10.2473 -10.1138 -10.1016  -3.8729  -3.8551  -3.0531  -3.0283
    -2.1909  -2.1289  -1.2764  -1.2590  -0.0094   0.1252   0.4630   0.4949
     1.4415   1.4847

          k =-0.5119-0.0984 0.0000 ( 11614 PWs)   bands (ev):

   -58.7237 -58.7237 -33.0913 -33.0913 -32.8899 -32.8899 -32.8680 -32.8680
   -10.2744 -10.2633 -10.1010 -10.0885  -3.5342  -3.5158  -3.1056  -3.0909
    -1.9859  -1.9197  -1.3624  -1.3164  -0.4543  -0.4252   0.1466   0.2616
     1.4548   1.4765

          k =-0.5119 0.0001 0.0000 ( 11589 PWs)   bands (ev):

   -58.7237 -58.7237 -33.0657 -33.0657 -32.8944 -32.8944 -32.8900 -32.8900
   -10.2824 -10.2712 -10.0946 -10.0819  -3.3306  -3.3110  -3.1295  -3.1198
    -1.7294  -1.6511  -1.4113  -1.3523  -1.0503  -1.0334   0.2395   0.3448
     1.4307   1.4420

          k =-0.5119 0.0986 0.0000 ( 11614 PWs)   bands (ev):

   -58.7238 -58.7237 -33.0914 -33.0914 -32.8900 -32.8899 -32.8679 -32.8679
   -10.2745 -10.2634 -10.1012 -10.0888  -3.5343  -3.5159  -3.1054  -3.0907
    -1.9860  -1.9198  -1.3619  -1.3159  -0.4539  -0.4248   0.1464   0.2614
     1.4546   1.4762

          k =-0.5118 0.1971 0.0000 ( 11611 PWs)   bands (ev):

   -58.7237 -58.7237 -33.1297 -33.1297 -32.8899 -32.8899 -32.8279 -32.8279
   -10.2584 -10.2475 -10.1143 -10.1021  -3.8731  -3.8553  -3.0528  -3.0280
    -2.1909  -2.1290  -1.2754  -1.2580  -0.0098   0.1247   0.4635   0.4955
     1.4412   1.4844

          k =-0.5121-0.8864 0.0000 ( 11612 PWs)   bands (ev):

   -58.7238 -58.7237 -33.1455 -33.1455 -32.8899 -32.8899 -32.8112 -32.8112
   -10.2503 -10.2395 -10.1208 -10.1087  -4.0182  -4.0003  -3.0240  -2.9940
    -2.2575  -2.1970  -1.2431  -1.2404  -0.0662   0.0780   1.0743   1.0826
     1.2462   1.3243

     highest occupied level (ev):     1.9981

!    total energy              =    -979.51193484 Ry

     total all-electron energy =    -19376.427625 Ry
     estimated scf accuracy    <          8.6E-15 Ry

     The total energy is the sum of the following terms:
     one-electron contribution =   -2375.07741469 Ry
     hartree contribution      =    1198.19305597 Ry
     xc contribution           =     -59.04876585 Ry
     ewald contribution        =     882.20390644 Ry
     one-center paw contrib.   =    -625.78271672 Ry

     convergence has been achieved in  44 iterations

     negative rho (up, down):  3.556E-04 0.000E+00

     Forces acting on atoms (cartesian axes, Ry/au):

     atom    1 type  1   force =     0.00004081    0.00003434   -0.00009433
     atom    2 type  2   force =    -0.00000402   -0.00002676   -0.00033915
     atom    3 type  2   force =    -0.00003679   -0.00000757    0.00038076
     atom    4 type  1   force =     0.00004081    0.00003434    0.00009433
     atom    5 type  2   force =    -0.00003679   -0.00000757   -0.00038076
     atom    6 type  2   force =    -0.00000402   -0.00002676    0.00033915

     Total force =     0.000736     Total SCF correction =     0.000001


     Computing stress (Cartesian axis) and pressure


     negative rho (up, down):  3.556E-04 0.000E+00
          total   stress  (Ry/bohr**3)                   (kbar)     P=       -0.68
  -0.00000041   0.00000022   0.00000000           -0.06        0.03        0.00
   0.00000022  -0.00000097   0.00000000            0.03       -0.14        0.00
   0.00000000   0.00000000  -0.00001256            0.00        0.00       -1.85


     Writing output data file /scratch/as3359/MoS2_loop/Ta.save/
 
     init_run     :     26.40s CPU     14.94s WALL (       2 calls)
     electrons    :  17217.36s CPU   8783.17s WALL (      20 calls)
     update_pot   :    109.92s CPU     65.55s WALL (      18 calls)
     forces       :     91.23s CPU     46.25s WALL (      20 calls)
     stress       :    254.00s CPU    128.92s WALL (      20 calls)

     Called by init_run:
     wfcinit      :     14.55s CPU      7.48s WALL (       2 calls)
     potinit      :      3.44s CPU      1.75s WALL (       2 calls)
     hinit0       :      7.76s CPU      5.31s WALL (       2 calls)

     Called by electrons:
     c_bands      :  14586.64s CPU   7394.23s WALL (     922 calls)
     sum_band     :   2168.19s CPU   1129.11s WALL (     922 calls)
     v_of_rho     :     79.19s CPU     40.38s WALL (     941 calls)
     newd         :    153.41s CPU    100.71s WALL (     941 calls)
     PAW_pot      :    206.17s CPU    104.66s WALL (     959 calls)
     mix_rho      :     24.16s CPU     12.34s WALL (     922 calls)

     Called by c_bands:
     init_us_2    :    263.81s CPU    132.82s WALL (  140896 calls)
     cegterg      :  13931.58s CPU   7062.45s WALL (   68798 calls)

     Called by *egterg:
     cdiaghg      :    420.72s CPU    215.58s WALL (  343398 calls)
     h_psi        :  11229.20s CPU   5701.83s WALL (  345281 calls)
     s_psi        :    402.46s CPU    202.32s WALL (  345281 calls)
     g_psi        :     78.63s CPU     39.55s WALL (  276335 calls)

     Called by h_psi:
     h_psi:calbec :    385.88s CPU    194.69s WALL (  345281 calls)
     vloc_psi     :  10292.55s CPU   5230.48s WALL (  345281 calls)
     add_vuspsi   :    476.51s CPU    239.51s WALL (  345281 calls)

     General routines
     calbec       :    494.23s CPU    249.52s WALL (  422241 calls)
     fft          :     36.09s CPU     18.49s WALL (   12712 calls)
     ffts         :      3.81s CPU      1.98s WALL (    1863 calls)
     fftw         :  10511.47s CPU   5340.68s WALL (12640424 calls)
     interpolate  :      7.21s CPU      3.74s WALL (     941 calls)
 
     Parallel routines
 
     PWSCF        :      4h55m CPU      2h30m WALL

 
   This run was terminated on:  12:39:14   8Apr2022            

=------------------------------------------------------------------------------=
   JOB DONE.
=------------------------------------------------------------------------------=
