
     Program PWSCF v.6.8 starts on  6Apr2022 at 17:49:10 

     This program is part of the open-source Quantum ESPRESSO suite
     for quantum simulation of materials; please cite
         "P. Giannozzi et al., J. Phys.:Condens. Matter 21 395502 (2009);
         "P. Giannozzi et al., J. Phys.:Condens. Matter 29 465901 (2017);
         "P. Giannozzi et al., J. Chem. Phys. 152 154105 (2020);
          URL http://www.quantum-espresso.org", 
     in publications or presentations arising from this work. More details at
     http://www.quantum-espresso.org/quote

     Parallel version (MPI & OpenMP), running on       4 processor cores
     Number of MPI processes:                 2
     Threads/MPI process:                     2

     MPI processes distributed on     1 nodes
     R & G space division:  proc/nbgrp/npool/nimage =       2
     125248 MiB available memory on the printing compute node when the environment starts
 
     Reading input from Ta4C3.vcrelax.in

     Current dimensions of program PWSCF are:
     Max number of different atomic species (ntypx) = 10
     Max number of k-points (npk) =  40000
     Max angular momentum in pseudopotentials (lmaxx) =  4
     file Ta.pbesol-spfn-rrkjus_psl.1.0.0.UPF: wavefunction(s)  5S 5P renormalized

     Subspace diagonalization in iterative solution of the eigenvalue problem:
     a serial algorithm will be used

 
     Parallelization info
     --------------------
     sticks:   dense  smooth     PW     G-vecs:    dense   smooth      PW
     Min         594     360    111                83822    38979    6895
     Max         595     361    112                83825    38982    6896
     Sum        1189     721    223               167647    77961   13791
 
     Using Slab Decomposition
 


     bravais-lattice index     =            0
     lattice parameter (alat)  =       5.5500  a.u.
     unit-cell volume          =    1242.1942 (a.u.)^3
     number of atoms/cell      =            7
     number of atomic types    =            2
     number of electrons       =       120.00
     number of Kohn-Sham states=           72
     kinetic-energy cutoff     =      60.0000  Ry
     charge density cutoff     =     400.0000  Ry
     scf convergence threshold =      1.0E-12
     mixing beta               =       0.7000
     number of iterations used =            8  plain     mixing
     energy convergence thresh.=      1.0E-04
     force convergence thresh. =      1.0E-03
     press convergence thresh. =      5.0E-01
     Exchange-correlation= PBESOL
                           (   1   4  10   8   0   0   0)
     nstep                     =           50


     celldm(1)=   5.550000  celldm(2)=   0.000000  celldm(3)=   0.000000
     celldm(4)=   0.000000  celldm(5)=   0.000000  celldm(6)=   0.000000

     crystal axes: (cart. coord. in units of alat)
               a(1) = (   1.182549   0.000005   0.000000 )  
               a(2) = (  -0.591270   1.024092   0.000000 )  
               a(3) = (   0.000000   0.000000   6.000000 )  

     reciprocal axes: (cart. coord. in units 2 pi/alat)
               b(1) = (  0.845629  0.488232  0.000000 )  
               b(2) = ( -0.000005  0.976472  0.000000 )  
               b(3) = (  0.000000  0.000000  0.166667 )  


     PseudoPot. # 1 for Ta read from file:
     /shared/home/as3359/pseudo/Ta.pbesol-spfn-rrkjus_psl.1.0.0.UPF
     MD5 check sum: f099565ffaca9b150a52e9412a28e20b
     Pseudo is Ultrasoft + core correction, Zval = 27.0
     Generated using &quot;atomic&quot; code by A. Dal Corso  v.6.3
     Using radial grid of 1273 points,  8 beta functions with: 
                l(1) =   0
                l(2) =   0
                l(3) =   1
                l(4) =   1
                l(5) =   2
                l(6) =   2
                l(7) =   3
                l(8) =   3
     Q(r) pseudized with 0 coefficients 


     PseudoPot. # 2 for C  read from file:
     /shared/home/as3359/pseudo/C.pbesol-n-rrkjus_psl.1.0.0.UPF
     MD5 check sum: 05995be603a8a7c99da3dc4413f31573
     Pseudo is Ultrasoft + core correction, Zval =  4.0
     Generated using &quot;atomic&quot; code by A. Dal Corso  v.6.3MaX
     Using radial grid of 1073 points,  4 beta functions with: 
                l(1) =   0
                l(2) =   0
                l(3) =   1
                l(4) =   1
     Q(r) pseudized with 0 coefficients 


     atomic species   valence    mass     pseudopotential
        Ta            27.00   180.94788     Ta( 1.00)
        C              4.00    12.01070     C ( 1.00)

     No symmetry found



   Cartesian axes

     site n.     atom                  positions (alat units)
         1           Ta  tau(   1) = (   0.0000010   0.6827247   0.2387073  )
         2           C   tau(   2) = (   0.0000024   0.0000057   0.5346217  )
         3           Ta  tau(   3) = (   0.5912747   0.3413643   0.8567907  )
         4           C   tau(   4) = (   0.0000031   0.6827295   1.1864855  )
         5           Ta  tau(   5) = (   0.0000051   0.0000122   1.4464720  )
         6           C   tau(   6) = (   0.5912748   0.3413646   1.7116588  )
         7           Ta  tau(   7) = (   0.0000007   0.6827239   1.9398306  )

     number of k points=    74  Marzari-Vanderbilt smearing, width (Ry)=  0.0010
                       cart. coord. in units 2pi/alat
        k(    1) = (   0.0000000   0.0000000   0.0000000), wk =   0.0138889
        k(    2) = (  -0.0000004   0.0813727   0.0000000), wk =   0.0277778
        k(    3) = (  -0.0000008   0.1627454   0.0000000), wk =   0.0277778
        k(    4) = (  -0.0000011   0.2441180   0.0000000), wk =   0.0277778
        k(    5) = (  -0.0000015   0.3254907   0.0000000), wk =   0.0277778
        k(    6) = (  -0.0000019   0.4068634   0.0000000), wk =   0.0277778
        k(    7) = (   0.0000023  -0.4882361   0.0000000), wk =   0.0138889
        k(    8) = (   0.0704691   0.0406860   0.0000000), wk =   0.0277778
        k(    9) = (   0.0704687   0.1220587   0.0000000), wk =   0.0277778
        k(   10) = (   0.0704683   0.2034314   0.0000000), wk =   0.0277778
        k(   11) = (   0.0704679   0.2848041   0.0000000), wk =   0.0277778
        k(   12) = (   0.0704675   0.3661767   0.0000000), wk =   0.0277778
        k(   13) = (   0.0704672   0.4475494   0.0000000), wk =   0.0277778
        k(   14) = (   0.0704713  -0.4475501   0.0000000), wk =   0.0277778
        k(   15) = (   0.0704709  -0.3661774   0.0000000), wk =   0.0277778
        k(   16) = (   0.0704706  -0.2848047   0.0000000), wk =   0.0277778
        k(   17) = (   0.0704702  -0.2034320   0.0000000), wk =   0.0277778
        k(   18) = (   0.0704698  -0.1220593   0.0000000), wk =   0.0277778
        k(   19) = (   0.0704694  -0.0406867   0.0000000), wk =   0.0277778
        k(   20) = (   0.1409381   0.0813720   0.0000000), wk =   0.0277778
        k(   21) = (   0.1409377   0.1627447   0.0000000), wk =   0.0277778
        k(   22) = (   0.1409374   0.2441174   0.0000000), wk =   0.0277778
        k(   23) = (   0.1409370   0.3254901   0.0000000), wk =   0.0277778
        k(   24) = (   0.1409366   0.4068627   0.0000000), wk =   0.0277778
        k(   25) = (   0.1409362   0.4882354   0.0000000), wk =   0.0277778
        k(   26) = (   0.1409404  -0.4068641   0.0000000), wk =   0.0277778
        k(   27) = (   0.1409400  -0.3254914   0.0000000), wk =   0.0277778
        k(   28) = (   0.1409396  -0.2441187   0.0000000), wk =   0.0277778
        k(   29) = (   0.1409392  -0.1627460   0.0000000), wk =   0.0277778
        k(   30) = (   0.1409389  -0.0813733   0.0000000), wk =   0.0277778
        k(   31) = (   0.1409385  -0.0000007   0.0000000), wk =   0.0277778
        k(   32) = (   0.2114072   0.1220580   0.0000000), wk =   0.0277778
        k(   33) = (   0.2114068   0.2034307   0.0000000), wk =   0.0277778
        k(   34) = (   0.2114064   0.2848034   0.0000000), wk =   0.0277778
        k(   35) = (   0.2114060   0.3661761   0.0000000), wk =   0.0277778
        k(   36) = (   0.2114057   0.4475488   0.0000000), wk =   0.0277778
        k(   37) = (   0.2114053   0.5289214   0.0000000), wk =   0.0277778
        k(   38) = (   0.2114094  -0.3661780   0.0000000), wk =   0.0277778
        k(   39) = (   0.2114091  -0.2848054   0.0000000), wk =   0.0277778
        k(   40) = (   0.2114087  -0.2034327   0.0000000), wk =   0.0277778
        k(   41) = (   0.2114083  -0.1220600   0.0000000), wk =   0.0277778
        k(   42) = (   0.2114079  -0.0406873   0.0000000), wk =   0.0277778
        k(   43) = (   0.2114075   0.0406854   0.0000000), wk =   0.0277778
        k(   44) = (   0.2818762   0.1627441   0.0000000), wk =   0.0277778
        k(   45) = (   0.2818758   0.2441167   0.0000000), wk =   0.0277778
        k(   46) = (   0.2818755   0.3254894   0.0000000), wk =   0.0277778
        k(   47) = (   0.2818751   0.4068621   0.0000000), wk =   0.0277778
        k(   48) = (   0.2818747   0.4882348   0.0000000), wk =   0.0277778
        k(   49) = (   0.2818743   0.5696074   0.0000000), wk =   0.0277778
        k(   50) = (   0.2818785  -0.3254920   0.0000000), wk =   0.0277778
        k(   51) = (   0.2818781  -0.2441193   0.0000000), wk =   0.0277778
        k(   52) = (   0.2818777  -0.1627467   0.0000000), wk =   0.0277778
        k(   53) = (   0.2818773  -0.0813740   0.0000000), wk =   0.0277778
        k(   54) = (   0.2818770  -0.0000013   0.0000000), wk =   0.0277778
        k(   55) = (   0.2818766   0.0813714   0.0000000), wk =   0.0277778
        k(   56) = (   0.3523453   0.2034301   0.0000000), wk =   0.0277778
        k(   57) = (   0.3523449   0.2848027   0.0000000), wk =   0.0277778
        k(   58) = (   0.3523445   0.3661754   0.0000000), wk =   0.0277778
        k(   59) = (   0.3523441   0.4475481   0.0000000), wk =   0.0277778
        k(   60) = (   0.3523438   0.5289208   0.0000000), wk =   0.0277778
        k(   61) = (   0.3523434   0.6102935   0.0000000), wk =   0.0277778
        k(   62) = (   0.3523475  -0.2848060   0.0000000), wk =   0.0277778
        k(   63) = (   0.3523472  -0.2034333   0.0000000), wk =   0.0277778
        k(   64) = (   0.3523468  -0.1220607   0.0000000), wk =   0.0277778
        k(   65) = (   0.3523464  -0.0406880   0.0000000), wk =   0.0277778
        k(   66) = (   0.3523460   0.0406847   0.0000000), wk =   0.0277778
        k(   67) = (   0.3523456   0.1220574   0.0000000), wk =   0.0277778
        k(   68) = (  -0.4228143  -0.2441161   0.0000000), wk =   0.0138889
        k(   69) = (  -0.4228147  -0.1627434   0.0000000), wk =   0.0277778
        k(   70) = (  -0.4228151  -0.0813707   0.0000000), wk =   0.0277778
        k(   71) = (  -0.4228155   0.0000020   0.0000000), wk =   0.0277778
        k(   72) = (  -0.4228158   0.0813746   0.0000000), wk =   0.0277778
        k(   73) = (  -0.4228162   0.1627473   0.0000000), wk =   0.0277778
        k(   74) = (  -0.4228121  -0.7323522   0.0000000), wk =   0.0138889

     Dense  grid:   167647 G-vectors     FFT dimensions: (  45,  45, 216)

     Smooth grid:    77961 G-vectors     FFT dimensions: (  36,  36, 180)

     Estimated max dynamical RAM per process >       1.20 GB

     Estimated total dynamical RAM >       2.39 GB

     Check: negative core charge=   -0.000002

     Initial potential from superposition of free atoms

     starting charge  119.99679, renormalised to  120.00000

     negative rho (up, down):  4.641E-05 0.000E+00
     Starting wfcs are   80 randomized atomic wfcs

     total cpu time spent up to now is       13.3 secs

     Self-consistent Calculation

     iteration #  1     ecut=    60.00 Ry     beta= 0.70
     Davidson diagonalization with overlap
     ethr =  1.00E-02,  avg # of iterations =  2.1

     negative rho (up, down):  1.033E-05 0.000E+00

     total cpu time spent up to now is       33.5 secs

     total energy              =   -2753.34874288 Ry
     estimated scf accuracy    <       7.13133806 Ry

     iteration #  2     ecut=    60.00 Ry     beta= 0.70
     Davidson diagonalization with overlap
     ethr =  5.94E-03,  avg # of iterations =  9.3

     total cpu time spent up to now is       75.8 secs

     total energy              =   -2689.58624954 Ry
     estimated scf accuracy    <    2085.96451995 Ry

     iteration #  3     ecut=    60.00 Ry     beta= 0.70
     Davidson diagonalization with overlap
     ethr =  5.94E-03,  avg # of iterations =  8.5

     total cpu time spent up to now is      113.1 secs

     total energy              =   -2751.61578939 Ry
     estimated scf accuracy    <      66.20531371 Ry

     iteration #  4     ecut=    60.00 Ry     beta= 0.70
     Davidson diagonalization with overlap
     ethr =  5.94E-03,  avg # of iterations =  6.0

     total cpu time spent up to now is      139.1 secs

     total energy              =   -2754.71942908 Ry
     estimated scf accuracy    <     101.25572623 Ry

     iteration #  5     ecut=    60.00 Ry     beta= 0.70
     Davidson diagonalization with overlap
     ethr =  5.94E-03,  avg # of iterations =  3.7

     total cpu time spent up to now is      161.0 secs

     total energy              =   -2758.47608109 Ry
     estimated scf accuracy    <       2.90291676 Ry

     iteration #  6     ecut=    60.00 Ry     beta= 0.70
     Davidson diagonalization with overlap
     ethr =  2.42E-03,  avg # of iterations =  2.6

     total cpu time spent up to now is      180.0 secs

     total energy              =   -2758.57741598 Ry
     estimated scf accuracy    <       0.71268689 Ry

     iteration #  7     ecut=    60.00 Ry     beta= 0.70
     Davidson diagonalization with overlap
     ethr =  5.94E-04,  avg # of iterations =  6.9

     total cpu time spent up to now is      202.5 secs

     total energy              =   -2758.57763041 Ry
     estimated scf accuracy    <       0.37279645 Ry

     iteration #  8     ecut=    60.00 Ry     beta= 0.70
     Davidson diagonalization with overlap
     ethr =  3.11E-04,  avg # of iterations =  3.1

     total cpu time spent up to now is      221.5 secs

     total energy              =   -2758.56358117 Ry
     estimated scf accuracy    <       0.23907371 Ry

     iteration #  9     ecut=    60.00 Ry     beta= 0.70
     Davidson diagonalization with overlap
     ethr =  1.99E-04,  avg # of iterations =  2.4

     total cpu time spent up to now is      239.7 secs

     total energy              =   -2758.55590526 Ry
     estimated scf accuracy    <       0.15826299 Ry

     iteration # 10     ecut=    60.00 Ry     beta= 0.70
     Davidson diagonalization with overlap
     ethr =  1.32E-04,  avg # of iterations =  2.5

     total cpu time spent up to now is      258.0 secs

     total energy              =   -2758.54499371 Ry
     estimated scf accuracy    <       0.09164993 Ry

     iteration # 11     ecut=    60.00 Ry     beta= 0.70
     Davidson diagonalization with overlap
     ethr =  7.64E-05,  avg # of iterations =  3.4

     total cpu time spent up to now is      277.3 secs

     total energy              =   -2758.52486041 Ry
     estimated scf accuracy    <       0.05430848 Ry

     iteration # 12     ecut=    60.00 Ry     beta= 0.70
     Davidson diagonalization with overlap
     ethr =  4.53E-05,  avg # of iterations =  7.8

     total cpu time spent up to now is      304.0 secs

     total energy              =   -2758.53287695 Ry
     estimated scf accuracy    <       0.02799764 Ry

     iteration # 13     ecut=    60.00 Ry     beta= 0.70
     Davidson diagonalization with overlap
     ethr =  2.33E-05,  avg # of iterations =  1.7

     total cpu time spent up to now is      321.9 secs

     total energy              =   -2758.53235557 Ry
     estimated scf accuracy    <       0.00553481 Ry

     iteration # 14     ecut=    60.00 Ry     beta= 0.70
     Davidson diagonalization with overlap
     ethr =  4.61E-06,  avg # of iterations =  4.6

     negative rho (up, down):  4.444E-08 0.000E+00

     total cpu time spent up to now is      343.5 secs

     total energy              =   -2758.53266229 Ry
     estimated scf accuracy    <       0.00224795 Ry

     iteration # 15     ecut=    60.00 Ry     beta= 0.70
     Davidson diagonalization with overlap
     ethr =  1.87E-06,  avg # of iterations =  6.2

     negative rho (up, down):  5.324E-07 0.000E+00

     total cpu time spent up to now is      366.1 secs

     total energy              =   -2758.53272232 Ry
     estimated scf accuracy    <       0.00467963 Ry

     iteration # 16     ecut=    60.00 Ry     beta= 0.70
     Davidson diagonalization with overlap
     ethr =  1.87E-06,  avg # of iterations =  1.8

     negative rho (up, down):  6.836E-07 0.000E+00

     total cpu time spent up to now is      384.2 secs

     total energy              =   -2758.53286200 Ry
     estimated scf accuracy    <       0.00136741 Ry

     iteration # 17     ecut=    60.00 Ry     beta= 0.70
     Davidson diagonalization with overlap
     ethr =  1.14E-06,  avg # of iterations =  1.1

     negative rho (up, down):  7.529E-06 0.000E+00

     total cpu time spent up to now is      401.3 secs

     total energy              =   -2758.53289665 Ry
     estimated scf accuracy    <       0.00001434 Ry

     iteration # 18     ecut=    60.00 Ry     beta= 0.70
     Davidson diagonalization with overlap
     ethr =  1.20E-08,  avg # of iterations =  3.6

     negative rho (up, down):  1.418E-05 0.000E+00

     total cpu time spent up to now is      423.3 secs

     total energy              =   -2758.53290006 Ry
     estimated scf accuracy    <       0.00000617 Ry

     iteration # 19     ecut=    60.00 Ry     beta= 0.70
     Davidson diagonalization with overlap
     ethr =  5.14E-09,  avg # of iterations =  2.0

     negative rho (up, down):  1.789E-05 0.000E+00

     total cpu time spent up to now is      443.4 secs

     total energy              =   -2758.53290075 Ry
     estimated scf accuracy    <       0.00000401 Ry

     iteration # 20     ecut=    60.00 Ry     beta= 0.70
     Davidson diagonalization with overlap
     ethr =  3.34E-09,  avg # of iterations =  1.7

     negative rho (up, down):  1.877E-05 0.000E+00

     total cpu time spent up to now is      461.3 secs

     total energy              =   -2758.53290087 Ry
     estimated scf accuracy    <       0.00000270 Ry

     iteration # 21     ecut=    60.00 Ry     beta= 0.70
     Davidson diagonalization with overlap
     ethr =  2.25E-09,  avg # of iterations =  1.1

     negative rho (up, down):  1.878E-05 0.000E+00

     total cpu time spent up to now is      478.3 secs

     total energy              =   -2758.53290097 Ry
     estimated scf accuracy    <       0.00000043 Ry

     iteration # 22     ecut=    60.00 Ry     beta= 0.70
     Davidson diagonalization with overlap
     ethr =  3.61E-10,  avg # of iterations =  2.0

     negative rho (up, down):  1.853E-05 0.000E+00

     total cpu time spent up to now is      497.1 secs

     total energy              =   -2758.53290100 Ry
     estimated scf accuracy    <       0.00000005 Ry

     iteration # 23     ecut=    60.00 Ry     beta= 0.70
     Davidson diagonalization with overlap
     ethr =  3.89E-11,  avg # of iterations =  2.0

     negative rho (up, down):  1.901E-05 0.000E+00

     total cpu time spent up to now is      517.4 secs

     total energy              =   -2758.53290100 Ry
     estimated scf accuracy    <       0.00000003 Ry

     iteration # 24     ecut=    60.00 Ry     beta= 0.70
     Davidson diagonalization with overlap
     ethr =  2.59E-11,  avg # of iterations =  2.0

     negative rho (up, down):  1.933E-05 0.000E+00

     total cpu time spent up to now is      536.6 secs

     total energy              =   -2758.53290101 Ry
     estimated scf accuracy    <          4.0E-09 Ry

     iteration # 25     ecut=    60.00 Ry     beta= 0.70
     Davidson diagonalization with overlap
     ethr =  3.33E-12,  avg # of iterations =  2.0

     negative rho (up, down):  1.940E-05 0.000E+00

     total cpu time spent up to now is      556.4 secs

     total energy              =   -2758.53290101 Ry
     estimated scf accuracy    <          1.9E-09 Ry

     iteration # 26     ecut=    60.00 Ry     beta= 0.70
     Davidson diagonalization with overlap
     ethr =  1.59E-12,  avg # of iterations =  1.0

     negative rho (up, down):  1.943E-05 0.000E+00

     total cpu time spent up to now is      573.3 secs

     total energy              =   -2758.53290101 Ry
     estimated scf accuracy    <          1.9E-09 Ry

     iteration # 27     ecut=    60.00 Ry     beta= 0.70
     Davidson diagonalization with overlap
     ethr =  1.59E-12,  avg # of iterations =  1.0

     negative rho (up, down):  1.943E-05 0.000E+00

     total cpu time spent up to now is      590.2 secs

     total energy              =   -2758.53290101 Ry
     estimated scf accuracy    <          5.7E-11 Ry

     iteration # 28     ecut=    60.00 Ry     beta= 0.70
     Davidson diagonalization with overlap
     ethr =  1.00E-13,  avg # of iterations =  2.0

     negative rho (up, down):  1.943E-05 0.000E+00

     total cpu time spent up to now is      608.7 secs

     total energy              =   -2758.53290101 Ry
     estimated scf accuracy    <          3.4E-12 Ry

     iteration # 29     ecut=    60.00 Ry     beta= 0.70
     Davidson diagonalization with overlap
     ethr =  1.00E-13,  avg # of iterations =  1.0

     negative rho (up, down):  1.943E-05 0.000E+00

     total cpu time spent up to now is      625.4 secs

     total energy              =   -2758.53290101 Ry
     estimated scf accuracy    <          3.3E-12 Ry

     iteration # 30     ecut=    60.00 Ry     beta= 0.70
     Davidson diagonalization with overlap
     ethr =  1.00E-13,  avg # of iterations =  1.0

     negative rho (up, down):  1.943E-05 0.000E+00

     total cpu time spent up to now is      642.1 secs

     End of self-consistent calculation

          k = 0.0000 0.0000 0.0000 (  9677 PWs)   bands (ev):

   -60.2591 -59.9540 -59.7407 -59.0974 -27.2482 -27.0213 -26.8267 -26.8266
   -26.7037 -26.7037 -26.4481 -26.3031 -26.3030 -25.6495 -25.6494 -25.5794
   -12.0180 -11.9916 -11.9916 -11.9616 -11.9616 -11.9327 -11.9052 -11.5926
   -11.5618 -11.5618 -11.5358 -11.5358 -11.5103 -11.4751 -11.4094 -11.3759
   -11.3759 -11.3672 -11.3672 -11.3648 -11.3350 -10.7794 -10.7348 -10.7348
   -10.7307 -10.7307 -10.7268 -10.6958  -6.7384  -4.5328  -2.1185   0.0192
     0.0194   0.1183   2.3974   2.3975   4.3266   4.3282   4.3285   5.3373
     5.3376   5.6909   7.2829   7.6352   7.6355   8.6119   9.1813  10.7583
    10.7923  10.7927  11.5486  11.6735  11.6736  11.9956  12.5309  13.4263

          k =-0.0000 0.0814 0.0000 (  9680 PWs)   bands (ev):

   -60.2578 -59.9500 -59.7403 -59.1009 -27.2447 -27.0653 -26.8521 -26.8515
   -26.7574 -26.7128 -26.4181 -26.3076 -26.3000 -25.6412 -25.6332 -25.5481
   -12.0176 -11.9921 -11.9916 -11.9617 -11.9613 -11.9318 -11.9062 -11.5922
   -11.5626 -11.5619 -11.5363 -11.5358 -11.5094 -11.4764 -11.4083 -11.3765
   -11.3758 -11.3676 -11.3668 -11.3639 -11.3363 -10.7779 -10.7352 -10.7343
   -10.7313 -10.7303 -10.7259 -10.6974  -6.5873  -4.4550  -2.3473   0.1530
     0.1868   0.3227   2.2101   2.4943   4.0430   4.3151   4.5950   5.1883
     5.4334   6.0643   7.1134   7.6236   7.8869   8.5894   9.3307  10.1037
    10.8542  11.1102  11.5034  11.6403  11.7135  12.6211  12.7122  13.2567

          k =-0.0000 0.1627 0.0000 (  9710 PWs)   bands (ev):

   -60.2545 -59.9387 -59.7392 -59.1106 -27.2495 -27.1565 -26.9726 -26.9151
   -26.8093 -26.7373 -26.4004 -26.3061 -26.2933 -25.6077 -25.5918 -25.4814
   -12.0165 -11.9935 -11.9919 -11.9618 -11.9603 -11.9292 -11.9089 -11.5913
   -11.5650 -11.5624 -11.5374 -11.5359 -11.5069 -11.4798 -11.4056 -11.3782
   -11.3759 -11.3682 -11.3655 -11.3616 -11.3396 -10.7739 -10.7371 -10.7337
   -10.7320 -10.7289 -10.7235 -10.7015  -6.1572  -4.2529  -2.8141   0.5434
     0.5475   0.8618   1.8508   2.7608   3.6299   4.2756   4.4850   5.6225
     5.6912   6.5440   7.1249   7.6741   8.1039   8.3538   9.3924   9.9791
    10.8279  11.1618  11.6059  11.6333  11.9955  12.6298  12.9152  13.1502

          k =-0.0000 0.2441 0.0000 (  9742 PWs)   bands (ev):

   -60.2500 -59.9230 -59.7374 -59.1245 -27.3375 -27.2092 -27.0822 -26.9942
   -26.8789 -26.7696 -26.4050 -26.3031 -26.2868 -25.5581 -25.5411 -25.4106
   -12.0151 -11.9955 -11.9922 -11.9620 -11.9590 -11.9255 -11.9124 -11.5903
   -11.5683 -11.5630 -11.5391 -11.5362 -11.5030 -11.4841 -11.4022 -11.3805
   -11.3760 -11.3686 -11.3638 -11.3582 -11.3439 -10.7689 -10.7402 -10.7335
   -10.7316 -10.7264 -10.7200 -10.7066  -5.5215  -4.0441  -3.2094   0.9218
     1.1548   1.2516   1.9315   3.1111   3.1712   4.2322   4.4075   6.0292
     6.1095   6.5862   7.5260   7.9065   7.9796   8.4147   9.0635  10.1888
    10.6488  11.1321  11.3438  11.5317  12.4166  12.6724  13.2271  13.4322

          k =-0.0000 0.3255 0.0000 (  9768 PWs)   bands (ev):

   -60.2454 -59.9071 -59.7352 -59.1390 -27.4641 -27.2652 -27.1123 -27.0666
   -26.9593 -26.8008 -26.4104 -26.3070 -26.2827 -25.5127 -25.4958 -25.3524
   -12.0137 -11.9973 -11.9925 -11.9621 -11.9576 -11.9219 -11.9159 -11.5894
   -11.5714 -11.5635 -11.5409 -11.5366 -11.4991 -11.4882 -11.3992 -11.3826
   -11.3763 -11.3687 -11.3622 -11.3544 -11.3478 -10.7645 -10.7429 -10.7341
   -10.7305 -10.7237 -10.7160 -10.7110  -4.8448  -4.0134  -3.2685   0.6181
     1.7097   1.9138   2.5608   3.1126   3.3817   4.2507   4.5825   5.7811
     6.3394   6.8729   7.3945   7.8026   8.2965   8.7043   8.9991  10.2751
    10.3995  10.7402  11.0055  11.5047  12.8119  12.8455  12.9762  13.3549

          k =-0.0000 0.4069 0.0000 (  9758 PWs)   bands (ev):

   -60.2421 -59.8952 -59.7332 -59.1501 -27.5573 -27.3155 -27.1164 -27.1074
   -27.0242 -26.8229 -26.4067 -26.3179 -26.2807 -25.4832 -25.4654 -25.3151
   -12.0126 -11.9986 -11.9927 -11.9622 -11.9565 -11.9191 -11.9183 -11.5886
   -11.5736 -11.5639 -11.5422 -11.5369 -11.4961 -11.4909 -11.3972 -11.3839
   -11.3767 -11.3686 -11.3611 -11.3512 -11.3503 -10.7617 -10.7445 -10.7348
   -10.7293 -10.7217 -10.7136 -10.7126  -4.5431  -3.8464  -3.0943   0.0994
     2.1445   2.6617   3.0104   3.4796   3.4933   4.2678   4.9500   5.5519
     6.5457   6.6366   7.1346   7.5385   8.6038   8.7563   9.1906  10.1484
    10.1698  10.5774  11.0879  11.2077  12.0811  12.3455  12.9781  13.7292

          k = 0.0000-0.4882 0.0000 (  9778 PWs)   bands (ev):

   -60.2408 -59.8908 -59.7325 -59.1543 -27.5908 -27.3338 -27.1341 -27.1001
   -27.0525 -26.8309 -26.4013 -26.3256 -26.2802 -25.4732 -25.4548 -25.3023
   -12.0123 -11.9991 -11.9929 -11.9623 -11.9563 -11.9192 -11.9180 -11.5884
   -11.5745 -11.5641 -11.5428 -11.5372 -11.4948 -11.4919 -11.3966 -11.3844
   -11.3769 -11.3687 -11.3609 -11.3511 -11.3499 -10.7608 -10.7451 -10.7352
   -10.7289 -10.7212 -10.7144 -10.7111  -4.5457  -3.6748  -2.9610  -0.1733
     2.3812   3.0162   3.0894   3.5633   3.7175   4.1869   5.1812   5.5239
     6.4336   6.6230   6.9503   7.5561   8.6005   8.6533   9.1337  10.0530
    10.2153  10.7198  10.9610  11.2581  11.6763  12.0484  13.1537  13.2608

          k = 0.0705 0.0407 0.0000 (  9680 PWs)   bands (ev):

   -60.2578 -59.9500 -59.7403 -59.1009 -27.2447 -27.0653 -26.8521 -26.8516
   -26.7574 -26.7128 -26.4181 -26.3077 -26.2999 -25.6413 -25.6331 -25.5482
   -12.0176 -11.9921 -11.9916 -11.9617 -11.9613 -11.9318 -11.9062 -11.5922
   -11.5626 -11.5619 -11.5363 -11.5358 -11.5094 -11.4764 -11.4083 -11.3765
   -11.3758 -11.3676 -11.3668 -11.3639 -11.3363 -10.7779 -10.7352 -10.7343
   -10.7313 -10.7303 -10.7259 -10.6974  -6.5873  -4.4550  -2.3473   0.1531
     0.1868   0.3226   2.2101   2.4944   4.0427   4.3154   4.5949   5.1881
     5.4336   6.0643   7.1134   7.6234   7.8871   8.5895   9.3307  10.1036
    10.8544  11.1102  11.5033  11.6403  11.7135  12.6211  12.7121  13.2566

          k = 0.0705 0.1221 0.0000 (  9690 PWs)   bands (ev):

   -60.2556 -59.9423 -59.7396 -59.1075 -27.2436 -27.1285 -26.9629 -26.8648
   -26.7897 -26.7463 -26.3955 -26.3065 -26.2990 -25.6273 -25.5948 -25.5022
   -12.0169 -11.9930 -11.9918 -11.9617 -11.9606 -11.9300 -11.9080 -11.5916
   -11.5642 -11.5622 -11.5371 -11.5358 -11.5077 -11.4787 -11.4064 -11.3776
   -11.3759 -11.3680 -11.3659 -11.3623 -11.3386 -10.7752 -10.7364 -10.7339
   -10.7318 -10.7294 -10.7243 -10.7002  -6.2964  -4.3127  -2.6862   0.3337
     0.5431   0.6776   1.9590   2.6538   3.7665   4.1676   4.7123   5.4091
     5.5513   6.5477   7.0950   7.4428   8.2159   8.4601   9.3894   9.9253
    10.7302  11.1603  11.5744  11.7463  12.0088  12.7494  12.9331  12.9972

          k = 0.0705 0.2034 0.0000 (  9719 PWs)   bands (ev):

   -60.2516 -59.9288 -59.7381 -59.1193 -27.2850 -27.1881 -27.0940 -26.9343
   -26.8426 -26.7822 -26.3880 -26.3085 -26.2906 -25.5934 -25.5372 -25.4393
   -12.0156 -11.9947 -11.9921 -11.9619 -11.9595 -11.9269 -11.9111 -11.5906
   -11.5670 -11.5628 -11.5387 -11.5358 -11.5045 -11.4826 -11.4033 -11.3795
   -11.3760 -11.3684 -11.3646 -11.3594 -11.3424 -10.7706 -10.7388 -10.7338
   -10.7317 -10.7273 -10.7213 -10.7049  -5.7598  -4.0856  -3.1159   0.7336
     1.0341   1.1867   1.7850   2.9465   3.2295   4.1310   4.6915   5.6732
     6.1507   6.6747   7.2418   7.6655   8.1752   8.5080   9.1534  10.0187
    10.3515  11.3759  11.6371  11.8521  12.3068  12.5346  12.9783  13.3134

          k = 0.0705 0.2848 0.0000 (  9753 PWs)   bands (ev):

   -60.2471 -59.9129 -59.7360 -59.1336 -27.3981 -27.2400 -27.1510 -27.0239
   -26.9093 -26.8144 -26.3917 -26.3091 -26.2869 -25.5470 -25.4872 -25.3785
   -12.0142 -11.9965 -11.9925 -11.9620 -11.9581 -11.9232 -11.9146 -11.5897
   -11.5700 -11.5635 -11.5407 -11.5359 -11.5007 -11.4868 -11.4001 -11.3816
   -11.3763 -11.3686 -11.3630 -11.3558 -11.3466 -10.7658 -10.7416 -10.7341
   -10.7310 -10.7247 -10.7175 -10.7098  -5.0806  -3.9436  -3.3599   0.9261
     1.3421   1.7987   2.1975   2.8022   3.3634   4.2670   4.6654   5.7846
     6.2539   6.8247   7.6708   7.8789   7.9482   8.5820   9.0662   9.9639
    10.2339  11.1431  11.5905  11.6839  12.6017  12.7757  13.1702  13.4083

          k = 0.0705 0.3662 0.0000 (  9754 PWs)   bands (ev):

   -60.2431 -59.8990 -59.7339 -59.1466 -27.5081 -27.2958 -27.1703 -27.0809
   -26.9712 -26.8435 -26.3924 -26.3105 -26.2906 -25.5046 -25.4550 -25.3323
   -12.0129 -11.9980 -11.9928 -11.9622 -11.9569 -11.9201 -11.9175 -11.5889
   -11.5725 -11.5641 -11.5425 -11.5360 -11.4973 -11.4900 -11.3976 -11.3832
   -11.3767 -11.3686 -11.3617 -11.3523 -11.3498 -10.7621 -10.7436 -10.7347
   -10.7298 -10.7226 -10.7140 -10.7132  -4.5271  -3.9277  -3.2509   0.4696
     1.8761   2.4213   2.7223   2.9755   3.6148   4.4626   4.7863   5.6236
     6.3469   6.8067   7.3076   7.6396   8.4384   8.6435   9.2578   9.9818
    10.2511  10.7965  11.3015  11.4543  12.3665  12.6444  13.0426  13.4159

          k = 0.0705 0.4475 0.0000 (  9737 PWs)   bands (ev):

   -60.2408 -59.8908 -59.7324 -59.1543 -27.5715 -27.3242 -27.1964 -27.0913
   -27.0118 -26.8596 -26.3879 -26.3183 -26.2917 -25.4789 -25.4409 -25.3078
   -12.0122 -11.9987 -11.9930 -11.9622 -11.9563 -11.9194 -11.9177 -11.5884
   -11.5739 -11.5645 -11.5436 -11.5361 -11.4955 -11.4915 -11.3963 -11.3840
   -11.3770 -11.3685 -11.3611 -11.3515 -11.3499 -10.7602 -10.7445 -10.7354
   -10.7289 -10.7215 -10.7151 -10.7112  -4.4498  -3.6856  -3.0511   0.0216
     2.2158   2.9141   3.0635   3.3631   3.6476   4.3238   5.1522   5.5919
     6.3307   6.7056   6.9558   7.5940   8.3469   8.8029   9.2210  10.0419
    10.3816  10.7324  11.0992  11.2247  11.8159  12.2783  13.1595  13.2577

          k = 0.0705-0.4476 0.0000 (  9737 PWs)   bands (ev):

   -60.2408 -59.8908 -59.7324 -59.1543 -27.5715 -27.3242 -27.1964 -27.0913
   -27.0118 -26.8596 -26.3879 -26.3183 -26.2917 -25.4789 -25.4409 -25.3078
   -12.0122 -11.9987 -11.9930 -11.9622 -11.9563 -11.9194 -11.9177 -11.5884
   -11.5739 -11.5645 -11.5436 -11.5361 -11.4955 -11.4915 -11.3963 -11.3840
   -11.3770 -11.3685 -11.3611 -11.3515 -11.3499 -10.7602 -10.7445 -10.7354
   -10.7289 -10.7215 -10.7151 -10.7112  -4.4498  -3.6856  -3.0511   0.0216
     2.2158   2.9141   3.0635   3.3631   3.6476   4.3238   5.1522   5.5919
     6.3307   6.7056   6.9559   7.5940   8.3469   8.8028   9.2210  10.0419
    10.3816  10.7325  11.0993  11.2247  11.8159  12.2783  13.1595  13.2577

          k = 0.0705-0.3662 0.0000 (  9754 PWs)   bands (ev):

   -60.2431 -59.8990 -59.7339 -59.1466 -27.5081 -27.2959 -27.1702 -27.0809
   -26.9712 -26.8435 -26.3924 -26.3105 -26.2906 -25.5046 -25.4550 -25.3323
   -12.0129 -11.9980 -11.9928 -11.9622 -11.9569 -11.9201 -11.9175 -11.5889
   -11.5725 -11.5641 -11.5425 -11.5360 -11.4973 -11.4900 -11.3976 -11.3832
   -11.3767 -11.3686 -11.3617 -11.3523 -11.3498 -10.7621 -10.7436 -10.7347
   -10.7298 -10.7226 -10.7140 -10.7132  -4.5271  -3.9278  -3.2509   0.4696
     1.8761   2.4213   2.7223   2.9755   3.6148   4.4626   4.7863   5.6236
     6.3469   6.8067   7.3077   7.6396   8.4383   8.6436   9.2579   9.9818
    10.2512  10.7965  11.3015  11.4542  12.3665  12.6443  13.0426  13.4158

          k = 0.0705-0.2848 0.0000 (  9753 PWs)   bands (ev):

   -60.2471 -59.9129 -59.7360 -59.1336 -27.3981 -27.2400 -27.1510 -27.0238
   -26.9093 -26.8144 -26.3917 -26.3092 -26.2869 -25.5471 -25.4872 -25.3785
   -12.0142 -11.9965 -11.9925 -11.9620 -11.9581 -11.9232 -11.9146 -11.5897
   -11.5700 -11.5635 -11.5407 -11.5359 -11.5007 -11.4868 -11.4001 -11.3816
   -11.3763 -11.3686 -11.3630 -11.3558 -11.3466 -10.7658 -10.7416 -10.7341
   -10.7310 -10.7247 -10.7175 -10.7098  -5.0806  -3.9436  -3.3599   0.9261
     1.3421   1.7987   2.1975   2.8022   3.3634   4.2670   4.6655   5.7845
     6.2539   6.8247   7.6708   7.8789   7.9482   8.5820   9.0662   9.9639
    10.2340  11.1432  11.5905  11.6838  12.6017  12.7757  13.1702  13.4083

          k = 0.0705-0.2034 0.0000 (  9719 PWs)   bands (ev):

   -60.2516 -59.9288 -59.7381 -59.1193 -27.2850 -27.1882 -27.0940 -26.9342
   -26.8426 -26.7822 -26.3880 -26.3085 -26.2906 -25.5934 -25.5372 -25.4393
   -12.0156 -11.9947 -11.9921 -11.9619 -11.9595 -11.9269 -11.9111 -11.5906
   -11.5670 -11.5628 -11.5387 -11.5358 -11.5045 -11.4826 -11.4033 -11.3795
   -11.3760 -11.3684 -11.3646 -11.3594 -11.3424 -10.7706 -10.7388 -10.7338
   -10.7317 -10.7273 -10.7213 -10.7049  -5.7598  -4.0856  -3.1159   0.7336
     1.0342   1.1867   1.7850   2.9464   3.2296   4.1310   4.6916   5.6731
     6.1508   6.6748   7.2418   7.6655   8.1752   8.5080   9.1534  10.0188
    10.3515  11.3759  11.6371  11.8521  12.3069  12.5346  12.9783  13.3134

          k = 0.0705-0.1221 0.0000 (  9690 PWs)   bands (ev):

   -60.2556 -59.9423 -59.7396 -59.1075 -27.2436 -27.1285 -26.9629 -26.8648
   -26.7898 -26.7463 -26.3956 -26.3065 -26.2990 -25.6273 -25.5948 -25.5022
   -12.0169 -11.9930 -11.9918 -11.9617 -11.9606 -11.9300 -11.9080 -11.5916
   -11.5642 -11.5622 -11.5371 -11.5358 -11.5077 -11.4787 -11.4064 -11.3776
   -11.3759 -11.3680 -11.3659 -11.3623 -11.3386 -10.7752 -10.7364 -10.7339
   -10.7318 -10.7294 -10.7243 -10.7002  -6.2964  -4.3127  -2.6862   0.3337
     0.5430   0.6776   1.9589   2.6537   3.7665   4.1675   4.7124   5.4090
     5.5512   6.5478   7.0950   7.4428   8.2158   8.4601   9.3894   9.9254
    10.7301  11.1604  11.5743  11.7464  12.0088  12.7494  12.9330  12.9972

          k = 0.0705-0.0407 0.0000 (  9680 PWs)   bands (ev):

   -60.2578 -59.9500 -59.7403 -59.1009 -27.2447 -27.0653 -26.8521 -26.8516
   -26.7574 -26.7128 -26.4181 -26.3077 -26.3000 -25.6413 -25.6332 -25.5482
   -12.0176 -11.9921 -11.9916 -11.9617 -11.9613 -11.9318 -11.9062 -11.5922
   -11.5626 -11.5619 -11.5363 -11.5358 -11.5094 -11.4764 -11.4083 -11.3765
   -11.3758 -11.3676 -11.3668 -11.3639 -11.3363 -10.7779 -10.7352 -10.7343
   -10.7313 -10.7303 -10.7259 -10.6974  -6.5873  -4.4550  -2.3473   0.1531
     0.1868   0.3226   2.2101   2.4944   4.0428   4.3153   4.5950   5.1882
     5.4335   6.0643   7.1134   7.6235   7.8870   8.5895   9.3307  10.1036
    10.8543  11.1102  11.5034  11.6403  11.7135  12.6211  12.7122  13.2566

          k = 0.1409 0.0814 0.0000 (  9710 PWs)   bands (ev):

   -60.2545 -59.9387 -59.7392 -59.1106 -27.2495 -27.1564 -26.9726 -26.9152
   -26.8093 -26.7373 -26.4003 -26.3062 -26.2932 -25.6077 -25.5917 -25.4815
   -12.0165 -11.9936 -11.9919 -11.9618 -11.9603 -11.9292 -11.9089 -11.5913
   -11.5650 -11.5624 -11.5374 -11.5359 -11.5069 -11.4798 -11.4056 -11.3782
   -11.3759 -11.3682 -11.3655 -11.3616 -11.3396 -10.7739 -10.7371 -10.7337
   -10.7320 -10.7289 -10.7235 -10.7015  -6.1573  -4.2529  -2.8141   0.5435
     0.5474   0.8617   1.8508   2.7609   3.6296   4.2758   4.4849   5.6225
     5.6913   6.5439   7.1250   7.6739   8.1040   8.3540   9.3923   9.9789
    10.8281  11.1618  11.6059  11.6331  11.9955  12.6297  12.9151  13.1501

          k = 0.1409 0.1627 0.0000 (  9719 PWs)   bands (ev):

   -60.2516 -59.9288 -59.7381 -59.1193 -27.2850 -27.1881 -27.0940 -26.9343
   -26.8426 -26.7822 -26.3880 -26.3085 -26.2906 -25.5934 -25.5372 -25.4394
   -12.0156 -11.9947 -11.9921 -11.9619 -11.9595 -11.9269 -11.9111 -11.5906
   -11.5670 -11.5628 -11.5387 -11.5358 -11.5045 -11.4826 -11.4033 -11.3795
   -11.3760 -11.3684 -11.3646 -11.3594 -11.3424 -10.7706 -10.7388 -10.7338
   -10.7317 -10.7273 -10.7213 -10.7049  -5.7599  -4.0856  -3.1159   0.7336
     1.0342   1.1867   1.7850   2.9465   3.2295   4.1310   4.6915   5.6732
     6.1507   6.6748   7.2418   7.6654   8.1753   8.5081   9.1533  10.0187
    10.3515  11.3759  11.6371  11.8520  12.3068  12.5345  12.9782  13.3133

          k = 0.1409 0.2441 0.0000 (  9742 PWs)   bands (ev):

   -60.2477 -59.9151 -59.7363 -59.1317 -27.3527 -27.2415 -27.1799 -26.9911
   -26.9046 -26.8225 -26.3737 -26.3200 -26.2849 -25.5641 -25.4743 -25.3943
   -12.0144 -11.9960 -11.9927 -11.9620 -11.9584 -11.9237 -11.9142 -11.5898
   -11.5693 -11.5637 -11.5408 -11.5354 -11.5012 -11.4863 -11.4004 -11.3811
   -11.3765 -11.3685 -11.3635 -11.3562 -11.3462 -10.7662 -10.7409 -10.7343
   -10.7312 -10.7252 -10.7180 -10.7096  -5.1670  -3.8607  -3.4414   1.1481
     1.1917   1.7413   2.0169   2.6210   3.3286   4.2417   4.9356   5.5593
     6.3341   6.7935   7.5600   7.9033   8.1736   8.3366   9.1908   9.6993
    10.1257  11.3332  11.8842  12.0538  12.4118  12.8648  12.9964  13.3508

          k = 0.1409 0.3255 0.0000 (  9773 PWs)   bands (ev):

   -60.2437 -59.9012 -59.7342 -59.1445 -27.4406 -27.3179 -27.1960 -27.0630
   -26.9592 -26.8582 -26.3687 -26.3228 -26.2885 -25.5228 -25.4327 -25.3521
   -12.0131 -11.9972 -11.9933 -11.9621 -11.9572 -11.9207 -11.9171 -11.5890
   -11.5714 -11.5648 -11.5431 -11.5350 -11.4983 -11.4897 -11.3976 -11.3825
   -11.3770 -11.3683 -11.3625 -11.3529 -11.3500 -10.7620 -10.7425 -10.7351
   -10.7302 -10.7233 -10.7148 -10.7137  -4.5129  -3.8065  -3.4985   1.0170
     1.6565   2.0069   2.4147   2.6498   3.7424   4.5058   5.0016   5.5195
     6.2352   6.7582   7.4468   7.8693   8.2195   8.4997   9.4606   9.5206
    10.2219  11.1912  11.6545  12.0011  12.3173  12.6902  13.2047  13.5111

          k = 0.1409 0.4069 0.0000 (  9773 PWs)   bands (ev):

   -60.2408 -59.8909 -59.7324 -59.1543 -27.5185 -27.3348 -27.2472 -27.0855
   -26.9967 -26.8916 -26.3682 -26.3185 -26.2984 -25.4854 -25.4158 -25.3213
   -12.0122 -11.9980 -11.9939 -11.9622 -11.9564 -11.9201 -11.9176 -11.5884
   -11.5727 -11.5657 -11.5448 -11.5347 -11.4968 -11.4913 -11.3957 -11.3832
   -11.3775 -11.3682 -11.3618 -11.3526 -11.3502 -10.7591 -10.7433 -10.7360
   -10.7290 -10.7224 -10.7170 -10.7114  -4.1968  -3.7138  -3.2839   0.5489
     1.9153   2.4959   2.7791   3.0611   3.8365   4.6488   5.0363   5.6632
     6.2434   6.5492   6.9830   7.7272   8.2045   8.8135   9.5150   9.8100
    10.4607  10.8565  11.3957  11.6433  12.1261  12.4816  13.0499  13.5034

          k = 0.1409 0.4882 0.0000 (  9782 PWs)   bands (ev):

   -60.2398 -59.8871 -59.7317 -59.1580 -27.5480 -27.3191 -27.2922 -27.0813
   -27.0146 -26.9046 -26.3687 -26.3152 -26.3038 -25.4693 -25.4131 -25.3102
   -12.0118 -11.9983 -11.9941 -11.9623 -11.9561 -11.9207 -11.9168 -11.5883
   -11.5732 -11.5661 -11.5455 -11.5346 -11.4967 -11.4914 -11.3951 -11.3835
   -11.3778 -11.3681 -11.3616 -11.3534 -11.3491 -10.7582 -10.7435 -10.7365
   -10.7285 -10.7222 -10.7179 -10.7103  -4.2092  -3.5635  -3.1396   0.2909
     2.0727   2.7016   2.9332   3.4556   3.6203   4.5554   5.1666   5.7250
     6.2066   6.5342   6.8594   7.7356   7.9328   8.9748   9.5123  10.0218
    10.6516  10.9844  11.1173  11.4198  11.7186  12.3572  12.8882  13.6225

          k = 0.1409-0.4069 0.0000 (  9773 PWs)   bands (ev):

   -60.2408 -59.8909 -59.7324 -59.1543 -27.5185 -27.3348 -27.2472 -27.0855
   -26.9967 -26.8916 -26.3682 -26.3185 -26.2984 -25.4855 -25.4158 -25.3213
   -12.0122 -11.9980 -11.9939 -11.9622 -11.9564 -11.9201 -11.9176 -11.5884
   -11.5727 -11.5657 -11.5448 -11.5347 -11.4968 -11.4913 -11.3957 -11.3832
   -11.3775 -11.3682 -11.3618 -11.3526 -11.3502 -10.7591 -10.7433 -10.7360
   -10.7290 -10.7224 -10.7170 -10.7114  -4.1968  -3.7138  -3.2839   0.5489
     1.9152   2.4959   2.7792   3.0611   3.8365   4.6488   5.0363   5.6632
     6.2433   6.5492   6.9831   7.7273   8.2044   8.8135   9.5150   9.8100
    10.4607  10.8566  11.3957  11.6433  12.1261  12.4816  13.0499  13.5034

          k = 0.1409-0.3255 0.0000 (  9773 PWs)   bands (ev):

   -60.2437 -59.9012 -59.7342 -59.1445 -27.4406 -27.3180 -27.1960 -27.0630
   -26.9592 -26.8581 -26.3687 -26.3228 -26.2885 -25.5229 -25.4327 -25.3521
   -12.0131 -11.9972 -11.9933 -11.9621 -11.9572 -11.9207 -11.9171 -11.5890
   -11.5714 -11.5648 -11.5431 -11.5350 -11.4983 -11.4897 -11.3976 -11.3825
   -11.3770 -11.3683 -11.3625 -11.3529 -11.3500 -10.7620 -10.7425 -10.7351
   -10.7302 -10.7233 -10.7148 -10.7137  -4.5129  -3.8066  -3.4986   1.0169
     1.6566   2.0070   2.4147   2.6498   3.7424   4.5059   5.0016   5.5194
     6.2351   6.7582   7.4469   7.8693   8.2194   8.4997   9.4606   9.5207
    10.2219  11.1913  11.6546  12.0011  12.3173  12.6902  13.2047  13.5111

          k = 0.1409-0.2441 0.0000 (  9742 PWs)   bands (ev):

   -60.2477 -59.9151 -59.7363 -59.1317 -27.3527 -27.2415 -27.1799 -26.9911
   -26.9046 -26.8225 -26.3737 -26.3201 -26.2849 -25.5641 -25.4743 -25.3943
   -12.0144 -11.9960 -11.9927 -11.9620 -11.9584 -11.9237 -11.9142 -11.5898
   -11.5693 -11.5637 -11.5408 -11.5355 -11.5012 -11.4863 -11.4004 -11.3811
   -11.3765 -11.3685 -11.3635 -11.3562 -11.3462 -10.7662 -10.7409 -10.7343
   -10.7312 -10.7252 -10.7180 -10.7096  -5.1669  -3.8607  -3.4414   1.1482
     1.1917   1.7413   2.0169   2.6210   3.3285   4.2418   4.9357   5.5592
     6.3341   6.7936   7.5600   7.9033   8.1737   8.3366   9.1908   9.6993
    10.1258  11.3333  11.8843  12.0537  12.4119  12.8647  12.9964  13.3509

          k = 0.1409-0.1627 0.0000 (  9719 PWs)   bands (ev):

   -60.2516 -59.9288 -59.7381 -59.1193 -27.2850 -27.1881 -27.0940 -26.9342
   -26.8426 -26.7822 -26.3880 -26.3085 -26.2906 -25.5934 -25.5372 -25.4393
   -12.0156 -11.9947 -11.9921 -11.9619 -11.9595 -11.9269 -11.9111 -11.5906
   -11.5670 -11.5628 -11.5387 -11.5358 -11.5045 -11.4826 -11.4033 -11.3795
   -11.3760 -11.3684 -11.3646 -11.3594 -11.3424 -10.7706 -10.7388 -10.7338
   -10.7317 -10.7273 -10.7213 -10.7049  -5.7598  -4.0856  -3.1159   0.7336
     1.0342   1.1867   1.7850   2.9465   3.2295   4.1311   4.6916   5.6731
     6.1508   6.6748   7.2418   7.6654   8.1753   8.5080   9.1533  10.0188
    10.3515  11.3760  11.6371  11.8521  12.3068  12.5346  12.9783  13.3133

          k = 0.1409-0.0814 0.0000 (  9710 PWs)   bands (ev):

   -60.2545 -59.9387 -59.7392 -59.1106 -27.2495 -27.1564 -26.9726 -26.9152
   -26.8093 -26.7373 -26.4004 -26.3062 -26.2932 -25.6077 -25.5917 -25.4815
   -12.0165 -11.9936 -11.9919 -11.9618 -11.9603 -11.9292 -11.9089 -11.5913
   -11.5650 -11.5624 -11.5374 -11.5359 -11.5069 -11.4798 -11.4056 -11.3782
   -11.3759 -11.3682 -11.3655 -11.3616 -11.3396 -10.7739 -10.7371 -10.7337
   -10.7320 -10.7289 -10.7235 -10.7015  -6.1573  -4.2529  -2.8141   0.5434
     0.5474   0.8618   1.8508   2.7609   3.6297   4.2757   4.4849   5.6225
     5.6913   6.5439   7.1250   7.6740   8.1039   8.3539   9.3923   9.9790
    10.8280  11.1618  11.6059  11.6332  11.9955  12.6297  12.9152  13.1501

          k = 0.1409-0.0000 0.0000 (  9690 PWs)   bands (ev):

   -60.2556 -59.9423 -59.7396 -59.1075 -27.2436 -27.1285 -26.9629 -26.8649
   -26.7897 -26.7463 -26.3955 -26.3065 -26.2990 -25.6273 -25.5948 -25.5022
   -12.0169 -11.9930 -11.9918 -11.9617 -11.9606 -11.9300 -11.9080 -11.5916
   -11.5642 -11.5622 -11.5371 -11.5358 -11.5077 -11.4787 -11.4064 -11.3776
   -11.3759 -11.3680 -11.3659 -11.3623 -11.3386 -10.7752 -10.7364 -10.7339
   -10.7318 -10.7294 -10.7243 -10.7002  -6.2964  -4.3127  -2.6862   0.3337
     0.5431   0.6775   1.9590   2.6538   3.7663   4.1676   4.7123   5.4092
     5.5513   6.5477   7.0951   7.4427   8.2159   8.4601   9.3894   9.9252
    10.7302  11.1603  11.5744  11.7463  12.0088  12.7493  12.9331  12.9972

          k = 0.2114 0.1221 0.0000 (  9742 PWs)   bands (ev):

   -60.2500 -59.9230 -59.7374 -59.1245 -27.3375 -27.2091 -27.0822 -26.9942
   -26.8789 -26.7696 -26.4050 -26.3032 -26.2868 -25.5581 -25.5410 -25.4107
   -12.0151 -11.9955 -11.9921 -11.9620 -11.9590 -11.9255 -11.9124 -11.5903
   -11.5683 -11.5630 -11.5391 -11.5362 -11.5030 -11.4841 -11.4022 -11.3805
   -11.3760 -11.3686 -11.3638 -11.3582 -11.3439 -10.7689 -10.7402 -10.7335
   -10.7316 -10.7264 -10.7200 -10.7066  -5.5215  -4.0441  -3.2093   0.9217
     1.1549   1.2515   1.9314   3.1113   3.1710   4.2324   4.4074   6.0293
     6.1096   6.5861   7.5260   7.9064   7.9797   8.4148   9.0635  10.1886
    10.6490  11.1319  11.3437  11.5316  12.4166  12.6724  13.2270  13.4323

          k = 0.2114 0.2034 0.0000 (  9753 PWs)   bands (ev):

   -60.2471 -59.9129 -59.7360 -59.1336 -27.3980 -27.2400 -27.1510 -27.0239
   -26.9093 -26.8144 -26.3917 -26.3092 -26.2869 -25.5471 -25.4871 -25.3786
   -12.0142 -11.9965 -11.9925 -11.9620 -11.9581 -11.9232 -11.9146 -11.5897
   -11.5700 -11.5635 -11.5407 -11.5359 -11.5007 -11.4868 -11.4001 -11.3816
   -11.3763 -11.3686 -11.3630 -11.3558 -11.3466 -10.7658 -10.7416 -10.7341
   -10.7310 -10.7247 -10.7175 -10.7098  -5.0806  -3.9436  -3.3599   0.9260
     1.3421   1.7987   2.1975   2.8022   3.3635   4.2670   4.6654   5.7846
     6.2539   6.8247   7.6709   7.8788   7.9483   8.5819   9.0662   9.9637
    10.2339  11.1432  11.5904  11.6837  12.6016  12.7756  13.1701  13.4082

          k = 0.2114 0.2848 0.0000 (  9773 PWs)   bands (ev):

   -60.2437 -59.9012 -59.7342 -59.1445 -27.4405 -27.3180 -27.1960 -27.0630
   -26.9592 -26.8581 -26.3688 -26.3228 -26.2885 -25.5228 -25.4327 -25.3522
   -12.0131 -11.9972 -11.9933 -11.9621 -11.9572 -11.9207 -11.9171 -11.5890
   -11.5714 -11.5648 -11.5431 -11.5350 -11.4983 -11.4897 -11.3976 -11.3825
   -11.3770 -11.3684 -11.3625 -11.3529 -11.3500 -10.7620 -10.7425 -10.7351
   -10.7302 -10.7233 -10.7148 -10.7137  -4.5129  -3.8065  -3.4986   1.0169
     1.6565   2.0069   2.4147   2.6497   3.7425   4.5058   5.0016   5.5195
     6.2351   6.7582   7.4469   7.8693   8.2194   8.4997   9.4605   9.5207
    10.2219  11.1912  11.6545  12.0011  12.3172  12.6902  13.2046  13.5111

          k = 0.2114 0.3662 0.0000 (  9756 PWs)   bands (ev):

   -60.2408 -59.8909 -59.7324 -59.1543 -27.4669 -27.3886 -27.2337 -27.0952
   -27.0052 -26.8924 -26.3598 -26.3298 -26.2910 -25.4879 -25.4016 -25.3307
   -12.0121 -11.9975 -11.9943 -11.9622 -11.9564 -11.9203 -11.9174 -11.5885
   -11.5718 -11.5664 -11.5453 -11.5341 -11.4973 -11.4912 -11.3955 -11.3827
   -11.3778 -11.3679 -11.3622 -11.3531 -11.3502 -10.7585 -10.7425 -10.7364
   -10.7291 -10.7227 -10.7179 -10.7115  -3.9726  -3.7610  -3.4645   1.2521
     1.2991   2.3377   2.5760   2.9545   4.0800   4.5656   5.1771   5.6447
     6.1895   6.4003   7.0534   7.6241   8.3064   8.9546   9.4118   9.7248
    10.4692  11.0193  11.6224  11.7672  12.3663  12.5320  13.0926  13.6348

          k = 0.2114 0.4475 0.0000 (  9761 PWs)   bands (ev):

   -60.2392 -59.8849 -59.7312 -59.1602 -27.4957 -27.3925 -27.2897 -27.1010
   -27.0152 -26.9267 -26.3627 -26.3271 -26.2939 -25.4593 -25.3950 -25.3164
   -12.0116 -11.9974 -11.9951 -11.9623 -11.9560 -11.9214 -11.9162 -11.5882
   -11.5718 -11.5677 -11.5466 -11.5336 -11.4979 -11.4910 -11.3942 -11.3827
   -11.3785 -11.3675 -11.3623 -11.3548 -11.3487 -10.7565 -10.7421 -10.7377
   -10.7281 -10.7229 -10.7200 -10.7098  -3.8869  -3.5536  -3.3168   0.8446
     1.6325   2.3925   2.7896   3.3918   3.9722   4.5467   5.1670   5.7810
     6.1309   6.2687   6.9776   7.5281   7.8741   9.3360   9.8519   9.8688
    10.7143  11.0751  11.4130  11.5977  11.7734  12.4475  12.7801  13.9098

          k = 0.2114 0.5289 0.0000 (  9761 PWs)   bands (ev):

   -60.2392 -59.8849 -59.7312 -59.1602 -27.4957 -27.3926 -27.2897 -27.1010
   -27.0152 -26.9267 -26.3627 -26.3271 -26.2939 -25.4593 -25.3950 -25.3164
   -12.0116 -11.9974 -11.9951 -11.9623 -11.9560 -11.9214 -11.9162 -11.5882
   -11.5718 -11.5677 -11.5466 -11.5336 -11.4979 -11.4910 -11.3942 -11.3827
   -11.3785 -11.3675 -11.3623 -11.3548 -11.3487 -10.7565 -10.7421 -10.7377
   -10.7281 -10.7229 -10.7200 -10.7098  -3.8869  -3.5536  -3.3168   0.8446
     1.6324   2.3926   2.7896   3.3918   3.9722   4.5467   5.1670   5.7810
     6.1309   6.2687   6.9776   7.5282   7.8740   9.3360   9.8519   9.8689
    10.7143  11.0751  11.4130  11.5977  11.7734  12.4474  12.7801  13.9098

          k = 0.2114-0.3662 0.0000 (  9756 PWs)   bands (ev):

   -60.2408 -59.8909 -59.7324 -59.1543 -27.4669 -27.3886 -27.2337 -27.0952
   -27.0052 -26.8924 -26.3598 -26.3298 -26.2910 -25.4880 -25.4015 -25.3307
   -12.0121 -11.9975 -11.9943 -11.9622 -11.9564 -11.9203 -11.9174 -11.5885
   -11.5718 -11.5664 -11.5453 -11.5341 -11.4973 -11.4912 -11.3955 -11.3827
   -11.3778 -11.3679 -11.3622 -11.3531 -11.3502 -10.7585 -10.7425 -10.7364
   -10.7291 -10.7227 -10.7179 -10.7115  -3.9726  -3.7610  -3.4645   1.2521
     1.2990   2.3377   2.5760   2.9546   4.0800   4.5656   5.1771   5.6447
     6.1894   6.4004   7.0535   7.6242   8.3063   8.9546   9.4119   9.7249
    10.4693  11.0193  11.6224  11.7672  12.3663  12.5320  13.0926  13.6349

          k = 0.2114-0.2848 0.0000 (  9773 PWs)   bands (ev):

   -60.2437 -59.9012 -59.7342 -59.1445 -27.4405 -27.3180 -27.1960 -27.0630
   -26.9592 -26.8581 -26.3687 -26.3228 -26.2885 -25.5229 -25.4327 -25.3522
   -12.0131 -11.9972 -11.9933 -11.9621 -11.9572 -11.9207 -11.9171 -11.5890
   -11.5714 -11.5648 -11.5431 -11.5350 -11.4983 -11.4897 -11.3976 -11.3825
   -11.3770 -11.3683 -11.3625 -11.3529 -11.3500 -10.7620 -10.7425 -10.7351
   -10.7302 -10.7233 -10.7148 -10.7137  -4.5129  -3.8065  -3.4986   1.0169
     1.6565   2.0069   2.4147   2.6497   3.7425   4.5058   5.0016   5.5194
     6.2350   6.7583   7.4469   7.8694   8.2194   8.4997   9.4605   9.5207
    10.2219  11.1913  11.6546  12.0011  12.3172  12.6902  13.2046  13.5111

          k = 0.2114-0.2034 0.0000 (  9753 PWs)   bands (ev):

   -60.2471 -59.9129 -59.7360 -59.1336 -27.3980 -27.2401 -27.1510 -27.0238
   -26.9093 -26.8144 -26.3917 -26.3092 -26.2869 -25.5471 -25.4871 -25.3786
   -12.0142 -11.9965 -11.9925 -11.9620 -11.9581 -11.9232 -11.9146 -11.5897
   -11.5700 -11.5635 -11.5407 -11.5359 -11.5007 -11.4868 -11.4001 -11.3816
   -11.3763 -11.3686 -11.3630 -11.3558 -11.3466 -10.7658 -10.7416 -10.7341
   -10.7310 -10.7247 -10.7175 -10.7098  -5.0806  -3.9436  -3.3599   0.9260
     1.3421   1.7987   2.1975   2.8022   3.3634   4.2670   4.6655   5.7845
     6.2539   6.8248   7.6709   7.8788   7.9483   8.5819   9.0662   9.9638
    10.2340  11.1432  11.5904  11.6837  12.6016  12.7756  13.1702  13.4082

          k = 0.2114-0.1221 0.0000 (  9742 PWs)   bands (ev):

   -60.2500 -59.9230 -59.7374 -59.1245 -27.3375 -27.2092 -27.0822 -26.9942
   -26.8789 -26.7696 -26.4050 -26.3031 -26.2868 -25.5581 -25.5410 -25.4106
   -12.0151 -11.9955 -11.9921 -11.9620 -11.9590 -11.9255 -11.9124 -11.5903
   -11.5683 -11.5630 -11.5391 -11.5362 -11.5030 -11.4841 -11.4022 -11.3805
   -11.3760 -11.3686 -11.3638 -11.3582 -11.3439 -10.7689 -10.7402 -10.7335
   -10.7316 -10.7264 -10.7200 -10.7066  -5.5215  -4.0441  -3.2093   0.9217
     1.1548   1.2516   1.9314   3.1112   3.1711   4.2323   4.4075   6.0292
     6.1095   6.5861   7.5260   7.9064   7.9797   8.4148   9.0635  10.1886
    10.6489  11.1320  11.3437  11.5316  12.4166  12.6724  13.2270  13.4323

          k = 0.2114-0.0407 0.0000 (  9719 PWs)   bands (ev):

   -60.2516 -59.9288 -59.7381 -59.1193 -27.2850 -27.1881 -27.0939 -26.9343
   -26.8426 -26.7822 -26.3880 -26.3085 -26.2906 -25.5933 -25.5372 -25.4394
   -12.0156 -11.9947 -11.9921 -11.9619 -11.9595 -11.9269 -11.9111 -11.5906
   -11.5670 -11.5628 -11.5387 -11.5358 -11.5045 -11.4826 -11.4033 -11.3795
   -11.3760 -11.3684 -11.3646 -11.3594 -11.3424 -10.7706 -10.7388 -10.7338
   -10.7317 -10.7273 -10.7213 -10.7049  -5.7599  -4.0856  -3.1158   0.7335
     1.0341   1.1867   1.7850   2.9466   3.2294   4.1310   4.6915   5.6734
     6.1507   6.6747   7.2418   7.6654   8.1753   8.5081   9.1533  10.0186
    10.3514  11.3758  11.6371  11.8520  12.3068  12.5345  12.9783  13.3134

          k = 0.2114 0.0407 0.0000 (  9719 PWs)   bands (ev):

   -60.2516 -59.9288 -59.7381 -59.1193 -27.2850 -27.1881 -27.0940 -26.9343
   -26.8426 -26.7822 -26.3880 -26.3085 -26.2906 -25.5933 -25.5372 -25.4394
   -12.0156 -11.9947 -11.9921 -11.9619 -11.9595 -11.9269 -11.9111 -11.5906
   -11.5670 -11.5628 -11.5387 -11.5358 -11.5045 -11.4826 -11.4033 -11.3795
   -11.3760 -11.3684 -11.3646 -11.3594 -11.3424 -10.7706 -10.7388 -10.7338
   -10.7317 -10.7273 -10.7213 -10.7049  -5.7599  -4.0856  -3.1158   0.7335
     1.0341   1.1867   1.7850   2.9466   3.2294   4.1310   4.6915   5.6734
     6.1507   6.6747   7.2418   7.6654   8.1754   8.5081   9.1533  10.0186
    10.3514  11.3758  11.6371  11.8520  12.3068  12.5345  12.9782  13.3133

          k = 0.2819 0.1627 0.0000 (  9766 PWs)   bands (ev):

   -60.2454 -59.9071 -59.7352 -59.1390 -27.4640 -27.2652 -27.1123 -27.0667
   -26.9592 -26.8008 -26.4103 -26.3070 -26.2826 -25.5127 -25.4957 -25.3525
   -12.0137 -11.9973 -11.9925 -11.9621 -11.9576 -11.9219 -11.9159 -11.5894
   -11.5714 -11.5635 -11.5408 -11.5365 -11.4991 -11.4882 -11.3992 -11.3826
   -11.3763 -11.3687 -11.3622 -11.3544 -11.3478 -10.7645 -10.7429 -10.7340
   -10.7305 -10.7236 -10.7160 -10.7110  -4.8449  -4.0133  -3.2685   0.6180
     1.7096   1.9139   2.5607   3.1126   3.3819   4.2508   4.5824   5.7811
     6.3393   6.8729   7.3947   7.8026   8.2964   8.7043   8.9990  10.2749
    10.3996  10.7400  11.0053  11.5045  12.8117  12.8456  12.9760  13.3546

          k = 0.2819 0.2441 0.0000 (  9754 PWs)   bands (ev):

   -60.2431 -59.8990 -59.7339 -59.1466 -27.5080 -27.2959 -27.1703 -27.0809
   -26.9712 -26.8435 -26.3924 -26.3106 -26.2905 -25.5046 -25.4549 -25.3324
   -12.0129 -11.9980 -11.9928 -11.9622 -11.9569 -11.9201 -11.9175 -11.5889
   -11.5725 -11.5641 -11.5425 -11.5360 -11.4973 -11.4900 -11.3976 -11.3832
   -11.3767 -11.3686 -11.3617 -11.3523 -11.3498 -10.7621 -10.7436 -10.7347
   -10.7298 -10.7226 -10.7140 -10.7132  -4.5271  -3.9277  -3.2510   0.4695
     1.8760   2.4213   2.7223   2.9755   3.6149   4.4627   4.7861   5.6236
     6.3468   6.8068   7.3078   7.6396   8.4382   8.6435   9.2578   9.9816
    10.2511  10.7965  11.3013  11.4541  12.3665  12.6442  13.0423  13.4158

          k = 0.2819 0.3255 0.0000 (  9773 PWs)   bands (ev):

   -60.2408 -59.8909 -59.7324 -59.1543 -27.5184 -27.3349 -27.2472 -27.0855
   -26.9967 -26.8915 -26.3682 -26.3185 -26.2984 -25.4854 -25.4157 -25.3214
   -12.0122 -11.9980 -11.9939 -11.9622 -11.9564 -11.9201 -11.9176 -11.5884
   -11.5727 -11.5657 -11.5448 -11.5347 -11.4968 -11.4913 -11.3957 -11.3832
   -11.3775 -11.3682 -11.3618 -11.3526 -11.3502 -10.7591 -10.7433 -10.7360
   -10.7290 -10.7224 -10.7170 -10.7114  -4.1967  -3.7138  -3.2840   0.5488
     1.9152   2.4959   2.7792   3.0610   3.8366   4.6488   5.0363   5.6632
     6.2433   6.5492   6.9831   7.7273   8.2044   8.8134   9.5150   9.8099
    10.4606  10.8565  11.3956  11.6433  12.1260  12.4815  13.0500  13.5033

          k = 0.2819 0.4069 0.0000 (  9761 PWs)   bands (ev):

   -60.2392 -59.8849 -59.7312 -59.1602 -27.4956 -27.3926 -27.2897 -27.1010
   -27.0152 -26.9267 -26.3627 -26.3271 -26.2939 -25.4593 -25.3950 -25.3164
   -12.0116 -11.9974 -11.9951 -11.9623 -11.9560 -11.9214 -11.9162 -11.5882
   -11.5718 -11.5677 -11.5466 -11.5336 -11.4979 -11.4910 -11.3942 -11.3827
   -11.3785 -11.3675 -11.3623 -11.3548 -11.3487 -10.7565 -10.7421 -10.7377
   -10.7281 -10.7229 -10.7200 -10.7098  -3.8868  -3.5536  -3.3169   0.8446
     1.6324   2.3925   2.7897   3.3918   3.9722   4.5467   5.1671   5.7810
     6.1308   6.2688   6.9775   7.5282   7.8741   9.3361   9.8517   9.8688
    10.7142  11.0750  11.4130  11.5977  11.7735  12.4474  12.7802  13.9098

          k = 0.2819 0.4882 0.0000 (  9738 PWs)   bands (ev):

   -60.2386 -59.8828 -59.7307 -59.1623 -27.4579 -27.4403 -27.3068 -27.1160
   -26.9942 -26.9588 -26.3634 -26.3281 -26.2923 -25.4453 -25.3917 -25.3144
   -12.0114 -11.9965 -11.9963 -11.9623 -11.9558 -11.9219 -11.9156 -11.5881
   -11.5704 -11.5695 -11.5473 -11.5331 -11.4984 -11.4906 -11.3936 -11.3822
   -11.3790 -11.3672 -11.3626 -11.3556 -11.3481 -10.7554 -10.7408 -10.7391
   -10.7275 -10.7235 -10.7212 -10.7091  -3.7105  -3.5539  -3.3188   1.1206
     1.4364   2.1586   2.8455   3.8363   3.9705   4.2165   5.2254   5.6885
     6.1395   6.2375   7.1429   7.4599   7.5402   9.7619   9.9434  10.0259
    10.8543  11.1644  11.2392  11.6572  11.6623  12.3118  12.6200  13.9520

          k = 0.2819 0.5696 0.0000 (  9761 PWs)   bands (ev):

   -60.2392 -59.8849 -59.7312 -59.1602 -27.4956 -27.3926 -27.2897 -27.1010
   -27.0152 -26.9267 -26.3627 -26.3271 -26.2939 -25.4593 -25.3950 -25.3164
   -12.0116 -11.9974 -11.9951 -11.9623 -11.9560 -11.9214 -11.9162 -11.5882
   -11.5718 -11.5677 -11.5466 -11.5336 -11.4979 -11.4910 -11.3942 -11.3827
   -11.3785 -11.3675 -11.3623 -11.3548 -11.3487 -10.7565 -10.7421 -10.7377
   -10.7281 -10.7229 -10.7200 -10.7098  -3.8868  -3.5536  -3.3168   0.8446
     1.6324   2.3925   2.7896   3.3918   3.9722   4.5467   5.1670   5.7810
     6.1309   6.2688   6.9775   7.5282   7.8740   9.3360   9.8518   9.8689
    10.7143  11.0751  11.4130  11.5977  11.7734  12.4474  12.7802  13.9098

          k = 0.2819-0.3255 0.0000 (  9773 PWs)   bands (ev):

   -60.2408 -59.8909 -59.7324 -59.1543 -27.5185 -27.3349 -27.2472 -27.0855
   -26.9967 -26.8915 -26.3682 -26.3185 -26.2984 -25.4855 -25.4157 -25.3214
   -12.0122 -11.9980 -11.9939 -11.9622 -11.9564 -11.9201 -11.9176 -11.5884
   -11.5727 -11.5657 -11.5448 -11.5347 -11.4968 -11.4913 -11.3957 -11.3832
   -11.3775 -11.3682 -11.3618 -11.3526 -11.3502 -10.7591 -10.7433 -10.7360
   -10.7290 -10.7224 -10.7170 -10.7114  -4.1968  -3.7138  -3.2840   0.5488
     1.9152   2.4959   2.7792   3.0610   3.8366   4.6488   5.0363   5.6632
     6.2433   6.5492   6.9831   7.7274   8.2043   8.8135   9.5150   9.8099
    10.4607  10.8566  11.3957  11.6432  12.1260  12.4816  13.0500  13.5034

          k = 0.2819-0.2441 0.0000 (  9754 PWs)   bands (ev):

   -60.2431 -59.8990 -59.7339 -59.1466 -27.5080 -27.2959 -27.1702 -27.0809
   -26.9712 -26.8435 -26.3924 -26.3105 -26.2905 -25.5046 -25.4549 -25.3324
   -12.0129 -11.9980 -11.9928 -11.9622 -11.9569 -11.9201 -11.9175 -11.5889
   -11.5725 -11.5641 -11.5425 -11.5360 -11.4973 -11.4900 -11.3976 -11.3832
   -11.3767 -11.3686 -11.3617 -11.3523 -11.3498 -10.7621 -10.7436 -10.7347
   -10.7298 -10.7226 -10.7140 -10.7132  -4.5271  -3.9277  -3.2510   0.4696
     1.8760   2.4213   2.7223   2.9755   3.6148   4.4627   4.7862   5.6236
     6.3468   6.8068   7.3078   7.6396   8.4382   8.6435   9.2579   9.9817
    10.2512  10.7965  11.3014  11.4541  12.3665  12.6442  13.0424  13.4158

          k = 0.2819-0.1627 0.0000 (  9768 PWs)   bands (ev):

   -60.2454 -59.9071 -59.7352 -59.1390 -27.4641 -27.2652 -27.1123 -27.0667
   -26.9593 -26.8008 -26.4104 -26.3070 -26.2827 -25.5127 -25.4957 -25.3525
   -12.0137 -11.9973 -11.9925 -11.9621 -11.9576 -11.9219 -11.9159 -11.5894
   -11.5714 -11.5635 -11.5409 -11.5366 -11.4991 -11.4882 -11.3992 -11.3826
   -11.3763 -11.3687 -11.3622 -11.3544 -11.3478 -10.7645 -10.7429 -10.7340
   -10.7305 -10.7237 -10.7160 -10.7110  -4.8448  -4.0133  -3.2685   0.6180
     1.7097   1.9138   2.5607   3.1126   3.3818   4.2507   4.5824   5.7811
     6.3393   6.8729   7.3947   7.8026   8.2965   8.7043   8.9990  10.2750
    10.3996  10.7401  11.0054  11.5045  12.8117  12.8456  12.9760  13.3547

          k = 0.2819-0.0814 0.0000 (  9753 PWs)   bands (ev):

   -60.2471 -59.9129 -59.7360 -59.1336 -27.3980 -27.2400 -27.1510 -27.0239
   -26.9093 -26.8144 -26.3917 -26.3091 -26.2869 -25.5470 -25.4872 -25.3786
   -12.0142 -11.9965 -11.9925 -11.9620 -11.9581 -11.9232 -11.9146 -11.5897
   -11.5700 -11.5635 -11.5407 -11.5359 -11.5007 -11.4868 -11.4001 -11.3816
   -11.3763 -11.3686 -11.3630 -11.3558 -11.3466 -10.7658 -10.7416 -10.7341
   -10.7310 -10.7247 -10.7175 -10.7098  -5.0806  -3.9436  -3.3599   0.9260
     1.3420   1.7987   2.1975   2.8023   3.3634   4.2670   4.6654   5.7846
     6.2540   6.8247   7.6708   7.8789   7.9483   8.5819   9.0662   9.9638
    10.2338  11.1430  11.5904  11.6839  12.6016  12.7756  13.1701  13.4082

          k = 0.2819-0.0000 0.0000 (  9742 PWs)   bands (ev):

   -60.2477 -59.9151 -59.7363 -59.1317 -27.3527 -27.2415 -27.1799 -26.9912
   -26.9045 -26.8225 -26.3737 -26.3200 -26.2849 -25.5640 -25.4743 -25.3943
   -12.0144 -11.9960 -11.9927 -11.9620 -11.9584 -11.9237 -11.9142 -11.5898
   -11.5693 -11.5637 -11.5408 -11.5354 -11.5012 -11.4863 -11.4004 -11.3811
   -11.3764 -11.3685 -11.3635 -11.3562 -11.3462 -10.7662 -10.7409 -10.7343
   -10.7312 -10.7252 -10.7180 -10.7096  -5.1670  -3.8607  -3.4413   1.1481
     1.1918   1.7412   2.0168   2.6210   3.3286   4.2417   4.9355   5.5595
     6.3341   6.7935   7.5600   7.9032   8.1736   8.3366   9.1908   9.6993
    10.1256  11.3330  11.8842  12.0538  12.4118  12.8648  12.9964  13.3508

          k = 0.2819 0.0814 0.0000 (  9753 PWs)   bands (ev):

   -60.2471 -59.9129 -59.7360 -59.1336 -27.3980 -27.2400 -27.1510 -27.0239
   -26.9093 -26.8144 -26.3917 -26.3091 -26.2869 -25.5470 -25.4872 -25.3786
   -12.0142 -11.9965 -11.9925 -11.9620 -11.9581 -11.9232 -11.9146 -11.5897
   -11.5700 -11.5635 -11.5407 -11.5359 -11.5007 -11.4868 -11.4001 -11.3816
   -11.3763 -11.3686 -11.3630 -11.3558 -11.3466 -10.7658 -10.7416 -10.7341
   -10.7310 -10.7247 -10.7175 -10.7098  -5.0807  -3.9436  -3.3599   0.9260
     1.3420   1.7987   2.1975   2.8023   3.3635   4.2670   4.6654   5.7846
     6.2540   6.8247   7.6708   7.8789   7.9483   8.5819   9.0662   9.9638
    10.2338  11.1430  11.5903  11.6838  12.6016  12.7756  13.1700  13.4082

          k = 0.3523 0.2034 0.0000 (  9758 PWs)   bands (ev):

   -60.2421 -59.8952 -59.7332 -59.1501 -27.5572 -27.3156 -27.1164 -27.1074
   -27.0242 -26.8229 -26.4067 -26.3179 -26.2807 -25.4832 -25.4653 -25.3152
   -12.0126 -11.9986 -11.9927 -11.9622 -11.9565 -11.9191 -11.9183 -11.5886
   -11.5736 -11.5639 -11.5422 -11.5369 -11.4961 -11.4909 -11.3972 -11.3839
   -11.3767 -11.3686 -11.3611 -11.3512 -11.3503 -10.7617 -10.7445 -10.7348
   -10.7293 -10.7217 -10.7136 -10.7126  -4.5430  -3.8464  -3.0944   0.0993
     2.1444   2.6618   3.0103   3.4795   3.4935   4.2678   4.9498   5.5520
     6.5455   6.6367   7.1347   7.5386   8.6038   8.7562   9.1906  10.1482
    10.1697  10.5772  11.0878  11.2075  12.0813  12.3453  12.9777  13.7295

          k = 0.3523 0.2848 0.0000 (  9737 PWs)   bands (ev):

   -60.2408 -59.8909 -59.7324 -59.1543 -27.5714 -27.3242 -27.1965 -27.0913
   -27.0118 -26.8595 -26.3879 -26.3183 -26.2916 -25.4789 -25.4408 -25.3079
   -12.0122 -11.9988 -11.9930 -11.9622 -11.9563 -11.9194 -11.9177 -11.5884
   -11.5739 -11.5645 -11.5436 -11.5361 -11.4955 -11.4915 -11.3963 -11.3840
   -11.3770 -11.3685 -11.3611 -11.3515 -11.3499 -10.7602 -10.7446 -10.7354
   -10.7289 -10.7215 -10.7151 -10.7112  -4.4497  -3.6856  -3.0512   0.0216
     2.2158   2.9141   3.0636   3.3631   3.6477   4.3238   5.1520   5.5919
     6.3306   6.7056   6.9560   7.5941   8.3468   8.8028   9.2210  10.0416
    10.3814  10.7324  11.0992  11.2245  11.8160  12.2782  13.1596  13.2578

          k = 0.3523 0.3662 0.0000 (  9782 PWs)   bands (ev):

   -60.2398 -59.8871 -59.7317 -59.1580 -27.5479 -27.3191 -27.2923 -27.0813
   -27.0146 -26.9046 -26.3688 -26.3152 -26.3038 -25.4693 -25.4131 -25.3103
   -12.0118 -11.9983 -11.9941 -11.9623 -11.9561 -11.9207 -11.9168 -11.5883
   -11.5732 -11.5661 -11.5455 -11.5346 -11.4967 -11.4914 -11.3951 -11.3835
   -11.3778 -11.3681 -11.3616 -11.3534 -11.3491 -10.7582 -10.7435 -10.7365
   -10.7285 -10.7222 -10.7179 -10.7103  -4.2091  -3.5635  -3.1397   0.2909
     2.0727   2.7015   2.9332   3.4555   3.6204   4.5554   5.1666   5.7251
     6.2065   6.5343   6.8592   7.7357   7.9328   8.9748   9.5122  10.0216
    10.6514  10.9842  11.1171  11.4199  11.7187  12.3573  12.8884  13.6225

          k = 0.3523 0.4475 0.0000 (  9761 PWs)   bands (ev):

   -60.2392 -59.8850 -59.7312 -59.1602 -27.4956 -27.3926 -27.2898 -27.1010
   -27.0152 -26.9267 -26.3627 -26.3271 -26.2938 -25.4593 -25.3950 -25.3164
   -12.0116 -11.9974 -11.9951 -11.9623 -11.9560 -11.9214 -11.9162 -11.5882
   -11.5718 -11.5677 -11.5466 -11.5336 -11.4979 -11.4910 -11.3942 -11.3827
   -11.3785 -11.3676 -11.3623 -11.3548 -11.3487 -10.7565 -10.7421 -10.7377
   -10.7281 -10.7229 -10.7200 -10.7098  -3.8868  -3.5536  -3.3169   0.8446
     1.6325   2.3924   2.7897   3.3917   3.9722   4.5467   5.1671   5.7810
     6.1308   6.2688   6.9774   7.5280   7.8743   9.3360   9.8517   9.8688
    10.7142  11.0749  11.4131  11.5977  11.7735  12.4475  12.7802  13.9099

          k = 0.3523 0.5289 0.0000 (  9761 PWs)   bands (ev):

   -60.2392 -59.8849 -59.7312 -59.1602 -27.4956 -27.3925 -27.2897 -27.1010
   -27.0152 -26.9267 -26.3627 -26.3271 -26.2938 -25.4593 -25.3950 -25.3164
   -12.0116 -11.9974 -11.9951 -11.9623 -11.9560 -11.9214 -11.9162 -11.5882
   -11.5718 -11.5677 -11.5466 -11.5336 -11.4979 -11.4910 -11.3942 -11.3827
   -11.3785 -11.3675 -11.3623 -11.3548 -11.3487 -10.7565 -10.7421 -10.7377
   -10.7281 -10.7229 -10.7200 -10.7098  -3.8868  -3.5536  -3.3168   0.8446
     1.6325   2.3924   2.7896   3.3917   3.9722   4.5467   5.1671   5.7810
     6.1308   6.2687   6.9774   7.5280   7.8743   9.3360   9.8518   9.8688
    10.7142  11.0750  11.4131  11.5977  11.7735  12.4475  12.7802  13.9098

          k = 0.3523 0.6103 0.0000 (  9782 PWs)   bands (ev):

   -60.2398 -59.8871 -59.7317 -59.1580 -27.5479 -27.3191 -27.2923 -27.0813
   -27.0146 -26.9046 -26.3688 -26.3152 -26.3038 -25.4693 -25.4131 -25.3103
   -12.0118 -11.9983 -11.9941 -11.9623 -11.9561 -11.9207 -11.9168 -11.5883
   -11.5732 -11.5661 -11.5455 -11.5346 -11.4967 -11.4914 -11.3951 -11.3835
   -11.3778 -11.3681 -11.3616 -11.3534 -11.3491 -10.7582 -10.7435 -10.7365
   -10.7285 -10.7222 -10.7179 -10.7103  -4.2092  -3.5635  -3.1396   0.2909
     2.0727   2.7015   2.9332   3.4555   3.6204   4.5554   5.1666   5.7251
     6.2065   6.5343   6.8593   7.7357   7.9328   8.9748   9.5122  10.0217
    10.6514  10.9843  11.1172  11.4199  11.7187  12.3573  12.8884  13.6225

          k = 0.3523-0.2848 0.0000 (  9737 PWs)   bands (ev):

   -60.2408 -59.8909 -59.7324 -59.1543 -27.5714 -27.3242 -27.1964 -27.0913
   -27.0118 -26.8595 -26.3879 -26.3183 -26.2917 -25.4789 -25.4408 -25.3078
   -12.0122 -11.9988 -11.9930 -11.9622 -11.9563 -11.9194 -11.9177 -11.5884
   -11.5739 -11.5645 -11.5436 -11.5361 -11.4955 -11.4915 -11.3963 -11.3840
   -11.3770 -11.3685 -11.3611 -11.3515 -11.3499 -10.7602 -10.7446 -10.7354
   -10.7289 -10.7215 -10.7151 -10.7112  -4.4498  -3.6856  -3.0512   0.0216
     2.2158   2.9141   3.0635   3.3631   3.6477   4.3238   5.1521   5.5919
     6.3306   6.7056   6.9560   7.5940   8.3468   8.8028   9.2210  10.0417
    10.3815  10.7324  11.0992  11.2246  11.8160  12.2783  13.1596  13.2578

          k = 0.3523-0.2034 0.0000 (  9758 PWs)   bands (ev):

   -60.2421 -59.8952 -59.7332 -59.1501 -27.5572 -27.3155 -27.1164 -27.1074
   -27.0242 -26.8229 -26.4067 -26.3179 -26.2807 -25.4832 -25.4654 -25.3152
   -12.0126 -11.9986 -11.9927 -11.9622 -11.9565 -11.9191 -11.9183 -11.5886
   -11.5736 -11.5639 -11.5422 -11.5369 -11.4961 -11.4909 -11.3972 -11.3839
   -11.3767 -11.3686 -11.3611 -11.3512 -11.3503 -10.7617 -10.7445 -10.7348
   -10.7293 -10.7217 -10.7136 -10.7126  -4.5431  -3.8464  -3.0944   0.0993
     2.1445   2.6617   3.0103   3.4795   3.4935   4.2678   4.9499   5.5519
     6.5456   6.6366   7.1347   7.5386   8.6038   8.7562   9.1906  10.1483
    10.1698  10.5773  11.0879  11.2076  12.0812  12.3453  12.9779  13.7294

          k = 0.3523-0.1221 0.0000 (  9754 PWs)   bands (ev):

   -60.2431 -59.8990 -59.7339 -59.1466 -27.5080 -27.2958 -27.1703 -27.0809
   -26.9712 -26.8435 -26.3924 -26.3105 -26.2905 -25.5045 -25.4550 -25.3324
   -12.0129 -11.9980 -11.9928 -11.9622 -11.9569 -11.9201 -11.9175 -11.5889
   -11.5725 -11.5641 -11.5425 -11.5360 -11.4973 -11.4900 -11.3976 -11.3832
   -11.3767 -11.3686 -11.3617 -11.3523 -11.3498 -10.7621 -10.7436 -10.7347
   -10.7298 -10.7226 -10.7140 -10.7132  -4.5271  -3.9277  -3.2509   0.4696
     1.8761   2.4212   2.7224   2.9755   3.6148   4.4627   4.7862   5.6236
     6.3470   6.8067   7.3076   7.6396   8.4384   8.6434   9.2578   9.9818
    10.2510  10.7964  11.3014  11.4542  12.3664  12.6443  13.0424  13.4158

          k = 0.3523-0.0407 0.0000 (  9773 PWs)   bands (ev):

   -60.2437 -59.9012 -59.7342 -59.1445 -27.4405 -27.3179 -27.1960 -27.0630
   -26.9592 -26.8582 -26.3688 -26.3228 -26.2885 -25.5228 -25.4328 -25.3522
   -12.0131 -11.9972 -11.9933 -11.9621 -11.9572 -11.9207 -11.9171 -11.5890
   -11.5714 -11.5648 -11.5431 -11.5350 -11.4983 -11.4897 -11.3976 -11.3825
   -11.3770 -11.3684 -11.3625 -11.3529 -11.3500 -10.7620 -10.7425 -10.7351
   -10.7302 -10.7233 -10.7148 -10.7137  -4.5130  -3.8065  -3.4985   1.0170
     1.6565   2.0069   2.4147   2.6497   3.7424   4.5058   5.0015   5.5195
     6.2353   6.7582   7.4467   7.8692   8.2195   8.4997   9.4606   9.5206
    10.2218  11.1911  11.6544  12.0011  12.3172  12.6902  13.2046  13.5112

          k = 0.3523 0.0407 0.0000 (  9773 PWs)   bands (ev):

   -60.2437 -59.9012 -59.7342 -59.1445 -27.4405 -27.3179 -27.1960 -27.0630
   -26.9592 -26.8582 -26.3688 -26.3228 -26.2885 -25.5228 -25.4327 -25.3522
   -12.0131 -11.9972 -11.9933 -11.9621 -11.9572 -11.9207 -11.9171 -11.5890
   -11.5714 -11.5648 -11.5431 -11.5350 -11.4983 -11.4897 -11.3976 -11.3825
   -11.3770 -11.3684 -11.3625 -11.3529 -11.3500 -10.7620 -10.7425 -10.7351
   -10.7302 -10.7233 -10.7148 -10.7137  -4.5130  -3.8065  -3.4985   1.0170
     1.6564   2.0069   2.4147   2.6497   3.7425   4.5058   5.0015   5.5195
     6.2353   6.7582   7.4468   7.8693   8.2195   8.4997   9.4605   9.5206
    10.2218  11.1911  11.6544  12.0011  12.3171  12.6902  13.2046  13.5111

          k = 0.3523 0.1221 0.0000 (  9754 PWs)   bands (ev):

   -60.2431 -59.8990 -59.7339 -59.1466 -27.5080 -27.2959 -27.1703 -27.0809
   -26.9712 -26.8435 -26.3924 -26.3105 -26.2905 -25.5045 -25.4550 -25.3324
   -12.0129 -11.9980 -11.9928 -11.9622 -11.9569 -11.9201 -11.9175 -11.5889
   -11.5725 -11.5641 -11.5425 -11.5360 -11.4973 -11.4900 -11.3976 -11.3832
   -11.3767 -11.3686 -11.3617 -11.3523 -11.3498 -10.7621 -10.7436 -10.7347
   -10.7298 -10.7226 -10.7140 -10.7132  -4.5271  -3.9277  -3.2509   0.4696
     1.8760   2.4212   2.7224   2.9755   3.6148   4.4627   4.7861   5.6236
     6.3469   6.8067   7.3077   7.6396   8.4383   8.6434   9.2578   9.9817
    10.2510  10.7964  11.3013  11.4541  12.3664  12.6442  13.0423  13.4158

          k =-0.4228-0.2441 0.0000 (  9778 PWs)   bands (ev):

   -60.2408 -59.8908 -59.7325 -59.1543 -27.5907 -27.3338 -27.1341 -27.1001
   -27.0525 -26.8309 -26.4013 -26.3256 -26.2801 -25.4732 -25.4548 -25.3025
   -12.0123 -11.9991 -11.9929 -11.9623 -11.9563 -11.9192 -11.9180 -11.5884
   -11.5745 -11.5641 -11.5428 -11.5372 -11.4948 -11.4919 -11.3966 -11.3844
   -11.3769 -11.3687 -11.3609 -11.3511 -11.3499 -10.7608 -10.7451 -10.7352
   -10.7289 -10.7212 -10.7144 -10.7111  -4.5457  -3.6748  -2.9611  -0.1734
     2.3812   3.0163   3.0892   3.5635   3.7175   4.1870   5.1810   5.5240
     6.4338   6.6227   6.9505   7.5562   8.6004   8.6532   9.1337  10.0528
    10.2150  10.7197  10.9609  11.2580  11.6765  12.0482  13.1535  13.2613

          k =-0.4228-0.1627 0.0000 (  9739 PWs)   bands (ev):

   -60.2408 -59.8909 -59.7324 -59.1543 -27.5714 -27.3242 -27.1965 -27.0913
   -27.0118 -26.8595 -26.3879 -26.3183 -26.2916 -25.4789 -25.4409 -25.3079
   -12.0122 -11.9988 -11.9930 -11.9622 -11.9563 -11.9194 -11.9177 -11.5884
   -11.5739 -11.5645 -11.5436 -11.5361 -11.4955 -11.4915 -11.3963 -11.3840
   -11.3770 -11.3685 -11.3611 -11.3515 -11.3499 -10.7602 -10.7446 -10.7354
   -10.7289 -10.7215 -10.7151 -10.7112  -4.4497  -3.6856  -3.0512   0.0216
     2.2158   2.9140   3.0636   3.3631   3.6477   4.3238   5.1520   5.5919
     6.3307   6.7056   6.9559   7.5941   8.3467   8.8029   9.2209  10.0417
    10.3814  10.7323  11.0991  11.2246  11.8161  12.2782  13.1596  13.2578

          k =-0.4228-0.0814 0.0000 (  9773 PWs)   bands (ev):

   -60.2408 -59.8909 -59.7324 -59.1543 -27.5184 -27.3348 -27.2473 -27.0855
   -26.9967 -26.8915 -26.3682 -26.3185 -26.2984 -25.4854 -25.4158 -25.3214
   -12.0122 -11.9980 -11.9939 -11.9622 -11.9564 -11.9201 -11.9176 -11.5884
   -11.5727 -11.5657 -11.5448 -11.5347 -11.4968 -11.4913 -11.3957 -11.3832
   -11.3775 -11.3682 -11.3618 -11.3526 -11.3502 -10.7591 -10.7433 -10.7360
   -10.7290 -10.7224 -10.7170 -10.7114  -4.1968  -3.7138  -3.2840   0.5488
     1.9152   2.4958   2.7792   3.0610   3.8365   4.6488   5.0363   5.6632
     6.2433   6.5492   6.9829   7.7272   8.2045   8.8134   9.5149   9.8099
    10.4606  10.8564  11.3956  11.6434  12.1261  12.4815  13.0500  13.5034

          k =-0.4228 0.0000 0.0000 (  9756 PWs)   bands (ev):

   -60.2408 -59.8909 -59.7324 -59.1543 -27.4668 -27.3886 -27.2338 -27.0952
   -27.0051 -26.8924 -26.3598 -26.3298 -26.2910 -25.4879 -25.4016 -25.3307
   -12.0121 -11.9975 -11.9943 -11.9622 -11.9564 -11.9203 -11.9174 -11.5885
   -11.5719 -11.5664 -11.5453 -11.5341 -11.4973 -11.4912 -11.3955 -11.3827
   -11.3778 -11.3679 -11.3622 -11.3531 -11.3502 -10.7585 -10.7426 -10.7364
   -10.7291 -10.7227 -10.7179 -10.7115  -3.9727  -3.7609  -3.4645   1.2520
     1.2992   2.3376   2.5760   2.9544   4.0800   4.5656   5.1772   5.6447
     6.1896   6.4002   7.0533   7.6239   8.3066   8.9546   9.4117   9.7248
    10.4691  11.0191  11.6224  11.7672  12.3664  12.5319  13.0926  13.6348

          k =-0.4228 0.0814 0.0000 (  9773 PWs)   bands (ev):

   -60.2408 -59.8909 -59.7324 -59.1543 -27.5184 -27.3348 -27.2473 -27.0855
   -26.9967 -26.8916 -26.3682 -26.3185 -26.2984 -25.4854 -25.4158 -25.3214
   -12.0122 -11.9980 -11.9939 -11.9622 -11.9564 -11.9201 -11.9176 -11.5884
   -11.5727 -11.5657 -11.5448 -11.5347 -11.4968 -11.4913 -11.3957 -11.3832
   -11.3775 -11.3682 -11.3618 -11.3526 -11.3502 -10.7591 -10.7433 -10.7360
   -10.7290 -10.7224 -10.7170 -10.7114  -4.1968  -3.7138  -3.2839   0.5488
     1.9153   2.4958   2.7791   3.0610   3.8365   4.6488   5.0363   5.6632
     6.2434   6.5492   6.9829   7.7272   8.2045   8.8134   9.5149   9.8100
    10.4606  10.8564  11.3957  11.6434  12.1261  12.4815  13.0500  13.5034

          k =-0.4228 0.1627 0.0000 (  9739 PWs)   bands (ev):

   -60.2408 -59.8909 -59.7324 -59.1543 -27.5714 -27.3242 -27.1965 -27.0913
   -27.0118 -26.8595 -26.3879 -26.3183 -26.2917 -25.4789 -25.4409 -25.3078
   -12.0122 -11.9988 -11.9930 -11.9622 -11.9563 -11.9194 -11.9177 -11.5884
   -11.5739 -11.5645 -11.5436 -11.5361 -11.4955 -11.4915 -11.3963 -11.3840
   -11.3770 -11.3685 -11.3611 -11.3515 -11.3499 -10.7602 -10.7446 -10.7354
   -10.7289 -10.7215 -10.7151 -10.7112  -4.4498  -3.6856  -3.0511   0.0216
     2.2158   2.9140   3.0636   3.3631   3.6476   4.3238   5.1521   5.5919
     6.3307   6.7056   6.9558   7.5940   8.3468   8.8029   9.2209  10.0418
    10.3814  10.7323  11.0991  11.2247  11.8160  12.2783  13.1595  13.2577

          k =-0.4228-0.7324 0.0000 (  9778 PWs)   bands (ev):

   -60.2408 -59.8908 -59.7325 -59.1543 -27.5908 -27.3338 -27.1341 -27.1001
   -27.0525 -26.8309 -26.4013 -26.3256 -26.2801 -25.4732 -25.4548 -25.3024
   -12.0123 -11.9991 -11.9929 -11.9623 -11.9563 -11.9192 -11.9180 -11.5884
   -11.5745 -11.5641 -11.5428 -11.5372 -11.4948 -11.4919 -11.3966 -11.3844
   -11.3769 -11.3687 -11.3609 -11.3511 -11.3499 -10.7608 -10.7451 -10.7352
   -10.7289 -10.7212 -10.7144 -10.7111  -4.5457  -3.6748  -2.9611  -0.1734
     2.3812   3.0163   3.0893   3.5635   3.7175   4.1870   5.1811   5.5239
     6.4337   6.6228   6.9504   7.5562   8.6005   8.6533   9.1337  10.0529
    10.2151  10.7198  10.9609  11.2580  11.6764  12.0483  13.1536  13.2611

     the Fermi energy is     7.8838 ev

!    total energy              =   -2758.53290101 Ry
     estimated scf accuracy    <          4.2E-13 Ry
     smearing contrib. (-TS)   =      -0.00001258 Ry
     internal energy E=F+TS    =   -2758.53288843 Ry

     The total energy is F=E-TS. E is the sum of the following terms:
     one-electron contribution =  -12555.74868058 Ry
     hartree contribution      =    6372.96780453 Ry
     xc contribution           =    -283.35759924 Ry
     ewald contribution        =    3707.60558686 Ry

     convergence has been achieved in  30 iterations

     negative rho (up, down):  1.943E-05 0.000E+00

     Forces acting on atoms (cartesian axes, Ry/au):

     atom    1 type  1   force =    -0.00001055   -0.00002559   -0.11793531
     atom    2 type  2   force =     0.00000783    0.00001905   -0.09135859
     atom    3 type  1   force =     0.00000070    0.00000164   -0.01604952
     atom    4 type  2   force =     0.00000624    0.00001491   -0.04622024
     atom    5 type  1   force =    -0.00002268   -0.00005401   -0.13891875
     atom    6 type  2   force =     0.00000411    0.00000965    0.11337485
     atom    7 type  1   force =     0.00001435    0.00003436    0.29710756

     Total force =     0.380886     Total SCF correction =     0.000008


     Computing stress (Cartesian axis) and pressure


     negative rho (up, down):  1.943E-05 0.000E+00
          total   stress  (Ry/bohr**3)                   (kbar)     P=      201.19
   0.00113897   0.00000004   0.00000005          167.55        0.01        0.01
   0.00000004   0.00113879   0.00000013            0.01      167.52        0.02
   0.00000005   0.00000013   0.00182532            0.01        0.02      268.51


     BFGS Geometry Optimization
     Energy error            =      0.0E+00 Ry
     Gradient error          =      3.0E-01 Ry/Bohr
     Cell gradient error     =      1.7E+02 kbar

     number of scf cycles    =   1
     number of bfgs steps    =   0

     enthalpy           new  =   -2758.5329010077 Ry

     new trust radius        =       0.2971075634 bohr
     new conv_thr            =            1.0E-12 Ry

     new unit-cell volume =   1313.93662 a.u.^3 (   194.70532 Ang^3 )
     density =      6.48014 g/cm^3

CELL_PARAMETERS (alat=  5.55000000)
   1.216221092   0.000006714   0.000000000
  -0.608104732   1.053247175   0.000000000
   0.000000000   0.000000000   6.000000000

ATOMIC_POSITIONS (crystal)
Ta            0.3333250903        0.6666571220        0.0362429410
C             0.0000076735        0.0000088905        0.0863601215
Ta            0.6666640556        0.3333302993        0.1423164766
C             0.3333353680        0.6666690178        0.1963595955
Ta            0.0000020479        0.0000023726        0.2369069384
C             0.6666655794        0.3333320662        0.2886811241
Ta            0.3333335184        0.6666668985        0.3322272469



     Writing output data file /scratch/as3359/Ta4C3_loop/Ta.save/
     NEW-OLD atomic charge density approx. for the potential

     Check: negative core charge=   -0.000003

     negative rho (up, down):  7.631E-05 0.000E+00
     extrapolated charge  126.55196, renormalised to  120.00000

     total cpu time spent up to now is      667.8 secs

     Self-consistent Calculation

     iteration #  1     ecut=    60.00 Ry     beta= 0.70
     Davidson diagonalization with overlap
[...]
    -9.1838  -9.1806  -9.1788  -9.1768  -9.1754  -9.1671  -8.7629  -8.7621
    -8.7465  -8.7457  -8.7376  -8.7368  -8.7167  -8.7159  -8.7044  -8.7036
    -8.6756  -8.6749  -8.6658  -8.6650  -1.5310  -1.1322  -0.5116   4.1910
     4.9205   5.2295   5.4658   6.2638   6.4651   6.6731   6.9887   7.3698
     8.6783   9.9967  10.0679  10.1613  11.7646  11.8954  12.4126  13.0903
    13.4160  13.5459  13.7124  14.1834  14.4645  14.6955  15.2118  16.0246

          k = 0.3168 0.0000 0.0000 (  7689 PWs)   bands (ev):

   -57.5136 -57.5010 -57.0081 -57.0074 -24.2910 -24.2519 -24.1994 -24.0333
   -23.9403 -23.9113 -23.6157 -23.6036 -23.5263 -23.5195 -23.3008 -23.2990
    -9.2054  -9.1994  -9.1964  -9.1917  -9.1906  -9.1874  -9.1860  -9.1842
    -9.1835  -9.1823  -9.1782  -9.1768  -9.1726  -9.1698  -8.7632  -8.7624
    -8.7455  -8.7447  -8.7376  -8.7368  -8.7166  -8.7158  -8.7053  -8.7045
    -8.6769  -8.6761  -8.6648  -8.6641  -1.5928  -1.1395  -0.5596   4.4880
     5.0145   5.1582   5.2808   6.4559   6.4604   6.6680   6.7718   7.2277
     9.3553   9.4495  10.0442  10.2944  11.4546  11.5345  12.1607  13.0953
    13.3811  13.5428  13.6957  14.5945  14.5990  14.8508  15.3722  15.6491

          k = 0.3168 0.0915 0.0000 (  7691 PWs)   bands (ev):

   -57.5120 -57.4998 -57.0069 -57.0061 -24.2921 -24.2894 -24.2161 -24.0439
   -23.9364 -23.8879 -23.6191 -23.6075 -23.5597 -23.5478 -23.2894 -23.2886
    -9.2089  -9.1981  -9.1940  -9.1903  -9.1899  -9.1883  -9.1863  -9.1847
    -9.1838  -9.1806  -9.1788  -9.1768  -9.1754  -9.1671  -8.7629  -8.7621
    -8.7465  -8.7457  -8.7376  -8.7368  -8.7167  -8.7159  -8.7044  -8.7036
    -8.6756  -8.6749  -8.6658  -8.6650  -1.5309  -1.1322  -0.5116   4.1910
     4.9205   5.2295   5.4658   6.2638   6.4651   6.6731   6.9887   7.3698
     8.6783   9.9967  10.0679  10.1613  11.7646  11.8954  12.4126  13.0903
    13.4160  13.5458  13.7124  14.1834  14.4645  14.6955  15.2118  16.0246

          k = 0.3961 0.2287 0.0000 (  7726 PWs)   bands (ev):

   -57.4986 -57.4907 -56.9964 -56.9956 -24.4721 -24.4207 -24.1831 -24.0670
   -23.9710 -23.9039 -23.7199 -23.7098 -23.6189 -23.5993 -23.3133 -23.3122
    -9.2144  -9.1986  -9.1961  -9.1950  -9.1937  -9.1898  -9.1825  -9.1798
    -9.1785  -9.1777  -9.1754  -9.1751  -9.1729  -9.1659  -8.7591  -8.7583
    -8.7522  -8.7514  -8.7394  -8.7386  -8.7167  -8.7160  -8.6994  -8.6986
    -8.6745  -8.6737  -8.6654  -8.6647  -1.3165  -0.7705   0.1017   3.1999
     4.2047   5.6541   5.8346   6.0653   6.2816   6.7835   6.8371   7.1102
     8.4839   9.8785  10.8644  10.9654  12.2100  13.2396  13.4520  13.7276
    13.8626  14.1078  14.4512  14.7414  14.8674  15.1526  15.2329  16.2246

          k = 0.3961 0.3201 0.0000 (  7736 PWs)   bands (ev):

   -57.4952 -57.4886 -56.9938 -56.9930 -24.4890 -24.4365 -24.1604 -24.0796
   -23.9991 -23.9443 -23.7302 -23.7243 -23.6158 -23.6021 -23.3450 -23.3443
    -9.2134  -9.1985  -9.1970  -9.1962  -9.1947  -9.1899  -9.1836  -9.1790
    -9.1775  -9.1763  -9.1755  -9.1738  -9.1718  -9.1674  -8.7577  -8.7569
    -8.7527  -8.7519  -8.7404  -8.7396  -8.7163  -8.7155  -8.6992  -8.6984
    -8.6771  -8.6764  -8.6630  -8.6622  -1.2488  -0.6648   0.2958   3.0490
     4.2097   5.6899   5.8983   6.0198   6.2750   6.5762   6.8129   6.9058
     8.6328   9.9878  11.0347  11.0535  12.3486  13.1654  13.3535  13.5812
    14.0764  14.5930  14.9423  15.0931  15.1423  15.2014  15.6347  16.0815

          k = 0.3961 0.4116 0.0000 (  7732 PWs)   bands (ev):

   -57.4920 -57.4870 -56.9916 -56.9908 -24.4566 -24.4054 -24.1342 -24.1282
   -24.0306 -24.0280 -23.7085 -23.7018 -23.6095 -23.6057 -23.4160 -23.4128
    -9.2089  -9.1996  -9.1971  -9.1938  -9.1927  -9.1888  -9.1870  -9.1815
    -9.1789  -9.1759  -9.1753  -9.1732  -9.1716  -9.1713  -8.7557  -8.7549
    -8.7518  -8.7510  -8.7423  -8.7415  -8.7151  -8.7143  -8.7007  -8.6999
    -8.6803  -8.6795  -8.6610  -8.6602  -1.0111  -0.5529   0.2236   3.3294
     4.3699   5.6876   5.9061   5.9711   6.1651   6.2780   6.5111   6.9412
     9.0710   9.9971  10.9123  10.9735  12.4855  13.1227  13.1343  13.6747
    13.9202  14.2216  14.6623  14.8692  15.2131  15.4141  16.3386  16.7422

          k = 0.3961 0.5031 0.0000 (  7741 PWs)   bands (ev):

   -57.4901 -57.4862 -56.9903 -56.9896 -24.3899 -24.3499 -24.2066 -24.1511
   -24.0881 -24.0351 -23.6647 -23.6568 -23.6103 -23.6067 -23.4928 -23.4860
    -9.2034  -9.1995  -9.1968  -9.1929  -9.1912  -9.1888  -9.1860  -9.1848
    -9.1814  -9.1779  -9.1758  -9.1747  -9.1729  -9.1712  -8.7542  -8.7534
    -8.7500  -8.7492  -8.7444  -8.7436  -8.7137  -8.7129  -8.7026  -8.7018
    -8.6826  -8.6818  -8.6599  -8.6592  -0.6738  -0.4905  -0.0572   3.8948
     4.5535   5.3023   5.4945   6.0958   6.1756   6.2854   6.5244   6.7801
     9.7912  10.0809  10.6097  10.7291  12.2191  12.9425  13.1690  13.3809
    13.8518  14.0189  14.3551  14.6991  15.1397  15.3262  16.7585  17.0614

          k = 0.3961 0.5945 0.0000 (  7741 PWs)   bands (ev):

   -57.4901 -57.4862 -56.9903 -56.9896 -24.3899 -24.3499 -24.2066 -24.1511
   -24.0881 -24.0351 -23.6647 -23.6568 -23.6103 -23.6067 -23.4928 -23.4860
    -9.2034  -9.1995  -9.1968  -9.1929  -9.1912  -9.1888  -9.1860  -9.1848
    -9.1814  -9.1779  -9.1758  -9.1747  -9.1729  -9.1712  -8.7542  -8.7534
    -8.7500  -8.7492  -8.7444  -8.7436  -8.7137  -8.7129  -8.7026  -8.7018
    -8.6826  -8.6818  -8.6599  -8.6592  -0.6738  -0.4905  -0.0572   3.8948
     4.5535   5.3023   5.4945   6.0958   6.1756   6.2854   6.5244   6.7801
     9.7913  10.0809  10.6097  10.7291  12.2191  12.9425  13.1690  13.3809
    13.8518  14.0189  14.3551  14.6991  15.1397  15.3262  16.7585  17.0614

          k = 0.3961 0.6860 0.0000 (  7732 PWs)   bands (ev):

   -57.4920 -57.4870 -56.9916 -56.9908 -24.4566 -24.4054 -24.1342 -24.1282
   -24.0306 -24.0280 -23.7085 -23.7018 -23.6095 -23.6057 -23.4160 -23.4128
    -9.2089  -9.1996  -9.1971  -9.1938  -9.1927  -9.1888  -9.1870  -9.1815
    -9.1789  -9.1759  -9.1753  -9.1732  -9.1716  -9.1713  -8.7557  -8.7549
    -8.7518  -8.7510  -8.7423  -8.7415  -8.7151  -8.7143  -8.7007  -8.6999
    -8.6803  -8.6795  -8.6610  -8.6602  -1.0111  -0.5529   0.2236   3.3294
     4.3699   5.6876   5.9062   5.9711   6.1651   6.2780   6.5111   6.9412
     9.0711   9.9971  10.9123  10.9735  12.4855  13.1227  13.1343  13.6747
    13.9202  14.2216  14.6623  14.8692  15.2131  15.4141  16.3385  16.7422

          k = 0.3961-0.3201 0.0000 (  7736 PWs)   bands (ev):

   -57.4952 -57.4886 -56.9938 -56.9930 -24.4890 -24.4365 -24.1604 -24.0796
   -23.9991 -23.9442 -23.7302 -23.7243 -23.6158 -23.6021 -23.3450 -23.3443
    -9.2134  -9.1985  -9.1970  -9.1962  -9.1947  -9.1899  -9.1836  -9.1790
    -9.1775  -9.1763  -9.1755  -9.1738  -9.1718  -9.1674  -8.7577  -8.7569
    -8.7527  -8.7519  -8.7404  -8.7396  -8.7163  -8.7155  -8.6992  -8.6984
    -8.6771  -8.6764  -8.6630  -8.6622  -1.2488  -0.6648   0.2958   3.0490
     4.2097   5.6899   5.8983   6.0198   6.2750   6.5762   6.8129   6.9058
     8.6329   9.9878  11.0346  11.0535  12.3486  13.1654  13.3535  13.5812
    14.0764  14.5930  14.9423  15.0931  15.1422  15.2014  15.6347  16.0815

          k = 0.3961-0.2287 0.0000 (  7726 PWs)   bands (ev):

   -57.4986 -57.4907 -56.9964 -56.9956 -24.4721 -24.4207 -24.1831 -24.0670
   -23.9710 -23.9039 -23.7199 -23.7098 -23.6189 -23.5993 -23.3133 -23.3122
    -9.2144  -9.1986  -9.1961  -9.1950  -9.1937  -9.1898  -9.1825  -9.1798
    -9.1785  -9.1777  -9.1754  -9.1751  -9.1729  -9.1659  -8.7591  -8.7583
    -8.7522  -8.7514  -8.7394  -8.7386  -8.7167  -8.7159  -8.6994  -8.6986
    -8.6745  -8.6737  -8.6654  -8.6647  -1.3165  -0.7705   0.1016   3.1999
     4.2047   5.6541   5.8347   6.0653   6.2816   6.7835   6.8371   7.1102
     8.4839   9.8785  10.8644  10.9654  12.2099  13.2396  13.4519  13.7276
    13.8626  14.1078  14.4512  14.7414  14.8674  15.1526  15.2329  16.2246

          k = 0.3961-0.1372 0.0000 (  7716 PWs)   bands (ev):

   -57.5016 -57.4925 -56.9986 -56.9978 -24.4138 -24.3697 -24.1989 -24.0604
   -23.9779 -23.9236 -23.6753 -23.6672 -23.6141 -23.5977 -23.3247 -23.3240
    -9.2118  -9.1977  -9.1940  -9.1928  -9.1920  -9.1877  -9.1852  -9.1822
    -9.1808  -9.1791  -9.1776  -9.1761  -9.1738  -9.1672  -8.7595  -8.7587
    -8.7505  -8.7497  -8.7393  -8.7385  -8.7166  -8.7158  -8.7011  -8.7003
    -8.6731  -8.6723  -8.6675  -8.6668  -1.2104  -0.8422  -0.2156   3.6704
     4.3724   5.5129   5.9611   6.1226   6.2313   6.6125   6.8150   7.0348
     8.5925   9.9610  10.5360  10.5991  12.1622  12.7263  12.8402  13.3516
    13.7874  14.1281  14.5462  14.7098  14.7324  14.9453  15.3536  16.2597

          k = 0.3961-0.0457 0.0000 (  7693 PWs)   bands (ev):

   -57.5032 -57.4936 -56.9999 -56.9991 -24.3449 -24.3248 -24.2112 -24.0506
   -24.0045 -23.9699 -23.6244 -23.6201 -23.6071 -23.5987 -23.3578 -23.3549
    -9.2067  -9.1970  -9.1932  -9.1915  -9.1900  -9.1882  -9.1861  -9.1834
    -9.1830  -9.1802  -9.1794  -9.1769  -9.1743  -9.1699  -8.7594  -8.7586
    -8.7488  -8.7480  -8.7397  -8.7389  -8.7162  -8.7154  -8.7027  -8.7019
    -8.6729  -8.6721  -8.6686  -8.6678  -0.9934  -0.8683  -0.5399   4.2905
     4.5846   5.3174   5.7696   6.1187   6.2850   6.5331   6.5972   6.8875
     9.1117   9.8671  10.1768  10.3571  11.9706  12.1863  12.3045  13.2171
    13.8457  13.9919  14.4988  14.8938  15.0100  15.0927  16.0118  16.2397

          k = 0.3961 0.0457 0.0000 (  7693 PWs)   bands (ev):

   -57.5032 -57.4936 -56.9999 -56.9991 -24.3449 -24.3248 -24.2112 -24.0506
   -24.0045 -23.9699 -23.6244 -23.6201 -23.6071 -23.5987 -23.3578 -23.3549
    -9.2067  -9.1970  -9.1932  -9.1915  -9.1900  -9.1882  -9.1861  -9.1834
    -9.1830  -9.1802  -9.1794  -9.1769  -9.1743  -9.1699  -8.7594  -8.7586
    -8.7488  -8.7480  -8.7397  -8.7389  -8.7162  -8.7154  -8.7027  -8.7019
    -8.6729  -8.6721  -8.6686  -8.6678  -0.9934  -0.8683  -0.5399   4.2905
     4.5846   5.3173   5.7696   6.1187   6.2850   6.5331   6.5972   6.8875
     9.1117   9.8671  10.1768  10.3571  11.9706  12.1864  12.3045  13.2171
    13.8457  13.9919  14.4988  14.8938  15.0100  15.0927  16.0118  16.2397

          k = 0.3961 0.1372 0.0000 (  7716 PWs)   bands (ev):

   -57.5016 -57.4925 -56.9986 -56.9978 -24.4138 -24.3697 -24.1989 -24.0604
   -23.9779 -23.9236 -23.6753 -23.6672 -23.6141 -23.5977 -23.3247 -23.3240
    -9.2118  -9.1977  -9.1940  -9.1928  -9.1920  -9.1877  -9.1852  -9.1822
    -9.1808  -9.1791  -9.1776  -9.1761  -9.1738  -9.1672  -8.7595  -8.7587
    -8.7505  -8.7497  -8.7393  -8.7385  -8.7166  -8.7158  -8.7011  -8.7003
    -8.6731  -8.6723  -8.6675  -8.6668  -1.2104  -0.8422  -0.2156   3.6704
     4.3724   5.5129   5.9611   6.1226   6.2313   6.6125   6.8150   7.0348
     8.5925   9.9610  10.5360  10.5991  12.1622  12.7263  12.8402  13.3516
    13.7874  14.1281  14.5462  14.7098  14.7323  14.9453  15.3536  16.2597

          k =-0.4753-0.2744 0.0000 (  7696 PWs)   bands (ev):

   -57.4952 -57.4886 -56.9938 -56.9930 -24.5137 -24.4593 -24.1625 -24.0772
   -23.9823 -23.9133 -23.7453 -23.7441 -23.6195 -23.6018 -23.3225 -23.3214
    -9.2152  -9.1984  -9.1983  -9.1963  -9.1960  -9.1908  -9.1821  -9.1774
    -9.1768  -9.1758  -9.1744  -9.1738  -9.1712  -9.1658  -8.7582  -8.7574
    -8.7533  -8.7525  -8.7398  -8.7390  -8.7165  -8.7158  -8.6982  -8.6975
    -8.6765  -8.6757  -8.6628  -8.6621  -1.3488  -0.6847   0.4464   2.8051
     4.1304   5.6160   5.9710   5.9918   6.2195   6.8170   6.8548   6.9550
     8.5543   9.9505  11.1705  11.2150  12.2990  13.5132  13.5960  13.7592
    14.0289  14.3908  14.8055  15.2972  15.3308  15.3388  15.6619  15.7665

          k =-0.4753-0.1829 0.0000 (  7736 PWs)   bands (ev):

   -57.4952 -57.4886 -56.9938 -56.9930 -24.4890 -24.4365 -24.1604 -24.0796
   -23.9991 -23.9443 -23.7302 -23.7243 -23.6158 -23.6021 -23.3450 -23.3443
    -9.2134  -9.1985  -9.1970  -9.1962  -9.1947  -9.1899  -9.1836  -9.1790
    -9.1775  -9.1763  -9.1755  -9.1738  -9.1718  -9.1674  -8.7577  -8.7569
    -8.7527  -8.7519  -8.7404  -8.7396  -8.7163  -8.7155  -8.6992  -8.6984
    -8.6771  -8.6764  -8.6630  -8.6622  -1.2488  -0.6648   0.2958   3.0490
     4.2097   5.6899   5.8983   6.0198   6.2750   6.5762   6.8129   6.9058
     8.6328   9.9878  11.0347  11.0535  12.3486  13.1654  13.3535  13.5812
    14.0764  14.5929  14.9423  15.0931  15.1423  15.2014  15.6347  16.0816

          k =-0.4753-0.0915 0.0000 (  7727 PWs)   bands (ev):

   -57.4952 -57.4886 -56.9938 -56.9930 -24.4264 -24.3839 -24.1638 -24.0965
   -24.0289 -24.0091 -23.6857 -23.6797 -23.6099 -23.6044 -23.4004 -23.3971
    -9.2083  -9.1982  -9.1952  -9.1938  -9.1923  -9.1884  -9.1855  -9.1839
    -9.1795  -9.1772  -9.1763  -9.1746  -9.1737  -9.1700  -8.7567  -8.7559
    -8.7510  -8.7502  -8.7415  -8.7407  -8.7155  -8.7147  -8.7012  -8.7004
    -8.6783  -8.6775  -8.6631  -8.6623  -0.9752  -0.6266  -0.0576   3.6362
     4.4189   5.5262   5.9381   6.1156   6.2620   6.3441   6.4352   6.8458
     9.0615   9.9775  10.6390  10.7245  12.3947  12.6226  13.0692  13.2091
    13.8864  14.3701  14.8542  15.1116  15.1571  15.3471  16.2038  16.4709

          k =-0.4753-0.0000 0.0000 (  7725 PWs)   bands (ev):

   -57.4952 -57.4886 -56.9938 -56.9930 -24.3748 -24.3598 -24.1786 -24.0900
   -24.0858 -24.0193 -23.6500 -23.6490 -23.6107 -23.6080 -23.4368 -23.4308
    -9.2044  -9.1967  -9.1957  -9.1941  -9.1901  -9.1895  -9.1851  -9.1839
    -9.1814  -9.1790  -9.1771  -9.1764  -9.1741  -9.1706  -8.7562  -8.7554
    -8.7500  -8.7492  -8.7423  -8.7415  -8.7150  -8.7142  -8.7023  -8.7015
    -8.6789  -8.6782  -8.6632  -8.6624  -0.6722  -0.6448  -0.3561   4.0853
     4.5485   5.2932   5.7650   6.1379   6.1557   6.3084   6.5522   6.7104
     9.5607   9.9519  10.2321  10.5252  12.1280  12.5342  12.8184  13.1946
    13.9356  14.2783  14.7916  15.1547  15.1752  15.2857  16.6214  16.7568

          k =-0.4753 0.0915 0.0000 (  7727 PWs)   bands (ev):

   -57.4952 -57.4886 -56.9938 -56.9930 -24.4264 -24.3839 -24.1638 -24.0965
   -24.0289 -24.0091 -23.6857 -23.6797 -23.6099 -23.6044 -23.4004 -23.3971
    -9.2083  -9.1982  -9.1952  -9.1938  -9.1923  -9.1884  -9.1855  -9.1839
    -9.1795  -9.1772  -9.1763  -9.1746  -9.1737  -9.1700  -8.7567  -8.7559
    -8.7510  -8.7502  -8.7415  -8.7407  -8.7155  -8.7147  -8.7012  -8.7004
    -8.6783  -8.6775  -8.6631  -8.6623  -0.9752  -0.6266  -0.0576   3.6362
     4.4189   5.5262   5.9381   6.1156   6.2620   6.3441   6.4352   6.8458
     9.0615   9.9775  10.6390  10.7244  12.3947  12.6226  13.0692  13.2091
    13.8864  14.3701  14.8542  15.1116  15.1571  15.3471  16.2038  16.4709

          k =-0.4753 0.1829 0.0000 (  7736 PWs)   bands (ev):

   -57.4952 -57.4886 -56.9938 -56.9930 -24.4890 -24.4365 -24.1604 -24.0796
   -23.9991 -23.9442 -23.7302 -23.7243 -23.6158 -23.6021 -23.3450 -23.3443
    -9.2134  -9.1985  -9.1970  -9.1962  -9.1947  -9.1899  -9.1836  -9.1790
    -9.1775  -9.1763  -9.1755  -9.1738  -9.1718  -9.1674  -8.7577  -8.7569
    -8.7527  -8.7519  -8.7404  -8.7396  -8.7163  -8.7155  -8.6992  -8.6984
    -8.6771  -8.6764  -8.6630  -8.6622  -1.2488  -0.6648   0.2958   3.0490
     4.2097   5.6899   5.8983   6.0198   6.2750   6.5762   6.8129   6.9058
     8.6328   9.9878  11.0346  11.0535  12.3485  13.1654  13.3535  13.5811
    14.0764  14.5929  14.9423  15.0931  15.1423  15.2014  15.6347  16.0816

          k =-0.4753-0.8232 0.0000 (  7696 PWs)   bands (ev):

   -57.4952 -57.4886 -56.9938 -56.9930 -24.5137 -24.4593 -24.1625 -24.0772
   -23.9823 -23.9133 -23.7453 -23.7441 -23.6195 -23.6018 -23.3225 -23.3214
    -9.2152  -9.1984  -9.1983  -9.1963  -9.1960  -9.1908  -9.1821  -9.1774
    -9.1768  -9.1758  -9.1744  -9.1738  -9.1712  -9.1658  -8.7582  -8.7574
    -8.7533  -8.7525  -8.7398  -8.7390  -8.7165  -8.7158  -8.6982  -8.6975
    -8.6765  -8.6757  -8.6628  -8.6621  -1.3488  -0.6847   0.4464   2.8051
     4.1304   5.6160   5.9710   5.9918   6.2195   6.8170   6.8548   6.9550
     8.5543   9.9505  11.1705  11.2150  12.2990  13.5132  13.5960  13.7591
    14.0290  14.3908  14.8055  15.2972  15.3308  15.3388  15.6619  15.7665

     the Fermi energy is    11.0505 ev

!    total energy              =   -2759.16326531 Ry
     estimated scf accuracy    <          8.4E-17 Ry
     smearing contrib. (-TS)   =      -0.00001214 Ry
     internal energy E=F+TS    =   -2759.16325318 Ry

     The total energy is F=E-TS. E is the sum of the following terms:
     one-electron contribution =   -8664.02049696 Ry
     hartree contribution      =    4438.01232575 Ry
     xc contribution           =    -282.39110512 Ry
     ewald contribution        =    1749.23602316 Ry

     convergence has been achieved in  35 iterations

     Forces acting on atoms (cartesian axes, Ry/au):

     atom    1 type  1   force =     0.00000062    0.00000151   -0.00023880
     atom    2 type  2   force =    -0.00000040   -0.00000095    0.00044040
     atom    3 type  1   force =    -0.00000077   -0.00000185    0.00020502
     atom    4 type  2   force =     0.00000051    0.00000119   -0.00082238
     atom    5 type  1   force =     0.00000047    0.00000112    0.00017462
     atom    6 type  2   force =     0.00000001    0.00000003   -0.00026132
     atom    7 type  1   force =    -0.00000043   -0.00000105    0.00050245

     Total force =     0.001149     Total SCF correction =     0.000000


     Computing stress (Cartesian axis) and pressure

          total   stress  (Ry/bohr**3)                   (kbar)     P=      -10.18
  -0.00006455   0.00000000  -0.00000000           -9.50        0.00       -0.00
   0.00000000  -0.00006456  -0.00000001            0.00       -9.50       -0.00
  -0.00000000  -0.00000001  -0.00007844           -0.00       -0.00      -11.54


     Writing output data file /scratch/as3359/Ta4C3_loop/Ta.save/
 
     init_run     :     41.85s CPU     23.72s WALL (       2 calls)
     electrons    :  37276.26s CPU  19022.17s WALL (      20 calls)
     update_pot   :    132.63s CPU     80.11s WALL (      18 calls)
     forces       :    174.07s CPU     89.03s WALL (      20 calls)
     stress       :    646.73s CPU    329.30s WALL (      20 calls)

     Called by init_run:
     wfcinit      :     27.85s CPU     14.28s WALL (       2 calls)
     potinit      :      3.43s CPU      1.73s WALL (       2 calls)
     hinit0       :      9.24s CPU      6.82s WALL (       2 calls)

     Called by electrons:
     c_bands      :  32376.18s CPU  16417.41s WALL (     724 calls)
     sum_band     :   4301.43s CPU   2242.72s WALL (     724 calls)
     v_of_rho     :     88.76s CPU     45.28s WALL (     744 calls)
     newd         :    493.44s CPU    309.24s WALL (     744 calls)
     mix_rho      :     20.19s CPU     10.36s WALL (     724 calls)

     Called by c_bands:
     init_us_2    :    414.28s CPU    207.65s WALL (  110260 calls)
     cegterg      :  30617.62s CPU  15531.37s WALL (   55127 calls)

     Called by *egterg:
     cdiaghg      :   2303.39s CPU   1173.79s WALL (  286587 calls)
     h_psi        :  21251.48s CPU  10815.72s WALL (  288733 calls)
     s_psi        :   1244.21s CPU    623.12s WALL (  288733 calls)
     g_psi        :    143.35s CPU     72.06s WALL (  233458 calls)

     Called by h_psi:
     h_psi:calbec :   1258.90s CPU    631.84s WALL (  288733 calls)
     vloc_psi     :  18482.23s CPU   9425.87s WALL (  288733 calls)
     add_vuspsi   :   1327.95s CPU    665.30s WALL (  288733 calls)

     General routines
     calbec       :   1649.34s CPU    828.04s WALL (  349709 calls)
     fft          :     44.36s CPU     22.63s WALL (   10150 calls)
     ffts         :      3.00s CPU      1.55s WALL (    1468 calls)
     fftw         :  18322.10s CPU   9343.17s WALL (27758196 calls)
     interpolate  :      6.01s CPU      3.09s WALL (     744 calls)
 
     Parallel routines
 
     PWSCF        :     10h38m CPU      5h25m WALL

 
   This run was terminated on:  23:15: 8   6Apr2022            

=------------------------------------------------------------------------------=
   JOB DONE.
=------------------------------------------------------------------------------=
