
     Program PWSCF v.6.8 starts on  6Apr2022 at 21:54:35 

     This program is part of the open-source Quantum ESPRESSO suite
     for quantum simulation of materials; please cite
         "P. Giannozzi et al., J. Phys.:Condens. Matter 21 395502 (2009);
         "P. Giannozzi et al., J. Phys.:Condens. Matter 29 465901 (2017);
         "P. Giannozzi et al., J. Chem. Phys. 152 154105 (2020);
          URL http://www.quantum-espresso.org", 
     in publications or presentations arising from this work. More details at
     http://www.quantum-espresso.org/quote

     Parallel version (MPI & OpenMP), running on       4 processor cores
     Number of MPI processes:                 2
     Threads/MPI process:                     2

     MPI processes distributed on     1 nodes
     R & G space division:  proc/nbgrp/npool/nimage =       2
     125115 MiB available memory on the printing compute node when the environment starts
 
     Reading input from Ta2CF2.relax.in
Warning: card  &CELL ignored
Warning: card     CELL_DYNAMICS='BFGS', CELL_DOFREE ='2DXY' ignored
Warning: card  / ignored

     Current dimensions of program PWSCF are:
     Max number of different atomic species (ntypx) = 10
     Max number of k-points (npk) =  40000
     Max angular momentum in pseudopotentials (lmaxx) =  4
     file Ta.pbesol-spfn-rrkjus_psl.1.0.0.UPF: wavefunction(s)  5S 5P renormalized
     file F.pbesol-n-rrkjus_psl.1.0.0.UPF: wavefunction(s)  2S renormalized
     Message from routine setup:
     using ibrav=0 with symmetry is DISCOURAGED, use correct ibrav instead

     Subspace diagonalization in iterative solution of the eigenvalue problem:
     a serial algorithm will be used

 
     Parallelization info
     --------------------
     sticks:   dense  smooth     PW     G-vecs:    dense   smooth      PW
     Min         324     255     75                41966    30011    4933
     Max         325     256     76                41977    30026    4960
     Sum         649     511    151                83943    60037    9893
 
     Using Slab Decomposition
 


     bravais-lattice index     =            0
     lattice parameter (alat)  =       5.8997  a.u.
     unit-cell volume          =     954.1768 (a.u.)^3
     number of atoms/cell      =            5
     number of atomic types    =            3
     number of electrons       =        72.00
     number of Kohn-Sham states=           36
     kinetic-energy cutoff     =      60.0000  Ry
     charge density cutoff     =     300.0000  Ry
     scf convergence threshold =      1.0E-12
     mixing beta               =       0.7000
     number of iterations used =            8  plain     mixing
     energy convergence thresh.=      1.0E-04
     force convergence thresh. =      1.0E-03
     Exchange-correlation= PBESOL
                           (   1   4  10   8   0   0   0)
     nstep                     =           50


     celldm(1)=   5.899700  celldm(2)=   0.000000  celldm(3)=   0.000000
     celldm(4)=   0.000000  celldm(5)=   0.000000  celldm(6)=   0.000000

     crystal axes: (cart. coord. in units of alat)
               a(1) = (   0.945646   0.000000   0.000000 )  
               a(2) = (  -0.472823   0.818953   0.000000 )  
               a(3) = (   0.000000   0.000000   6.000000 )  

     reciprocal axes: (cart. coord. in units 2 pi/alat)
               b(1) = (  1.057478  0.610535  0.000000 )  
               b(2) = (  0.000000  1.221071  0.000000 )  
               b(3) = (  0.000000  0.000000  0.166667 )  


     PseudoPot. # 1 for Ta read from file:
     /shared/home/as3359/pseudo/Ta.pbesol-spfn-rrkjus_psl.1.0.0.UPF
     MD5 check sum: f099565ffaca9b150a52e9412a28e20b
     Pseudo is Ultrasoft + core correction, Zval = 27.0
     Generated using &quot;atomic&quot; code by A. Dal Corso  v.6.3
     Using radial grid of 1273 points,  8 beta functions with: 
                l(1) =   0
                l(2) =   0
                l(3) =   1
                l(4) =   1
                l(5) =   2
                l(6) =   2
                l(7) =   3
                l(8) =   3
     Q(r) pseudized with 0 coefficients 


     PseudoPot. # 2 for C  read from file:
     /shared/home/as3359/pseudo/C.pbesol-n-rrkjus_psl.1.0.0.UPF
     MD5 check sum: 05995be603a8a7c99da3dc4413f31573
     Pseudo is Ultrasoft + core correction, Zval =  4.0
     Generated using &quot;atomic&quot; code by A. Dal Corso  v.6.3MaX
     Using radial grid of 1073 points,  4 beta functions with: 
                l(1) =   0
                l(2) =   0
                l(3) =   1
                l(4) =   1
     Q(r) pseudized with 0 coefficients 


     PseudoPot. # 3 for F  read from file:
     /shared/home/as3359/pseudo/F.pbesol-n-rrkjus_psl.1.0.0.UPF
     MD5 check sum: 56b7518b93d9f54031eb04610776f7c7
     Pseudo is Ultrasoft + core correction, Zval =  7.0
     Generated using &quot;atomic&quot; code by A. Dal Corso  v.6.3MaX
     Using radial grid of 1105 points,  4 beta functions with: 
                l(1) =   0
                l(2) =   0
                l(3) =   1
                l(4) =   1
     Q(r) pseudized with 0 coefficients 


     atomic species   valence    mass     pseudopotential
        Ta            27.00   180.94788     Ta( 1.00)
        C              4.00    12.01070     C ( 1.00)
        F              7.00    18.99840     F ( 1.00)

      6 Sym. Ops. (no inversion) found



   Cartesian axes

     site n.     atom                  positions (alat units)
         1           Ta  tau(   1) = (   0.0000000   0.5459690   0.0508667  )
         2           C   tau(   2) = (   0.0000000   0.0000000   0.4857922  )
         3           Ta  tau(   3) = (   0.4728230   0.2729845   0.9208108  )
         4           F   tau(   4) = (   0.0000000   0.0000000   1.3760875  )
         5           F   tau(   5) = (   0.0000000   0.0000000  -0.4043509  )

     number of k points=    19
                       cart. coord. in units 2pi/alat
        k(    1) = (   0.0000000   0.0000000   0.0000000), wk =   0.0138889
        k(    2) = (   0.0000000   0.1017559   0.0000000), wk =   0.0833333
        k(    3) = (   0.0000000   0.2035118   0.0000000), wk =   0.0833333
        k(    4) = (   0.0000000   0.3052676   0.0000000), wk =   0.0833333
        k(    5) = (   0.0000000   0.4070235   0.0000000), wk =   0.0833333
        k(    6) = (   0.0000000   0.5087794   0.0000000), wk =   0.0833333
        k(    7) = (   0.0000000  -0.6105353   0.0000000), wk =   0.0416667
        k(    8) = (   0.0881232   0.1526338   0.0000000), wk =   0.0833333
        k(    9) = (   0.0881232   0.2543897   0.0000000), wk =   0.1666667
        k(   10) = (   0.0881232   0.3561456   0.0000000), wk =   0.1666667
        k(   11) = (   0.0881232   0.4579015   0.0000000), wk =   0.1666667
        k(   12) = (   0.0881232   0.5596573   0.0000000), wk =   0.1666667
        k(   13) = (   0.1762464   0.3052676   0.0000000), wk =   0.0833333
        k(   14) = (   0.1762464   0.4070235   0.0000000), wk =   0.1666667
        k(   15) = (   0.1762464   0.5087794   0.0000000), wk =   0.1666667
        k(   16) = (   0.1762464   0.6105353   0.0000000), wk =   0.0833333
        k(   17) = (   0.2643695   0.4579015   0.0000000), wk =   0.0833333
        k(   18) = (   0.2643695   0.5596573   0.0000000), wk =   0.1666667
        k(   19) = (   0.3524927   0.6105353   0.0000000), wk =   0.0277778

     Dense  grid:    83943 G-vectors     FFT dimensions: (  32,  32, 200)

     Smooth grid:    60037 G-vectors     FFT dimensions: (  27,  27, 180)

     Estimated max dynamical RAM per process >     455.81 MB

     Estimated total dynamical RAM >     911.62 MB

     Check: negative core charge=   -0.000002

     Initial potential from superposition of free atoms

     starting charge   71.99842, renormalised to   72.00000

     negative rho (up, down):  6.097E-04 0.000E+00
     Starting wfcs are   46 randomized atomic wfcs

     total cpu time spent up to now is        2.9 secs

     Self-consistent Calculation

     iteration #  1     ecut=    60.00 Ry     beta= 0.70
     CG style diagonalization
     ethr =  1.00E-02,  avg # of iterations =  2.1

     negative rho (up, down):  1.581E-04 0.000E+00

     total cpu time spent up to now is        5.7 secs

     total energy              =   -1470.08625650 Ry
     estimated scf accuracy    <       1.20421608 Ry

     iteration #  2     ecut=    60.00 Ry     beta= 0.70
     CG style diagonalization
     ethr =  1.67E-03,  avg # of iterations =  3.6

     negative rho (up, down):  2.033E-04 0.000E+00

     total cpu time spent up to now is        9.5 secs

     total energy              =   -1470.33520559 Ry
     estimated scf accuracy    <       1.62211569 Ry

     iteration #  3     ecut=    60.00 Ry     beta= 0.70
     CG style diagonalization
     ethr =  1.67E-03,  avg # of iterations =  3.6

     negative rho (up, down):  3.185E-04 0.000E+00

     total cpu time spent up to now is       13.3 secs

     total energy              =   -1470.75623577 Ry
     estimated scf accuracy    <       0.09569998 Ry

     iteration #  4     ecut=    60.00 Ry     beta= 0.70
     CG style diagonalization
     ethr =  1.33E-04,  avg # of iterations =  3.7

     negative rho (up, down):  5.999E-04 0.000E+00

     total cpu time spent up to now is       17.2 secs

     total energy              =   -1470.79658474 Ry
     estimated scf accuracy    <       0.00736944 Ry

     iteration #  5     ecut=    60.00 Ry     beta= 0.70
     CG style diagonalization
     ethr =  1.02E-05,  avg # of iterations =  4.2

     negative rho (up, down):  6.656E-04 0.000E+00

     total cpu time spent up to now is       21.6 secs

     total energy              =   -1470.80429988 Ry
     estimated scf accuracy    <       0.00595149 Ry

     iteration #  6     ecut=    60.00 Ry     beta= 0.70
     CG style diagonalization
     ethr =  8.27E-06,  avg # of iterations =  3.6

     negative rho (up, down):  6.829E-04 0.000E+00

     total cpu time spent up to now is       25.4 secs

     total energy              =   -1470.80522835 Ry
     estimated scf accuracy    <       0.00126245 Ry

     iteration #  7     ecut=    60.00 Ry     beta= 0.70
     CG style diagonalization
     ethr =  1.75E-06,  avg # of iterations =  3.8

     negative rho (up, down):  6.937E-04 0.000E+00

     total cpu time spent up to now is       29.4 secs

     total energy              =   -1470.80580438 Ry
     estimated scf accuracy    <       0.00011986 Ry

     iteration #  8     ecut=    60.00 Ry     beta= 0.70
     CG style diagonalization
     c_bands:  1 eigenvalues not converged
     ethr =  1.66E-07,  avg # of iterations =  4.5

     negative rho (up, down):  7.211E-04 0.000E+00

     total cpu time spent up to now is       34.0 secs

     total energy              =   -1470.80592600 Ry
     estimated scf accuracy    <       0.00009500 Ry

     iteration #  9     ecut=    60.00 Ry     beta= 0.70
     CG style diagonalization
     ethr =  1.32E-07,  avg # of iterations =  4.0

     negative rho (up, down):  7.257E-04 0.000E+00

     total cpu time spent up to now is       38.1 secs

     total energy              =   -1470.80595922 Ry
     estimated scf accuracy    <       0.00001311 Ry

     iteration # 10     ecut=    60.00 Ry     beta= 0.70
     CG style diagonalization
     ethr =  1.82E-08,  avg # of iterations =  4.7

     negative rho (up, down):  7.259E-04 0.000E+00

     total cpu time spent up to now is       42.9 secs

     total energy              =   -1470.80597046 Ry
     estimated scf accuracy    <       0.00001386 Ry

     iteration # 11     ecut=    60.00 Ry     beta= 0.70
     CG style diagonalization
     ethr =  1.82E-08,  avg # of iterations =  3.7

     negative rho (up, down):  7.261E-04 0.000E+00

     total cpu time spent up to now is       46.8 secs

     total energy              =   -1470.80597294 Ry
     estimated scf accuracy    <       0.00000163 Ry

     iteration # 12     ecut=    60.00 Ry     beta= 0.70
     CG style diagonalization
     ethr =  2.26E-09,  avg # of iterations =  4.7

     negative rho (up, down):  7.258E-04 0.000E+00

     total cpu time spent up to now is       51.6 secs

     total energy              =   -1470.80597516 Ry
     estimated scf accuracy    <       0.00000339 Ry

     iteration # 13     ecut=    60.00 Ry     beta= 0.70
     CG style diagonalization
     ethr =  2.26E-09,  avg # of iterations =  3.8

     negative rho (up, down):  7.257E-04 0.000E+00

     total cpu time spent up to now is       55.5 secs

     total energy              =   -1470.80597543 Ry
     estimated scf accuracy    <       0.00000085 Ry

     iteration # 14     ecut=    60.00 Ry     beta= 0.70
     CG style diagonalization
     ethr =  1.19E-09,  avg # of iterations =  3.9

     negative rho (up, down):  7.259E-04 0.000E+00

     total cpu time spent up to now is       59.5 secs

     total energy              =   -1470.80597587 Ry
     estimated scf accuracy    <       0.00000006 Ry

     iteration # 15     ecut=    60.00 Ry     beta= 0.70
     CG style diagonalization
     c_bands:  1 eigenvalues not converged
     ethr =  8.83E-11,  avg # of iterations =  6.0

     negative rho (up, down):  7.257E-04 0.000E+00

     total cpu time spent up to now is       65.5 secs

     total energy              =   -1470.80597604 Ry
     estimated scf accuracy    <       0.00000002 Ry

     iteration # 16     ecut=    60.00 Ry     beta= 0.70
     CG style diagonalization
     ethr =  2.47E-11,  avg # of iterations =  4.5

     negative rho (up, down):  7.257E-04 0.000E+00

     total cpu time spent up to now is       70.0 secs

     total energy              =   -1470.80597608 Ry
     estimated scf accuracy    <          3.2E-09 Ry

     iteration # 17     ecut=    60.00 Ry     beta= 0.70
     CG style diagonalization
     c_bands:  1 eigenvalues not converged
     c_bands:  1 eigenvalues not converged
     c_bands:  1 eigenvalues not converged
     c_bands:  1 eigenvalues not converged
     ethr =  4.47E-12,  avg # of iterations =  5.6

     negative rho (up, down):  7.257E-04 0.000E+00

     total cpu time spent up to now is       75.6 secs

     total energy              =   -1470.80597611 Ry
     estimated scf accuracy    <          7.0E-09 Ry

     iteration # 18     ecut=    60.00 Ry     beta= 0.70
     CG style diagonalization
     ethr =  4.47E-12,  avg # of iterations =  3.9

     negative rho (up, down):  7.257E-04 0.000E+00

     total cpu time spent up to now is       79.6 secs

     total energy              =   -1470.80597611 Ry
     estimated scf accuracy    <          5.9E-09 Ry

     iteration # 19     ecut=    60.00 Ry     beta= 0.70
     CG style diagonalization
     ethr =  4.47E-12,  avg # of iterations =  3.8

     negative rho (up, down):  7.257E-04 0.000E+00

     total cpu time spent up to now is       83.5 secs

     total energy              =   -1470.80597611 Ry
     estimated scf accuracy    <          3.2E-10 Ry

     iteration # 20     ecut=    60.00 Ry     beta= 0.70
     CG style diagonalization
     c_bands:  1 eigenvalues not converged
     ethr =  4.38E-13,  avg # of iterations =  5.9

     negative rho (up, down):  7.257E-04 0.000E+00

     total cpu time spent up to now is       89.4 secs

     total energy              =   -1470.80597612 Ry
     estimated scf accuracy    <          2.2E-09 Ry

     iteration # 21     ecut=    60.00 Ry     beta= 0.70
     CG style diagonalization
     ethr =  4.38E-13,  avg # of iterations =  3.8

     negative rho (up, down):  7.257E-04 0.000E+00

     total cpu time spent up to now is       93.3 secs

     total energy              =   -1470.80597612 Ry
     estimated scf accuracy    <          2.4E-09 Ry

     iteration # 22     ecut=    60.00 Ry     beta= 0.70
     CG style diagonalization
     ethr =  4.38E-13,  avg # of iterations =  3.4

     negative rho (up, down):  7.257E-04 0.000E+00

     total cpu time spent up to now is       96.8 secs

     total energy              =   -1470.80597612 Ry
     estimated scf accuracy    <          2.9E-09 Ry

     iteration # 23     ecut=    60.00 Ry     beta= 0.70
     CG style diagonalization
     ethr =  4.38E-13,  avg # of iterations =  3.3

     negative rho (up, down):  7.257E-04 0.000E+00

     total cpu time spent up to now is      100.2 secs

     total energy              =   -1470.80597612 Ry
     estimated scf accuracy    <          3.0E-09 Ry

     iteration # 24     ecut=    60.00 Ry     beta= 0.70
     CG style diagonalization
     ethr =  4.38E-13,  avg # of iterations =  3.4

     negative rho (up, down):  7.257E-04 0.000E+00

     total cpu time spent up to now is      103.6 secs

     total energy              =   -1470.80597612 Ry
     estimated scf accuracy    <          2.3E-09 Ry

     iteration # 25     ecut=    60.00 Ry     beta= 0.70
     CG style diagonalization
     ethr =  4.38E-13,  avg # of iterations =  3.7

     negative rho (up, down):  7.257E-04 0.000E+00

     total cpu time spent up to now is      107.5 secs

     total energy              =   -1470.80597612 Ry
     estimated scf accuracy    <          7.6E-10 Ry

     iteration # 26     ecut=    60.00 Ry     beta= 0.70
     CG style diagonalization
     ethr =  4.38E-13,  avg # of iterations =  3.5

     negative rho (up, down):  7.257E-04 0.000E+00

     total cpu time spent up to now is      111.1 secs

     total energy              =   -1470.80597612 Ry
     estimated scf accuracy    <          4.2E-10 Ry

     iteration # 27     ecut=    60.00 Ry     beta= 0.70
     CG style diagonalization
     ethr =  4.38E-13,  avg # of iterations =  3.4

     negative rho (up, down):  7.257E-04 0.000E+00

     total cpu time spent up to now is      114.6 secs

     total energy              =   -1470.80597612 Ry
     estimated scf accuracy    <          4.6E-10 Ry

     iteration # 28     ecut=    60.00 Ry     beta= 0.70
     CG style diagonalization
     ethr =  4.38E-13,  avg # of iterations =  3.1

     negative rho (up, down):  7.257E-04 0.000E+00

     total cpu time spent up to now is      117.8 secs

     total energy              =   -1470.80597612 Ry
     estimated scf accuracy    <          4.3E-10 Ry

     iteration # 29     ecut=    60.00 Ry     beta= 0.70
     CG style diagonalization
     ethr =  4.38E-13,  avg # of iterations =  3.2

     negative rho (up, down):  7.257E-04 0.000E+00

     total cpu time spent up to now is      121.1 secs

     total energy              =   -1470.80597612 Ry
     estimated scf accuracy    <          3.1E-10 Ry

     iteration # 30     ecut=    60.00 Ry     beta= 0.70
     CG style diagonalization
     ethr =  4.37E-13,  avg # of iterations =  3.4

     negative rho (up, down):  7.257E-04 0.000E+00

     total cpu time spent up to now is      124.6 secs

     total energy              =   -1470.80597612 Ry
     estimated scf accuracy    <          4.8E-10 Ry

     iteration # 31     ecut=    60.00 Ry     beta= 0.70
     CG style diagonalization
     ethr =  4.37E-13,  avg # of iterations =  3.5

     negative rho (up, down):  7.257E-04 0.000E+00

     total cpu time spent up to now is      128.2 secs

     total energy              =   -1470.80597612 Ry
     estimated scf accuracy    <          1.4E-09 Ry

     iteration # 32     ecut=    60.00 Ry     beta= 0.70
     CG style diagonalization
     ethr =  4.37E-13,  avg # of iterations =  3.5

     negative rho (up, down):  7.257E-04 0.000E+00

     total cpu time spent up to now is      131.8 secs

     total energy              =   -1470.80597612 Ry
     estimated scf accuracy    <          2.1E-09 Ry

     iteration # 33     ecut=    60.00 Ry     beta= 0.70
     CG style diagonalization
     ethr =  4.37E-13,  avg # of iterations =  3.1

     negative rho (up, down):  7.257E-04 0.000E+00

     total cpu time spent up to now is      134.9 secs

     total energy              =   -1470.80597612 Ry
     estimated scf accuracy    <          2.2E-09 Ry

     iteration # 34     ecut=    60.00 Ry     beta= 0.70
     CG style diagonalization
     ethr =  4.37E-13,  avg # of iterations =  3.0

     negative rho (up, down):  7.257E-04 0.000E+00

     total cpu time spent up to now is      138.0 secs

     total energy              =   -1470.80597612 Ry
     estimated scf accuracy    <          2.2E-09 Ry

     iteration # 35     ecut=    60.00 Ry     beta= 0.70
     CG style diagonalization
     ethr =  4.37E-13,  avg # of iterations =  3.0

     negative rho (up, down):  7.257E-04 0.000E+00

     total cpu time spent up to now is      141.2 secs

     total energy              =   -1470.80597612 Ry
     estimated scf accuracy    <          2.2E-09 Ry

     iteration # 36     ecut=    60.00 Ry     beta= 0.70
     CG style diagonalization
     ethr =  4.37E-13,  avg # of iterations =  3.5

     negative rho (up, down):  7.257E-04 0.000E+00

     total cpu time spent up to now is      144.7 secs

     total energy              =   -1470.80597612 Ry
     estimated scf accuracy    <          4.4E-10 Ry

     iteration # 37     ecut=    60.00 Ry     beta= 0.70
     CG style diagonalization
     ethr =  4.37E-13,  avg # of iterations =  3.6

     negative rho (up, down):  7.257E-04 0.000E+00

     total cpu time spent up to now is      148.4 secs

     total energy              =   -1470.80597612 Ry
     estimated scf accuracy    <          7.3E-11 Ry

     iteration # 38     ecut=    60.00 Ry     beta= 0.70
     CG style diagonalization
     ethr =  1.02E-13,  avg # of iterations =  3.6

     negative rho (up, down):  7.257E-04 0.000E+00

     total cpu time spent up to now is      152.2 secs

     total energy              =   -1470.80597612 Ry
     estimated scf accuracy    <          1.3E-10 Ry

     iteration # 39     ecut=    60.00 Ry     beta= 0.70
     CG style diagonalization
     ethr =  1.02E-13,  avg # of iterations =  3.1

     negative rho (up, down):  7.257E-04 0.000E+00

     total cpu time spent up to now is      155.4 secs

     total energy              =   -1470.80597612 Ry
     estimated scf accuracy    <          1.3E-10 Ry

     iteration # 40     ecut=    60.00 Ry     beta= 0.70
     CG style diagonalization
     ethr =  1.02E-13,  avg # of iterations =  3.1

     negative rho (up, down):  7.257E-04 0.000E+00

     total cpu time spent up to now is      158.6 secs

     total energy              =   -1470.80597612 Ry
     estimated scf accuracy    <          6.5E-11 Ry

     iteration # 41     ecut=    60.00 Ry     beta= 0.70
     CG style diagonalization
     ethr =  1.00E-13,  avg # of iterations =  3.6

     negative rho (up, down):  7.257E-04 0.000E+00

     total cpu time spent up to now is      162.4 secs

     total energy              =   -1470.80597612 Ry
     estimated scf accuracy    <          5.0E-11 Ry

     iteration # 42     ecut=    60.00 Ry     beta= 0.70
     CG style diagonalization
     ethr =  1.00E-13,  avg # of iterations =  3.3

     negative rho (up, down):  7.257E-04 0.000E+00

     total cpu time spent up to now is      165.8 secs

     total energy              =   -1470.80597612 Ry
     estimated scf accuracy    <          2.8E-11 Ry

     iteration # 43     ecut=    60.00 Ry     beta= 0.70
     CG style diagonalization
     ethr =  1.00E-13,  avg # of iterations =  3.1

     negative rho (up, down):  7.257E-04 0.000E+00

     total cpu time spent up to now is      169.0 secs

     total energy              =   -1470.80597612 Ry
     estimated scf accuracy    <          2.0E-11 Ry

     iteration # 44     ecut=    60.00 Ry     beta= 0.70
     CG style diagonalization
     ethr =  1.00E-13,  avg # of iterations =  3.0

     negative rho (up, down):  7.257E-04 0.000E+00

     total cpu time spent up to now is      172.1 secs

     total energy              =   -1470.80597612 Ry
     estimated scf accuracy    <          1.6E-11 Ry

     iteration # 45     ecut=    60.00 Ry     beta= 0.70
     CG style diagonalization
     ethr =  1.00E-13,  avg # of iterations =  3.0

     negative rho (up, down):  7.257E-04 0.000E+00

     total cpu time spent up to now is      175.2 secs

     total energy              =   -1470.80597612 Ry
     estimated scf accuracy    <          2.0E-11 Ry

     iteration # 46     ecut=    60.00 Ry     beta= 0.70
     CG style diagonalization
     ethr =  1.00E-13,  avg # of iterations =  3.0

     negative rho (up, down):  7.257E-04 0.000E+00

     total cpu time spent up to now is      178.3 secs

     total energy              =   -1470.80597612 Ry
     estimated scf accuracy    <          6.8E-12 Ry

     iteration # 47     ecut=    60.00 Ry     beta= 0.70
     CG style diagonalization
     ethr =  1.00E-13,  avg # of iterations =  3.0

     negative rho (up, down):  7.257E-04 0.000E+00

     total cpu time spent up to now is      181.5 secs

     total energy              =   -1470.80597612 Ry
     estimated scf accuracy    <          2.0E-12 Ry

     iteration # 48     ecut=    60.00 Ry     beta= 0.70
     CG style diagonalization
     ethr =  1.00E-13,  avg # of iterations =  3.0

     negative rho (up, down):  7.257E-04 0.000E+00

     total cpu time spent up to now is      184.6 secs

     End of self-consistent calculation

          k = 0.0000 0.0000 0.0000 (  7419 PWs)   bands (ev):

   -63.8960 -63.8773 -30.9033 -30.5649 -29.9255 -29.9255 -29.9036 -29.9036
   -21.3866 -21.3557 -15.5636 -15.5571 -15.5571 -15.5550 -15.5550 -15.5532
   -15.5283 -15.5283 -15.5278 -15.5278 -15.5130 -15.5086 -15.4364 -15.4357
    -8.3821  -4.5571  -3.1457  -2.5166  -2.5166  -2.4996  -2.4996  -0.5938
     1.5432   1.5432   2.6771   4.8788

          k = 0.0000 0.1018 0.0000 (  7430 PWs)   bands (ev):

   -63.8910 -63.8728 -30.8832 -30.5566 -29.9961 -29.9743 -29.9430 -29.9160
   -21.3659 -21.3398 -15.5627 -15.5573 -15.5554 -15.5546 -15.5538 -15.5516
   -15.5314 -15.5298 -15.5288 -15.5271 -15.5095 -15.5054 -15.4402 -15.4395
    -8.2714  -4.4127  -3.1902  -2.6689  -2.5720  -2.5296  -2.5087  -0.5170
     1.1956   1.5524   2.8088   4.3355

          k = 0.0000 0.2035 0.0000 (  7454 PWs)   bands (ev):

   -63.8772 -63.8607 -30.8273 -30.5380 -30.1858 -30.1579 -29.9890 -29.9512
   -21.3140 -21.2986 -15.5624 -15.5561 -15.5526 -15.5514 -15.5497 -15.5485
   -15.5368 -15.5327 -15.5320 -15.5271 -15.5000 -15.4966 -15.4504 -15.4497
    -7.9739  -4.0656  -3.3173  -3.0237  -2.7538  -2.5694  -2.5459  -0.3587
     0.4437   1.5695   2.9486   3.6560

          k = 0.0000 0.3053 0.0000 (  7510 PWs)   bands (ev):

   -63.8582 -63.8442 -30.7505 -30.5495 -30.4299 -30.3671 -30.0493 -30.0008
   -21.2539 -21.2463 -15.5635 -15.5557 -15.5492 -15.5487 -15.5458 -15.5429
   -15.5401 -15.5361 -15.5342 -15.5276 -15.4871 -15.4843 -15.4637 -15.4626
    -7.5792  -3.7912  -3.4995  -3.3855  -2.9445  -2.6407  -2.6124  -0.4662
    -0.0668   1.5695   2.3690   4.0576

          k = 0.0000 0.4070 0.0000 (  7494 PWs)   bands (ev):

   -63.8388 -63.8280 -30.7218 -30.7150 -30.5989 -30.4276 -30.1081 -30.0509
   -21.2056 -21.1973 -15.5653 -15.5575 -15.5492 -15.5482 -15.5451 -15.5390
   -15.5370 -15.5347 -15.5329 -15.5269 -15.4760 -15.4739 -15.4737 -15.4718
    -7.1972  -4.0077  -3.6569  -3.4415  -3.0815  -2.7358  -2.6829  -1.0308
    -0.0522   1.5424   1.9448   4.6485

          k = 0.0000 0.5088 0.0000 (  7494 PWs)   bands (ev):

   -63.8242 -63.8164 -30.8820 -30.8487 -30.5579 -30.4305 -30.1503 -30.0876
   -21.1737 -21.1664 -15.5685 -15.5570 -15.5506 -15.5494 -15.5474 -15.5389
   -15.5333 -15.5300 -15.5297 -15.5255 -15.4843 -15.4809 -15.4639 -15.4626
    -6.9236  -4.2894  -3.7755  -3.4434  -3.1816  -2.8164  -2.7368  -1.3904
    -0.1203   1.5080   1.7662   5.1957

          k = 0.0000-0.6105 0.0000 (  7530 PWs)   bands (ev):

   -63.8186 -63.8124 -30.9434 -30.9052 -30.5263 -30.4355 -30.1657 -30.1011
   -21.1620 -21.1569 -15.5701 -15.5546 -15.5542 -15.5503 -15.5469 -15.5400
   -15.5303 -15.5298 -15.5275 -15.5250 -15.4872 -15.4833 -15.4603 -15.4593
    -6.8242  -4.3989  -3.8106  -3.4574  -3.2250  -2.8476  -2.7571  -1.5084
    -0.1647   1.4928   1.7135   5.4411

          k = 0.0881 0.1526 0.0000 (  7453 PWs)   bands (ev):

   -63.8816 -63.8645 -30.8451 -30.5429 -30.1127 -30.1101 -29.9711 -29.9486
   -21.3297 -21.3113 -15.5616 -15.5577 -15.5533 -15.5523 -15.5511 -15.5492
   -15.5346 -15.5341 -15.5287 -15.5280 -15.5030 -15.4994 -15.4472 -15.4466
    -8.0667  -4.1635  -3.2733  -2.9064  -2.7192  -2.5502  -2.5386  -0.3977
     0.6756   1.5325   3.0452   3.6388

          k = 0.0881 0.2544 0.0000 (  7461 PWs)   bands (ev):

   -63.8652 -63.8502 -30.7780 -30.5328 -30.3293 -30.2945 -30.0333 -30.0012
   -21.2736 -21.2652 -15.5614 -15.5564 -15.5508 -15.5494 -15.5471 -15.5443
   -15.5390 -15.5378 -15.5313 -15.5278 -15.4918 -15.4887 -15.4590 -15.4583
    -7.7167  -3.8164  -3.4309  -3.2533  -2.9165  -2.6438  -2.5850  -0.2607
    -0.0102   1.4820   2.7711   3.5753

          k = 0.0881 0.3561 0.0000 (  7495 PWs)   bands (ev):

   -63.8460 -63.8339 -30.7068 -30.6184 -30.5480 -30.4152 -30.1060 -30.0604
   -21.2204 -21.2146 -15.5626 -15.5568 -15.5486 -15.5480 -15.5447 -15.5426
   -15.5377 -15.5366 -15.5333 -15.5274 -15.4789 -15.4765 -15.4720 -15.4706
    -7.3193  -3.7914  -3.5887  -3.4528  -3.0547  -2.7548  -2.6798  -0.7391
    -0.0535   1.3694   2.2863   4.1568

          k = 0.0881 0.4579 0.0000 (  7509 PWs)   bands (ev):

   -63.8289 -63.8200 -30.7979 -30.7737 -30.5814 -30.4275 -30.1671 -30.1119
   -21.1814 -21.1746 -15.5654 -15.5576 -15.5491 -15.5486 -15.5459 -15.5382
   -15.5374 -15.5321 -15.5303 -15.5264 -15.4827 -15.4801 -15.4673 -15.4656
    -6.9794  -4.0894  -3.7580  -3.4081  -3.1416  -2.8443  -2.7991  -1.1757
    -0.0465   1.1496   2.2089   4.7114

          k = 0.0881 0.5597 0.0000 (  7513 PWs)   bands (ev):

   -63.8186 -63.8124 -30.9086 -30.8707 -30.5294 -30.4350 -30.2014 -30.1415
   -21.1595 -21.1551 -15.5681 -15.5559 -15.5526 -15.5495 -15.5458 -15.5392
   -15.5325 -15.5300 -15.5279 -15.5255 -15.4884 -15.4850 -15.4605 -15.4594
    -6.7840  -4.2783  -3.8355  -3.4272  -3.1950  -2.9001  -2.8844  -1.3744
    -0.0947   0.9974   2.2248   5.1559

          k = 0.1762 0.3053 0.0000 (  7483 PWs)   bands (ev):

   -63.8486 -63.8360 -30.7110 -30.5761 -30.5079 -30.3981 -30.1127 -30.0894
   -21.2240 -21.2222 -15.5590 -15.5576 -15.5487 -15.5484 -15.5468 -15.5403
   -15.5401 -15.5378 -15.5322 -15.5276 -15.4807 -15.4781 -15.4706 -15.4699
    -7.3560  -3.6102  -3.5744  -3.4826  -3.0670  -2.8099  -2.6782  -0.5438
    -0.0983   1.2547   2.5510   3.7551

          k = 0.1762 0.4070 0.0000 (  7496 PWs)   bands (ev):

   -63.8316 -63.8221 -30.7105 -30.6960 -30.5975 -30.4197 -30.2089 -30.1768
   -21.1826 -21.1797 -15.5606 -15.5577 -15.5483 -15.5479 -15.5448 -15.5411
   -15.5367 -15.5362 -15.5301 -15.5269 -15.4825 -15.4813 -15.4692 -15.4673
    -6.9821  -3.8346  -3.7670  -3.3545  -3.1413  -2.9502  -2.8595  -0.9419
    -0.0152   0.8982   2.6256   4.1402

          k = 0.1762 0.5088 0.0000 (  7494 PWs)   bands (ev):

   -63.8187 -63.8124 -30.8225 -30.7878 -30.5414 -30.4333 -30.2812 -30.2393
   -21.1544 -21.1517 -15.5636 -15.5567 -15.5511 -15.5478 -15.5424 -15.5385
   -15.5373 -15.5315 -15.5282 -15.5267 -15.4907 -15.4886 -15.4608 -15.4596
    -6.6984  -4.0105  -3.8954  -3.3499  -3.1861  -3.0797  -2.9819  -1.1421
     0.0207   0.5292   2.8451   4.5548

          k = 0.1762 0.6105 0.0000 (  7501 PWs)   bands (ev):

   -63.8137 -63.8091 -30.8654 -30.8225 -30.5056 -30.4518 -30.3052 -30.2620
   -21.1437 -21.1428 -15.5649 -15.5546 -15.5541 -15.5477 -15.5428 -15.5380
   -15.5329 -15.5322 -15.5283 -15.5259 -15.4937 -15.4911 -15.4578 -15.4570
    -6.5926  -4.0703  -3.9251  -3.4191  -3.1637  -3.1534  -3.0134  -1.1907
     0.0565   0.3468   2.9210   4.8010

          k = 0.2644 0.4579 0.0000 (  7493 PWs)   bands (ev):

   -63.8187 -63.8124 -30.7631 -30.7326 -30.5592 -30.4282 -30.3261 -30.3058
   -21.1517 -21.1502 -15.5608 -15.5570 -15.5504 -15.5455 -15.5431 -15.5387
   -15.5370 -15.5342 -15.5283 -15.5271 -15.4917 -15.4909 -15.4610 -15.4598
    -6.6526  -3.9396  -3.8513  -3.2895  -3.2374  -3.1164  -3.0383  -1.0206
    -0.0308   0.4405   3.2062   4.2317

          k = 0.2644 0.5597 0.0000 (  7504 PWs)   bands (ev):

   -63.8106 -63.8073 -30.7798 -30.7309 -30.5312 -30.4840 -30.3894 -30.3757
   -21.1359 -21.1321 -15.5613 -15.5559 -15.5534 -15.5439 -15.5403 -15.5380
   -15.5353 -15.5324 -15.5304 -15.5264 -15.4974 -15.4961 -15.4563 -15.4556
    -6.4435  -3.9905  -3.8606  -3.5137  -3.2299  -3.1655  -3.0690  -0.9808
    -0.1874   0.2354   3.6376   4.4260

          k = 0.3525 0.6105 0.0000 (  7509 PWs)   bands (ev):

   -63.8068 -63.8063 -30.7169 -30.6239 -30.5964 -30.5963 -30.4132 -30.4131
   -21.1297 -21.1240 -15.5598 -15.5555 -15.5550 -15.5403 -15.5383 -15.5383
   -15.5372 -15.5318 -15.5318 -15.5270 -15.4998 -15.4992 -15.4548 -15.4542
    -6.3363  -3.9386  -3.9377  -3.4400  -3.4392  -3.1176  -3.0697  -0.6650
    -0.6646   0.2734   4.2318   4.2319

     highest occupied level (ev):     5.4411

!    total energy              =   -1470.80597612 Ry
     estimated scf accuracy    <          7.3E-13 Ry

     The total energy is the sum of the following terms:
     one-electron contribution =   -7505.72613749 Ry
     hartree contribution      =    3798.34578710 Ry
     xc contribution           =    -157.89661643 Ry
     ewald contribution        =    2394.47099071 Ry

     convergence has been achieved in  48 iterations

     negative rho (up, down):  7.257E-04 0.000E+00

     Forces acting on atoms (cartesian axes, Ry/au):

     atom    1 type  1   force =     0.00000000   -0.00000000   -0.00008386
     atom    2 type  2   force =     0.00000000    0.00000000    0.00003696
     atom    3 type  1   force =     0.00000000    0.00000000    0.00009689
     atom    4 type  3   force =     0.00000000    0.00000000    0.00014193
     atom    5 type  3   force =     0.00000000   -0.00000000   -0.00019192

     Total force =     0.000273     Total SCF correction =     0.000008


     Computing stress (Cartesian axis) and pressure


     negative rho (up, down):  7.257E-04 0.000E+00
          total   stress  (Ry/bohr**3)                   (kbar)     P=       -2.51
  -0.00000085   0.00000000   0.00000000           -0.12        0.00        0.00
   0.00000000  -0.00000085   0.00000000            0.00       -0.12        0.00
   0.00000000  -0.00000000  -0.00004955            0.00       -0.00       -7.29


     BFGS Geometry Optimization
     Energy error            =      0.0E+00 Ry
     Gradient error          =      1.9E-04 Ry/Bohr

     bfgs converged in   1 scf cycles and   0 bfgs steps
     (criteria: energy <  1.0E-04 Ry, force <  1.0E-03 Ry/Bohr)

     End of BFGS Geometry Optimization

     Final energy             =   -1470.8059761162 Ry
Begin final coordinates

ATOMIC_POSITIONS (alat)
Ta           -0.0000000000        0.5459690000        0.0508667000
C             0.0000000000        0.0000000000        0.4857922000
Ta            0.4728230000        0.2729845000        0.9208108000
F             0.0000000000        0.0000000000        1.3760875000
F             0.0000000000        0.0000000000       -0.4043509000
End final coordinates



     Writing output data file /scratch/as3359/Ta2CF2_looping/Ta.save/
 
     init_run     :      4.43s CPU      2.70s WALL (       1 calls)
     electrons    :    347.81s CPU    181.68s WALL (       1 calls)
     forces       :      1.91s CPU      1.00s WALL (       1 calls)
     stress       :      5.67s CPU      2.98s WALL (       1 calls)

     Called by init_run:
     wfcinit      :      1.55s CPU      0.80s WALL (       1 calls)
     potinit      :      0.59s CPU      0.30s WALL (       1 calls)
     hinit0       :      1.95s CPU      1.36s WALL (       1 calls)

     Called by electrons:
     c_bands      :    288.81s CPU    147.19s WALL (      48 calls)
     sum_band     :     40.39s CPU     23.06s WALL (      48 calls)
     v_of_rho     :      2.49s CPU      1.28s WALL (      49 calls)
     newd         :     15.34s CPU      9.78s WALL (      49 calls)
     mix_rho      :      0.82s CPU      0.43s WALL (      48 calls)

     Called by c_bands:
     init_us_2    :      3.36s CPU      1.70s WALL (    1881 calls)
     ccgdiagg     :    242.23s CPU    123.50s WALL (     912 calls)
     wfcrot       :     44.75s CPU     22.73s WALL (     912 calls)

     Called by *cgdiagg:
     h_psi        :    186.42s CPU     95.01s WALL (   89261 calls)
     s_psi        :     43.50s CPU     22.22s WALL (  177610 calls)

     Called by h_psi:
     h_psi:calbec :     22.95s CPU     11.68s WALL (   89261 calls)
     vloc_psi     :    137.77s CPU     70.27s WALL (   89261 calls)
     add_vuspsi   :     22.77s CPU     11.64s WALL (   89261 calls)
     hs_1psi      :    169.92s CPU     86.60s WALL (   88349 calls)
     s_1psi       :     43.55s CPU     22.12s WALL (   88349 calls)

     General routines
     calbec       :     44.28s CPU     22.65s WALL (  178617 calls)
     fft          :      1.25s CPU      0.64s WALL (     660 calls)
     ffts         :      0.12s CPU      0.06s WALL (      97 calls)
     fftw         :    137.83s CPU     70.31s WALL (  275574 calls)
     interpolate  :      0.19s CPU      0.10s WALL (      49 calls)
 
     Parallel routines
 
     PWSCF        :   6m 0.38s CPU   3m 8.91s WALL

 
   This run was terminated on:  21:57:44   6Apr2022            

=------------------------------------------------------------------------------=
   JOB DONE.
=------------------------------------------------------------------------------=
