
     Program PWSCF v.6.8 starts on  6Apr2022 at 21:42:13 

     This program is part of the open-source Quantum ESPRESSO suite
     for quantum simulation of materials; please cite
         "P. Giannozzi et al., J. Phys.:Condens. Matter 21 395502 (2009);
         "P. Giannozzi et al., J. Phys.:Condens. Matter 29 465901 (2017);
         "P. Giannozzi et al., J. Chem. Phys. 152 154105 (2020);
          URL http://www.quantum-espresso.org", 
     in publications or presentations arising from this work. More details at
     http://www.quantum-espresso.org/quote

     Parallel version (MPI & OpenMP), running on       4 processor cores
     Number of MPI processes:                 2
     Threads/MPI process:                     2

     MPI processes distributed on     1 nodes
     R & G space division:  proc/nbgrp/npool/nimage =       2
     125246 MiB available memory on the printing compute node when the environment starts
 
     Reading input from Ta2CF2.vcrelax.in

     Current dimensions of program PWSCF are:
     Max number of different atomic species (ntypx) = 10
     Max number of k-points (npk) =  40000
     Max angular momentum in pseudopotentials (lmaxx) =  4
     file Ta.pbesol-spfn-rrkjus_psl.1.0.0.UPF: wavefunction(s)  5S 5P renormalized
     file F.pbesol-n-rrkjus_psl.1.0.0.UPF: wavefunction(s)  2S renormalized
     Message from routine setup:
     using ibrav=0 with symmetry is DISCOURAGED, use correct ibrav instead

     Subspace diagonalization in iterative solution of the eigenvalue problem:
     a serial algorithm will be used

 
     Parallelization info
     --------------------
     sticks:   dense  smooth     PW     G-vecs:    dense   smooth      PW
     Min         324     255     75                42000    30037    4933
     Max         325     256     76                42015    30048    4960
     Sum         649     511    151                84015    60085    9893
 
     Using Slab Decomposition
 


     bravais-lattice index     =            0
     lattice parameter (alat)  =       5.8997  a.u.
     unit-cell volume          =     955.0940 (a.u.)^3
     number of atoms/cell      =            5
     number of atomic types    =            3
     number of electrons       =        72.00
     number of Kohn-Sham states=           36
     kinetic-energy cutoff     =      60.0000  Ry
     charge density cutoff     =     300.0000  Ry
     scf convergence threshold =      1.0E-12
     mixing beta               =       0.7000
     number of iterations used =            8  plain     mixing
     energy convergence thresh.=      1.0E-04
     force convergence thresh. =      1.0E-03
     press convergence thresh. =      5.0E-01
     Exchange-correlation= PBESOL
                           (   1   4  10   8   0   0   0)
     nstep                     =           50


     celldm(1)=   5.899700  celldm(2)=   0.000000  celldm(3)=   0.000000
     celldm(4)=   0.000000  celldm(5)=   0.000000  celldm(6)=   0.000000

     crystal axes: (cart. coord. in units of alat)
               a(1) = (   0.946100   0.000000   0.000000 )  
               a(2) = (  -0.473050   0.819347   0.000000 )  
               a(3) = (   0.000000   0.000000   6.000000 )  

     reciprocal axes: (cart. coord. in units 2 pi/alat)
               b(1) = (  1.056970  0.610242  0.000000 )  
               b(2) = (  0.000000  1.220484  0.000000 )  
               b(3) = (  0.000000  0.000000  0.166667 )  


     PseudoPot. # 1 for Ta read from file:
     /shared/home/as3359/pseudo/Ta.pbesol-spfn-rrkjus_psl.1.0.0.UPF
     MD5 check sum: f099565ffaca9b150a52e9412a28e20b
     Pseudo is Ultrasoft + core correction, Zval = 27.0
     Generated using &quot;atomic&quot; code by A. Dal Corso  v.6.3
     Using radial grid of 1273 points,  8 beta functions with: 
                l(1) =   0
                l(2) =   0
                l(3) =   1
                l(4) =   1
                l(5) =   2
                l(6) =   2
                l(7) =   3
                l(8) =   3
     Q(r) pseudized with 0 coefficients 


     PseudoPot. # 2 for C  read from file:
     /shared/home/as3359/pseudo/C.pbesol-n-rrkjus_psl.1.0.0.UPF
     MD5 check sum: 05995be603a8a7c99da3dc4413f31573
     Pseudo is Ultrasoft + core correction, Zval =  4.0
     Generated using &quot;atomic&quot; code by A. Dal Corso  v.6.3MaX
     Using radial grid of 1073 points,  4 beta functions with: 
                l(1) =   0
                l(2) =   0
                l(3) =   1
                l(4) =   1
     Q(r) pseudized with 0 coefficients 


     PseudoPot. # 3 for F  read from file:
     /shared/home/as3359/pseudo/F.pbesol-n-rrkjus_psl.1.0.0.UPF
     MD5 check sum: 56b7518b93d9f54031eb04610776f7c7
     Pseudo is Ultrasoft + core correction, Zval =  7.0
     Generated using &quot;atomic&quot; code by A. Dal Corso  v.6.3MaX
     Using radial grid of 1105 points,  4 beta functions with: 
                l(1) =   0
                l(2) =   0
                l(3) =   1
                l(4) =   1
     Q(r) pseudized with 0 coefficients 


     atomic species   valence    mass     pseudopotential
        Ta            27.00   180.94788     Ta( 1.00)
        C              4.00    12.01070     C ( 1.00)
        F              7.00    18.99840     F ( 1.00)

      6 Sym. Ops. (no inversion) found



   Cartesian axes

     site n.     atom                  positions (alat units)
         1           Ta  tau(   1) = (   0.0000000   0.5462313   0.0508587  )
         2           C   tau(   2) = (   0.0000000   0.0000000   0.4857213  )
         3           Ta  tau(   3) = (   0.4730502   0.2731157   0.9207839  )
         4           F   tau(   4) = (   0.0000000   0.0000000   1.3761278  )
         5           F   tau(   5) = (   0.0000000   0.0000000  -0.4042852  )

     number of k points=    19
                       cart. coord. in units 2pi/alat
        k(    1) = (   0.0000000   0.0000000   0.0000000), wk =   0.0138889
        k(    2) = (   0.0000000   0.1017070   0.0000000), wk =   0.0833333
        k(    3) = (   0.0000000   0.2034140   0.0000000), wk =   0.0833333
        k(    4) = (   0.0000000   0.3051210   0.0000000), wk =   0.0833333
        k(    5) = (   0.0000000   0.4068281   0.0000000), wk =   0.0833333
        k(    6) = (   0.0000000   0.5085351   0.0000000), wk =   0.0833333
        k(    7) = (   0.0000000  -0.6102421   0.0000000), wk =   0.0416667
        k(    8) = (   0.0880809   0.1525605   0.0000000), wk =   0.0833333
        k(    9) = (   0.0880809   0.2542675   0.0000000), wk =   0.1666667
        k(   10) = (   0.0880809   0.3559746   0.0000000), wk =   0.1666667
        k(   11) = (   0.0880809   0.4576816   0.0000000), wk =   0.1666667
        k(   12) = (   0.0880809   0.5593886   0.0000000), wk =   0.1666667
        k(   13) = (   0.1761617   0.3051210   0.0000000), wk =   0.0833333
        k(   14) = (   0.1761617   0.4068281   0.0000000), wk =   0.1666667
        k(   15) = (   0.1761617   0.5085351   0.0000000), wk =   0.1666667
        k(   16) = (   0.1761617   0.6102421   0.0000000), wk =   0.0833333
        k(   17) = (   0.2642426   0.4576816   0.0000000), wk =   0.0833333
        k(   18) = (   0.2642426   0.5593886   0.0000000), wk =   0.1666667
        k(   19) = (   0.3523234   0.6102421   0.0000000), wk =   0.0277778

     Dense  grid:    84015 G-vectors     FFT dimensions: (  32,  32, 200)

     Smooth grid:    60085 G-vectors     FFT dimensions: (  27,  27, 180)

     Estimated max dynamical RAM per process >     466.33 MB

     Estimated total dynamical RAM >     932.66 MB

     Check: negative core charge=   -0.000002

     Initial potential from superposition of free atoms

     starting charge   71.99842, renormalised to   72.00000

     negative rho (up, down):  6.019E-04 0.000E+00
     Starting wfcs are   46 randomized atomic wfcs

     total cpu time spent up to now is        5.1 secs

     Self-consistent Calculation

     iteration #  1     ecut=    60.00 Ry     beta= 0.70
     CG style diagonalization
     ethr =  1.00E-02,  avg # of iterations =  2.1

     negative rho (up, down):  1.496E-04 0.000E+00

     total cpu time spent up to now is        7.8 secs

     total energy              =   -1470.08711027 Ry
     estimated scf accuracy    <       1.20389362 Ry

     iteration #  2     ecut=    60.00 Ry     beta= 0.70
     CG style diagonalization
     ethr =  1.67E-03,  avg # of iterations =  3.6

     negative rho (up, down):  2.023E-04 0.000E+00

     total cpu time spent up to now is       11.6 secs

     total energy              =   -1470.33792006 Ry
     estimated scf accuracy    <       1.60268250 Ry

     iteration #  3     ecut=    60.00 Ry     beta= 0.70
     CG style diagonalization
     ethr =  1.67E-03,  avg # of iterations =  3.6

     negative rho (up, down):  3.114E-04 0.000E+00

     total cpu time spent up to now is       15.3 secs

     total energy              =   -1470.75535586 Ry
     estimated scf accuracy    <       0.09607558 Ry

     iteration #  4     ecut=    60.00 Ry     beta= 0.70
     CG style diagonalization
     ethr =  1.33E-04,  avg # of iterations =  3.7

     negative rho (up, down):  5.925E-04 0.000E+00

     total cpu time spent up to now is       19.1 secs

     total energy              =   -1470.79682822 Ry
     estimated scf accuracy    <       0.00701513 Ry

     iteration #  5     ecut=    60.00 Ry     beta= 0.70
     CG style diagonalization
     ethr =  9.74E-06,  avg # of iterations =  4.2

     negative rho (up, down):  6.596E-04 0.000E+00

     total cpu time spent up to now is       23.5 secs

     total energy              =   -1470.80437067 Ry
     estimated scf accuracy    <       0.00554646 Ry

     iteration #  6     ecut=    60.00 Ry     beta= 0.70
     CG style diagonalization
     ethr =  7.70E-06,  avg # of iterations =  3.7

     negative rho (up, down):  6.766E-04 0.000E+00

     total cpu time spent up to now is       27.2 secs

     total energy              =   -1470.80529420 Ry
     estimated scf accuracy    <       0.00111265 Ry

     iteration #  7     ecut=    60.00 Ry     beta= 0.70
     CG style diagonalization
     ethr =  1.55E-06,  avg # of iterations =  3.9

     negative rho (up, down):  6.862E-04 0.000E+00

     total cpu time spent up to now is       31.2 secs

     total energy              =   -1470.80588192 Ry
     estimated scf accuracy    <       0.00010398 Ry

     iteration #  8     ecut=    60.00 Ry     beta= 0.70
     CG style diagonalization
     ethr =  1.44E-07,  avg # of iterations =  4.5

     negative rho (up, down):  7.075E-04 0.000E+00

     total cpu time spent up to now is       35.8 secs

     total energy              =   -1470.80597492 Ry
     estimated scf accuracy    <       0.00008918 Ry

     iteration #  9     ecut=    60.00 Ry     beta= 0.70
     CG style diagonalization
     ethr =  1.24E-07,  avg # of iterations =  3.9

     negative rho (up, down):  7.215E-04 0.000E+00

     total cpu time spent up to now is       39.8 secs

     total energy              =   -1470.80599602 Ry
     estimated scf accuracy    <       0.00002696 Ry

     iteration # 10     ecut=    60.00 Ry     beta= 0.70
     CG style diagonalization
     ethr =  3.74E-08,  avg # of iterations =  4.4

     negative rho (up, down):  7.198E-04 0.000E+00

     total cpu time spent up to now is       44.3 secs

     total energy              =   -1470.80601193 Ry
     estimated scf accuracy    <       0.00001112 Ry

     iteration # 11     ecut=    60.00 Ry     beta= 0.70
     CG style diagonalization
     ethr =  1.54E-08,  avg # of iterations =  4.1

     negative rho (up, down):  7.203E-04 0.000E+00

     total cpu time spent up to now is       48.4 secs

     total energy              =   -1470.80601479 Ry
     estimated scf accuracy    <       0.00000247 Ry

     iteration # 12     ecut=    60.00 Ry     beta= 0.70
     CG style diagonalization
     ethr =  3.43E-09,  avg # of iterations =  4.5

     negative rho (up, down):  7.200E-04 0.000E+00

     total cpu time spent up to now is       52.9 secs

     total energy              =   -1470.80601705 Ry
     estimated scf accuracy    <       0.00000143 Ry

     iteration # 13     ecut=    60.00 Ry     beta= 0.70
     CG style diagonalization
     ethr =  1.98E-09,  avg # of iterations =  3.9

     negative rho (up, down):  7.200E-04 0.000E+00

     total cpu time spent up to now is       56.9 secs

     total energy              =   -1470.80601744 Ry
     estimated scf accuracy    <       0.00000043 Ry

     iteration # 14     ecut=    60.00 Ry     beta= 0.70
     CG style diagonalization
     ethr =  5.95E-10,  avg # of iterations =  4.4

     negative rho (up, down):  7.200E-04 0.000E+00

     total cpu time spent up to now is       61.3 secs

     total energy              =   -1470.80601777 Ry
     estimated scf accuracy    <       0.00000005 Ry

     iteration # 15     ecut=    60.00 Ry     beta= 0.70
     CG style diagonalization
     ethr =  6.81E-11,  avg # of iterations =  5.7

     negative rho (up, down):  7.199E-04 0.000E+00

     total cpu time spent up to now is       66.9 secs

     total energy              =   -1470.80601793 Ry
     estimated scf accuracy    <       0.00000003 Ry

     iteration # 16     ecut=    60.00 Ry     beta= 0.70
     CG style diagonalization
     ethr =  4.14E-11,  avg # of iterations =  4.3

     negative rho (up, down):  7.199E-04 0.000E+00

     total cpu time spent up to now is       71.2 secs

     total energy              =   -1470.80601799 Ry
     estimated scf accuracy    <          4.9E-09 Ry

     iteration # 17     ecut=    60.00 Ry     beta= 0.70
     CG style diagonalization
     c_bands:  1 eigenvalues not converged
     ethr =  6.85E-12,  avg # of iterations =  5.4

     negative rho (up, down):  7.198E-04 0.000E+00

     total cpu time spent up to now is       76.6 secs

     total energy              =   -1470.80601801 Ry
     estimated scf accuracy    <          6.9E-09 Ry

     iteration # 18     ecut=    60.00 Ry     beta= 0.70
     CG style diagonalization
     ethr =  6.85E-12,  avg # of iterations =  3.8

     negative rho (up, down):  7.198E-04 0.000E+00

     total cpu time spent up to now is       80.4 secs

     total energy              =   -1470.80601802 Ry
     estimated scf accuracy    <          4.2E-09 Ry

     iteration # 19     ecut=    60.00 Ry     beta= 0.70
     CG style diagonalization
     ethr =  5.77E-12,  avg # of iterations =  3.8

     negative rho (up, down):  7.198E-04 0.000E+00

     total cpu time spent up to now is       84.2 secs

     total energy              =   -1470.80601802 Ry
     estimated scf accuracy    <          9.1E-11 Ry

     iteration # 20     ecut=    60.00 Ry     beta= 0.70
     CG style diagonalization
     c_bands:  1 eigenvalues not converged
     c_bands:  2 eigenvalues not converged
     c_bands:  1 eigenvalues not converged
     c_bands:  2 eigenvalues not converged
     c_bands:  1 eigenvalues not converged
     c_bands:  2 eigenvalues not converged
     c_bands:  1 eigenvalues not converged
     c_bands:  1 eigenvalues not converged
     c_bands:  2 eigenvalues not converged
     c_bands:  1 eigenvalues not converged
     c_bands:  1 eigenvalues not converged
     c_bands:  2 eigenvalues not converged
     c_bands:  2 eigenvalues not converged
     ethr =  1.26E-13,  avg # of iterations =  7.6

     negative rho (up, down):  7.198E-04 0.000E+00

     total cpu time spent up to now is       91.6 secs

     total energy              =   -1470.80601803 Ry
     estimated scf accuracy    <          1.0E-09 Ry

     iteration # 21     ecut=    60.00 Ry     beta= 0.70
     CG style diagonalization
     ethr =  1.26E-13,  avg # of iterations =  4.9

     negative rho (up, down):  7.198E-04 0.000E+00

     total cpu time spent up to now is       96.5 secs

     total energy              =   -1470.80601803 Ry
     estimated scf accuracy    <          2.7E-10 Ry

     iteration # 22     ecut=    60.00 Ry     beta= 0.70
     CG style diagonalization
     ethr =  1.26E-13,  avg # of iterations =  4.4

     negative rho (up, down):  7.198E-04 0.000E+00

     total cpu time spent up to now is      101.0 secs

     total energy              =   -1470.80601803 Ry
     estimated scf accuracy    <          2.2E-10 Ry

     iteration # 23     ecut=    60.00 Ry     beta= 0.70
     CG style diagonalization
     ethr =  1.26E-13,  avg # of iterations =  3.7

     negative rho (up, down):  7.198E-04 0.000E+00

     total cpu time spent up to now is      104.7 secs

     total energy              =   -1470.80601803 Ry
     estimated scf accuracy    <          5.1E-11 Ry

     iteration # 24     ecut=    60.00 Ry     beta= 0.70
     CG style diagonalization
     ethr =  1.00E-13,  avg # of iterations =  3.6

     negative rho (up, down):  7.198E-04 0.000E+00

     total cpu time spent up to now is      108.4 secs

     total energy              =   -1470.80601803 Ry
     estimated scf accuracy    <          5.3E-12 Ry

     iteration # 25     ecut=    60.00 Ry     beta= 0.70
     CG style diagonalization
     ethr =  1.00E-13,  avg # of iterations =  3.3

     negative rho (up, down):  7.198E-04 0.000E+00

     total cpu time spent up to now is      111.8 secs

     End of self-consistent calculation

          k = 0.0000 0.0000 0.0000 (  7419 PWs)   bands (ev):

   -63.9079 -63.8893 -30.9132 -30.5755 -29.9387 -29.9387 -29.9167 -29.9167
   -21.3909 -21.3600 -15.5763 -15.5698 -15.5698 -15.5677 -15.5677 -15.5659
   -15.5414 -15.5414 -15.5404 -15.5404 -15.5255 -15.5210 -15.4495 -15.4483
    -8.3875  -4.5606  -3.1496  -2.5234  -2.5234  -2.5058  -2.5058  -0.5986
     1.5330   1.5330   2.6742   4.8697

          k = 0.0000 0.1017 0.0000 (  7432 PWs)   bands (ev):

   -63.9030 -63.8848 -30.8931 -30.5673 -30.0089 -29.9871 -29.9561 -29.9290
   -21.3704 -21.3441 -15.5754 -15.5701 -15.5682 -15.5672 -15.5664 -15.5643
   -15.5442 -15.5427 -15.5415 -15.5399 -15.5220 -15.5179 -15.4533 -15.4521
    -8.2770  -4.4165  -3.1940  -2.6750  -2.5783  -2.5363  -2.5149  -0.5219
     1.1859   1.5421   2.8055   4.3273

          k = 0.0000 0.2034 0.0000 (  7462 PWs)   bands (ev):

   -63.8893 -63.8728 -30.8376 -30.5488 -30.1977 -30.1698 -30.0018 -29.9641
   -21.3187 -21.3030 -15.5751 -15.5688 -15.5653 -15.5642 -15.5623 -15.5612
   -15.5496 -15.5454 -15.5448 -15.5399 -15.5127 -15.5091 -15.4635 -15.4623
    -7.9799  -4.0700  -3.3211  -3.0290  -2.7596  -2.5760  -2.5521  -0.3637
     0.4351   1.5589   2.9438   3.6493

          k = 0.0000 0.3051 0.0000 (  7518 PWs)   bands (ev):

   -63.8704 -63.8564 -30.7611 -30.5603 -30.4405 -30.3782 -30.0619 -30.0135
   -21.2590 -21.2507 -15.5762 -15.5684 -15.5620 -15.5615 -15.5586 -15.5556
   -15.5529 -15.5489 -15.5470 -15.5403 -15.4998 -15.4969 -15.4767 -15.4752
    -7.5855  -3.7956  -3.5034  -3.3901  -2.9495  -2.6470  -2.6184  -0.4730
    -0.0724   1.5588   2.3633   4.0504

          k = 0.0000 0.4068 0.0000 (  7506 PWs)   bands (ev):

   -63.8511 -63.8403 -30.7319 -30.7247 -30.6092 -30.4390 -30.1204 -30.0633
   -21.2107 -21.2017 -15.5780 -15.5702 -15.5619 -15.5610 -15.5578 -15.5518
   -15.5498 -15.5475 -15.5457 -15.5397 -15.4889 -15.4867 -15.4863 -15.4844
    -7.2035  -4.0114  -3.6610  -3.4459  -3.0857  -2.7418  -2.6889  -1.0376
    -0.0566   1.5320   1.9390   4.6401

          k = 0.0000 0.5085 0.0000 (  7502 PWs)   bands (ev):

   -63.8366 -63.8288 -30.8909 -30.8577 -30.5690 -30.4421 -30.1625 -30.0998
   -21.1789 -21.1708 -15.5811 -15.5697 -15.5633 -15.5622 -15.5600 -15.5516
   -15.5462 -15.5428 -15.5425 -15.5383 -15.4970 -15.4935 -15.4768 -15.4752
    -6.9299  -4.2925  -3.7798  -3.4472  -3.1853  -2.8221  -2.7426  -1.3967
    -0.1238   1.4977   1.7603   5.1871

          k = 0.0000-0.6102 0.0000 (  7546 PWs)   bands (ev):

   -63.8311 -63.8248 -30.9519 -30.9139 -30.5377 -30.4471 -30.1778 -30.1132
   -21.1673 -21.1612 -15.5827 -15.5675 -15.5668 -15.5630 -15.5596 -15.5527
   -15.5435 -15.5424 -15.5404 -15.5377 -15.5000 -15.4960 -15.4734 -15.4719
    -6.8303  -4.4019  -3.8151  -3.4610  -3.2285  -2.8533  -2.7629  -1.5146
    -0.1680   1.4826   1.7077   5.4327

          k = 0.0881 0.1526 0.0000 (  7453 PWs)   bands (ev):

   -63.8936 -63.8766 -30.8553 -30.5537 -30.1249 -30.1222 -29.9840 -29.9615
   -21.3343 -21.3157 -15.5743 -15.5704 -15.5660 -15.5651 -15.5638 -15.5619
   -15.5475 -15.5467 -15.5416 -15.5406 -15.5156 -15.5119 -15.4603 -15.4591
    -8.0726  -4.1677  -3.2771  -2.9120  -2.7252  -2.5568  -2.5447  -0.4028
     0.6666   1.5221   3.0412   3.6314

          k = 0.0881 0.2543 0.0000 (  7467 PWs)   bands (ev):

   -63.8773 -63.8624 -30.7884 -30.5437 -30.3404 -30.3058 -30.0460 -30.0139
   -21.2786 -21.2695 -15.5741 -15.5691 -15.5635 -15.5621 -15.5598 -15.5570
   -15.5518 -15.5504 -15.5441 -15.5406 -15.5045 -15.5013 -15.4720 -15.4708
    -7.7230  -3.8210  -3.4348  -3.2582  -2.9217  -2.6499  -2.5912  -0.2662
    -0.0179   1.4716   2.7650   3.5694

          k = 0.0881 0.3560 0.0000 (  7501 PWs)   bands (ev):

   -63.8582 -63.8461 -30.7176 -30.6286 -30.5582 -30.4264 -30.1184 -30.0728
   -21.2256 -21.2189 -15.5753 -15.5695 -15.5613 -15.5607 -15.5574 -15.5553
   -15.5504 -15.5493 -15.5461 -15.5401 -15.4917 -15.4890 -15.4848 -15.4832
    -7.3257  -3.7955  -3.5927  -3.4576  -3.0592  -2.7606  -2.6858  -0.7462
    -0.0585   1.3597   2.2797   4.1494

          k = 0.0881 0.4577 0.0000 (  7519 PWs)   bands (ev):

   -63.8413 -63.8324 -30.8071 -30.7832 -30.5924 -30.4390 -30.1792 -30.1240
   -21.1866 -21.1790 -15.5781 -15.5703 -15.5619 -15.5614 -15.5585 -15.5511
   -15.5502 -15.5449 -15.5432 -15.5392 -15.4955 -15.4927 -15.4802 -15.4782
    -6.9858  -4.0929  -3.7621  -3.4123  -3.1456  -2.8500  -2.8047  -1.1823
    -0.0506   1.1409   2.2014   4.7030

          k = 0.0881 0.5594 0.0000 (  7519 PWs)   bands (ev):

   -63.8311 -63.8248 -30.9173 -30.8796 -30.5407 -30.4466 -30.2133 -30.1535
   -21.1650 -21.1594 -15.5808 -15.5686 -15.5653 -15.5623 -15.5585 -15.5519
   -15.5454 -15.5428 -15.5407 -15.5382 -15.5011 -15.4976 -15.4735 -15.4720
    -6.7904  -4.2814  -3.8397  -3.4310  -3.1987  -2.9058  -2.8897  -1.3808
    -0.0982   0.9890   2.2172   5.1472

          k = 0.1762 0.3051 0.0000 (  7491 PWs)   bands (ev):

   -63.8608 -63.8483 -30.7218 -30.5866 -30.5182 -30.4093 -30.1249 -30.1016
   -21.2298 -21.2259 -15.5717 -15.5703 -15.5615 -15.5612 -15.5596 -15.5530
   -15.5529 -15.5506 -15.5451 -15.5404 -15.4934 -15.4907 -15.4836 -15.4824
    -7.3626  -3.6144  -3.5784  -3.4878  -3.0716  -2.8155  -2.6842  -0.5513
    -0.1035   1.2453   2.5439   3.7487

          k = 0.1762 0.4068 0.0000 (  7508 PWs)   bands (ev):

   -63.8439 -63.8345 -30.7204 -30.7058 -30.6082 -30.4311 -30.2207 -30.1886
   -21.1883 -21.1838 -15.5733 -15.5704 -15.5611 -15.5607 -15.5576 -15.5539
   -15.5494 -15.5489 -15.5430 -15.5396 -15.4954 -15.4938 -15.4820 -15.4799
    -6.9889  -3.8385  -3.7708  -3.3593  -3.1456  -2.9555  -2.8650  -0.9488
    -0.0202   0.8900   2.6175   4.1327

          k = 0.1762 0.5085 0.0000 (  7502 PWs)   bands (ev):

   -63.8311 -63.8248 -30.8316 -30.7970 -30.5527 -30.4449 -30.2927 -30.2508
   -21.1601 -21.1557 -15.5763 -15.5694 -15.5638 -15.5606 -15.5551 -15.5513
   -15.5501 -15.5443 -15.5411 -15.5394 -15.5035 -15.5012 -15.4738 -15.4722
    -6.7054  -4.0140  -3.8991  -3.3542  -3.1904  -3.0845  -2.9870  -1.1488
     0.0161   0.5216   2.8367   4.5462

          k = 0.1762 0.6102 0.0000 (  7507 PWs)   bands (ev):

   -63.8261 -63.8215 -30.8743 -30.8315 -30.5170 -30.4634 -30.3166 -30.2734
   -21.1500 -21.1464 -15.5776 -15.5675 -15.5667 -15.5605 -15.5555 -15.5507
   -15.5458 -15.5450 -15.5411 -15.5386 -15.5065 -15.5037 -15.4708 -15.4695
    -6.5996  -4.0737  -3.9289  -3.4232  -3.1681  -3.1580  -3.0184  -1.1974
     0.0527   0.3389   2.9127   4.7921

          k = 0.2642 0.4577 0.0000 (  7497 PWs)   bands (ev):

   -63.8311 -63.8248 -30.7725 -30.7420 -30.5704 -30.4398 -30.3374 -30.3171
   -21.1577 -21.1539 -15.5734 -15.5697 -15.5632 -15.5583 -15.5559 -15.5515
   -15.5497 -15.5469 -15.5412 -15.5397 -15.5046 -15.5033 -15.4739 -15.4724
    -6.6599  -3.9430  -3.8549  -3.2943  -3.2421  -3.1214  -3.0427  -1.0273
    -0.0368   0.4342   3.1969   4.2236

          k = 0.2642 0.5594 0.0000 (  7508 PWs)   bands (ev):

   -63.8231 -63.8198 -30.7891 -30.7403 -30.5424 -30.4951 -30.4005 -30.3869
   -21.1415 -21.1363 -15.5740 -15.5687 -15.5661 -15.5567 -15.5531 -15.5508
   -15.5481 -15.5452 -15.5431 -15.5392 -15.5102 -15.5086 -15.4694 -15.4682
    -6.4511  -3.9938  -3.8640  -3.5181  -3.2347  -3.1703  -3.0732  -0.9876
    -0.1947   0.2309   3.6282   4.4170

          k = 0.3523 0.6102 0.0000 (  7521 PWs)   bands (ev):

   -63.8195 -63.8186 -30.7264 -30.6336 -30.6070 -30.6068 -30.4247 -30.4244
   -21.1351 -21.1285 -15.5725 -15.5685 -15.5674 -15.5530 -15.5511 -15.5511
   -15.5500 -15.5446 -15.5445 -15.5397 -15.5127 -15.5116 -15.4679 -15.4667
    -6.3443  -3.9432  -3.9395  -3.4456  -3.4426  -3.1226  -3.0739  -0.6722
    -0.6714   0.2689   4.2221   4.2222

     highest occupied level (ev):     5.4327

!    total energy              =   -1470.80601803 Ry
     estimated scf accuracy    <          4.7E-13 Ry

     The total energy is the sum of the following terms:
     one-electron contribution =   -7499.95377713 Ry
     hartree contribution      =    3795.43116019 Ry
     xc contribution           =    -157.89244264 Ry
     ewald contribution        =    2391.60904155 Ry

     convergence has been achieved in  25 iterations

     negative rho (up, down):  7.198E-04 0.000E+00

     Forces acting on atoms (cartesian axes, Ry/au):

     atom    1 type  1   force =     0.00000000   -0.00000000    0.00009668
     atom    2 type  2   force =     0.00000000   -0.00000000    0.00018004
     atom    3 type  1   force =     0.00000000    0.00000000    0.00000104
     atom    4 type  3   force =     0.00000000    0.00000000   -0.00018087
     atom    5 type  3   force =     0.00000000    0.00000000   -0.00009688

     Total force =     0.000290     Total SCF correction =     0.000007


     Computing stress (Cartesian axis) and pressure


     negative rho (up, down):  7.198E-04 0.000E+00
          total   stress  (Ry/bohr**3)                   (kbar)     P=       -3.48
  -0.00000915   0.00000000   0.00000000           -1.35        0.00        0.00
   0.00000000  -0.00000915   0.00000000            0.00       -1.35        0.00
   0.00000000   0.00000000  -0.00005259            0.00        0.00       -7.74


     BFGS Geometry Optimization
     Energy error            =      0.0E+00 Ry
     Gradient error          =      1.8E-04 Ry/Bohr
     Cell gradient error     =      1.3E+00 kbar

     number of scf cycles    =   1
     number of bfgs steps    =   0

     enthalpy           new  =   -1470.8060180288 Ry

     new trust radius        =       0.0014134624 bohr
     new conv_thr            =            1.0E-12 Ry

     new unit-cell volume =    954.65718 a.u.^3 (   141.46560 Ang^3 )
     density =      4.83497 g/cm^3

CELL_PARAMETERS (alat=  5.89970000)
   0.945884018   0.000000000   0.000000000
  -0.472942008   0.819159589   0.000000000
   0.000000000   0.000000000   6.000000000

ATOMIC_POSITIONS (crystal)
Ta            0.3333333330        0.6666666670        0.0084791775    0   0   1
C             0.0000000000        0.0000000000        0.0809586428    0   0   1
Ta            0.6666666670        0.3333333330        0.1534640045    0   0   1
F             0.0000000000        0.0000000000        0.2293495254
F             0.0000000000        0.0000000000       -0.0673836096



     Writing output data file /scratch/as3359/Ta2CF2_looping/Ta.save/
     NEW-OLD atomic charge density approx. for the potential

     Check: negative core charge=   -0.000002

     negative rho (up, down):  7.221E-04 0.000E+00
     extrapolated charge   71.96706, renormalised to   72.00000

     total cpu time spent up to now is      121.8 secs

     Self-consistent Calculation

     iteration #  1     ecut=    60.00 Ry     beta= 0.70
     CG style diagonalization
     ethr =  1.00E-06,  avg # of iterations =  3.4

     negative rho (up, down):  7.331E-04 0.000E+00

     total cpu time spent up to now is      125.7 secs

     total energy              =   -1470.80390791 Ry
     estimated scf accuracy    <       0.00140093 Ry

     iteration #  2     ecut=    60.00 Ry     beta= 0.70
     CG style diagonalization
     ethr =  1.95E-06,  avg # of iterations =  4.5

     negative rho (up, down):  7.293E-04 0.000E+00

     total cpu time spent up to now is      130.4 secs

     total energy              =   -1470.80543606 Ry
     estimated scf accuracy    <       0.00605574 Ry

     iteration #  3     ecut=    60.00 Ry     beta= 0.70
     CG style diagonalization
     ethr =  1.95E-06,  avg # of iterations =  4.0

     negative rho (up, down):  7.235E-04 0.000E+00

     total cpu time spent up to now is      134.4 secs

     total energy              =   -1470.80585780 Ry
     estimated scf accuracy    <       0.00103914 Ry

     iteration #  4     ecut=    60.00 Ry     beta= 0.70
     CG style diagonalization
     ethr =  1.44E-06,  avg # of iterations =  3.5

     negative rho (up, down):  7.237E-04 0.000E+00

     total cpu time spent up to now is      138.0 secs

     total energy              =   -1470.80604356 Ry
     estimated scf accuracy    <       0.00031273 Ry

     iteration #  5     ecut=    60.00 Ry     beta= 0.70
     CG style diagonalization
     ethr =  4.34E-07,  avg # of iterations =  3.1

     negative rho (up, down):  7.232E-04 0.000E+00

     total cpu time spent up to now is      141.2 secs

     total energy              =   -1470.80605555 Ry
     estimated scf accuracy    <       0.00020448 Ry

     iteration #  6     ecut=    60.00 Ry     beta= 0.70
     CG style diagonalization
     ethr =  2.84E-07,  avg # of iterations =  3.0

     negative rho (up, down):  7.234E-04 0.000E+00

     total cpu time spent up to now is      144.3 secs

     total energy              =   -1470.80604923 Ry
     estimated scf accuracy    <       0.00017704 Ry

     iteration #  7     ecut=    60.00 Ry     beta= 0.70
     CG style diagonalization
     ethr =  2.46E-07,  avg # of iterations =  3.1

     negative rho (up, down):  7.231E-04 0.000E+00

     total cpu time spent up to now is      147.4 secs

     total energy              =   -1470.80603090 Ry
     estimated scf accuracy    <       0.00015226 Ry

     iteration #  8     ecut=    60.00 Ry     beta= 0.70
     CG style diagonalization
     ethr =  2.11E-07,  avg # of iterations =  3.0

     negative rho (up, down):  7.228E-04 0.000E+00

     total cpu time spent up to now is      150.6 secs

     total energy              =   -1470.80602641 Ry
     estimated scf accuracy    <       0.00009577 Ry

     iteration #  9     ecut=    60.00 Ry     beta= 0.70
     CG style diagonalization
     ethr =  1.33E-07,  avg # of iterations =  3.0

     negative rho (up, down):  7.227E-04 0.000E+00

     total cpu time spent up to now is      153.7 secs

     total energy              =   -1470.80603086 Ry
     estimated scf accuracy    <       0.00006451 Ry

     iteration # 10     ecut=    60.00 Ry     beta= 0.70
     CG style diagonalization
     ethr =  8.96E-08,  avg # of iterations =  3.0

     negative rho (up, down):  7.219E-04 0.000E+00

     total cpu time spent up to now is      156.9 secs

     total energy              =   -1470.80600480 Ry
     estimated scf accuracy    <       0.00005882 Ry

     iteration # 11     ecut=    60.00 Ry     beta= 0.70
     CG style diagonalization
     ethr =  8.17E-08,  avg # of iterations =  3.9

     negative rho (up, down):  7.232E-04 0.000E+00

     total cpu time spent up to now is      160.9 secs

     total energy              =   -1470.80602029 Ry
     estimated scf accuracy    <       0.00004265 Ry

     iteration # 12     ecut=    60.00 Ry     beta= 0.70
     CG style diagonalization
     ethr =  5.92E-08,  avg # of iterations =  3.4

     negative rho (up, down):  7.244E-04 0.000E+00

     total cpu time spent up to now is      164.4 secs

     total energy              =   -1470.80601056 Ry
     estimated scf accuracy    <       0.00002068 Ry

     iteration # 13     ecut=    60.00 Ry     beta= 0.70
     CG style diagonalization
     ethr =  2.87E-08,  avg # of iterations =  4.0

     negative rho (up, down):  7.232E-04 0.000E+00

     total cpu time spent up to now is      168.5 secs

     total energy              =   -1470.80602105 Ry
     estimated scf accuracy    <       0.00007778 Ry

     iteration # 14     ecut=    60.00 Ry     beta= 0.70
     CG style diagonalization
     ethr =  2.87E-08,  avg # of iterations =  3.6

     negative rho (up, down):  7.227E-04 0.000E+00

     total cpu time spent up to now is      172.2 secs

     total energy              =   -1470.80602931 Ry
     estimated scf accuracy    <       0.00003498 Ry

     iteration # 15     ecut=    60.00 Ry     beta= 0.70
     CG style diagonalization
     ethr =  2.87E-08,  avg # of iterations =  3.1

     negative rho (up, down):  7.218E-04 0.000E+00

     total cpu time spent up to now is      175.3 secs

     total energy              =   -1470.80601934 Ry
     estimated scf accuracy    <       0.00003694 Ry

     iteration # 16     ecut=    60.00 Ry     beta= 0.70
     CG style diagonalization
     ethr =  2.87E-08,  avg # of iterations =  3.2

     negative rho (up, down):  7.208E-04 0.000E+00

     total cpu time spent up to now is      178.7 secs

     total energy              =   -1470.80601814 Ry
     estimated scf accuracy    <       0.00001105 Ry

     iteration # 17     ecut=    60.00 Ry     beta= 0.70
     CG style diagonalization
     ethr =  1.53E-08,  avg # of iterations =  3.9

     negative rho (up, down):  7.213E-04 0.000E+00

     total cpu time spent up to now is      182.6 secs

     total energy              =   -1470.80602082 Ry
     estimated scf accuracy    <       0.00000738 Ry

     iteration # 18     ecut=    60.00 Ry     beta= 0.70
     CG style diagonalization
     ethr =  1.02E-08,  avg # of iterations =  3.4

     negative rho (up, down):  7.221E-04 0.000E+00

     total cpu time spent up to now is      186.1 secs

     total energy              =   -1470.80602055 Ry
     estimated scf accuracy    <       0.00000321 Ry

     iteration # 19     ecut=    60.00 Ry     beta= 0.70
     CG style diagonalization
     ethr =  4.46E-09,  avg # of iterations =  4.0

     negative rho (up, down):  7.223E-04 0.000E+00

     total cpu time spent up to now is      190.2 secs

     total energy              =   -1470.80602207 Ry
     estimated scf accuracy    <       0.00000478 Ry

     iteration # 20     ecut=    60.00 Ry     beta= 0.70
     CG style diagonalization
     ethr =  4.46E-09,  avg # of iterations =  3.7

     negative rho (up, down):  7.217E-04 0.000E+00

     total cpu time spent up to now is      194.0 secs

     total energy              =   -1470.80601818 Ry
     estimated scf accuracy    <       0.00000607 Ry

     iteration # 21     ecut=    60.00 Ry     beta= 0.70
     CG style diagonalization
     ethr =  4.46E-09,  avg # of iterations =  4.2

     negative rho (up, down):  7.218E-04 0.000E+00

     total cpu time spent up to now is      198.3 secs

     total energy              =   -1470.80601977 Ry
     estimated scf accuracy    <       0.00000765 Ry

     iteration # 22     ecut=    60.00 Ry     beta= 0.70
     CG style diagonalization
     ethr =  4.46E-09,  avg # of iterations =  3.9

     negative rho (up, down):  7.218E-04 0.000E+00

     total cpu time spent up to now is      202.3 secs

     total energy              =   -1470.80602060 Ry
     estimated scf accuracy    <       0.00000122 Ry

     iteration # 23     ecut=    60.00 Ry     beta= 0.70
     CG style diagonalization
     ethr =  1.70E-09,  avg # of iterations =  3.9

     negative rho (up, down):  7.217E-04 0.000E+00

     total cpu time spent up to now is      206.3 secs

     total energy              =   -1470.80602106 Ry
     estimated scf accuracy    <       0.00000026 Ry

     iteration # 24     ecut=    60.00 Ry     beta= 0.70
     CG style diagonalization
     ethr =  3.61E-10,  avg # of iterations =  3.8

     negative rho (up, down):  7.217E-04 0.000E+00

     total cpu time spent up to now is      210.2 secs

     total energy              =   -1470.80602117 Ry
     estimated scf accuracy    <       0.00000004 Ry

     iteration # 25     ecut=    60.00 Ry     beta= 0.70
     CG style diagonalization
     ethr =  6.25E-11,  avg # of iterations =  3.7

     negative rho (up, down):  7.217E-04 0.000E+00

     total cpu time spent up to now is      214.0 secs

     total energy              =   -1470.80602118 Ry
     estimated scf accuracy    <          9.5E-09 Ry

     iteration # 26     ecut=    60.00 Ry     beta= 0.70
     CG style diagonalization
     ethr =  1.32E-11,  avg # of iterations =  4.0

     negative rho (up, down):  7.217E-04 0.000E+00

     total cpu time spent up to now is      218.2 secs

     total energy              =   -1470.80602118 Ry
     estimated scf accuracy    <          8.9E-10 Ry

     iteration # 27     ecut=    60.00 Ry     beta= 0.70
     CG style diagonalization
     ethr =  1.24E-12,  avg # of iterations =  4.7

     negative rho (up, down):  7.217E-04 0.000E+00

     total cpu time spent up to now is      223.0 secs

     total energy              =   -1470.80602118 Ry
     estimated scf accuracy    <          6.6E-10 Ry

     iteration # 28     ecut=    60.00 Ry     beta= 0.70
     CG style diagonalization
     ethr =  9.23E-13,  avg # of iterations =  3.8

     negative rho (up, down):  7.217E-04 0.000E+00

     total cpu time spent up to now is      226.9 secs

     total energy              =   -1470.80602118 Ry
     estimated scf accuracy    <          7.6E-10 Ry

     iteration # 29     ecut=    60.00 Ry     beta= 0.70
     CG style diagonalization
     ethr =  9.23E-13,  avg # of iterations =  3.5

     negative rho (up, down):  7.217E-04 0.000E+00

     total cpu time spent up to now is      230.5 secs

     total energy              =   -1470.80602118 Ry
     estimated scf accuracy    <          2.1E-10 Ry

     iteration # 30     ecut=    60.00 Ry     beta= 0.70
     CG style diagonalization
     ethr =  2.93E-13,  avg # of iterations =  4.7

     negative rho (up, down):  7.217E-04 0.000E+00

     total cpu time spent up to now is      235.3 secs

     total energy              =   -1470.80602118 Ry
     estimated scf accuracy    <          2.2E-10 Ry

     iteration # 31     ecut=    60.00 Ry     beta= 0.70
     CG style diagonalization
     ethr =  2.93E-13,  avg # of iterations =  3.3

     negative rho (up, down):  7.217E-04 0.000E+00

     total cpu time spent up to now is      238.6 secs

     total energy              =   -1470.80602118 Ry
     estimated scf accuracy    <          2.1E-10 Ry

     iteration # 32     ecut=    60.00 Ry     beta= 0.70
     CG style diagonalization
     ethr =  2.93E-13,  avg # of iterations =  3.5

     negative rho (up, down):  7.217E-04 0.000E+00

     total cpu time spent up to now is      242.2 secs

     total energy              =   -1470.80602118 Ry
     estimated scf accuracy    <          1.0E-11 Ry

     iteration # 33     ecut=    60.00 Ry     beta= 0.70
     CG style diagonalization
     ethr =  1.00E-13,  avg # of iterations =  3.7

     negative rho (up, down):  7.217E-04 0.000E+00

     total cpu time spent up to now is      246.0 secs

     total energy              =   -1470.80602118 Ry
     estimated scf accuracy    <          1.9E-11 Ry

     iteration # 34     ecut=    60.00 Ry     beta= 0.70
     CG style diagonalization
     ethr =  1.00E-13,  avg # of iterations =  3.2

     negative rho (up, down):  7.217E-04 0.000E+00

     total cpu time spent up to now is      249.3 secs

     total energy              =   -1470.80602118 Ry
     estimated scf accuracy    <          4.8E-12 Ry

     iteration # 35     ecut=    60.00 Ry     beta= 0.70
     CG style diagonalization
     ethr =  1.00E-13,  avg # of iterations =  3.2

     negative rho (up, down):  7.217E-04 0.000E+00

     total cpu time spent up to now is      252.6 secs

     total energy              =   -1470.80602118 Ry
     estimated scf accuracy    <          2.1E-12 Ry

     iteration # 36     ecut=    60.00 Ry     beta= 0.70
     CG style diagonalization
     ethr =  1.00E-13,  avg # of iterations =  3.1

     negative rho (up, down):  7.217E-04 0.000E+00

     total cpu time spent up to now is      255.8 secs

     total energy              =   -1470.80602118 Ry
     estimated scf accuracy    <          4.1E-12 Ry

     iteration # 37     ecut=    60.00 Ry     beta= 0.70
     CG style diagonalization
     ethr =  1.00E-13,  avg # of iterations =  3.0

     negative rho (up, down):  7.217E-04 0.000E+00

     total cpu time spent up to now is      258.9 secs

     total energy              =   -1470.80602118 Ry
     estimated scf accuracy    <          3.5E-12 Ry

     iteration # 38     ecut=    60.00 Ry     beta= 0.70
     CG style diagonalization
     ethr =  1.00E-13,  avg # of iterations =  3.0

     negative rho (up, down):  7.217E-04 0.000E+00

     total cpu time spent up to now is      262.1 secs

     total energy              =   -1470.80602118 Ry
     estimated scf accuracy    <          3.1E-12 Ry

     iteration # 39     ecut=    60.00 Ry     beta= 0.70
     CG style diagonalization
     ethr =  1.00E-13,  avg # of iterations =  3.0

     negative rho (up, down):  7.217E-04 0.000E+00

     total cpu time spent up to now is      265.2 secs

     total energy              =   -1470.80602118 Ry
     estimated scf accuracy    <          2.7E-12 Ry

     iteration # 40     ecut=    60.00 Ry     beta= 0.70
     CG style diagonalization
     ethr =  1.00E-13,  avg # of iterations =  3.0

     negative rho (up, down):  7.217E-04 0.000E+00

     total cpu time spent up to now is      268.3 secs

     total energy              =   -1470.80602118 Ry
     estimated scf accuracy    <          1.2E-12 Ry

     iteration # 41     ecut=    60.00 Ry     beta= 0.70
     CG style diagonalization
     ethr =  1.00E-13,  avg # of iterations =  3.0

     negative rho (up, down):  7.217E-04 0.000E+00

     total cpu time spent up to now is      271.4 secs

     End of self-consistent calculation

          k = 0.0000 0.0000 0.0000 (  7419 PWs)   bands (ev):

   -63.9023 -63.8836 -30.9085 -30.5705 -29.9324 -29.9324 -29.9105 -29.9105
   -21.3889 -21.3580 -15.5701 -15.5636 -15.5636 -15.5615 -15.5615 -15.5597
   -15.5350 -15.5350 -15.5342 -15.5342 -15.5194 -15.5149 -15.4431 -15.4421
    -8.3851  -4.5590  -3.1477  -2.5202  -2.5202  -2.5029  -2.5029  -0.5964
     1.5374   1.5374   2.6757   4.8739

          k =-0.0000 0.1017 0.0000 (  7432 PWs)   bands (ev):

   -63.8973 -63.8791 -30.8884 -30.5622 -30.0029 -29.9810 -29.9499 -29.9228
   -21.3683 -21.3421 -15.5692 -15.5638 -15.5619 -15.5610 -15.5602 -15.5581
   -15.5379 -15.5363 -15.5353 -15.5336 -15.5159 -15.5118 -15.4468 -15.4459
    -8.2745  -4.4148  -3.1922  -2.6721  -2.5753  -2.5331  -2.5120  -0.5197
     1.1901   1.5466   2.8071   4.3311

          k =-0.0000 0.2035 0.0000 (  7462 PWs)   bands (ev):

   -63.8835 -63.8670 -30.8327 -30.5437 -30.1921 -30.1642 -29.9957 -29.9580
   -21.3165 -21.3009 -15.5689 -15.5625 -15.5591 -15.5579 -15.5561 -15.5549
   -15.5434 -15.5392 -15.5385 -15.5336 -15.5065 -15.5030 -15.4571 -15.4561
    -7.9772  -4.0680  -3.3193  -3.0265  -2.7568  -2.5729  -2.5492  -0.3614
     0.4388   1.5636   2.9461   3.6525

          k =-0.0000 0.3052 0.0000 (  7518 PWs)   bands (ev):

   -63.8646 -63.8506 -30.7561 -30.5552 -30.4355 -30.3729 -30.0560 -30.0075
   -21.2565 -21.2487 -15.5700 -15.5622 -15.5557 -15.5552 -15.5523 -15.5494
   -15.5466 -15.5426 -15.5407 -15.5341 -15.4936 -15.4907 -15.4703 -15.4690
    -7.5827  -3.7936  -3.5016  -3.3879  -2.9471  -2.6440  -2.6156  -0.4700
    -0.0699   1.5635   2.3659   4.0539

          k =-0.0000 0.4069 0.0000 (  7506 PWs)   bands (ev):

   -63.8453 -63.8344 -30.7272 -30.7201 -30.6043 -30.4336 -30.1146 -30.0574
   -21.2082 -21.1997 -15.5718 -15.5640 -15.5557 -15.5547 -15.5516 -15.5455
   -15.5435 -15.5412 -15.5395 -15.5335 -15.4826 -15.4804 -15.4801 -15.4782
    -7.2007  -4.0097  -3.6591  -3.4438  -3.0837  -2.7390  -2.6861  -1.0346
    -0.0546   1.5366   1.9416   4.6442

          k =-0.0000 0.5087 0.0000 (  7502 PWs)   bands (ev):

   -63.8307 -63.8229 -30.8867 -30.8535 -30.5637 -30.4366 -30.1567 -30.0940
   -21.1764 -21.1688 -15.5749 -15.5635 -15.5571 -15.5560 -15.5538 -15.5454
   -15.5399 -15.5365 -15.5362 -15.5320 -15.4908 -15.4873 -15.4705 -15.4690
    -6.9272  -4.2911  -3.7777  -3.4455  -3.1835  -2.8194  -2.7399  -1.3939
    -0.1222   1.5023   1.7629   5.1913

          k = 0.0000-0.6104 0.0000 (  7546 PWs)   bands (ev):

   -63.8252 -63.8189 -30.9479 -30.9098 -30.5323 -30.4416 -30.1721 -30.1075
   -21.1647 -21.1592 -15.5765 -15.5612 -15.5606 -15.5568 -15.5534 -15.5465
   -15.5371 -15.5362 -15.5341 -15.5315 -15.4937 -15.4898 -15.4670 -15.4658
    -6.8276  -4.4005  -3.8130  -3.4593  -3.2269  -2.8506  -2.7602  -1.5118
    -0.1665   1.4871   1.7103   5.4369

          k = 0.0881 0.1526 0.0000 (  7453 PWs)   bands (ev):

   -63.8879 -63.8709 -30.8505 -30.5485 -30.1191 -30.1165 -29.9779 -29.9554
   -21.3321 -21.3136 -15.5681 -15.5642 -15.5598 -15.5588 -15.5576 -15.5557
   -15.5412 -15.5405 -15.5353 -15.5344 -15.5094 -15.5058 -15.4539 -15.4530
    -8.0700  -4.1657  -3.2753  -2.9093  -2.7223  -2.5536  -2.5418  -0.4005
     0.6706   1.5267   3.0432   3.6348

          k = 0.0881 0.2543 0.0000 (  7467 PWs)   bands (ev):

   -63.8716 -63.8566 -30.7835 -30.5385 -30.3351 -30.3004 -30.0400 -30.0079
   -21.2762 -21.2675 -15.5679 -15.5629 -15.5573 -15.5559 -15.5536 -15.5508
   -15.5455 -15.5442 -15.5378 -15.5343 -15.4982 -15.4951 -15.4657 -15.4647
    -7.7202  -3.8189  -3.4330  -3.2559  -2.9192  -2.6470  -2.5883  -0.2638
    -0.0145   1.4762   2.7678   3.5722

          k = 0.0881 0.3561 0.0000 (  7501 PWs)   bands (ev):

   -63.8524 -63.8403 -30.7125 -30.6238 -30.5534 -30.4211 -30.1125 -30.0669
   -21.2231 -21.2169 -15.5691 -15.5633 -15.5551 -15.5545 -15.5512 -15.5491
   -15.5442 -15.5431 -15.5398 -15.5339 -15.4854 -15.4829 -15.4785 -15.4770
    -7.3229  -3.7936  -3.5908  -3.4554  -3.0571  -2.7579  -2.6830  -0.7431
    -0.0562   1.3640   2.2827   4.1530

          k = 0.0881 0.4578 0.0000 (  7519 PWs)   bands (ev):

   -63.8354 -63.8265 -30.8028 -30.7787 -30.5872 -30.4335 -30.1735 -30.1182
   -21.1841 -21.1770 -15.5719 -15.5641 -15.5556 -15.5551 -15.5523 -15.5448
   -15.5440 -15.5386 -15.5369 -15.5329 -15.4892 -15.4866 -15.4739 -15.4720
    -6.9830  -4.0913  -3.7602  -3.4104  -3.1437  -2.8473  -2.8021  -1.1794
    -0.0487   1.1448   2.2048   4.7071

          k = 0.0881 0.5595 0.0000 (  7519 PWs)   bands (ev):

   -63.8252 -63.8189 -30.9132 -30.8754 -30.5353 -30.4411 -30.2077 -30.1478
   -21.1623 -21.1574 -15.5746 -15.5624 -15.5591 -15.5560 -15.5523 -15.5457
   -15.5391 -15.5365 -15.5344 -15.5320 -15.4949 -15.4914 -15.4671 -15.4659
    -6.7876  -4.2800  -3.8377  -3.4292  -3.1970  -2.9031  -2.8872  -1.3779
    -0.0966   0.9927   2.2206   5.1515

          k = 0.1762 0.3052 0.0000 (  7491 PWs)   bands (ev):

   -63.8550 -63.8425 -30.7167 -30.5816 -30.5133 -30.4040 -30.1191 -30.0958
   -21.2270 -21.2242 -15.5655 -15.5641 -15.5552 -15.5549 -15.5533 -15.5468
   -15.5466 -15.5443 -15.5388 -15.5341 -15.4872 -15.4845 -15.4772 -15.4763
    -7.3596  -3.6124  -3.5765  -3.4854  -3.0694  -2.8128  -2.6814  -0.5480
    -0.1011   1.2495   2.5472   3.7518

          k = 0.1762 0.4069 0.0000 (  7508 PWs)   bands (ev):

   -63.8381 -63.8286 -30.7158 -30.7012 -30.6031 -30.4257 -30.2151 -30.1830
   -21.1855 -21.1819 -15.5670 -15.5642 -15.5548 -15.5544 -15.5513 -15.5477
   -15.5432 -15.5427 -15.5367 -15.5334 -15.4891 -15.4877 -15.4758 -15.4737
    -6.9859  -3.8367  -3.7690  -3.3571  -3.1436  -2.9530  -2.8624  -0.9458
    -0.0179   0.8937   2.6212   4.1363

          k = 0.1762 0.5087 0.0000 (  7502 PWs)   bands (ev):

   -63.8252 -63.8189 -30.8273 -30.7927 -30.5474 -30.4394 -30.2873 -30.2454
   -21.1574 -21.1539 -15.5701 -15.5632 -15.5576 -15.5543 -15.5489 -15.5450
   -15.5438 -15.5380 -15.5348 -15.5332 -15.4973 -15.4950 -15.4675 -15.4661
    -6.7023  -4.0124  -3.8974  -3.3522  -3.1884  -3.0823  -2.9846  -1.1458
     0.0182   0.5250   2.8405   4.5503

          k = 0.1762 0.6104 0.0000 (  7507 PWs)   bands (ev):

   -63.8202 -63.8156 -30.8701 -30.8273 -30.5116 -30.4579 -30.3112 -30.2680
   -21.1470 -21.1446 -15.5714 -15.5612 -15.5605 -15.5542 -15.5493 -15.5445
   -15.5395 -15.5387 -15.5349 -15.5324 -15.5002 -15.4976 -15.4644 -15.4633
    -6.5965  -4.0721  -3.9271  -3.4213  -3.1660  -3.1559  -3.0160  -1.1943
     0.0544   0.3424   2.9165   4.7964

          k = 0.2643 0.4578 0.0000 (  7497 PWs)   bands (ev):

   -63.8252 -63.8189 -30.7681 -30.7376 -30.5651 -30.4343 -30.3320 -30.3117
   -21.1548 -21.1522 -15.5672 -15.5635 -15.5569 -15.5520 -15.5497 -15.5452
   -15.5435 -15.5406 -15.5349 -15.5335 -15.4983 -15.4972 -15.4676 -15.4662
    -6.6567  -3.9414  -3.8532  -3.2920  -3.2399  -3.1190  -3.0406  -1.0243
    -0.0341   0.4370   3.2011   4.2274

          k = 0.2643 0.5595 0.0000 (  7508 PWs)   bands (ev):

   -63.8172 -63.8139 -30.7848 -30.7359 -30.5371 -30.4899 -30.3952 -30.3816
   -21.1388 -21.1344 -15.5678 -15.5624 -15.5599 -15.5504 -15.5468 -15.5445
   -15.5418 -15.5390 -15.5369 -15.5329 -15.5039 -15.5024 -15.4630 -15.4620
    -6.4478  -3.9923  -3.8624  -3.5161  -3.2324  -3.1680  -3.0712  -0.9845
    -0.1914   0.2330   3.6325   4.4212

          k = 0.3524 0.6104 0.0000 (  7521 PWs)   bands (ev):

   -63.8135 -63.8127 -30.7219 -30.6290 -30.6020 -30.6019 -30.4192 -30.4190
   -21.1325 -21.1264 -15.5663 -15.5622 -15.5613 -15.5468 -15.5448 -15.5448
   -15.5437 -15.5384 -15.5383 -15.5335 -15.5064 -15.5055 -15.4615 -15.4606
    -6.3408  -3.9411  -3.9386  -3.4430  -3.4410  -3.1203  -3.0720  -0.6690
    -0.6683   0.2709   4.2266   4.2267

     highest occupied level (ev):     5.4369

!    total energy              =   -1470.80602118 Ry
     estimated scf accuracy    <          6.2E-13 Ry

     The total energy is the sum of the following terms:
     one-electron contribution =   -7502.82088657 Ry
     hartree contribution      =    3796.87841267 Ry
     xc contribution           =    -157.89454801 Ry
     ewald contribution        =    2393.03100072 Ry

     convergence has been achieved in  41 iterations

     negative rho (up, down):  7.217E-04 0.000E+00

     Forces acting on atoms (cartesian axes, Ry/au):

     atom    1 type  1   force =     0.00000000   -0.00000000   -0.00002670
     atom    2 type  2   force =     0.00000000    0.00000000    0.00011972
     atom    3 type  1   force =     0.00000000   -0.00000000    0.00008130
     atom    4 type  3   force =    -0.00000000    0.00000000   -0.00002650
     atom    5 type  3   force =     0.00000000    0.00000000   -0.00014782

     Total force =     0.000210     Total SCF correction =     0.000008


     Computing stress (Cartesian axis) and pressure


     negative rho (up, down):  7.217E-04 0.000E+00
          total   stress  (Ry/bohr**3)                   (kbar)     P=       -2.99
  -0.00000504   0.00000000   0.00000000           -0.74        0.00        0.00
   0.00000000  -0.00000504  -0.00000000            0.00       -0.74       -0.00
   0.00000000  -0.00000000  -0.00005087            0.00       -0.00       -7.48

     Energy error            =      3.2E-06 Ry
     Gradient error          =      1.5E-04 Ry/Bohr
     Cell gradient error     =      7.4E-01 kbar

     number of scf cycles    =   2
     number of bfgs steps    =   1

     enthalpy           old  =   -1470.8060180288 Ry
     enthalpy           new  =   -1470.8060211841 Ry

     CASE: enthalpy          _new < enthalpy          _old

     new trust radius        =       0.0015548086 bohr
     new conv_thr            =            1.0E-14 Ry

     new unit-cell volume =    954.17684 a.u.^3 (   141.39442 Ang^3 )
     density =      4.83740 g/cm^3

CELL_PARAMETERS (alat=  5.89970000)
   0.945646027   0.000000000   0.000000000
  -0.472823012   0.818953483   0.000000000
   0.000000000   0.000000000   6.000000000

ATOMIC_POSITIONS (crystal)
Ta            0.3333333330        0.6666666670        0.0084777904    0   0   1
C             0.0000000000        0.0000000000        0.0809653684    0   0   1
Ta            0.6666666670        0.3333333330        0.1534684720    0   0   1
F             0.0000000000        0.0000000000        0.2293479205
F             0.0000000000        0.0000000000       -0.0673918107



     Writing output data file /scratch/as3359/Ta2CF2_looping/Ta.save/
     NEW-OLD atomic charge density approx. for the potential

     Check: negative core charge=   -0.000002

     negative rho (up, down):  7.242E-04 0.000E+00
     extrapolated charge   71.96376, renormalised to   72.00000

     total cpu time spent up to now is      281.4 secs

     Self-consistent Calculation

     iteration #  1     ecut=    60.00 Ry     beta= 0.70
     CG style diagonalization
     ethr =  1.00E-06,  avg # of iterations =  3.5

     negative rho (up, down):  7.363E-04 0.000E+00

     total cpu time spent up to now is      285.4 secs

     total energy              =   -1470.80344548 Ry
     estimated scf accuracy    <       0.00174509 Ry

     iteration #  2     ecut=    60.00 Ry     beta= 0.70
     CG style diagonalization
     ethr =  2.42E-06,  avg # of iterations =  4.5

     negative rho (up, down):  7.321E-04 0.000E+00

     total cpu time spent up to now is      289.9 secs

     total energy              =   -1470.80527342 Ry
     estimated scf accuracy    <       0.00762371 Ry

     iteration #  3     ecut=    60.00 Ry     beta= 0.70
     CG style diagonalization
     ethr =  2.42E-06,  avg # of iterations =  4.0

     negative rho (up, down):  7.265E-04 0.000E+00

     total cpu time spent up to now is      294.0 secs

     total energy              =   -1470.80585119 Ry
     estimated scf accuracy    <       0.00134204 Ry

     iteration #  4     ecut=    60.00 Ry     beta= 0.70
     CG style diagonalization
     ethr =  1.86E-06,  avg # of iterations =  3.4

     negative rho (up, down):  7.263E-04 0.000E+00

     total cpu time spent up to now is      297.5 secs

     total energy              =   -1470.80604840 Ry
     estimated scf accuracy    <       0.00044477 Ry

     iteration #  5     ecut=    60.00 Ry     beta= 0.70
     CG style diagonalization
     ethr =  6.18E-07,  avg # of iterations =  3.1

     negative rho (up, down):  7.257E-04 0.000E+00

     total cpu time spent up to now is      300.6 secs

     total energy              =   -1470.80605977 Ry
     estimated scf accuracy    <       0.00028196 Ry

     iteration #  6     ecut=    60.00 Ry     beta= 0.70
     CG style diagonalization
     ethr =  3.92E-07,  avg # of iterations =  3.0

     negative rho (up, down):  7.257E-04 0.000E+00

     total cpu time spent up to now is      303.7 secs

     total energy              =   -1470.80604839 Ry
     estimated scf accuracy    <       0.00023196 Ry

     iteration #  7     ecut=    60.00 Ry     beta= 0.70
     CG style diagonalization
     ethr =  3.22E-07,  avg # of iterations =  3.0

     negative rho (up, down):  7.253E-04 0.000E+00

     total cpu time spent up to now is      306.8 secs

     total energy              =   -1470.80602745 Ry
     estimated scf accuracy    <       0.00017768 Ry

     iteration #  8     ecut=    60.00 Ry     beta= 0.70
     CG style diagonalization
     ethr =  2.47E-07,  avg # of iterations =  3.0

     negative rho (up, down):  7.251E-04 0.000E+00

     total cpu time spent up to now is      309.9 secs

     total energy              =   -1470.80602579 Ry
     estimated scf accuracy    <       0.00010089 Ry

     iteration #  9     ecut=    60.00 Ry     beta= 0.70
     CG style diagonalization
     ethr =  1.40E-07,  avg # of iterations =  3.1

     negative rho (up, down):  7.250E-04 0.000E+00

     total cpu time spent up to now is      313.1 secs

     total energy              =   -1470.80603471 Ry
     estimated scf accuracy    <       0.00006058 Ry

     iteration # 10     ecut=    60.00 Ry     beta= 0.70
     CG style diagonalization
     ethr =  8.41E-08,  avg # of iterations =  3.1

     negative rho (up, down):  7.244E-04 0.000E+00

     total cpu time spent up to now is      316.3 secs

     total energy              =   -1470.80600160 Ry
     estimated scf accuracy    <       0.00006340 Ry

     iteration # 11     ecut=    60.00 Ry     beta= 0.70
     CG style diagonalization
     ethr =  8.41E-08,  avg # of iterations =  3.9

     negative rho (up, down):  7.255E-04 0.000E+00

     total cpu time spent up to now is      320.2 secs

     total energy              =   -1470.80604731 Ry
     estimated scf accuracy    <       0.00003482 Ry

     iteration # 12     ecut=    60.00 Ry     beta= 0.70
     CG style diagonalization
     ethr =  4.84E-08,  avg # of iterations =  4.0

     negative rho (up, down):  7.235E-04 0.000E+00

     total cpu time spent up to now is      324.3 secs

     total energy              =   -1470.80599616 Ry
     estimated scf accuracy    <       0.00013838 Ry

     iteration # 13     ecut=    60.00 Ry     beta= 0.70
     CG style diagonalization
     ethr =  4.84E-08,  avg # of iterations =  3.5

     negative rho (up, down):  7.237E-04 0.000E+00

     total cpu time spent up to now is      327.9 secs

     total energy              =   -1470.80601716 Ry
     estimated scf accuracy    <       0.00002340 Ry

     iteration # 14     ecut=    60.00 Ry     beta= 0.70
     CG style diagonalization
     ethr =  3.25E-08,  avg # of iterations =  3.5

     negative rho (up, down):  7.238E-04 0.000E+00

     total cpu time spent up to now is      331.5 secs

     total energy              =   -1470.80602457 Ry
     estimated scf accuracy    <       0.00001839 Ry

     iteration # 15     ecut=    60.00 Ry     beta= 0.70
     CG style diagonalization
     ethr =  2.55E-08,  avg # of iterations =  3.2

     negative rho (up, down):  7.242E-04 0.000E+00

     total cpu time spent up to now is      334.8 secs

     total energy              =   -1470.80602240 Ry
     estimated scf accuracy    <       0.00001855 Ry

     iteration # 16     ecut=    60.00 Ry     beta= 0.70
     CG style diagonalization
     ethr =  2.55E-08,  avg # of iterations =  3.2

     negative rho (up, down):  7.244E-04 0.000E+00

     total cpu time spent up to now is      338.0 secs

     total energy              =   -1470.80601877 Ry
     estimated scf accuracy    <       0.00000881 Ry

     iteration # 17     ecut=    60.00 Ry     beta= 0.70
     CG style diagonalization
     ethr =  1.22E-08,  avg # of iterations =  3.7

     negative rho (up, down):  7.242E-04 0.000E+00

     total cpu time spent up to now is      341.8 secs

     total energy              =   -1470.80602244 Ry
     estimated scf accuracy    <       0.00000412 Ry

     iteration # 18     ecut=    60.00 Ry     beta= 0.70
     CG style diagonalization
     ethr =  5.72E-09,  avg # of iterations =  3.6

     negative rho (up, down):  7.236E-04 0.000E+00

     total cpu time spent up to now is      345.5 secs

     total energy              =   -1470.80602126 Ry
     estimated scf accuracy    <       0.00000522 Ry

     iteration # 19     ecut=    60.00 Ry     beta= 0.70
     CG style diagonalization
     ethr =  5.72E-09,  avg # of iterations =  3.4

     negative rho (up, down):  7.235E-04 0.000E+00

     total cpu time spent up to now is      349.0 secs

     total energy              =   -1470.80602230 Ry
     estimated scf accuracy    <       0.00000028 Ry

     iteration # 20     ecut=    60.00 Ry     beta= 0.70
     CG style diagonalization
     ethr =  3.96E-10,  avg # of iterations =  4.6

     negative rho (up, down):  7.238E-04 0.000E+00

     total cpu time spent up to now is      353.7 secs

     total energy              =   -1470.80602243 Ry
     estimated scf accuracy    <       0.00000080 Ry

     iteration # 21     ecut=    60.00 Ry     beta= 0.70
     CG style diagonalization
     ethr =  3.96E-10,  avg # of iterations =  3.5

     negative rho (up, down):  7.238E-04 0.000E+00

     total cpu time spent up to now is      357.3 secs

     total energy              =   -1470.80602257 Ry
     estimated scf accuracy    <       0.00000008 Ry

     iteration # 22     ecut=    60.00 Ry     beta= 0.70
     CG style diagonalization
     ethr =  1.17E-10,  avg # of iterations =  4.5

     negative rho (up, down):  7.238E-04 0.000E+00

     total cpu time spent up to now is      361.9 secs

     total energy              =   -1470.80602262 Ry
     estimated scf accuracy    <       0.00000011 Ry

     iteration # 23     ecut=    60.00 Ry     beta= 0.70
     CG style diagonalization
     ethr =  1.17E-10,  avg # of iterations =  3.6

     negative rho (up, down):  7.238E-04 0.000E+00

     total cpu time spent up to now is      365.7 secs

     total energy              =   -1470.80602262 Ry
     estimated scf accuracy    <       0.00000008 Ry

     iteration # 24     ecut=    60.00 Ry     beta= 0.70
     CG style diagonalization
     ethr =  1.17E-10,  avg # of iterations =  3.7

     negative rho (up, down):  7.238E-04 0.000E+00

     total cpu time spent up to now is      369.6 secs

     total energy              =   -1470.80602262 Ry
     estimated scf accuracy    <       0.00000005 Ry

     iteration # 25     ecut=    60.00 Ry     beta= 0.70
     CG style diagonalization
     ethr =  6.62E-11,  avg # of iterations =  3.3

     negative rho (up, down):  7.238E-04 0.000E+00

     total cpu time spent up to now is      373.1 secs

     total energy              =   -1470.80602262 Ry
     estimated scf accuracy    <       0.00000001 Ry

     iteration # 26     ecut=    60.00 Ry     beta= 0.70
     CG style diagonalization
     ethr =  1.43E-11,  avg # of iterations =  3.8

     negative rho (up, down):  7.238E-04 0.000E+00

     total cpu time spent up to now is      377.0 secs

     total energy              =   -1470.80602263 Ry
     estimated scf accuracy    <          5.1E-09 Ry

     iteration # 27     ecut=    60.00 Ry     beta= 0.70
     CG style diagonalization
     ethr =  7.13E-12,  avg # of iterations =  3.4

     negative rho (up, down):  7.238E-04 0.000E+00

     total cpu time spent up to now is      380.5 secs

     total energy              =   -1470.80602263 Ry
     estimated scf accuracy    <          2.9E-09 Ry

     iteration # 28     ecut=    60.00 Ry     beta= 0.70
     CG style diagonalization
     ethr =  4.07E-12,  avg # of iterations =  3.9

     negative rho (up, down):  7.238E-04 0.000E+00

     total cpu time spent up to now is      384.6 secs

     total energy              =   -1470.80602263 Ry
     estimated scf accuracy    <          1.4E-09 Ry

     iteration # 29     ecut=    60.00 Ry     beta= 0.70
     CG style diagonalization
     ethr =  1.95E-12,  avg # of iterations =  3.5

     negative rho (up, down):  7.238E-04 0.000E+00

     total cpu time spent up to now is      388.2 secs

     total energy              =   -1470.80602263 Ry
     estimated scf accuracy    <          6.6E-10 Ry

     iteration # 30     ecut=    60.00 Ry     beta= 0.70
     CG style diagonalization
     ethr =  9.14E-13,  avg # of iterations =  3.3

     negative rho (up, down):  7.238E-04 0.000E+00

     total cpu time spent up to now is      391.7 secs

     total energy              =   -1470.80602263 Ry
     estimated scf accuracy    <          5.4E-10 Ry

     iteration # 31     ecut=    60.00 Ry     beta= 0.70
     CG style diagonalization
     ethr =  7.50E-13,  avg # of iterations =  3.2

     negative rho (up, down):  7.238E-04 0.000E+00

     total cpu time spent up to now is      394.9 secs

     total energy              =   -1470.80602263 Ry
     estimated scf accuracy    <          9.8E-10 Ry

     iteration # 32     ecut=    60.00 Ry     beta= 0.70
     CG style diagonalization
     ethr =  7.50E-13,  avg # of iterations =  3.2

     negative rho (up, down):  7.238E-04 0.000E+00

     total cpu time spent up to now is      398.3 secs

     total energy              =   -1470.80602263 Ry
     estimated scf accuracy    <          1.0E-09 Ry

     iteration # 33     ecut=    60.00 Ry     beta= 0.70
     CG style diagonalization
     ethr =  7.50E-13,  avg # of iterations =  3.0

     negative rho (up, down):  7.238E-04 0.000E+00

     total cpu time spent up to now is      401.4 secs

     total energy              =   -1470.80602263 Ry
     estimated scf accuracy    <          1.0E-09 Ry

     iteration # 34     ecut=    60.00 Ry     beta= 0.70
     CG style diagonalization
     ethr =  7.50E-13,  avg # of iterations =  3.2

     negative rho (up, down):  7.238E-04 0.000E+00

     total cpu time spent up to now is      404.7 secs

     total energy              =   -1470.80602263 Ry
     estimated scf accuracy    <          6.0E-10 Ry

     iteration # 35     ecut=    60.00 Ry     beta= 0.70
     CG style diagonalization
     ethr =  7.50E-13,  avg # of iterations =  3.3

     negative rho (up, down):  7.238E-04 0.000E+00

     total cpu time spent up to now is      408.1 secs

     total energy              =   -1470.80602263 Ry
     estimated scf accuracy    <          8.2E-10 Ry

     iteration # 36     ecut=    60.00 Ry     beta= 0.70
     CG style diagonalization
     ethr =  7.50E-13,  avg # of iterations =  3.2

     negative rho (up, down):  7.238E-04 0.000E+00

     total cpu time spent up to now is      411.3 secs

     total energy              =   -1470.80602263 Ry
     estimated scf accuracy    <          3.4E-10 Ry

     iteration # 37     ecut=    60.00 Ry     beta= 0.70
     CG style diagonalization
     ethr =  4.76E-13,  avg # of iterations =  4.0

     negative rho (up, down):  7.238E-04 0.000E+00

     total cpu time spent up to now is      415.4 secs

     total energy              =   -1470.80602263 Ry
     estimated scf accuracy    <          9.9E-10 Ry

     iteration # 38     ecut=    60.00 Ry     beta= 0.70
     CG style diagonalization
     ethr =  4.76E-13,  avg # of iterations =  3.3

     negative rho (up, down):  7.238E-04 0.000E+00

     total cpu time spent up to now is      418.8 secs

     total energy              =   -1470.80602263 Ry
     estimated scf accuracy    <          8.1E-10 Ry

     iteration # 39     ecut=    60.00 Ry     beta= 0.70
     CG style diagonalization
     ethr =  4.76E-13,  avg # of iterations =  3.1

     negative rho (up, down):  7.238E-04 0.000E+00

     total cpu time spent up to now is      421.9 secs

     total energy              =   -1470.80602263 Ry
     estimated scf accuracy    <          7.8E-10 Ry

     iteration # 40     ecut=    60.00 Ry     beta= 0.70
     CG style diagonalization
     ethr =  4.76E-13,  avg # of iterations =  3.1

     negative rho (up, down):  7.238E-04 0.000E+00

     total cpu time spent up to now is      425.1 secs

     total energy              =   -1470.80602263 Ry
     estimated scf accuracy    <          4.2E-10 Ry

     iteration # 41     ecut=    60.00 Ry     beta= 0.70
     CG style diagonalization
     ethr =  4.76E-13,  avg # of iterations =  3.3

     negative rho (up, down):  7.238E-04 0.000E+00

     total cpu time spent up to now is      428.5 secs

     total energy              =   -1470.80602263 Ry
     estimated scf accuracy    <          9.9E-12 Ry

     iteration # 42     ecut=    60.00 Ry     beta= 0.70
     CG style diagonalization
     ethr =  1.00E-13,  avg # of iterations =  3.4

     negative rho (up, down):  7.238E-04 0.000E+00

     total cpu time spent up to now is      432.0 secs

     total energy              =   -1470.80602263 Ry
     estimated scf accuracy    <          2.4E-11 Ry

     iteration # 43     ecut=    60.00 Ry     beta= 0.70
     CG style diagonalization
     ethr =  1.00E-13,  avg # of iterations =  3.1

     negative rho (up, down):  7.238E-04 0.000E+00

     total cpu time spent up to now is      435.2 secs

     total energy              =   -1470.80602263 Ry
     estimated scf accuracy    <          7.2E-12 Ry

     iteration # 44     ecut=    60.00 Ry     beta= 0.70
     CG style diagonalization
     ethr =  1.00E-13,  avg # of iterations =  3.1

     negative rho (up, down):  7.238E-04 0.000E+00

     total cpu time spent up to now is      438.4 secs

     total energy              =   -1470.80602263 Ry
     estimated scf accuracy    <          8.5E-12 Ry

     iteration # 45     ecut=    60.00 Ry     beta= 0.70
     CG style diagonalization
     ethr =  1.00E-13,  avg # of iterations =  3.1

     negative rho (up, down):  7.238E-04 0.000E+00

     total cpu time spent up to now is      441.5 secs

     total energy              =   -1470.80602263 Ry
     estimated scf accuracy    <          1.5E-11 Ry

     iteration # 46     ecut=    60.00 Ry     beta= 0.70
     CG style diagonalization
     ethr =  1.00E-13,  avg # of iterations =  3.0

     negative rho (up, down):  7.238E-04 0.000E+00

     total cpu time spent up to now is      444.6 secs

     total energy              =   -1470.80602263 Ry
     estimated scf accuracy    <          1.3E-11 Ry

     iteration # 47     ecut=    60.00 Ry     beta= 0.70
     CG style diagonalization
     ethr =  1.00E-13,  avg # of iterations =  3.3

     negative rho (up, down):  7.238E-04 0.000E+00

     total cpu time spent up to now is      447.9 secs

     total energy              =   -1470.80602263 Ry
     estimated scf accuracy    <          1.9E-11 Ry

     iteration # 48     ecut=    60.00 Ry     beta= 0.70
     CG style diagonalization
     ethr =  1.00E-13,  avg # of iterations =  3.2

     negative rho (up, down):  7.238E-04 0.000E+00

     total cpu time spent up to now is      451.2 secs

     total energy              =   -1470.80602263 Ry
     estimated scf accuracy    <          2.6E-11 Ry

     iteration # 49     ecut=    60.00 Ry     beta= 0.70
     CG style diagonalization
     ethr =  1.00E-13,  avg # of iterations =  3.0

     negative rho (up, down):  7.238E-04 0.000E+00

     total cpu time spent up to now is      454.3 secs

     total energy              =   -1470.80602263 Ry
     estimated scf accuracy    <          2.5E-11 Ry

     iteration # 50     ecut=    60.00 Ry     beta= 0.70
     CG style diagonalization
     ethr =  1.00E-13,  avg # of iterations =  3.0

     negative rho (up, down):  7.238E-04 0.000E+00

     total cpu time spent up to now is      457.4 secs

     total energy              =   -1470.80602263 Ry
     estimated scf accuracy    <          2.1E-11 Ry

     iteration # 51     ecut=    60.00 Ry     beta= 0.70
     CG style diagonalization
     ethr =  1.00E-13,  avg # of iterations =  3.1

     negative rho (up, down):  7.238E-04 0.000E+00

     total cpu time spent up to now is      460.6 secs

     total energy              =   -1470.80602263 Ry
     estimated scf accuracy    <          1.3E-12 Ry

     iteration # 52     ecut=    60.00 Ry     beta= 0.70
     CG style diagonalization
     ethr =  1.00E-13,  avg # of iterations =  3.0

     negative rho (up, down):  7.238E-04 0.000E+00

     total cpu time spent up to now is      463.7 secs

     total energy              =   -1470.80602263 Ry
     estimated scf accuracy    <          2.6E-12 Ry

     iteration # 53     ecut=    60.00 Ry     beta= 0.70
     CG style diagonalization
     ethr =  1.00E-13,  avg # of iterations =  3.0

     negative rho (up, down):  7.238E-04 0.000E+00

     total cpu time spent up to now is      466.7 secs

     total energy              =   -1470.80602263 Ry
     estimated scf accuracy    <          3.5E-12 Ry

     iteration # 54     ecut=    60.00 Ry     beta= 0.70
     CG style diagonalization
     ethr =  1.00E-13,  avg # of iterations =  3.0

     negative rho (up, down):  7.238E-04 0.000E+00

     total cpu time spent up to now is      469.8 secs

     total energy              =   -1470.80602263 Ry
     estimated scf accuracy    <          1.8E-12 Ry

     iteration # 55     ecut=    60.00 Ry     beta= 0.70
     CG style diagonalization
     ethr =  1.00E-13,  avg # of iterations =  3.0

     negative rho (up, down):  7.238E-04 0.000E+00

     total cpu time spent up to now is      472.9 secs

     total energy              =   -1470.80602263 Ry
     estimated scf accuracy    <          1.0E-12 Ry

     iteration # 56     ecut=    60.00 Ry     beta= 0.70
     CG style diagonalization
     ethr =  1.00E-13,  avg # of iterations =  3.0

     negative rho (up, down):  7.238E-04 0.000E+00

     total cpu time spent up to now is      476.0 secs

     total energy              =   -1470.80602263 Ry
     estimated scf accuracy    <          2.9E-14 Ry

     iteration # 57     ecut=    60.00 Ry     beta= 0.70
     CG style diagonalization
     ethr =  1.00E-13,  avg # of iterations =  3.0

     negative rho (up, down):  7.238E-04 0.000E+00

     total cpu time spent up to now is      479.0 secs

     total energy              =   -1470.80602263 Ry
     estimated scf accuracy    <          9.9E-14 Ry

     iteration # 58     ecut=    60.00 Ry     beta= 0.70
     CG style diagonalization
     ethr =  1.00E-13,  avg # of iterations =  3.0

     negative rho (up, down):  7.238E-04 0.000E+00

     total cpu time spent up to now is      482.1 secs

     total energy              =   -1470.80602263 Ry
     estimated scf accuracy    <          1.1E-13 Ry

     iteration # 59     ecut=    60.00 Ry     beta= 0.70
     CG style diagonalization
     ethr =  1.00E-13,  avg # of iterations =  3.0

     negative rho (up, down):  7.238E-04 0.000E+00

     total cpu time spent up to now is      485.2 secs

     total energy              =   -1470.80602263 Ry
     estimated scf accuracy    <          1.9E-13 Ry

     iteration # 60     ecut=    60.00 Ry     beta= 0.70
     CG style diagonalization
     ethr =  1.00E-13,  avg # of iterations =  3.0

     negative rho (up, down):  7.238E-04 0.000E+00

     total cpu time spent up to now is      488.2 secs

     total energy              =   -1470.80602263 Ry
     estimated scf accuracy    <          1.6E-13 Ry

     iteration # 61     ecut=    60.00 Ry     beta= 0.70
     CG style diagonalization
     ethr =  1.00E-13,  avg # of iterations =  3.0

     negative rho (up, down):  7.238E-04 0.000E+00

     total cpu time spent up to now is      491.3 secs

     total energy              =   -1470.80602263 Ry
     estimated scf accuracy    <          1.8E-13 Ry

     iteration # 62     ecut=    60.00 Ry     beta= 0.70
     CG style diagonalization
     ethr =  1.00E-13,  avg # of iterations =  3.0

     negative rho (up, down):  7.238E-04 0.000E+00

     total cpu time spent up to now is      494.4 secs

     total energy              =   -1470.80602263 Ry
     estimated scf accuracy    <          2.1E-13 Ry

     iteration # 63     ecut=    60.00 Ry     beta= 0.70
     CG style diagonalization
     ethr =  1.00E-13,  avg # of iterations =  3.0

     negative rho (up, down):  7.238E-04 0.000E+00

     total cpu time spent up to now is      497.4 secs

     total energy              =   -1470.80602263 Ry
     estimated scf accuracy    <          2.8E-13 Ry

     iteration # 64     ecut=    60.00 Ry     beta= 0.70
     CG style diagonalization
     ethr =  1.00E-13,  avg # of iterations =  3.0

     negative rho (up, down):  7.238E-04 0.000E+00

     total cpu time spent up to now is      500.5 secs

     total energy              =   -1470.80602263 Ry
     estimated scf accuracy    <          3.9E-13 Ry

     iteration # 65     ecut=    60.00 Ry     beta= 0.70
     CG style diagonalization
     ethr =  1.00E-13,  avg # of iterations =  3.0

     negative rho (up, down):  7.238E-04 0.000E+00

     total cpu time spent up to now is      503.6 secs

     total energy              =   -1470.80602263 Ry
     estimated scf accuracy    <          3.8E-13 Ry

     iteration # 66     ecut=    60.00 Ry     beta= 0.70
     CG style diagonalization
     ethr =  1.00E-13,  avg # of iterations =  3.0

     negative rho (up, down):  7.238E-04 0.000E+00

     total cpu time spent up to now is      506.6 secs

     total energy              =   -1470.80602263 Ry
     estimated scf accuracy    <          4.4E-14 Ry

     iteration # 67     ecut=    60.00 Ry     beta= 0.70
     CG style diagonalization
     ethr =  1.00E-13,  avg # of iterations =  3.0

     negative rho (up, down):  7.238E-04 0.000E+00

     total cpu time spent up to now is      509.7 secs

     total energy              =   -1470.80602263 Ry
     estimated scf accuracy    <          4.0E-14 Ry

     iteration # 68     ecut=    60.00 Ry     beta= 0.70
     CG style diagonalization
     ethr =  1.00E-13,  avg # of iterations =  3.0

     negative rho (up, down):  7.238E-04 0.000E+00

     total cpu time spent up to now is      512.7 secs

     total energy              =   -1470.80602263 Ry
     estimated scf accuracy    <          4.6E-14 Ry

     iteration # 69     ecut=    60.00 Ry     beta= 0.70
     CG style diagonalization
     ethr =  1.00E-13,  avg # of iterations =  3.0

     negative rho (up, down):  7.238E-04 0.000E+00

     total cpu time spent up to now is      515.8 secs

     total energy              =   -1470.80602263 Ry
     estimated scf accuracy    <          3.0E-14 Ry

     iteration # 70     ecut=    60.00 Ry     beta= 0.70
     CG style diagonalization
     ethr =  1.00E-13,  avg # of iterations =  3.0

     negative rho (up, down):  7.238E-04 0.000E+00

     total cpu time spent up to now is      518.9 secs

     total energy              =   -1470.80602263 Ry
     estimated scf accuracy    <          1.5E-14 Ry

     iteration # 71     ecut=    60.00 Ry     beta= 0.70
     CG style diagonalization
     ethr =  1.00E-13,  avg # of iterations =  3.0

     negative rho (up, down):  7.238E-04 0.000E+00

     total cpu time spent up to now is      521.9 secs

     End of self-consistent calculation

          k = 0.0000 0.0000 0.0000 (  7419 PWs)   bands (ev):

   -63.8960 -63.8773 -30.9033 -30.5649 -29.9255 -29.9255 -29.9036 -29.9036
   -21.3866 -21.3557 -15.5633 -15.5567 -15.5567 -15.5547 -15.5547 -15.5528
   -15.5279 -15.5279 -15.5274 -15.5274 -15.5126 -15.5082 -15.4360 -15.4353
    -8.3821  -4.5571  -3.1457  -2.5166  -2.5166  -2.4996  -2.4996  -0.5938
     1.5431   1.5431   2.6771   4.8787

          k =-0.0000 0.1018 0.0000 (  7432 PWs)   bands (ev):

   -63.8910 -63.8729 -30.8832 -30.5566 -29.9962 -29.9743 -29.9431 -29.9160
   -21.3660 -21.3398 -15.5624 -15.5570 -15.5551 -15.5542 -15.5534 -15.5513
   -15.5310 -15.5294 -15.5284 -15.5268 -15.5091 -15.5051 -15.4398 -15.4391
    -8.2714  -4.4127  -3.1902  -2.6689  -2.5720  -2.5296  -2.5087  -0.5170
     1.1956   1.5524   2.8088   4.3355

          k =-0.0000 0.2035 0.0000 (  7462 PWs)   bands (ev):

   -63.8772 -63.8607 -30.8273 -30.5380 -30.1859 -30.1580 -29.9890 -29.9513
   -21.3140 -21.2986 -15.5621 -15.5557 -15.5523 -15.5510 -15.5493 -15.5481
   -15.5365 -15.5323 -15.5316 -15.5267 -15.4997 -15.4962 -15.4500 -15.4494
    -7.9739  -4.0657  -3.3173  -3.0237  -2.7538  -2.5694  -2.5460  -0.3587
     0.4437   1.5695   2.9486   3.6560

          k =-0.0000 0.3053 0.0000 (  7518 PWs)   bands (ev):

   -63.8582 -63.8442 -30.7505 -30.5495 -30.4299 -30.3671 -30.0494 -30.0009
   -21.2539 -21.2463 -15.5632 -15.5553 -15.5489 -15.5483 -15.5454 -15.5425
   -15.5398 -15.5358 -15.5338 -15.5272 -15.4868 -15.4839 -15.4634 -15.4622
    -7.5792  -3.7912  -3.4995  -3.3855  -2.9445  -2.6407  -2.6124  -0.4662
    -0.0668   1.5694   2.3689   4.0575

          k =-0.0000 0.4070 0.0000 (  7506 PWs)   bands (ev):

   -63.8388 -63.8280 -30.7219 -30.7150 -30.5989 -30.4277 -30.1081 -30.0509
   -21.2056 -21.1973 -15.5650 -15.5571 -15.5488 -15.5478 -15.5447 -15.5386
[...]
     CG style diagonalization
     ethr =  1.00E-13,  avg # of iterations =  3.9

     negative rho (up, down):  7.257E-04 0.000E+00

     total cpu time spent up to now is      661.8 secs

     total energy              =   -1470.80597530 Ry
     estimated scf accuracy    <          4.5E-10 Ry

     iteration # 33     ecut=    60.00 Ry     beta= 0.70
     CG style diagonalization
     ethr =  1.00E-13,  avg # of iterations =  3.3

     negative rho (up, down):  7.257E-04 0.000E+00

     total cpu time spent up to now is      665.2 secs

     total energy              =   -1470.80597530 Ry
     estimated scf accuracy    <          4.3E-10 Ry

     iteration # 34     ecut=    60.00 Ry     beta= 0.70
     CG style diagonalization
     ethr =  1.00E-13,  avg # of iterations =  3.4

     negative rho (up, down):  7.257E-04 0.000E+00

     total cpu time spent up to now is      668.6 secs

     total energy              =   -1470.80597530 Ry
     estimated scf accuracy    <          4.1E-11 Ry

     iteration # 35     ecut=    60.00 Ry     beta= 0.70
     CG style diagonalization
     ethr =  1.00E-13,  avg # of iterations =  3.5

     negative rho (up, down):  7.257E-04 0.000E+00

     total cpu time spent up to now is      672.3 secs

     total energy              =   -1470.80597530 Ry
     estimated scf accuracy    <          8.7E-12 Ry

     iteration # 36     ecut=    60.00 Ry     beta= 0.70
     CG style diagonalization
     ethr =  1.00E-13,  avg # of iterations =  3.2

     negative rho (up, down):  7.257E-04 0.000E+00

     total cpu time spent up to now is      675.6 secs

     total energy              =   -1470.80597530 Ry
     estimated scf accuracy    <          1.9E-12 Ry

     iteration # 37     ecut=    60.00 Ry     beta= 0.70
     CG style diagonalization
     ethr =  1.00E-13,  avg # of iterations =  3.1

     negative rho (up, down):  7.257E-04 0.000E+00

     total cpu time spent up to now is      678.7 secs

     total energy              =   -1470.80597530 Ry
     estimated scf accuracy    <          3.5E-13 Ry

     iteration # 38     ecut=    60.00 Ry     beta= 0.70
     CG style diagonalization
     ethr =  1.00E-13,  avg # of iterations =  3.1

     negative rho (up, down):  7.257E-04 0.000E+00

     total cpu time spent up to now is      681.9 secs

     total energy              =   -1470.80597530 Ry
     estimated scf accuracy    <          6.5E-13 Ry

     iteration # 39     ecut=    60.00 Ry     beta= 0.70
     CG style diagonalization
     ethr =  1.00E-13,  avg # of iterations =  3.0

     negative rho (up, down):  7.257E-04 0.000E+00

     total cpu time spent up to now is      685.0 secs

     total energy              =   -1470.80597530 Ry
     estimated scf accuracy    <          3.2E-13 Ry

     iteration # 40     ecut=    60.00 Ry     beta= 0.70
     CG style diagonalization
     ethr =  1.00E-13,  avg # of iterations =  3.0

     negative rho (up, down):  7.257E-04 0.000E+00

     total cpu time spent up to now is      688.1 secs

     total energy              =   -1470.80597530 Ry
     estimated scf accuracy    <          6.6E-13 Ry

     iteration # 41     ecut=    60.00 Ry     beta= 0.70
     CG style diagonalization
     ethr =  1.00E-13,  avg # of iterations =  3.0

     negative rho (up, down):  7.257E-04 0.000E+00

     total cpu time spent up to now is      691.2 secs

     total energy              =   -1470.80597530 Ry
     estimated scf accuracy    <          1.9E-13 Ry

     iteration # 42     ecut=    60.00 Ry     beta= 0.70
     CG style diagonalization
     ethr =  1.00E-13,  avg # of iterations =  3.0

     negative rho (up, down):  7.257E-04 0.000E+00

     total cpu time spent up to now is      694.3 secs

     total energy              =   -1470.80597530 Ry
     estimated scf accuracy    <          1.5E-13 Ry

     iteration # 43     ecut=    60.00 Ry     beta= 0.70
     CG style diagonalization
     ethr =  1.00E-13,  avg # of iterations =  3.0

     negative rho (up, down):  7.257E-04 0.000E+00

     total cpu time spent up to now is      697.4 secs

     total energy              =   -1470.80597530 Ry
     estimated scf accuracy    <          1.8E-13 Ry

     iteration # 44     ecut=    60.00 Ry     beta= 0.70
     CG style diagonalization
     ethr =  1.00E-13,  avg # of iterations =  3.0

     negative rho (up, down):  7.257E-04 0.000E+00

     total cpu time spent up to now is      700.4 secs

     total energy              =   -1470.80597530 Ry
     estimated scf accuracy    <          2.9E-13 Ry

     iteration # 45     ecut=    60.00 Ry     beta= 0.70
     CG style diagonalization
     ethr =  1.00E-13,  avg # of iterations =  3.0

     negative rho (up, down):  7.257E-04 0.000E+00

     total cpu time spent up to now is      703.5 secs

     total energy              =   -1470.80597530 Ry
     estimated scf accuracy    <          2.5E-13 Ry

     iteration # 46     ecut=    60.00 Ry     beta= 0.70
     CG style diagonalization
     ethr =  1.00E-13,  avg # of iterations =  3.0

     negative rho (up, down):  7.257E-04 0.000E+00

     total cpu time spent up to now is      706.6 secs

     total energy              =   -1470.80597530 Ry
     estimated scf accuracy    <          3.4E-13 Ry

     iteration # 47     ecut=    60.00 Ry     beta= 0.70
     CG style diagonalization
     ethr =  1.00E-13,  avg # of iterations =  3.0

     negative rho (up, down):  7.257E-04 0.000E+00

     total cpu time spent up to now is      709.7 secs

     total energy              =   -1470.80597530 Ry
     estimated scf accuracy    <          1.9E-13 Ry

     iteration # 48     ecut=    60.00 Ry     beta= 0.70
     CG style diagonalization
     ethr =  1.00E-13,  avg # of iterations =  3.0

     negative rho (up, down):  7.257E-04 0.000E+00

     total cpu time spent up to now is      712.8 secs

     total energy              =   -1470.80597530 Ry
     estimated scf accuracy    <          3.3E-14 Ry

     iteration # 49     ecut=    60.00 Ry     beta= 0.70
     CG style diagonalization
     ethr =  1.00E-13,  avg # of iterations =  3.0

     negative rho (up, down):  7.257E-04 0.000E+00

     total cpu time spent up to now is      715.8 secs

     total energy              =   -1470.80597530 Ry
     estimated scf accuracy    <          3.0E-14 Ry

     iteration # 50     ecut=    60.00 Ry     beta= 0.70
     CG style diagonalization
     ethr =  1.00E-13,  avg # of iterations =  3.0

     negative rho (up, down):  7.257E-04 0.000E+00

     total cpu time spent up to now is      718.9 secs

     total energy              =   -1470.80597530 Ry
     estimated scf accuracy    <          2.9E-14 Ry

     iteration # 51     ecut=    60.00 Ry     beta= 0.70
     CG style diagonalization
     ethr =  1.00E-13,  avg # of iterations =  3.0

     negative rho (up, down):  7.257E-04 0.000E+00

     total cpu time spent up to now is      722.0 secs

     total energy              =   -1470.80597530 Ry
     estimated scf accuracy    <          3.3E-14 Ry

     iteration # 52     ecut=    60.00 Ry     beta= 0.70
     CG style diagonalization
     ethr =  1.00E-13,  avg # of iterations =  3.0

     negative rho (up, down):  7.257E-04 0.000E+00

     total cpu time spent up to now is      725.1 secs

     total energy              =   -1470.80597530 Ry
     estimated scf accuracy    <          5.4E-14 Ry

     iteration # 53     ecut=    60.00 Ry     beta= 0.70
     CG style diagonalization
     ethr =  1.00E-13,  avg # of iterations =  3.0

     negative rho (up, down):  7.257E-04 0.000E+00

     total cpu time spent up to now is      728.1 secs

     total energy              =   -1470.80597530 Ry
     estimated scf accuracy    <          3.4E-14 Ry

     iteration # 54     ecut=    60.00 Ry     beta= 0.70
     CG style diagonalization
     ethr =  1.00E-13,  avg # of iterations =  3.0

     negative rho (up, down):  7.257E-04 0.000E+00

     total cpu time spent up to now is      731.2 secs

     total energy              =   -1470.80597530 Ry
     estimated scf accuracy    <          1.2E-14 Ry

     iteration # 55     ecut=    60.00 Ry     beta= 0.70
     CG style diagonalization
     ethr =  1.00E-13,  avg # of iterations =  3.0

     negative rho (up, down):  7.257E-04 0.000E+00

     total cpu time spent up to now is      734.3 secs

     End of self-consistent calculation

          k = 0.0000 0.0000 0.0000 (  7419 PWs)   bands (ev):

   -63.8960 -63.8773 -30.9033 -30.5649 -29.9255 -29.9255 -29.9036 -29.9036
   -21.3866 -21.3557 -15.5636 -15.5571 -15.5571 -15.5550 -15.5550 -15.5532
   -15.5283 -15.5283 -15.5278 -15.5278 -15.5130 -15.5086 -15.4364 -15.4357
    -8.3821  -4.5571  -3.1457  -2.5166  -2.5166  -2.4996  -2.4996  -0.5938
     1.5432   1.5432   2.6771   4.8788

          k =-0.0000 0.1018 0.0000 (  7430 PWs)   bands (ev):

   -63.8910 -63.8728 -30.8832 -30.5566 -29.9961 -29.9743 -29.9430 -29.9160
   -21.3659 -21.3398 -15.5627 -15.5573 -15.5554 -15.5546 -15.5538 -15.5516
   -15.5314 -15.5298 -15.5288 -15.5271 -15.5095 -15.5054 -15.4401 -15.4395
    -8.2714  -4.4127  -3.1902  -2.6689  -2.5720  -2.5296  -2.5087  -0.5170
     1.1956   1.5524   2.8088   4.3355

          k =-0.0000 0.2035 0.0000 (  7454 PWs)   bands (ev):

   -63.8772 -63.8607 -30.8273 -30.5380 -30.1858 -30.1579 -29.9890 -29.9512
   -21.3140 -21.2986 -15.5624 -15.5560 -15.5526 -15.5514 -15.5497 -15.5485
   -15.5368 -15.5327 -15.5320 -15.5271 -15.5000 -15.4966 -15.4504 -15.4497
    -7.9739  -4.0656  -3.3173  -3.0237  -2.7538  -2.5694  -2.5459  -0.3587
     0.4437   1.5695   2.9486   3.6560

          k =-0.0000 0.3053 0.0000 (  7510 PWs)   bands (ev):

   -63.8582 -63.8442 -30.7505 -30.5495 -30.4299 -30.3671 -30.0493 -30.0008
   -21.2539 -21.2463 -15.5635 -15.5557 -15.5492 -15.5487 -15.5458 -15.5429
   -15.5401 -15.5361 -15.5342 -15.5276 -15.4871 -15.4843 -15.4637 -15.4626
    -7.5792  -3.7912  -3.4995  -3.3855  -2.9445  -2.6407  -2.6124  -0.4662
    -0.0668   1.5695   2.3690   4.0576

          k =-0.0000 0.4070 0.0000 (  7494 PWs)   bands (ev):

   -63.8388 -63.8280 -30.7218 -30.7150 -30.5989 -30.4276 -30.1081 -30.0509
   -21.2056 -21.1973 -15.5653 -15.5575 -15.5492 -15.5482 -15.5451 -15.5390
   -15.5370 -15.5347 -15.5329 -15.5269 -15.4760 -15.4739 -15.4737 -15.4718
    -7.1972  -4.0077  -3.6569  -3.4415  -3.0815  -2.7358  -2.6829  -1.0308
    -0.0522   1.5424   1.9448   4.6485

          k =-0.0000 0.5088 0.0000 (  7494 PWs)   bands (ev):

   -63.8242 -63.8164 -30.8820 -30.8487 -30.5579 -30.4305 -30.1503 -30.0876
   -21.1737 -21.1664 -15.5685 -15.5570 -15.5506 -15.5494 -15.5474 -15.5389
   -15.5333 -15.5300 -15.5297 -15.5255 -15.4843 -15.4809 -15.4639 -15.4626
    -6.9236  -4.2894  -3.7755  -3.4434  -3.1816  -2.8164  -2.7368  -1.3904
    -0.1203   1.5080   1.7662   5.1957

          k = 0.0000-0.6105 0.0000 (  7530 PWs)   bands (ev):

   -63.8186 -63.8124 -30.9434 -30.9052 -30.5263 -30.4355 -30.1657 -30.1011
   -21.1620 -21.1569 -15.5701 -15.5546 -15.5542 -15.5503 -15.5469 -15.5400
   -15.5303 -15.5298 -15.5275 -15.5250 -15.4872 -15.4833 -15.4603 -15.4593
    -6.8242  -4.3989  -3.8106  -3.4574  -3.2250  -2.8476  -2.7571  -1.5084
    -0.1647   1.4928   1.7135   5.4411

          k = 0.0881 0.1526 0.0000 (  7453 PWs)   bands (ev):

   -63.8816 -63.8645 -30.8451 -30.5429 -30.1127 -30.1101 -29.9711 -29.9486
   -21.3297 -21.3113 -15.5616 -15.5577 -15.5533 -15.5523 -15.5511 -15.5492
   -15.5346 -15.5341 -15.5287 -15.5280 -15.5030 -15.4994 -15.4472 -15.4466
    -8.0667  -4.1635  -3.2733  -2.9064  -2.7192  -2.5502  -2.5386  -0.3977
     0.6756   1.5325   3.0452   3.6388

          k = 0.0881 0.2544 0.0000 (  7461 PWs)   bands (ev):

   -63.8652 -63.8502 -30.7780 -30.5328 -30.3293 -30.2945 -30.0333 -30.0012
   -21.2736 -21.2652 -15.5614 -15.5564 -15.5508 -15.5494 -15.5471 -15.5443
   -15.5390 -15.5378 -15.5313 -15.5278 -15.4918 -15.4887 -15.4590 -15.4583
    -7.7167  -3.8164  -3.4309  -3.2533  -2.9165  -2.6438  -2.5850  -0.2607
    -0.0102   1.4820   2.7711   3.5753

          k = 0.0881 0.3561 0.0000 (  7495 PWs)   bands (ev):

   -63.8460 -63.8339 -30.7068 -30.6184 -30.5480 -30.4152 -30.1060 -30.0604
   -21.2204 -21.2146 -15.5626 -15.5568 -15.5486 -15.5480 -15.5446 -15.5426
   -15.5377 -15.5366 -15.5333 -15.5274 -15.4789 -15.4765 -15.4720 -15.4706
    -7.3193  -3.7914  -3.5887  -3.4528  -3.0547  -2.7548  -2.6798  -0.7391
    -0.0535   1.3694   2.2863   4.1568

          k = 0.0881 0.4579 0.0000 (  7509 PWs)   bands (ev):

   -63.8289 -63.8200 -30.7979 -30.7737 -30.5814 -30.4275 -30.1671 -30.1118
   -21.1814 -21.1746 -15.5654 -15.5576 -15.5491 -15.5486 -15.5459 -15.5382
   -15.5374 -15.5321 -15.5303 -15.5264 -15.4827 -15.4801 -15.4673 -15.4656
    -6.9794  -4.0894  -3.7580  -3.4081  -3.1416  -2.8443  -2.7991  -1.1757
    -0.0465   1.1496   2.2089   4.7114

          k = 0.0881 0.5597 0.0000 (  7513 PWs)   bands (ev):

   -63.8186 -63.8124 -30.9086 -30.8707 -30.5294 -30.4350 -30.2014 -30.1415
   -21.1595 -21.1551 -15.5681 -15.5559 -15.5526 -15.5495 -15.5458 -15.5392
   -15.5325 -15.5300 -15.5279 -15.5255 -15.4884 -15.4850 -15.4605 -15.4594
    -6.7840  -4.2783  -3.8355  -3.4272  -3.1950  -2.9001  -2.8844  -1.3744
    -0.0947   0.9974   2.2248   5.1559

          k = 0.1762 0.3053 0.0000 (  7483 PWs)   bands (ev):

   -63.8486 -63.8360 -30.7110 -30.5761 -30.5079 -30.3981 -30.1127 -30.0894
   -21.2240 -21.2222 -15.5590 -15.5576 -15.5487 -15.5484 -15.5468 -15.5403
   -15.5401 -15.5378 -15.5322 -15.5276 -15.4807 -15.4781 -15.4706 -15.4699
    -7.3560  -3.6102  -3.5744  -3.4826  -3.0670  -2.8099  -2.6782  -0.5438
    -0.0983   1.2547   2.5510   3.7551

          k = 0.1762 0.4070 0.0000 (  7496 PWs)   bands (ev):

   -63.8316 -63.8221 -30.7105 -30.6960 -30.5975 -30.4197 -30.2089 -30.1768
   -21.1826 -21.1797 -15.5606 -15.5577 -15.5483 -15.5479 -15.5448 -15.5411
   -15.5367 -15.5362 -15.5301 -15.5269 -15.4825 -15.4813 -15.4692 -15.4673
    -6.9821  -3.8346  -3.7670  -3.3545  -3.1413  -2.9502  -2.8595  -0.9419
    -0.0152   0.8982   2.6256   4.1402

          k = 0.1762 0.5088 0.0000 (  7494 PWs)   bands (ev):

   -63.8187 -63.8124 -30.8225 -30.7878 -30.5414 -30.4333 -30.2812 -30.2393
   -21.1544 -21.1517 -15.5636 -15.5567 -15.5511 -15.5478 -15.5424 -15.5385
   -15.5373 -15.5315 -15.5282 -15.5267 -15.4907 -15.4886 -15.4608 -15.4596
    -6.6984  -4.0105  -3.8954  -3.3499  -3.1861  -3.0797  -2.9819  -1.1421
     0.0207   0.5292   2.8451   4.5548

          k = 0.1762 0.6105 0.0000 (  7501 PWs)   bands (ev):

   -63.8137 -63.8091 -30.8654 -30.8225 -30.5056 -30.4518 -30.3052 -30.2620
   -21.1437 -21.1428 -15.5649 -15.5546 -15.5541 -15.5477 -15.5428 -15.5380
   -15.5329 -15.5322 -15.5283 -15.5259 -15.4937 -15.4911 -15.4578 -15.4570
    -6.5926  -4.0703  -3.9251  -3.4191  -3.1637  -3.1534  -3.0134  -1.1907
     0.0565   0.3468   2.9210   4.8010

          k = 0.2644 0.4579 0.0000 (  7493 PWs)   bands (ev):

   -63.8187 -63.8124 -30.7631 -30.7326 -30.5592 -30.4282 -30.3261 -30.3058
   -21.1517 -21.1502 -15.5608 -15.5570 -15.5504 -15.5455 -15.5431 -15.5387
   -15.5370 -15.5342 -15.5283 -15.5271 -15.4917 -15.4909 -15.4610 -15.4598
    -6.6526  -3.9396  -3.8513  -3.2895  -3.2374  -3.1164  -3.0383  -1.0206
    -0.0308   0.4405   3.2062   4.2317

          k = 0.2644 0.5597 0.0000 (  7504 PWs)   bands (ev):

   -63.8106 -63.8073 -30.7798 -30.7309 -30.5312 -30.4840 -30.3894 -30.3757
   -21.1359 -21.1321 -15.5613 -15.5559 -15.5534 -15.5439 -15.5403 -15.5380
   -15.5353 -15.5324 -15.5304 -15.5264 -15.4974 -15.4961 -15.4563 -15.4556
    -6.4435  -3.9905  -3.8606  -3.5137  -3.2299  -3.1655  -3.0690  -0.9808
    -0.1874   0.2354   3.6376   4.4260

          k = 0.3525 0.6105 0.0000 (  7509 PWs)   bands (ev):

   -63.8068 -63.8063 -30.7169 -30.6239 -30.5964 -30.5963 -30.4132 -30.4131
   -21.1297 -21.1240 -15.5598 -15.5555 -15.5550 -15.5403 -15.5383 -15.5383
   -15.5372 -15.5318 -15.5318 -15.5270 -15.4998 -15.4992 -15.4547 -15.4542
    -6.3363  -3.9386  -3.9377  -3.4400  -3.4392  -3.1176  -3.0697  -0.6650
    -0.6646   0.2734   4.2318   4.2319

     highest occupied level (ev):     5.4411

!    total energy              =   -1470.80597530 Ry
     estimated scf accuracy    <          3.6E-15 Ry

     The total energy is the sum of the following terms:
     one-electron contribution =   -7505.72618419 Ry
     hartree contribution      =    3798.34580789 Ry
     xc contribution           =    -157.89661557 Ry
     ewald contribution        =    2394.47101657 Ry

     convergence has been achieved in  55 iterations

     negative rho (up, down):  7.257E-04 0.000E+00

     Forces acting on atoms (cartesian axes, Ry/au):

     atom    1 type  1   force =     0.00000000   -0.00000000   -0.00008627
     atom    2 type  2   force =     0.00000000    0.00000000    0.00003791
     atom    3 type  1   force =    -0.00000000    0.00000000    0.00009687
     atom    4 type  3   force =     0.00000000    0.00000000    0.00014265
     atom    5 type  3   force =     0.00000000   -0.00000000   -0.00019115

     Total force =     0.000274     Total SCF correction =     0.000000


     Computing stress (Cartesian axis) and pressure


     negative rho (up, down):  7.257E-04 0.000E+00
          total   stress  (Ry/bohr**3)                   (kbar)     P=       -2.51
  -0.00000086   0.00000000   0.00000000           -0.13        0.00        0.00
   0.00000000  -0.00000086   0.00000000            0.00       -0.13        0.00
  -0.00000000   0.00000000  -0.00004956           -0.00        0.00       -7.29


     Writing output data file /scratch/as3359/Ta2CF2_looping/Ta.save/
 
     init_run     :     14.78s CPU      9.57s WALL (       2 calls)
     electrons    :   1334.60s CPU    697.97s WALL (       4 calls)
     update_pot   :     10.93s CPU      6.56s WALL (       2 calls)
     forces       :     14.05s CPU      7.19s WALL (       4 calls)
     stress       :     36.45s CPU     18.78s WALL (       4 calls)

     Called by init_run:
     wfcinit      :      3.03s CPU      1.58s WALL (       2 calls)
     potinit      :      2.74s CPU      1.38s WALL (       2 calls)
     hinit0       :      8.29s CPU      6.15s WALL (       2 calls)

     Called by electrons:
     c_bands      :   1099.19s CPU    560.29s WALL (     192 calls)
     sum_band     :    160.91s CPU     91.89s WALL (     192 calls)
     v_of_rho     :      9.79s CPU      5.00s WALL (     196 calls)
     newd         :     61.67s CPU     39.31s WALL (     196 calls)
     mix_rho      :      3.17s CPU      1.64s WALL (     192 calls)

     Called by c_bands:
     init_us_2    :     13.37s CPU      6.75s WALL (    7486 calls)
     ccgdiagg     :    914.97s CPU    466.59s WALL (    3648 calls)
     wfcrot       :    175.08s CPU     88.96s WALL (    3610 calls)

     Called by *cgdiagg:
     h_psi        :    702.66s CPU    358.16s WALL (  341218 calls)
     s_psi        :    163.90s CPU     83.75s WALL (  678826 calls)

     Called by h_psi:
     h_psi:calbec :     85.99s CPU     43.74s WALL (  341218 calls)
     vloc_psi     :    520.04s CPU    265.31s WALL (  341218 calls)
     add_vuspsi   :     85.86s CPU     43.84s WALL (  341218 calls)
     hs_1psi      :    634.85s CPU    323.57s WALL (  337608 calls)
     s_1psi       :    164.24s CPU     83.45s WALL (  337608 calls)

     General routines
     calbec       :    167.39s CPU     85.61s WALL (  682854 calls)
     fft          :      5.01s CPU      2.59s WALL (    2642 calls)
     ffts         :      0.49s CPU      0.25s WALL (     388 calls)
     fftw         :    521.95s CPU    266.31s WALL ( 1067224 calls)
     interpolate  :      0.76s CPU      0.40s WALL (     196 calls)
 
     Parallel routines
 
     PWSCF        :  23m32.06s CPU  12m21.07s WALL

 
   This run was terminated on:  21:54:34   6Apr2022            

=------------------------------------------------------------------------------=
   JOB DONE.
=------------------------------------------------------------------------------=
