
     Program PWSCF v.6.8 starts on 17Apr2022 at 15: 7: 0 

     This program is part of the open-source Quantum ESPRESSO suite
     for quantum simulation of materials; please cite
         "P. Giannozzi et al., J. Phys.:Condens. Matter 21 395502 (2009);
         "P. Giannozzi et al., J. Phys.:Condens. Matter 29 465901 (2017);
         "P. Giannozzi et al., J. Chem. Phys. 152 154105 (2020);
          URL http://www.quantum-espresso.org", 
     in publications or presentations arising from this work. More details at
     http://www.quantum-espresso.org/quote

     Parallel version (MPI & OpenMP), running on       4 processor cores
     Number of MPI processes:                 2
     Threads/MPI process:                     2

     MPI processes distributed on     1 nodes
     R & G space division:  proc/nbgrp/npool/nimage =       2
     125003 MiB available memory on the printing compute node when the environment starts
 
     Reading input from MoS2.scf.6.040.in
Warning: card  &CELL ignored
Warning: card     CELL_DYNAMICS='BFGS' ignored
Warning: card  / ignored

     Current dimensions of program PWSCF are:
     Max number of different atomic species (ntypx) = 10
     Max number of k-points (npk) =  40000
     Max angular momentum in pseudopotentials (lmaxx) =  4
     Message from routine iosys:
     restart disabled: needed files not found
     file Mo.pbesol-spn-kjpaw_psl.1.0.0.UPF: wavefunction(s)  4S 4D renormalized
     file S.pbesol-nl-kjpaw_psl.1.0.0.UPF: wavefunction(s)  3S renormalized
     Message from routine setup:
     using ibrav=0 with symmetry is DISCOURAGED, use correct ibrav instead

     Subspace diagonalization in iterative solution of the eigenvalue problem:
     a serial algorithm will be used

 
     Parallelization info
     --------------------
     sticks:   dense  smooth     PW     G-vecs:    dense   smooth      PW
     Min         712     712    210               180597   180597   28640
     Max         717     717    211               180600   180600   28675
     Sum        1429    1429    421               361197   361197   57315
 
     Using Slab Decomposition
 


     bravais-lattice index     =            0
     lattice parameter (alat)  =       6.0400  a.u.
     unit-cell volume          =    1457.9787 (a.u.)^3
     number of atoms/cell      =            6
     number of atomic types    =            2
     number of electrons       =        52.00
     number of Kohn-Sham states=           26
     kinetic-energy cutoff     =     150.0000  Ry
     charge density cutoff     =     600.0000  Ry
     scf convergence threshold =      1.0E-12
     mixing beta               =       0.7000
     number of iterations used =            8  plain     mixing
     Exchange-correlation= SLA  PW   PSX  PSC
                           (   1   4  10   8   0   0   0)

     celldm(1)=   6.040000  celldm(2)=   0.000000  celldm(3)=   0.000000
     celldm(4)=   0.000000  celldm(5)=   0.000000  celldm(6)=   0.000000

     crystal axes: (cart. coord. in units of alat)
               a(1) = (   0.977326  -0.000176   0.000000 )  
               a(2) = (  -0.488540   0.846362   0.000000 )  
               a(3) = (   0.000000   0.000000   8.000000 )  

     reciprocal axes: (cart. coord. in units 2 pi/alat)
               b(1) = (  1.023307  0.590676  0.000000 )  
               b(2) = (  0.000213  1.181651  0.000000 )  
               b(3) = (  0.000000  0.000000  0.125000 )  


     PseudoPot. # 1 for Mo read from file:
     /shared/home/as3359/pseudo/Mo.pbesol-spn-kjpaw_psl.1.0.0.UPF
     MD5 check sum: de57925cfc675213e43241dcc441eda8
     Pseudo is Projector augmented-wave + core cor, Zval = 14.0
     Generated using &quot;atomic&quot; code by A. Dal Corso  v.6.3
     Shape of augmentation charge: PSQ
     Using radial grid of 1229 points,  6 beta functions with: 
                l(1) =   0
                l(2) =   0
                l(3) =   1
                l(4) =   1
                l(5) =   2
                l(6) =   2
     Q(r) pseudized with 0 coefficients 


     PseudoPot. # 2 for S  read from file:
     /shared/home/as3359/pseudo/S.pbesol-nl-kjpaw_psl.1.0.0.UPF
     MD5 check sum: bf3db50ec3f960682bbc396f1aadd1dd
     Pseudo is Projector augmented-wave + core cor, Zval =  6.0
     Generated using &quot;atomic&quot; code by A. Dal Corso  v.6.3
     Shape of augmentation charge: PSQ
     Using radial grid of 1151 points,  4 beta functions with: 
                l(1) =   0
                l(2) =   0
                l(3) =   1
                l(4) =   1
     Q(r) pseudized with 0 coefficients 


     atomic species   valence    mass     pseudopotential
        Mo            14.00    95.94000     Mo( 1.00)
        S              6.00    32.06500     S ( 1.00)

      2 Sym. Ops., with inversion, found ( 1 have fractional translation)



   Cartesian axes

     site n.     atom                  positions (alat units)
         1           Mo  tau(   1) = (   0.0000000   0.0000000   0.9844997  )
         2           S   tau(   2) = (   0.4887119   0.2819702   1.4701535  )
         3           S   tau(   3) = (   0.4887135   0.2819635   0.4988906  )
         4           Mo  tau(   4) = (   0.0000000   0.0000000   3.0155003  )
         5           S   tau(   5) = (  -0.4887135  -0.2819635   3.5011094  )
         6           S   tau(   6) = (  -0.4887119  -0.2819702   2.5298465  )

     number of k points=   113

     Number of k-points >= 100: set verbosity='high' to print them.

     Dense  grid:   361197 G-vectors     FFT dimensions: (  48,  48, 384)

     Estimated max dynamical RAM per process >       1.67 GB

     Estimated total dynamical RAM >       3.35 GB
     Cannot read rho : file not found

     Initial potential from superposition of free atoms

     starting charge   51.99828, renormalised to   52.00000

     negative rho (up, down):  1.538E-04 0.000E+00
     Message from routine qexsd_readschema :
     xml data file /scratch/as3359/Mos2_ct_lat/MoS2.save/data-file-schema.xml not fou
     Cannot read wfcs: file not found
     Starting wfcs are   36 randomized atomic wfcs
     Checking if some PAW data can be deallocated... 

     total cpu time spent up to now is       26.5 secs

     Self-consistent Calculation

     iteration #  1     ecut=   150.00 Ry     beta= 0.70
     Davidson diagonalization with overlap
     ethr =  1.00E-05,  avg # of iterations = 10.4

     negative rho (up, down):  1.988E-04 0.000E+00

     total cpu time spent up to now is      136.8 secs

     total energy              =    -979.37285482 Ry
     estimated scf accuracy    <       0.31038618 Ry

     iteration #  2     ecut=   150.00 Ry     beta= 0.70
     Davidson diagonalization with overlap
     ethr =  5.97E-04,  avg # of iterations =  5.1

     negative rho (up, down):  1.871E-04 0.000E+00

     total cpu time spent up to now is      192.2 secs

     total energy              =    -979.28352243 Ry
     estimated scf accuracy    <       1.20128104 Ry

     iteration #  3     ecut=   150.00 Ry     beta= 0.70
     Davidson diagonalization with overlap
     ethr =  5.97E-04,  avg # of iterations =  5.4

     negative rho (up, down):  1.881E-04 0.000E+00

     total cpu time spent up to now is      246.6 secs

     total energy              =    -979.50209445 Ry
     estimated scf accuracy    <       0.08607100 Ry

     iteration #  4     ecut=   150.00 Ry     beta= 0.70
     Davidson diagonalization with overlap
     ethr =  1.66E-04,  avg # of iterations =  3.0

     negative rho (up, down):  1.895E-04 0.000E+00

     total cpu time spent up to now is      288.0 secs

     total energy              =    -979.50953788 Ry
     estimated scf accuracy    <       0.02573777 Ry

     iteration #  5     ecut=   150.00 Ry     beta= 0.70
     Davidson diagonalization with overlap
     ethr =  4.95E-05,  avg # of iterations =  4.0

     negative rho (up, down):  1.978E-04 0.000E+00

     total cpu time spent up to now is      332.7 secs

     total energy              =    -979.51489576 Ry
     estimated scf accuracy    <       0.00854607 Ry

     iteration #  6     ecut=   150.00 Ry     beta= 0.70
     Davidson diagonalization with overlap
     ethr =  1.64E-05,  avg # of iterations =  2.8

     negative rho (up, down):  2.013E-04 0.000E+00

     total cpu time spent up to now is      372.3 secs

     total energy              =    -979.51557945 Ry
     estimated scf accuracy    <       0.00127163 Ry

     iteration #  7     ecut=   150.00 Ry     beta= 0.70
     Davidson diagonalization with overlap
     ethr =  2.45E-06,  avg # of iterations =  4.6

     negative rho (up, down):  2.031E-04 0.000E+00

     total cpu time spent up to now is      420.3 secs

     total energy              =    -979.51586423 Ry
     estimated scf accuracy    <       0.00088893 Ry

     iteration #  8     ecut=   150.00 Ry     beta= 0.70
     Davidson diagonalization with overlap
     ethr =  1.71E-06,  avg # of iterations =  2.0

     negative rho (up, down):  2.046E-04 0.000E+00

     total cpu time spent up to now is      456.0 secs

     total energy              =    -979.51584691 Ry
     estimated scf accuracy    <       0.00027166 Ry

     iteration #  9     ecut=   150.00 Ry     beta= 0.70
     Davidson diagonalization with overlap
     ethr =  5.22E-07,  avg # of iterations =  4.6

     negative rho (up, down):  2.047E-04 0.000E+00

     total cpu time spent up to now is      503.4 secs

     total energy              =    -979.51592216 Ry
     estimated scf accuracy    <       0.00013092 Ry

     iteration # 10     ecut=   150.00 Ry     beta= 0.70
     Davidson diagonalization with overlap
     ethr =  2.52E-07,  avg # of iterations =  1.0

     negative rho (up, down):  2.047E-04 0.000E+00

     total cpu time spent up to now is      535.7 secs

     total energy              =    -979.51589312 Ry
     estimated scf accuracy    <       0.00009551 Ry

     iteration # 11     ecut=   150.00 Ry     beta= 0.70
     Davidson diagonalization with overlap
     ethr =  1.84E-07,  avg # of iterations =  3.8

     negative rho (up, down):  2.048E-04 0.000E+00

     total cpu time spent up to now is      579.5 secs

     total energy              =    -979.51591527 Ry
     estimated scf accuracy    <       0.00000914 Ry

     iteration # 12     ecut=   150.00 Ry     beta= 0.70
     Davidson diagonalization with overlap
     ethr =  1.76E-08,  avg # of iterations =  2.7

     negative rho (up, down):  2.047E-04 0.000E+00

     total cpu time spent up to now is      617.9 secs

     total energy              =    -979.51591620 Ry
     estimated scf accuracy    <       0.00000381 Ry

     iteration # 13     ecut=   150.00 Ry     beta= 0.70
     Davidson diagonalization with overlap
     ethr =  7.32E-09,  avg # of iterations =  1.6

     negative rho (up, down):  2.048E-04 0.000E+00

     total cpu time spent up to now is      651.2 secs

     total energy              =    -979.51591626 Ry
     estimated scf accuracy    <       0.00000399 Ry

     iteration # 14     ecut=   150.00 Ry     beta= 0.70
     Davidson diagonalization with overlap
     ethr =  7.32E-09,  avg # of iterations =  1.0

     negative rho (up, down):  2.048E-04 0.000E+00

     total cpu time spent up to now is      683.5 secs

     total energy              =    -979.51591527 Ry
     estimated scf accuracy    <       0.00000416 Ry

     iteration # 15     ecut=   150.00 Ry     beta= 0.70
     Davidson diagonalization with overlap
     ethr =  7.32E-09,  avg # of iterations =  3.2

     negative rho (up, down):  2.049E-04 0.000E+00

     total cpu time spent up to now is      723.7 secs

     total energy              =    -979.51591570 Ry
     estimated scf accuracy    <       0.00000021 Ry

     iteration # 16     ecut=   150.00 Ry     beta= 0.70
     Davidson diagonalization with overlap
     ethr =  4.07E-10,  avg # of iterations =  6.7

     negative rho (up, down):  2.048E-04 0.000E+00

     total cpu time spent up to now is      793.5 secs

     total energy              =    -979.51591561 Ry
     estimated scf accuracy    <       0.00000253 Ry

     iteration # 17     ecut=   150.00 Ry     beta= 0.70
     Davidson diagonalization with overlap
     ethr =  4.07E-10,  avg # of iterations =  5.5

     negative rho (up, down):  2.048E-04 0.000E+00

     total cpu time spent up to now is      850.2 secs

     total energy              =    -979.51591583 Ry
     estimated scf accuracy    <       0.00000004 Ry

     iteration # 18     ecut=   150.00 Ry     beta= 0.70
     Davidson diagonalization with overlap
     ethr =  8.01E-11,  avg # of iterations =  4.0

     negative rho (up, down):  2.048E-04 0.000E+00

     total cpu time spent up to now is      892.2 secs

     total energy              =    -979.51591584 Ry
     estimated scf accuracy    <       0.00000001 Ry

     iteration # 19     ecut=   150.00 Ry     beta= 0.70
     Davidson diagonalization with overlap
     ethr =  2.01E-11,  avg # of iterations =  3.7

     negative rho (up, down):  2.048E-04 0.000E+00

     total cpu time spent up to now is      933.8 secs

     total energy              =    -979.51591584 Ry
     estimated scf accuracy    <          1.0E-09 Ry

     iteration # 20     ecut=   150.00 Ry     beta= 0.70
     Davidson diagonalization with overlap
     ethr =  1.95E-12,  avg # of iterations =  4.9

     negative rho (up, down):  2.048E-04 0.000E+00

     total cpu time spent up to now is      983.3 secs

     total energy              =    -979.51591584 Ry
     estimated scf accuracy    <          3.6E-10 Ry

     iteration # 21     ecut=   150.00 Ry     beta= 0.70
     Davidson diagonalization with overlap
     ethr =  6.98E-13,  avg # of iterations =  4.7

     negative rho (up, down):  2.048E-04 0.000E+00

     total cpu time spent up to now is     1032.6 secs

     total energy              =    -979.51591584 Ry
     estimated scf accuracy    <          3.5E-10 Ry

     iteration # 22     ecut=   150.00 Ry     beta= 0.70
     Davidson diagonalization with overlap
     ethr =  6.66E-13,  avg # of iterations =  2.4

     negative rho (up, down):  2.048E-04 0.000E+00

     total cpu time spent up to now is     1071.2 secs

     total energy              =    -979.51591584 Ry
     estimated scf accuracy    <          1.8E-11 Ry

     iteration # 23     ecut=   150.00 Ry     beta= 0.70
     Davidson diagonalization with overlap
     ethr =  1.00E-13,  avg # of iterations =  4.4

     negative rho (up, down):  2.048E-04 0.000E+00

     total cpu time spent up to now is     1121.2 secs

     total energy              =    -979.51591584 Ry
     estimated scf accuracy    <          3.4E-11 Ry

     iteration # 24     ecut=   150.00 Ry     beta= 0.70
     Davidson diagonalization with overlap
     ethr =  1.00E-13,  avg # of iterations =  1.0

     negative rho (up, down):  2.048E-04 0.000E+00

     total cpu time spent up to now is     1153.3 secs

     total energy              =    -979.51591584 Ry
     estimated scf accuracy    <          1.9E-11 Ry

     iteration # 25     ecut=   150.00 Ry     beta= 0.70
     Davidson diagonalization with overlap
     ethr =  1.00E-13,  avg # of iterations =  2.1

     negative rho (up, down):  2.048E-04 0.000E+00

     total cpu time spent up to now is     1190.2 secs

     End of self-consistent calculation

     Number of k-points >= 100: set verbosity='high' to print the bands.

     highest occupied level (ev):     2.3192

!    total energy              =    -979.51591584 Ry

     total all-electron energy =    -19376.431606 Ry
     estimated scf accuracy    <          2.3E-13 Ry

     The total energy is the sum of the following terms:
     one-electron contribution =   -2756.45904290 Ry
     hartree contribution      =    1389.11021660 Ry
     xc contribution           =     -59.13516593 Ry
     ewald contribution        =    1072.75367452 Ry
     one-center paw contrib.   =    -625.78559814 Ry

     convergence has been achieved in  25 iterations

     negative rho (up, down):  2.048E-04 0.000E+00

     Forces acting on atoms (cartesian axes, Ry/au):

     atom    1 type  1   force =     0.00001296   -0.00005819   -0.00000094
     atom    2 type  2   force =    -0.00000566    0.00002534    0.01026035
     atom    3 type  2   force =    -0.00000765    0.00003364   -0.01043629
     atom    4 type  1   force =    -0.00001296    0.00005819    0.00000094
     atom    5 type  2   force =     0.00000765   -0.00003364    0.01043629
     atom    6 type  2   force =     0.00000566   -0.00002534   -0.01026035

     Total force =     0.020698     Total SCF correction =     0.000003


     Computing stress (Cartesian axis) and pressure


     negative rho (up, down):  2.048E-04 0.000E+00
          total   stress  (Ry/bohr**3)                   (kbar)     P=       12.85
   0.00008865   0.00000009   0.00000001           13.04        0.01        0.00
   0.00000009   0.00008936  -0.00000004            0.01       13.14       -0.01
   0.00000001  -0.00000004   0.00008414            0.00       -0.01       12.38


     Writing output data file /scratch/as3359/Mos2_ct_lat/MoS2.save/
 
     init_run     :     48.08s CPU     26.14s WALL (       1 calls)
     electrons    :   2293.03s CPU   1163.78s WALL (       1 calls)
     forces       :     12.12s CPU      6.12s WALL (       1 calls)
     stress       :     43.34s CPU     21.96s WALL (       1 calls)

     Called by init_run:
     wfcinit      :     38.88s CPU     20.05s WALL (       1 calls)
     potinit      :      2.98s CPU      1.69s WALL (       1 calls)
     hinit0       :      5.17s CPU      3.78s WALL (       1 calls)

     Called by electrons:
     c_bands      :   1957.48s CPU    991.03s WALL (      25 calls)
     sum_band     :    312.75s CPU    159.72s WALL (      25 calls)
     v_of_rho     :      5.54s CPU      2.99s WALL (      26 calls)
     newd         :      9.73s CPU      5.98s WALL (      26 calls)
     PAW_pot      :      5.90s CPU      3.06s WALL (      26 calls)
     mix_rho      :      2.05s CPU      1.21s WALL (      25 calls)

     Called by c_bands:
     init_us_2    :     41.47s CPU     20.76s WALL (    5989 calls)
     cegterg      :   1856.40s CPU    940.06s WALL (    2825 calls)

     Called by *egterg:
     cdiaghg      :     15.97s CPU      8.20s WALL (   13508 calls)
     h_psi        :   1538.92s CPU    780.87s WALL (   13621 calls)
     s_psi        :     72.49s CPU     36.32s WALL (   13621 calls)
     g_psi        :     10.54s CPU      5.29s WALL (   10683 calls)

     Called by h_psi:
     h_psi:calbec :     60.13s CPU     30.13s WALL (   13621 calls)
     vloc_psi     :   1391.19s CPU    706.69s WALL (   13621 calls)
     add_vuspsi   :     75.21s CPU     37.71s WALL (   13621 calls)

     General routines
     calbec       :     81.90s CPU     41.06s WALL (   17011 calls)
     fft          :      2.85s CPU      1.74s WALL (     311 calls)
     ffts         :      0.16s CPU      0.09s WALL (      25 calls)
     fftw         :   1399.48s CPU    711.81s WALL (  518448 calls)
 
     Parallel routines
 
     PWSCF        :  40m 2.21s CPU  20m23.38s WALL

 
   This run was terminated on:  15:27:23  17Apr2022            

=------------------------------------------------------------------------------=
   JOB DONE.
=------------------------------------------------------------------------------=
