
     Program PWSCF v.6.8 starts on 18Apr2022 at 13:29:44 

     This program is part of the open-source Quantum ESPRESSO suite
     for quantum simulation of materials; please cite
         "P. Giannozzi et al., J. Phys.:Condens. Matter 21 395502 (2009);
         "P. Giannozzi et al., J. Phys.:Condens. Matter 29 465901 (2017);
         "P. Giannozzi et al., J. Chem. Phys. 152 154105 (2020);
          URL http://www.quantum-espresso.org", 
     in publications or presentations arising from this work. More details at
     http://www.quantum-espresso.org/quote

     Parallel version (MPI & OpenMP), running on       4 processor cores
     Number of MPI processes:                 2
     Threads/MPI process:                     2

     MPI processes distributed on     1 nodes
     R & G space division:  proc/nbgrp/npool/nimage =       2
     124954 MiB available memory on the printing compute node when the environment starts
 
     Reading input from MoS2.scf.6.079.in
Warning: card  &CELL ignored
Warning: card     CELL_DYNAMICS='BFGS' ignored
Warning: card  / ignored

     Current dimensions of program PWSCF are:
     Max number of different atomic species (ntypx) = 10
     Max number of k-points (npk) =  40000
     Max angular momentum in pseudopotentials (lmaxx) =  4
     Message from routine iosys:
     restart disabled: needed files not found
     file Mo.pbesol-spn-kjpaw_psl.1.0.0.UPF: wavefunction(s)  4S 4D renormalized
     file S.pbesol-nl-kjpaw_psl.1.0.0.UPF: wavefunction(s)  3S renormalized
     Message from routine setup:
     using ibrav=0 with symmetry is DISCOURAGED, use correct ibrav instead

     Subspace diagonalization in iterative solution of the eigenvalue problem:
     a serial algorithm will be used

 
     Parallelization info
     --------------------
     sticks:   dense  smooth     PW     G-vecs:    dense   smooth      PW
     Min         729     729    215               184301   184301   29161
     Max         730     730    218               184316   184316   29168
     Sum        1459    1459    433               368617   368617   58329
 
     Using Slab Decomposition
 


     bravais-lattice index     =            0
     lattice parameter (alat)  =       6.0790  a.u.
     unit-cell volume          =    1486.4037 (a.u.)^3
     number of atoms/cell      =            6
     number of atomic types    =            2
     number of electrons       =        52.00
     number of Kohn-Sham states=           26
     kinetic-energy cutoff     =     150.0000  Ry
     charge density cutoff     =     600.0000  Ry
     scf convergence threshold =      1.0E-12
     mixing beta               =       0.7000
     number of iterations used =            8  plain     mixing
     Exchange-correlation= SLA  PW   PSX  PSC
                           (   1   4  10   8   0   0   0)

     celldm(1)=   6.079000  celldm(2)=   0.000000  celldm(3)=   0.000000
     celldm(4)=   0.000000  celldm(5)=   0.000000  celldm(6)=   0.000000

     crystal axes: (cart. coord. in units of alat)
               a(1) = (   0.977326  -0.000176   0.000000 )  
               a(2) = (  -0.488540   0.846362   0.000000 )  
               a(3) = (   0.000000   0.000000   8.000000 )  

     reciprocal axes: (cart. coord. in units 2 pi/alat)
               b(1) = (  1.023307  0.590676  0.000000 )  
               b(2) = (  0.000213  1.181651  0.000000 )  
               b(3) = (  0.000000  0.000000  0.125000 )  


     PseudoPot. # 1 for Mo read from file:
     /shared/home/as3359/pseudo/Mo.pbesol-spn-kjpaw_psl.1.0.0.UPF
     MD5 check sum: de57925cfc675213e43241dcc441eda8
     Pseudo is Projector augmented-wave + core cor, Zval = 14.0
     Generated using &quot;atomic&quot; code by A. Dal Corso  v.6.3
     Shape of augmentation charge: PSQ
     Using radial grid of 1229 points,  6 beta functions with: 
                l(1) =   0
                l(2) =   0
                l(3) =   1
                l(4) =   1
                l(5) =   2
                l(6) =   2
     Q(r) pseudized with 0 coefficients 


     PseudoPot. # 2 for S  read from file:
     /shared/home/as3359/pseudo/S.pbesol-nl-kjpaw_psl.1.0.0.UPF
     MD5 check sum: bf3db50ec3f960682bbc396f1aadd1dd
     Pseudo is Projector augmented-wave + core cor, Zval =  6.0
     Generated using &quot;atomic&quot; code by A. Dal Corso  v.6.3
     Shape of augmentation charge: PSQ
     Using radial grid of 1151 points,  4 beta functions with: 
                l(1) =   0
                l(2) =   0
                l(3) =   1
                l(4) =   1
     Q(r) pseudized with 0 coefficients 


     atomic species   valence    mass     pseudopotential
        Mo            14.00    95.94000     Mo( 1.00)
        S              6.00    32.06500     S ( 1.00)

      2 Sym. Ops., with inversion, found ( 1 have fractional translation)



   Cartesian axes

     site n.     atom                  positions (alat units)
         1           Mo  tau(   1) = (   0.0000000   0.0000000   0.9844997  )
         2           S   tau(   2) = (   0.4887119   0.2819702   1.4701535  )
         3           S   tau(   3) = (   0.4887135   0.2819635   0.4988906  )
         4           Mo  tau(   4) = (   0.0000000   0.0000000   3.0155003  )
         5           S   tau(   5) = (  -0.4887135  -0.2819635   3.5011094  )
         6           S   tau(   6) = (  -0.4887119  -0.2819702   2.5298465  )

     number of k points=   113

     Number of k-points >= 100: set verbosity='high' to print them.

     Dense  grid:   368617 G-vectors     FFT dimensions: (  48,  48, 384)

     Estimated max dynamical RAM per process >       1.71 GB

     Estimated total dynamical RAM >       3.42 GB
     Cannot read rho : file not found

     Initial potential from superposition of free atoms

     starting charge   51.99828, renormalised to   52.00000

     negative rho (up, down):  1.513E-04 0.000E+00
     Message from routine qexsd_readschema :
     xml data file /scratch/as3359/Mos2_ct_lat/MoS2.save/data-file-schema.xml not fou
     Cannot read wfcs: file not found
     Starting wfcs are   36 randomized atomic wfcs
     Checking if some PAW data can be deallocated... 

     total cpu time spent up to now is       27.1 secs

     Self-consistent Calculation

     iteration #  1     ecut=   150.00 Ry     beta= 0.70
     Davidson diagonalization with overlap
     ethr =  1.00E-05,  avg # of iterations = 10.4

     negative rho (up, down):  1.951E-04 0.000E+00

     total cpu time spent up to now is      154.8 secs

     total energy              =    -979.38724631 Ry
     estimated scf accuracy    <       0.28910250 Ry

     iteration #  2     ecut=   150.00 Ry     beta= 0.70
     Davidson diagonalization with overlap
     ethr =  5.56E-04,  avg # of iterations =  5.0

     negative rho (up, down):  1.850E-04 0.000E+00

     total cpu time spent up to now is      218.9 secs

     total energy              =    -979.31503346 Ry
     estimated scf accuracy    <       1.00890563 Ry

     iteration #  3     ecut=   150.00 Ry     beta= 0.70
     Davidson diagonalization with overlap
     ethr =  5.56E-04,  avg # of iterations =  5.2

     negative rho (up, down):  1.863E-04 0.000E+00

     total cpu time spent up to now is      281.3 secs

     total energy              =    -979.50277233 Ry
     estimated scf accuracy    <       0.09494806 Ry

     iteration #  4     ecut=   150.00 Ry     beta= 0.70
     Davidson diagonalization with overlap
     ethr =  1.83E-04,  avg # of iterations =  2.8

     negative rho (up, down):  1.877E-04 0.000E+00

     total cpu time spent up to now is      328.9 secs

     total energy              =    -979.51091367 Ry
     estimated scf accuracy    <       0.02029143 Ry

     iteration #  5     ecut=   150.00 Ry     beta= 0.70
     Davidson diagonalization with overlap
     ethr =  3.90E-05,  avg # of iterations =  4.0

     negative rho (up, down):  1.947E-04 0.000E+00

     total cpu time spent up to now is      382.6 secs

     total energy              =    -979.51560535 Ry
     estimated scf accuracy    <       0.01311633 Ry

     iteration #  6     ecut=   150.00 Ry     beta= 0.70
     Davidson diagonalization with overlap
     ethr =  2.52E-05,  avg # of iterations =  2.5

     negative rho (up, down):  1.973E-04 0.000E+00

     total cpu time spent up to now is      428.0 secs

     total energy              =    -979.51652914 Ry
     estimated scf accuracy    <       0.00232532 Ry

     iteration #  7     ecut=   150.00 Ry     beta= 0.70
     Davidson diagonalization with overlap
     ethr =  4.47E-06,  avg # of iterations =  4.3

     negative rho (up, down):  1.991E-04 0.000E+00

     total cpu time spent up to now is      481.4 secs

     total energy              =    -979.51687330 Ry
     estimated scf accuracy    <       0.00147596 Ry

     iteration #  8     ecut=   150.00 Ry     beta= 0.70
     Davidson diagonalization with overlap
     ethr =  2.84E-06,  avg # of iterations =  2.0

     negative rho (up, down):  2.009E-04 0.000E+00

     total cpu time spent up to now is      523.3 secs

     total energy              =    -979.51683061 Ry
     estimated scf accuracy    <       0.00054427 Ry

     iteration #  9     ecut=   150.00 Ry     beta= 0.70
     Davidson diagonalization with overlap
     ethr =  1.05E-06,  avg # of iterations =  4.5

     negative rho (up, down):  2.011E-04 0.000E+00

     total cpu time spent up to now is      577.3 secs

     total energy              =    -979.51695350 Ry
     estimated scf accuracy    <       0.00022298 Ry

     iteration # 10     ecut=   150.00 Ry     beta= 0.70
     Davidson diagonalization with overlap
     ethr =  4.29E-07,  avg # of iterations =  1.4

     negative rho (up, down):  2.013E-04 0.000E+00

     total cpu time spent up to now is      616.0 secs

     total energy              =    -979.51690908 Ry
     estimated scf accuracy    <       0.00012761 Ry

     iteration # 11     ecut=   150.00 Ry     beta= 0.70
     Davidson diagonalization with overlap
     ethr =  2.45E-07,  avg # of iterations =  4.5

     negative rho (up, down):  2.013E-04 0.000E+00

     total cpu time spent up to now is      671.9 secs

     total energy              =    -979.51694931 Ry
     estimated scf accuracy    <       0.00004272 Ry

     iteration # 12     ecut=   150.00 Ry     beta= 0.70
     Davidson diagonalization with overlap
     ethr =  8.22E-08,  avg # of iterations =  2.0

     negative rho (up, down):  2.013E-04 0.000E+00

     total cpu time spent up to now is      714.5 secs

     total energy              =    -979.51695149 Ry
     estimated scf accuracy    <       0.00001517 Ry

     iteration # 13     ecut=   150.00 Ry     beta= 0.70
     Davidson diagonalization with overlap
     ethr =  2.92E-08,  avg # of iterations =  1.3

     negative rho (up, down):  2.014E-04 0.000E+00

     total cpu time spent up to now is      752.3 secs

     total energy              =    -979.51695169 Ry
     estimated scf accuracy    <       0.00001304 Ry

     iteration # 14     ecut=   150.00 Ry     beta= 0.70
     Davidson diagonalization with overlap
     ethr =  2.51E-08,  avg # of iterations =  1.0

     negative rho (up, down):  2.014E-04 0.000E+00

     total cpu time spent up to now is      789.7 secs

     total energy              =    -979.51694911 Ry
     estimated scf accuracy    <       0.00001093 Ry

     iteration # 15     ecut=   150.00 Ry     beta= 0.70
     Davidson diagonalization with overlap
     ethr =  2.10E-08,  avg # of iterations =  4.1

     negative rho (up, down):  2.015E-04 0.000E+00

     total cpu time spent up to now is      840.8 secs

     total energy              =    -979.51695125 Ry
     estimated scf accuracy    <       0.00000035 Ry

     iteration # 16     ecut=   150.00 Ry     beta= 0.70
     Davidson diagonalization with overlap
     ethr =  6.66E-10,  avg # of iterations =  6.5

     negative rho (up, down):  2.015E-04 0.000E+00

     total cpu time spent up to now is      922.1 secs

     total energy              =    -979.51695140 Ry
     estimated scf accuracy    <       0.00000374 Ry

     iteration # 17     ecut=   150.00 Ry     beta= 0.70
     Davidson diagonalization with overlap
     ethr =  6.66E-10,  avg # of iterations =  3.0

     negative rho (up, down):  2.014E-04 0.000E+00

     total cpu time spent up to now is      970.5 secs

     total energy              =    -979.51695116 Ry
     estimated scf accuracy    <       0.00000184 Ry

     iteration # 18     ecut=   150.00 Ry     beta= 0.70
     Davidson diagonalization with overlap
     ethr =  6.66E-10,  avg # of iterations =  4.6

     negative rho (up, down):  2.014E-04 0.000E+00

     total cpu time spent up to now is     1028.5 secs

     total energy              =    -979.51695128 Ry
     estimated scf accuracy    <       0.00000028 Ry

     iteration # 19     ecut=   150.00 Ry     beta= 0.70
     Davidson diagonalization with overlap
     ethr =  5.39E-10,  avg # of iterations =  1.0

     negative rho (up, down):  2.014E-04 0.000E+00

     total cpu time spent up to now is     1064.8 secs

     total energy              =    -979.51695126 Ry
     estimated scf accuracy    <       0.00000020 Ry

     iteration # 20     ecut=   150.00 Ry     beta= 0.70
     Davidson diagonalization with overlap
     ethr =  3.85E-10,  avg # of iterations =  2.7

     negative rho (up, down):  2.015E-04 0.000E+00

     total cpu time spent up to now is     1107.3 secs

     total energy              =    -979.51695127 Ry
     estimated scf accuracy    <       0.00000005 Ry

     iteration # 21     ecut=   150.00 Ry     beta= 0.70
     Davidson diagonalization with overlap
     ethr =  9.49E-11,  avg # of iterations =  5.2

     negative rho (up, down):  2.015E-04 0.000E+00

     total cpu time spent up to now is     1168.3 secs

     total energy              =    -979.51695129 Ry
     estimated scf accuracy    <       0.00000002 Ry

     iteration # 22     ecut=   150.00 Ry     beta= 0.70
     Davidson diagonalization with overlap
     ethr =  3.58E-11,  avg # of iterations =  2.5

     negative rho (up, down):  2.015E-04 0.000E+00

     total cpu time spent up to now is     1209.7 secs

     total energy              =    -979.51695129 Ry
     estimated scf accuracy    <       0.00000002 Ry

     iteration # 23     ecut=   150.00 Ry     beta= 0.70
     Davidson diagonalization with overlap
     ethr =  3.58E-11,  avg # of iterations =  1.0

     negative rho (up, down):  2.015E-04 0.000E+00

     total cpu time spent up to now is     1245.9 secs

     total energy              =    -979.51695129 Ry
     estimated scf accuracy    <       0.00000001 Ry

     iteration # 24     ecut=   150.00 Ry     beta= 0.70
     Davidson diagonalization with overlap
     ethr =  2.68E-11,  avg # of iterations =  1.8

     negative rho (up, down):  2.015E-04 0.000E+00

     total cpu time spent up to now is     1285.4 secs

     total energy              =    -979.51695129 Ry
     estimated scf accuracy    <          4.1E-09 Ry

     iteration # 25     ecut=   150.00 Ry     beta= 0.70
     Davidson diagonalization with overlap
     ethr =  7.95E-12,  avg # of iterations =  3.7

     negative rho (up, down):  2.015E-04 0.000E+00

     total cpu time spent up to now is     1333.9 secs

     total energy              =    -979.51695129 Ry
     estimated scf accuracy    <          2.8E-10 Ry

     iteration # 26     ecut=   150.00 Ry     beta= 0.70
     Davidson diagonalization with overlap
     ethr =  5.37E-13,  avg # of iterations =  4.8

     negative rho (up, down):  2.015E-04 0.000E+00

     total cpu time spent up to now is     1389.3 secs

     total energy              =    -979.51695129 Ry
     estimated scf accuracy    <          6.4E-10 Ry

     iteration # 27     ecut=   150.00 Ry     beta= 0.70
     Davidson diagonalization with overlap
     ethr =  5.37E-13,  avg # of iterations =  3.8

     negative rho (up, down):  2.015E-04 0.000E+00

     total cpu time spent up to now is     1441.5 secs

     total energy              =    -979.51695129 Ry
     estimated scf accuracy    <          1.8E-09 Ry

     iteration # 28     ecut=   150.00 Ry     beta= 0.70
     Davidson diagonalization with overlap
     ethr =  5.37E-13,  avg # of iterations =  2.7

     negative rho (up, down):  2.015E-04 0.000E+00

     total cpu time spent up to now is     1490.5 secs

     total energy              =    -979.51695129 Ry
     estimated scf accuracy    <          1.1E-09 Ry

     iteration # 29     ecut=   150.00 Ry     beta= 0.70
     Davidson diagonalization with overlap
     ethr =  5.37E-13,  avg # of iterations =  4.2

     negative rho (up, down):  2.015E-04 0.000E+00

     total cpu time spent up to now is     1547.3 secs

     total energy              =    -979.51695129 Ry
     estimated scf accuracy    <          4.5E-11 Ry

     iteration # 30     ecut=   150.00 Ry     beta= 0.70
     Davidson diagonalization with overlap
     ethr =  1.00E-13,  avg # of iterations =  5.1

     negative rho (up, down):  2.015E-04 0.000E+00

     total cpu time spent up to now is     1614.7 secs

     total energy              =    -979.51695129 Ry
     estimated scf accuracy    <          3.0E-11 Ry

     iteration # 31     ecut=   150.00 Ry     beta= 0.70
     Davidson diagonalization with overlap
     ethr =  1.00E-13,  avg # of iterations =  4.5

     negative rho (up, down):  2.015E-04 0.000E+00

     total cpu time spent up to now is     1673.6 secs

     total energy              =    -979.51695129 Ry
     estimated scf accuracy    <          7.1E-11 Ry

     iteration # 32     ecut=   150.00 Ry     beta= 0.70
     Davidson diagonalization with overlap
     ethr =  1.00E-13,  avg # of iterations =  3.2

     negative rho (up, down):  2.015E-04 0.000E+00

     total cpu time spent up to now is     1724.2 secs

     total energy              =    -979.51695129 Ry
     estimated scf accuracy    <          5.4E-12 Ry

     iteration # 33     ecut=   150.00 Ry     beta= 0.70
     Davidson diagonalization with overlap
     ethr =  1.00E-13,  avg # of iterations =  1.0

     negative rho (up, down):  2.015E-04 0.000E+00

     total cpu time spent up to now is     1760.7 secs

     total energy              =    -979.51695129 Ry
     estimated scf accuracy    <          3.3E-12 Ry

     iteration # 34     ecut=   150.00 Ry     beta= 0.70
     Davidson diagonalization with overlap
     ethr =  1.00E-13,  avg # of iterations =  1.0

     negative rho (up, down):  2.015E-04 0.000E+00

     total cpu time spent up to now is     1799.7 secs

     total energy              =    -979.51695129 Ry
     estimated scf accuracy    <          3.7E-12 Ry

     iteration # 35     ecut=   150.00 Ry     beta= 0.70
     Davidson diagonalization with overlap
     ethr =  1.00E-13,  avg # of iterations =  1.0

     negative rho (up, down):  2.015E-04 0.000E+00

     total cpu time spent up to now is     1837.6 secs

     total energy              =    -979.51695129 Ry
     estimated scf accuracy    <          4.5E-12 Ry

     iteration # 36     ecut=   150.00 Ry     beta= 0.70
     Davidson diagonalization with overlap
     ethr =  1.00E-13,  avg # of iterations =  1.0

     negative rho (up, down):  2.015E-04 0.000E+00

     total cpu time spent up to now is     1877.0 secs

     total energy              =    -979.51695129 Ry
     estimated scf accuracy    <          4.5E-12 Ry

     iteration # 37     ecut=   150.00 Ry     beta= 0.70
     Davidson diagonalization with overlap
     ethr =  1.00E-13,  avg # of iterations =  1.0

     negative rho (up, down):  2.015E-04 0.000E+00

     total cpu time spent up to now is     1915.5 secs

     total energy              =    -979.51695129 Ry
     estimated scf accuracy    <          2.4E-12 Ry

     iteration # 38     ecut=   150.00 Ry     beta= 0.70
     Davidson diagonalization with overlap
     ethr =  1.00E-13,  avg # of iterations =  1.0

     negative rho (up, down):  2.015E-04 0.000E+00

     total cpu time spent up to now is     1957.2 secs

     End of self-consistent calculation

     Number of k-points >= 100: set verbosity='high' to print the bands.

     highest occupied level (ev):     2.1600

!    total energy              =    -979.51695129 Ry

     total all-electron energy =    -19376.432642 Ry
     estimated scf accuracy    <          4.0E-13 Ry

     The total energy is the sum of the following terms:
     one-electron contribution =   -2742.31273508 Ry
     hartree contribution      =    1381.73722390 Ry
     xc contribution           =     -59.03594086 Ry
     ewald contribution        =    1065.87139235 Ry
     one-center paw contrib.   =    -625.77689160 Ry

     convergence has been achieved in  38 iterations

     negative rho (up, down):  2.015E-04 0.000E+00

     Forces acting on atoms (cartesian axes, Ry/au):

     atom    1 type  1   force =     0.00001339   -0.00005849    0.00000018
     atom    2 type  2   force =    -0.00000580    0.00002567   -0.00273129
     atom    3 type  2   force =    -0.00000768    0.00003361    0.00275029
     atom    4 type  1   force =    -0.00001339    0.00005849   -0.00000018
     atom    5 type  2   force =     0.00000768   -0.00003361   -0.00275029
     atom    6 type  2   force =     0.00000580   -0.00002567    0.00273129

     Total force =     0.005483     Total SCF correction =     0.000005


     Computing stress (Cartesian axis) and pressure


     negative rho (up, down):  2.015E-04 0.000E+00
          total   stress  (Ry/bohr**3)                   (kbar)     P=       -2.06
  -0.00001005   0.00000009   0.00000001           -1.48        0.01        0.00
   0.00000009  -0.00000937  -0.00000004            0.01       -1.38       -0.01
   0.00000001  -0.00000004  -0.00002252            0.00       -0.01       -3.31


     Writing output data file /scratch/as3359/Mos2_ct_lat/MoS2.save/
 
     init_run     :     50.12s CPU     26.93s WALL (       1 calls)
     electrons    :   3798.39s CPU   1930.21s WALL (       1 calls)
     forces       :     13.51s CPU      6.86s WALL (       1 calls)
     stress       :     54.37s CPU     27.63s WALL (       1 calls)

     Called by init_run:
     wfcinit      :     42.38s CPU     22.00s WALL (       1 calls)
     potinit      :      2.27s CPU      1.16s WALL (       1 calls)
     hinit0       :      4.34s CPU      3.09s WALL (       1 calls)

     Called by electrons:
     c_bands      :   3199.27s CPU   1620.02s WALL (      38 calls)
     sum_band     :    557.56s CPU    285.52s WALL (      38 calls)
     v_of_rho     :      9.95s CPU      5.43s WALL (      39 calls)
     newd         :     18.54s CPU     12.05s WALL (      39 calls)
     PAW_pot      :      8.72s CPU      4.56s WALL (      39 calls)
     mix_rho      :      4.62s CPU      2.74s WALL (      38 calls)

     Called by c_bands:
     init_us_2    :     76.56s CPU     38.34s WALL (    8927 calls)
     cegterg      :   3034.97s CPU   1537.04s WALL (    4294 calls)

     Called by *egterg:
     cdiaghg      :     21.68s CPU     11.12s WALL (   17961 calls)
     h_psi        :   2479.97s CPU   1258.77s WALL (   18074 calls)
     s_psi        :    124.07s CPU     62.12s WALL (   18074 calls)
     g_psi        :     13.82s CPU      6.93s WALL (   13667 calls)

     Called by h_psi:
     h_psi:calbec :     93.31s CPU     46.77s WALL (   18074 calls)
     vloc_psi     :   2234.75s CPU   1135.66s WALL (   18074 calls)
     add_vuspsi   :    134.19s CPU     67.23s WALL (   18074 calls)

     General routines
     calbec       :    125.58s CPU     62.96s WALL (   22933 calls)
     fft          :      4.15s CPU      2.12s WALL (     454 calls)
     ffts         :      0.33s CPU      0.17s WALL (      38 calls)
     fftw         :   2228.42s CPU   1134.13s WALL (  727796 calls)
 
     Parallel routines
 
     PWSCF        :      1h 5m CPU  33m17.59s WALL

 
   This run was terminated on:  14: 3: 2  18Apr2022            

=------------------------------------------------------------------------------=
   JOB DONE.
=------------------------------------------------------------------------------=
