
     Program PWSCF v.6.8 starts on 17Apr2022 at 13:52:51 

     This program is part of the open-source Quantum ESPRESSO suite
     for quantum simulation of materials; please cite
         "P. Giannozzi et al., J. Phys.:Condens. Matter 21 395502 (2009);
         "P. Giannozzi et al., J. Phys.:Condens. Matter 29 465901 (2017);
         "P. Giannozzi et al., J. Chem. Phys. 152 154105 (2020);
          URL http://www.quantum-espresso.org", 
     in publications or presentations arising from this work. More details at
     http://www.quantum-espresso.org/quote

     Parallel version (MPI & OpenMP), running on       4 processor cores
     Number of MPI processes:                 2
     Threads/MPI process:                     2

     MPI processes distributed on     1 nodes
     R & G space division:  proc/nbgrp/npool/nimage =       2
     125203 MiB available memory on the printing compute node when the environment starts
 
     Reading input from MoS2.scf.6.010.in
Warning: card  &CELL ignored
Warning: card     CELL_DYNAMICS='BFGS' ignored
Warning: card  / ignored

     Current dimensions of program PWSCF are:
     Max number of different atomic species (ntypx) = 10
     Max number of k-points (npk) =  40000
     Max angular momentum in pseudopotentials (lmaxx) =  4
     Message from routine iosys:
     restart disabled: needed files not found
     file Mo.pbesol-spn-kjpaw_psl.1.0.0.UPF: wavefunction(s)  4S 4D renormalized
     file S.pbesol-nl-kjpaw_psl.1.0.0.UPF: wavefunction(s)  3S renormalized
     Message from routine setup:
     using ibrav=0 with symmetry is DISCOURAGED, use correct ibrav instead

     Subspace diagonalization in iterative solution of the eigenvalue problem:
     a serial algorithm will be used

 
     Parallelization info
     --------------------
     sticks:   dense  smooth     PW     G-vecs:    dense   smooth      PW
     Min         708     708    210               178188   178188   28282
     Max         709     709    211               178219   178219   28313
     Sum        1417    1417    421               356407   356407   56595
 
     Using Slab Decomposition
 


     bravais-lattice index     =            0
     lattice parameter (alat)  =       6.0100  a.u.
     unit-cell volume          =    1436.3615 (a.u.)^3
     number of atoms/cell      =            6
     number of atomic types    =            2
     number of electrons       =        52.00
     number of Kohn-Sham states=           26
     kinetic-energy cutoff     =     150.0000  Ry
     charge density cutoff     =     600.0000  Ry
     scf convergence threshold =      1.0E-12
     mixing beta               =       0.7000
     number of iterations used =            8  plain     mixing
     Exchange-correlation= SLA  PW   PSX  PSC
                           (   1   4  10   8   0   0   0)

     celldm(1)=   6.010000  celldm(2)=   0.000000  celldm(3)=   0.000000
     celldm(4)=   0.000000  celldm(5)=   0.000000  celldm(6)=   0.000000

     crystal axes: (cart. coord. in units of alat)
               a(1) = (   0.977326  -0.000176   0.000000 )  
               a(2) = (  -0.488540   0.846362   0.000000 )  
               a(3) = (   0.000000   0.000000   8.000000 )  

     reciprocal axes: (cart. coord. in units 2 pi/alat)
               b(1) = (  1.023307  0.590676  0.000000 )  
               b(2) = (  0.000213  1.181651  0.000000 )  
               b(3) = (  0.000000  0.000000  0.125000 )  


     PseudoPot. # 1 for Mo read from file:
     /shared/home/as3359/pseudo/Mo.pbesol-spn-kjpaw_psl.1.0.0.UPF
     MD5 check sum: de57925cfc675213e43241dcc441eda8
     Pseudo is Projector augmented-wave + core cor, Zval = 14.0
     Generated using &quot;atomic&quot; code by A. Dal Corso  v.6.3
     Shape of augmentation charge: PSQ
     Using radial grid of 1229 points,  6 beta functions with: 
                l(1) =   0
                l(2) =   0
                l(3) =   1
                l(4) =   1
                l(5) =   2
                l(6) =   2
     Q(r) pseudized with 0 coefficients 


     PseudoPot. # 2 for S  read from file:
     /shared/home/as3359/pseudo/S.pbesol-nl-kjpaw_psl.1.0.0.UPF
     MD5 check sum: bf3db50ec3f960682bbc396f1aadd1dd
     Pseudo is Projector augmented-wave + core cor, Zval =  6.0
     Generated using &quot;atomic&quot; code by A. Dal Corso  v.6.3
     Shape of augmentation charge: PSQ
     Using radial grid of 1151 points,  4 beta functions with: 
                l(1) =   0
                l(2) =   0
                l(3) =   1
                l(4) =   1
     Q(r) pseudized with 0 coefficients 


     atomic species   valence    mass     pseudopotential
        Mo            14.00    95.94000     Mo( 1.00)
        S              6.00    32.06500     S ( 1.00)

      2 Sym. Ops., with inversion, found ( 1 have fractional translation)



   Cartesian axes

     site n.     atom                  positions (alat units)
         1           Mo  tau(   1) = (   0.0000000   0.0000000   0.9844997  )
         2           S   tau(   2) = (   0.4887119   0.2819702   1.4701535  )
         3           S   tau(   3) = (   0.4887135   0.2819635   0.4988906  )
         4           Mo  tau(   4) = (   0.0000000   0.0000000   3.0155003  )
         5           S   tau(   5) = (  -0.4887135  -0.2819635   3.5011094  )
         6           S   tau(   6) = (  -0.4887119  -0.2819702   2.5298465  )

     number of k points=   113

     Number of k-points >= 100: set verbosity='high' to print them.

     Dense  grid:   356407 G-vectors     FFT dimensions: (  45,  45, 384)

     Estimated max dynamical RAM per process >       1.65 GB

     Estimated total dynamical RAM >       3.30 GB
     Cannot read rho : file not found

     Initial potential from superposition of free atoms

     starting charge   51.99828, renormalised to   52.00000

     negative rho (up, down):  1.547E-04 0.000E+00
     Message from routine qexsd_readschema :
     xml data file /scratch/as3359/Mos2_ct_lat/MoS2.save/data-file-schema.xml not fou
     Cannot read wfcs: file not found
     Starting wfcs are   36 randomized atomic wfcs
     Checking if some PAW data can be deallocated... 

     total cpu time spent up to now is       27.2 secs

     Self-consistent Calculation

     iteration #  1     ecut=   150.00 Ry     beta= 0.70
     Davidson diagonalization with overlap
     ethr =  1.00E-05,  avg # of iterations = 10.5

     negative rho (up, down):  2.006E-04 0.000E+00

     total cpu time spent up to now is      149.4 secs

     total energy              =    -979.35911108 Ry
     estimated scf accuracy    <       0.32783620 Ry

     iteration #  2     ecut=   150.00 Ry     beta= 0.70
     Davidson diagonalization with overlap
     ethr =  6.30E-04,  avg # of iterations =  5.1

     negative rho (up, down):  1.877E-04 0.000E+00

     total cpu time spent up to now is      211.1 secs

     total energy              =    -979.26148002 Ry
     estimated scf accuracy    <       1.33084879 Ry

     iteration #  3     ecut=   150.00 Ry     beta= 0.70
     Davidson diagonalization with overlap
     ethr =  6.30E-04,  avg # of iterations =  5.4

     negative rho (up, down):  1.880E-04 0.000E+00

     total cpu time spent up to now is      270.9 secs

     total energy              =    -979.49968628 Ry
     estimated scf accuracy    <       0.07696791 Ry

     iteration #  4     ecut=   150.00 Ry     beta= 0.70
     Davidson diagonalization with overlap
     ethr =  1.48E-04,  avg # of iterations =  3.1

     negative rho (up, down):  1.896E-04 0.000E+00

     total cpu time spent up to now is      317.3 secs

     total energy              =    -979.50657953 Ry
     estimated scf accuracy    <       0.03091476 Ry

     iteration #  5     ecut=   150.00 Ry     beta= 0.70
     Davidson diagonalization with overlap
     ethr =  5.95E-05,  avg # of iterations =  3.4

     negative rho (up, down):  1.990E-04 0.000E+00

     total cpu time spent up to now is      364.4 secs

     total energy              =    -979.51237970 Ry
     estimated scf accuracy    <       0.00494218 Ry

     iteration #  6     ecut=   150.00 Ry     beta= 0.70
     Davidson diagonalization with overlap
     ethr =  9.50E-06,  avg # of iterations =  3.8

     negative rho (up, down):  2.034E-04 0.000E+00

     total cpu time spent up to now is      410.9 secs

     total energy              =    -979.51285177 Ry
     estimated scf accuracy    <       0.00107095 Ry

     iteration #  7     ecut=   150.00 Ry     beta= 0.70
     Davidson diagonalization with overlap
     ethr =  2.06E-06,  avg # of iterations =  4.5

     negative rho (up, down):  2.052E-04 0.000E+00

     total cpu time spent up to now is      461.2 secs

     total energy              =    -979.51307569 Ry
     estimated scf accuracy    <       0.00031699 Ry

     iteration #  8     ecut=   150.00 Ry     beta= 0.70
     Davidson diagonalization with overlap
     ethr =  6.10E-07,  avg # of iterations =  2.8

     negative rho (up, down):  2.063E-04 0.000E+00

     total cpu time spent up to now is      503.9 secs

     total energy              =    -979.51309201 Ry
     estimated scf accuracy    <       0.00007501 Ry

     iteration #  9     ecut=   150.00 Ry     beta= 0.70
     Davidson diagonalization with overlap
     ethr =  1.44E-07,  avg # of iterations =  4.7

     negative rho (up, down):  2.063E-04 0.000E+00

     total cpu time spent up to now is      558.0 secs

     total energy              =    -979.51311550 Ry
     estimated scf accuracy    <       0.00004129 Ry

     iteration # 10     ecut=   150.00 Ry     beta= 0.70
     Davidson diagonalization with overlap
     ethr =  7.94E-08,  avg # of iterations =  1.1

     negative rho (up, down):  2.064E-04 0.000E+00

     total cpu time spent up to now is      593.8 secs

     total energy              =    -979.51310777 Ry
     estimated scf accuracy    <       0.00002776 Ry

     iteration # 11     ecut=   150.00 Ry     beta= 0.70
     Davidson diagonalization with overlap
     ethr =  5.34E-08,  avg # of iterations =  3.6

     negative rho (up, down):  2.063E-04 0.000E+00

     total cpu time spent up to now is      642.2 secs

     total energy              =    -979.51311411 Ry
     estimated scf accuracy    <       0.00000204 Ry

     iteration # 12     ecut=   150.00 Ry     beta= 0.70
     Davidson diagonalization with overlap
     ethr =  3.91E-09,  avg # of iterations =  3.6

     negative rho (up, down):  2.063E-04 0.000E+00

     total cpu time spent up to now is      687.5 secs

     total energy              =    -979.51311432 Ry
     estimated scf accuracy    <       0.00000130 Ry

     iteration # 13     ecut=   150.00 Ry     beta= 0.70
     Davidson diagonalization with overlap
     ethr =  2.51E-09,  avg # of iterations =  1.4

     negative rho (up, down):  2.064E-04 0.000E+00

     total cpu time spent up to now is      723.9 secs

     total energy              =    -979.51311406 Ry
     estimated scf accuracy    <       0.00000099 Ry

     iteration # 14     ecut=   150.00 Ry     beta= 0.70
     Davidson diagonalization with overlap
     ethr =  1.91E-09,  avg # of iterations =  3.6

     negative rho (up, down):  2.064E-04 0.000E+00

     total cpu time spent up to now is      770.9 secs

     total energy              =    -979.51311426 Ry
     estimated scf accuracy    <       0.00000001 Ry

     iteration # 15     ecut=   150.00 Ry     beta= 0.70
     Davidson diagonalization with overlap
     ethr =  1.92E-11,  avg # of iterations =  8.6

     negative rho (up, down):  2.064E-04 0.000E+00

     total cpu time spent up to now is      868.5 secs

     total energy              =    -979.51311427 Ry
     estimated scf accuracy    <       0.00000036 Ry

     iteration # 16     ecut=   150.00 Ry     beta= 0.70
     Davidson diagonalization with overlap
     ethr =  1.92E-11,  avg # of iterations =  4.1

     negative rho (up, down):  2.064E-04 0.000E+00

     total cpu time spent up to now is      923.0 secs

     total energy              =    -979.51311424 Ry
     estimated scf accuracy    <       0.00000014 Ry

     iteration # 17     ecut=   150.00 Ry     beta= 0.70
     Davidson diagonalization with overlap
     ethr =  1.92E-11,  avg # of iterations =  6.6

     negative rho (up, down):  2.064E-04 0.000E+00

     total cpu time spent up to now is      998.4 secs

     total energy              =    -979.51311426 Ry
     estimated scf accuracy    <       0.00000002 Ry

     iteration # 18     ecut=   150.00 Ry     beta= 0.70
     Davidson diagonalization with overlap
     ethr =  1.92E-11,  avg # of iterations =  1.7

     negative rho (up, down):  2.064E-04 0.000E+00

     total cpu time spent up to now is     1035.9 secs

     total energy              =    -979.51311426 Ry
     estimated scf accuracy    <          7.5E-09 Ry

     iteration # 19     ecut=   150.00 Ry     beta= 0.70
     Davidson diagonalization with overlap
     ethr =  1.44E-11,  avg # of iterations =  2.9

     negative rho (up, down):  2.064E-04 0.000E+00

     total cpu time spent up to now is     1081.3 secs

     total energy              =    -979.51311426 Ry
     estimated scf accuracy    <          2.3E-11 Ry

     iteration # 20     ecut=   150.00 Ry     beta= 0.70
     Davidson diagonalization with overlap
     ethr =  1.00E-13,  avg # of iterations =  7.6

     negative rho (up, down):  2.064E-04 0.000E+00

     total cpu time spent up to now is     1166.4 secs

     total energy              =    -979.51311426 Ry
     estimated scf accuracy    <          6.4E-10 Ry

     iteration # 21     ecut=   150.00 Ry     beta= 0.70
     Davidson diagonalization with overlap
     ethr =  1.00E-13,  avg # of iterations =  5.4

     negative rho (up, down):  2.064E-04 0.000E+00

     total cpu time spent up to now is     1235.8 secs

     total energy              =    -979.51311426 Ry
     estimated scf accuracy    <          6.5E-11 Ry

     iteration # 22     ecut=   150.00 Ry     beta= 0.70
     Davidson diagonalization with overlap
     ethr =  1.00E-13,  avg # of iterations =  1.9

     negative rho (up, down):  2.064E-04 0.000E+00

     total cpu time spent up to now is     1274.3 secs

     total energy              =    -979.51311426 Ry
     estimated scf accuracy    <          1.8E-11 Ry

     iteration # 23     ecut=   150.00 Ry     beta= 0.70
     Davidson diagonalization with overlap
     ethr =  1.00E-13,  avg # of iterations =  1.0

     negative rho (up, down):  2.064E-04 0.000E+00

     total cpu time spent up to now is     1309.9 secs

     total energy              =    -979.51311426 Ry
     estimated scf accuracy    <          1.6E-11 Ry

     iteration # 24     ecut=   150.00 Ry     beta= 0.70
     Davidson diagonalization with overlap
     ethr =  1.00E-13,  avg # of iterations =  1.0

     negative rho (up, down):  2.064E-04 0.000E+00

     total cpu time spent up to now is     1345.5 secs

     total energy              =    -979.51311426 Ry
     estimated scf accuracy    <          7.4E-12 Ry

     iteration # 25     ecut=   150.00 Ry     beta= 0.70
     Davidson diagonalization with overlap
     ethr =  1.00E-13,  avg # of iterations =  1.0

     negative rho (up, down):  2.064E-04 0.000E+00

     total cpu time spent up to now is     1381.1 secs

     total energy              =    -979.51311426 Ry
     estimated scf accuracy    <          3.0E-12 Ry

     iteration # 26     ecut=   150.00 Ry     beta= 0.70
     Davidson diagonalization with overlap
     ethr =  1.00E-13,  avg # of iterations =  1.0

     negative rho (up, down):  2.064E-04 0.000E+00

     total cpu time spent up to now is     1416.6 secs

     End of self-consistent calculation

     Number of k-points >= 100: set verbosity='high' to print the bands.

     highest occupied level (ev):     2.4439

!    total energy              =    -979.51311426 Ry

     total all-electron energy =    -19376.428805 Ry
     estimated scf accuracy    <          3.7E-13 Ry

     The total energy is the sum of the following terms:
     one-electron contribution =   -2767.46285057 Ry
     hartree contribution      =    1394.84726151 Ry
     xc contribution           =     -59.21344841 Ry
     ewald contribution        =    1078.10851815 Ry
     one-center paw contrib.   =    -625.79259495 Ry

     convergence has been achieved in  26 iterations

     negative rho (up, down):  2.064E-04 0.000E+00

     Forces acting on atoms (cartesian axes, Ry/au):

     atom    1 type  1   force =     0.00001290   -0.00005795   -0.00000290
     atom    2 type  2   force =    -0.00000557    0.00002506    0.02081174
     atom    3 type  2   force =    -0.00000760    0.00003363   -0.02115462
     atom    4 type  1   force =    -0.00001290    0.00005795    0.00000290
     atom    5 type  2   force =     0.00000760   -0.00003363    0.02115462
     atom    6 type  2   force =     0.00000557   -0.00002506   -0.02081174

     Total force =     0.041968     Total SCF correction =     0.000004


     Computing stress (Cartesian axis) and pressure


     negative rho (up, down):  2.064E-04 0.000E+00
          total   stress  (Ry/bohr**3)                   (kbar)     P=       25.27
   0.00017092   0.00000009   0.00000001           25.14        0.01        0.00
   0.00000009   0.00017164  -0.00000004            0.01       25.25       -0.01
   0.00000001  -0.00000004   0.00017283            0.00       -0.01       25.42


     Writing output data file /scratch/as3359/Mos2_ct_lat/MoS2.save/
 
     init_run     :     50.66s CPU     27.06s WALL (       1 calls)
     electrons    :   2743.55s CPU   1389.48s WALL (       1 calls)
     forces       :     11.90s CPU      6.01s WALL (       1 calls)
     stress       :     44.03s CPU     22.36s WALL (       1 calls)

     Called by init_run:
     wfcinit      :     42.61s CPU     21.89s WALL (       1 calls)
     potinit      :      2.21s CPU      1.13s WALL (       1 calls)
     hinit0       :      4.80s CPU      3.44s WALL (       1 calls)

     Called by electrons:
     c_bands      :   2359.99s CPU   1192.68s WALL (      26 calls)
     sum_band     :    360.56s CPU    183.59s WALL (      26 calls)
     v_of_rho     :      5.26s CPU      2.86s WALL (      27 calls)
     newd         :      9.90s CPU      6.06s WALL (      27 calls)
     PAW_pot      :      6.13s CPU      3.21s WALL (      27 calls)
     mix_rho      :      2.10s CPU      1.23s WALL (      26 calls)

     Called by c_bands:
     init_us_2    :     42.06s CPU     21.06s WALL (    6215 calls)
     cegterg      :   2257.37s CPU   1140.88s WALL (    2938 calls)

     Called by *egterg:
     cdiaghg      :     17.06s CPU      8.74s WALL (   14183 calls)
     h_psi        :   1914.08s CPU    968.67s WALL (   14296 calls)
     s_psi        :     79.74s CPU     39.98s WALL (   14296 calls)
     g_psi        :     11.53s CPU      5.79s WALL (   11245 calls)

     Called by h_psi:
     h_psi:calbec :     63.68s CPU     31.91s WALL (   14296 calls)
     vloc_psi     :   1753.64s CPU    888.10s WALL (   14296 calls)
     add_vuspsi   :     83.70s CPU     41.99s WALL (   14296 calls)

     General routines
     calbec       :     88.23s CPU     44.25s WALL (   17799 calls)
     fft          :      2.56s CPU      1.45s WALL (     322 calls)
     ffts         :      0.16s CPU      0.08s WALL (      26 calls)
     fftw         :   1821.67s CPU    923.17s WALL (  562514 calls)
 
     Parallel routines
 
     PWSCF        :  47m35.98s CPU  24m10.27s WALL

 
   This run was terminated on:  14:17: 1  17Apr2022            

=------------------------------------------------------------------------------=
   JOB DONE.
=------------------------------------------------------------------------------=
