
     Program PWSCF v.6.8 starts on 17Apr2022 at 18: 5: 9 

     This program is part of the open-source Quantum ESPRESSO suite
     for quantum simulation of materials; please cite
         "P. Giannozzi et al., J. Phys.:Condens. Matter 21 395502 (2009);
         "P. Giannozzi et al., J. Phys.:Condens. Matter 29 465901 (2017);
         "P. Giannozzi et al., J. Chem. Phys. 152 154105 (2020);
          URL http://www.quantum-espresso.org", 
     in publications or presentations arising from this work. More details at
     http://www.quantum-espresso.org/quote

     Parallel version (MPI & OpenMP), running on       4 processor cores
     Number of MPI processes:                 2
     Threads/MPI process:                     2

     MPI processes distributed on     1 nodes
     R & G space division:  proc/nbgrp/npool/nimage =       2
     124983 MiB available memory on the printing compute node when the environment starts
 
     Reading input from MoS2.scf.6.110.in
Warning: card  &CELL ignored
Warning: card     CELL_DYNAMICS='BFGS' ignored
Warning: card  / ignored

     Current dimensions of program PWSCF are:
     Max number of different atomic species (ntypx) = 10
     Max number of k-points (npk) =  40000
     Max angular momentum in pseudopotentials (lmaxx) =  4
     Message from routine iosys:
     restart disabled: needed files not found
     file Mo.pbesol-spn-kjpaw_psl.1.0.0.UPF: wavefunction(s)  4S 4D renormalized
     file S.pbesol-nl-kjpaw_psl.1.0.0.UPF: wavefunction(s)  3S renormalized
     Message from routine setup:
     using ibrav=0 with symmetry is DISCOURAGED, use correct ibrav instead

     Subspace diagonalization in iterative solution of the eigenvalue problem:
     a serial algorithm will be used

 
     Parallelization info
     --------------------
     sticks:   dense  smooth     PW     G-vecs:    dense   smooth      PW
     Min         741     741    216               187459   187459   29567
     Max         742     742    217               187488   187488   29570
     Sum        1483    1483    433               374947   374947   59137
 
     Using Slab Decomposition
 


     bravais-lattice index     =            0
     lattice parameter (alat)  =       6.1100  a.u.
     unit-cell volume          =    1509.2597 (a.u.)^3
     number of atoms/cell      =            6
     number of atomic types    =            2
     number of electrons       =        52.00
     number of Kohn-Sham states=           26
     kinetic-energy cutoff     =     150.0000  Ry
     charge density cutoff     =     600.0000  Ry
     scf convergence threshold =      1.0E-12
     mixing beta               =       0.7000
     number of iterations used =            8  plain     mixing
     Exchange-correlation= SLA  PW   PSX  PSC
                           (   1   4  10   8   0   0   0)

     celldm(1)=   6.110000  celldm(2)=   0.000000  celldm(3)=   0.000000
     celldm(4)=   0.000000  celldm(5)=   0.000000  celldm(6)=   0.000000

     crystal axes: (cart. coord. in units of alat)
               a(1) = (   0.977326  -0.000176   0.000000 )  
               a(2) = (  -0.488540   0.846362   0.000000 )  
               a(3) = (   0.000000   0.000000   8.000000 )  

     reciprocal axes: (cart. coord. in units 2 pi/alat)
               b(1) = (  1.023307  0.590676  0.000000 )  
               b(2) = (  0.000213  1.181651  0.000000 )  
               b(3) = (  0.000000  0.000000  0.125000 )  


     PseudoPot. # 1 for Mo read from file:
     /shared/home/as3359/pseudo/Mo.pbesol-spn-kjpaw_psl.1.0.0.UPF
     MD5 check sum: de57925cfc675213e43241dcc441eda8
     Pseudo is Projector augmented-wave + core cor, Zval = 14.0
     Generated using &quot;atomic&quot; code by A. Dal Corso  v.6.3
     Shape of augmentation charge: PSQ
     Using radial grid of 1229 points,  6 beta functions with: 
                l(1) =   0
                l(2) =   0
                l(3) =   1
                l(4) =   1
                l(5) =   2
                l(6) =   2
     Q(r) pseudized with 0 coefficients 


     PseudoPot. # 2 for S  read from file:
     /shared/home/as3359/pseudo/S.pbesol-nl-kjpaw_psl.1.0.0.UPF
     MD5 check sum: bf3db50ec3f960682bbc396f1aadd1dd
     Pseudo is Projector augmented-wave + core cor, Zval =  6.0
     Generated using &quot;atomic&quot; code by A. Dal Corso  v.6.3
     Shape of augmentation charge: PSQ
     Using radial grid of 1151 points,  4 beta functions with: 
                l(1) =   0
                l(2) =   0
                l(3) =   1
                l(4) =   1
     Q(r) pseudized with 0 coefficients 


     atomic species   valence    mass     pseudopotential
        Mo            14.00    95.94000     Mo( 1.00)
        S              6.00    32.06500     S ( 1.00)

      2 Sym. Ops., with inversion, found ( 1 have fractional translation)



   Cartesian axes

     site n.     atom                  positions (alat units)
         1           Mo  tau(   1) = (   0.0000000   0.0000000   0.9844997  )
         2           S   tau(   2) = (   0.4887119   0.2819702   1.4701535  )
         3           S   tau(   3) = (   0.4887135   0.2819635   0.4988906  )
         4           Mo  tau(   4) = (   0.0000000   0.0000000   3.0155003  )
         5           S   tau(   5) = (  -0.4887135  -0.2819635   3.5011094  )
         6           S   tau(   6) = (  -0.4887119  -0.2819702   2.5298465  )

     number of k points=   113

     Number of k-points >= 100: set verbosity='high' to print them.

     Dense  grid:   374947 G-vectors     FFT dimensions: (  48,  48, 384)

     Estimated max dynamical RAM per process >       1.73 GB

     Estimated total dynamical RAM >       3.47 GB
     Cannot read rho : file not found

     Initial potential from superposition of free atoms

     starting charge   51.99828, renormalised to   52.00000

     negative rho (up, down):  1.607E-04 0.000E+00
     Message from routine qexsd_readschema :
     xml data file /scratch/as3359/Mos2_ct_lat/MoS2.save/data-file-schema.xml not fou
     Cannot read wfcs: file not found
     Starting wfcs are   36 randomized atomic wfcs
     Checking if some PAW data can be deallocated... 

     total cpu time spent up to now is       26.5 secs

     Self-consistent Calculation

     iteration #  1     ecut=   150.00 Ry     beta= 0.70
     Davidson diagonalization with overlap
     ethr =  1.00E-05,  avg # of iterations = 10.4

     negative rho (up, down):  2.071E-04 0.000E+00

     total cpu time spent up to now is      137.6 secs

     total energy              =    -979.39580610 Ry
     estimated scf accuracy    <       0.27349851 Ry

     iteration #  2     ecut=   150.00 Ry     beta= 0.70
     Davidson diagonalization with overlap
     ethr =  5.26E-04,  avg # of iterations =  4.8

     negative rho (up, down):  1.979E-04 0.000E+00

     total cpu time spent up to now is      192.3 secs

     total energy              =    -979.33577725 Ry
     estimated scf accuracy    <       0.87307416 Ry

     iteration #  3     ecut=   150.00 Ry     beta= 0.70
     Davidson diagonalization with overlap
     ethr =  5.26E-04,  avg # of iterations =  5.2

     negative rho (up, down):  1.998E-04 0.000E+00

     total cpu time spent up to now is      246.4 secs

     total energy              =    -979.50043306 Ry
     estimated scf accuracy    <       0.10487764 Ry

     iteration #  4     ecut=   150.00 Ry     beta= 0.70
     Davidson diagonalization with overlap
     ethr =  2.02E-04,  avg # of iterations =  2.8

     negative rho (up, down):  2.010E-04 0.000E+00

     total cpu time spent up to now is      287.2 secs

     total energy              =    -979.50957790 Ry
     estimated scf accuracy    <       0.01868207 Ry

     iteration #  5     ecut=   150.00 Ry     beta= 0.70
     Davidson diagonalization with overlap
     ethr =  3.59E-05,  avg # of iterations =  4.6

     negative rho (up, down):  2.075E-04 0.000E+00

     total cpu time spent up to now is      336.1 secs

     total energy              =    -979.51427059 Ry
     estimated scf accuracy    <       0.01636264 Ry

     iteration #  6     ecut=   150.00 Ry     beta= 0.70
     Davidson diagonalization with overlap
     ethr =  3.15E-05,  avg # of iterations =  2.5

     negative rho (up, down):  2.099E-04 0.000E+00

     total cpu time spent up to now is      375.5 secs

     total energy              =    -979.51528628 Ry
     estimated scf accuracy    <       0.00329270 Ry

     iteration #  7     ecut=   150.00 Ry     beta= 0.70
     Davidson diagonalization with overlap
     ethr =  6.33E-06,  avg # of iterations =  4.0

     negative rho (up, down):  2.118E-04 0.000E+00

     total cpu time spent up to now is      420.2 secs

     total energy              =    -979.51569499 Ry
     estimated scf accuracy    <       0.00156933 Ry

     iteration #  8     ecut=   150.00 Ry     beta= 0.70
     Davidson diagonalization with overlap
     ethr =  3.02E-06,  avg # of iterations =  2.0

     negative rho (up, down):  2.139E-04 0.000E+00

     total cpu time spent up to now is      457.4 secs

     total energy              =    -979.51565419 Ry
     estimated scf accuracy    <       0.00064399 Ry

     iteration #  9     ecut=   150.00 Ry     beta= 0.70
     Davidson diagonalization with overlap
     ethr =  1.24E-06,  avg # of iterations =  4.4

     negative rho (up, down):  2.140E-04 0.000E+00

     total cpu time spent up to now is      503.7 secs

     total energy              =    -979.51578289 Ry
     estimated scf accuracy    <       0.00025151 Ry

     iteration # 10     ecut=   150.00 Ry     beta= 0.70
     Davidson diagonalization with overlap
     ethr =  4.84E-07,  avg # of iterations =  1.7

     negative rho (up, down):  2.141E-04 0.000E+00

     total cpu time spent up to now is      538.1 secs

     total energy              =    -979.51574115 Ry
     estimated scf accuracy    <       0.00012518 Ry

     iteration # 11     ecut=   150.00 Ry     beta= 0.70
     Davidson diagonalization with overlap
     ethr =  2.41E-07,  avg # of iterations =  4.5

     negative rho (up, down):  2.143E-04 0.000E+00

     total cpu time spent up to now is      586.5 secs

     total energy              =    -979.51578484 Ry
     estimated scf accuracy    <       0.00005440 Ry

     iteration # 12     ecut=   150.00 Ry     beta= 0.70
     Davidson diagonalization with overlap
     ethr =  1.05E-07,  avg # of iterations =  1.5

     negative rho (up, down):  2.143E-04 0.000E+00

     total cpu time spent up to now is      620.3 secs

     total energy              =    -979.51578413 Ry
     estimated scf accuracy    <       0.00002575 Ry

     iteration # 13     ecut=   150.00 Ry     beta= 0.70
     Davidson diagonalization with overlap
     ethr =  4.95E-08,  avg # of iterations =  2.0

     negative rho (up, down):  2.144E-04 0.000E+00

     total cpu time spent up to now is      655.2 secs

     total energy              =    -979.51578318 Ry
     estimated scf accuracy    <       0.00001123 Ry

     iteration # 14     ecut=   150.00 Ry     beta= 0.70
     Davidson diagonalization with overlap
     ethr =  2.16E-08,  avg # of iterations =  4.2

     negative rho (up, down):  2.144E-04 0.000E+00

     total cpu time spent up to now is      700.1 secs

     total energy              =    -979.51578542 Ry
     estimated scf accuracy    <       0.00000001 Ry

     iteration # 15     ecut=   150.00 Ry     beta= 0.70
     Davidson diagonalization with overlap
     c_bands:  1 eigenvalues not converged
     ethr =  2.59E-11,  avg # of iterations = 14.1

     negative rho (up, down):  2.144E-04 0.000E+00

     total cpu time spent up to now is      835.9 secs

     total energy              =    -979.51578576 Ry
     estimated scf accuracy    <       0.00000533 Ry

     iteration # 16     ecut=   150.00 Ry     beta= 0.70
     Davidson diagonalization with overlap
     ethr =  2.59E-11,  avg # of iterations =  7.7

     negative rho (up, down):  2.144E-04 0.000E+00

     total cpu time spent up to now is      916.1 secs

     total energy              =    -979.51578507 Ry
     estimated scf accuracy    <       0.00000205 Ry

     iteration # 17     ecut=   150.00 Ry     beta= 0.70
     Davidson diagonalization with overlap
     ethr =  2.59E-11,  avg # of iterations = 11.1

     negative rho (up, down):  2.144E-04 0.000E+00

     total cpu time spent up to now is     1028.6 secs

     total energy              =    -979.51578546 Ry
     estimated scf accuracy    <       0.00000116 Ry

     iteration # 18     ecut=   150.00 Ry     beta= 0.70
     Davidson diagonalization with overlap
     ethr =  2.59E-11,  avg # of iterations =  8.2

     negative rho (up, down):  2.144E-04 0.000E+00

     total cpu time spent up to now is     1115.3 secs

     total energy              =    -979.51578560 Ry
     estimated scf accuracy    <          6.0E-09 Ry

     iteration # 19     ecut=   150.00 Ry     beta= 0.70
     Davidson diagonalization with overlap
     ethr =  1.15E-11,  avg # of iterations =  3.3

     negative rho (up, down):  2.144E-04 0.000E+00

     total cpu time spent up to now is     1158.3 secs

     total energy              =    -979.51578560 Ry
     estimated scf accuracy    <          1.4E-10 Ry

     iteration # 20     ecut=   150.00 Ry     beta= 0.70
     Davidson diagonalization with overlap
     ethr =  2.76E-13,  avg # of iterations =  5.8

     negative rho (up, down):  2.144E-04 0.000E+00

     total cpu time spent up to now is     1218.4 secs

     total energy              =    -979.51578560 Ry
     estimated scf accuracy    <          5.5E-10 Ry

     iteration # 21     ecut=   150.00 Ry     beta= 0.70
     Davidson diagonalization with overlap
     ethr =  2.76E-13,  avg # of iterations =  5.4

     negative rho (up, down):  2.144E-04 0.000E+00

     total cpu time spent up to now is     1274.0 secs

     total energy              =    -979.51578560 Ry
     estimated scf accuracy    <          8.2E-11 Ry

     iteration # 22     ecut=   150.00 Ry     beta= 0.70
     Davidson diagonalization with overlap
     ethr =  1.57E-13,  avg # of iterations =  1.0

     negative rho (up, down):  2.144E-04 0.000E+00

     total cpu time spent up to now is     1306.7 secs

     total energy              =    -979.51578560 Ry
     estimated scf accuracy    <          4.6E-11 Ry

     iteration # 23     ecut=   150.00 Ry     beta= 0.70
     Davidson diagonalization with overlap
     ethr =  1.00E-13,  avg # of iterations =  5.2

     negative rho (up, down):  2.144E-04 0.000E+00

     total cpu time spent up to now is     1357.7 secs

     total energy              =    -979.51578560 Ry
     estimated scf accuracy    <          9.0E-11 Ry

     iteration # 24     ecut=   150.00 Ry     beta= 0.70
     Davidson diagonalization with overlap
     ethr =  1.00E-13,  avg # of iterations =  2.4

     negative rho (up, down):  2.144E-04 0.000E+00

     total cpu time spent up to now is     1395.6 secs

     total energy              =    -979.51578560 Ry
     estimated scf accuracy    <          2.1E-11 Ry

     iteration # 25     ecut=   150.00 Ry     beta= 0.70
     Davidson diagonalization with overlap
     ethr =  1.00E-13,  avg # of iterations =  1.6

     negative rho (up, down):  2.144E-04 0.000E+00

     total cpu time spent up to now is     1429.6 secs

     total energy              =    -979.51578560 Ry
     estimated scf accuracy    <          4.7E-12 Ry

     iteration # 26     ecut=   150.00 Ry     beta= 0.70
     Davidson diagonalization with overlap
     ethr =  1.00E-13,  avg # of iterations =  1.1

     negative rho (up, down):  2.144E-04 0.000E+00

     total cpu time spent up to now is     1462.5 secs

     total energy              =    -979.51578560 Ry
     estimated scf accuracy    <          1.5E-12 Ry

     iteration # 27     ecut=   150.00 Ry     beta= 0.70
     Davidson diagonalization with overlap
     ethr =  1.00E-13,  avg # of iterations =  1.0

     negative rho (up, down):  2.144E-04 0.000E+00

     total cpu time spent up to now is     1495.1 secs

     End of self-consistent calculation

     Number of k-points >= 100: set verbosity='high' to print the bands.

     highest occupied level (ev):     2.0358

!    total energy              =    -979.51578560 Ry

     total all-electron energy =    -19376.431476 Ry
     estimated scf accuracy    <          4.1E-13 Ry

     The total energy is the sum of the following terms:
     one-electron contribution =   -2731.19416228 Ry
     hartree contribution      =    1375.94419131 Ry
     xc contribution           =     -58.95907458 Ry
     ewald contribution        =    1060.46353422 Ry
     one-center paw contrib.   =    -625.77027427 Ry

     convergence has been achieved in  27 iterations

     negative rho (up, down):  2.144E-04 0.000E+00

     Forces acting on atoms (cartesian axes, Ry/au):

     atom    1 type  1   force =     0.00001367   -0.00005908   -0.00000228
     atom    2 type  2   force =    -0.00000588    0.00002592   -0.01249750
     atom    3 type  2   force =    -0.00000771    0.00003354    0.01265532
     atom    4 type  1   force =    -0.00001367    0.00005908    0.00000228
     atom    5 type  2   force =     0.00000771   -0.00003354   -0.01265532
     atom    6 type  2   force =     0.00000588   -0.00002592    0.01249750

     Total force =     0.025154     Total SCF correction =     0.000004


     Computing stress (Cartesian axis) and pressure


     negative rho (up, down):  2.144E-04 0.000E+00
          total   stress  (Ry/bohr**3)                   (kbar)     P=      -12.98
  -0.00008227   0.00000009   0.00000001          -12.10        0.01        0.00
   0.00000009  -0.00008160  -0.00000003            0.01      -12.00       -0.00
   0.00000001  -0.00000003  -0.00010077            0.00       -0.00      -14.82


     Writing output data file /scratch/as3359/Mos2_ct_lat/MoS2.save/
 
     init_run     :     48.64s CPU     26.29s WALL (       1 calls)
     electrons    :   2894.03s CPU   1468.73s WALL (       1 calls)
     forces       :     12.76s CPU      6.45s WALL (       1 calls)
     stress       :     50.55s CPU     25.55s WALL (       1 calls)

     Called by init_run:
     wfcinit      :     39.61s CPU     20.42s WALL (       1 calls)
     potinit      :      2.55s CPU      1.30s WALL (       1 calls)
     hinit0       :      5.37s CPU      3.93s WALL (       1 calls)

     Called by electrons:
     c_bands      :   2527.54s CPU   1279.98s WALL (      27 calls)
     sum_band     :    341.36s CPU    174.35s WALL (      27 calls)
     v_of_rho     :      6.02s CPU      3.27s WALL (      28 calls)
     newd         :     10.87s CPU      6.72s WALL (      28 calls)
     PAW_pot      :      6.33s CPU      3.25s WALL (      28 calls)
     mix_rho      :      2.34s CPU      1.37s WALL (      27 calls)

     Called by c_bands:
     init_us_2    :     45.76s CPU     22.90s WALL (    6441 calls)
     cegterg      :   2414.87s CPU   1223.15s WALL (    3051 calls)

     Called by *egterg:
     cdiaghg      :     20.67s CPU     10.57s WALL (   16901 calls)
     h_psi        :   1969.65s CPU    999.84s WALL (   17014 calls)
     s_psi        :     89.98s CPU     45.10s WALL (   17014 calls)
     g_psi        :     18.34s CPU      9.20s WALL (   13850 calls)

     Called by h_psi:
     h_psi:calbec :     78.97s CPU     39.59s WALL (   17014 calls)
     vloc_psi     :   1783.70s CPU    906.49s WALL (   17014 calls)
     add_vuspsi   :     90.84s CPU     45.53s WALL (   17014 calls)

     General routines
     calbec       :    101.62s CPU     50.96s WALL (   20630 calls)
     fft          :      3.04s CPU      1.88s WALL (     333 calls)
     ffts         :      0.18s CPU      0.09s WALL (      27 calls)
     fftw         :   1755.36s CPU    893.18s WALL (  643852 calls)
 
     Parallel routines
 
     PWSCF        :  50m11.89s CPU  25m32.46s WALL

 
   This run was terminated on:  18:30:41  17Apr2022            

=------------------------------------------------------------------------------=
   JOB DONE.
=------------------------------------------------------------------------------=
