
     Program PWSCF v.6.8 starts on 17Apr2022 at 20: 9:18 

     This program is part of the open-source Quantum ESPRESSO suite
     for quantum simulation of materials; please cite
         "P. Giannozzi et al., J. Phys.:Condens. Matter 21 395502 (2009);
         "P. Giannozzi et al., J. Phys.:Condens. Matter 29 465901 (2017);
         "P. Giannozzi et al., J. Chem. Phys. 152 154105 (2020);
          URL http://www.quantum-espresso.org", 
     in publications or presentations arising from this work. More details at
     http://www.quantum-espresso.org/quote

     Parallel version (MPI & OpenMP), running on       4 processor cores
     Number of MPI processes:                 2
     Threads/MPI process:                     2

     MPI processes distributed on     1 nodes
     R & G space division:  proc/nbgrp/npool/nimage =       2
     124983 MiB available memory on the printing compute node when the environment starts
 
     Reading input from MoS2.scf.6.160.in
Warning: card  &CELL ignored
Warning: card     CELL_DYNAMICS='BFGS' ignored
Warning: card  / ignored

     Current dimensions of program PWSCF are:
     Max number of different atomic species (ntypx) = 10
     Max number of k-points (npk) =  40000
     Max angular momentum in pseudopotentials (lmaxx) =  4
     Message from routine iosys:
     restart disabled: needed files not found
     file Mo.pbesol-spn-kjpaw_psl.1.0.0.UPF: wavefunction(s)  4S 4D renormalized
     file S.pbesol-nl-kjpaw_psl.1.0.0.UPF: wavefunction(s)  3S renormalized
     Message from routine setup:
     using ibrav=0 with symmetry is DISCOURAGED, use correct ibrav instead

     Subspace diagonalization in iterative solution of the eigenvalue problem:
     a serial algorithm will be used

 
     Parallelization info
     --------------------
     sticks:   dense  smooth     PW     G-vecs:    dense   smooth      PW
     Min         753     753    216               192129   192129   30206
     Max         754     754    217               192146   192146   30221
     Sum        1507    1507    433               384275   384275   60427
 
     Using Slab Decomposition
 


     bravais-lattice index     =            0
     lattice parameter (alat)  =       6.1600  a.u.
     unit-cell volume          =    1546.6160 (a.u.)^3
     number of atoms/cell      =            6
     number of atomic types    =            2
     number of electrons       =        52.00
     number of Kohn-Sham states=           26
     kinetic-energy cutoff     =     150.0000  Ry
     charge density cutoff     =     600.0000  Ry
     scf convergence threshold =      1.0E-12
     mixing beta               =       0.7000
     number of iterations used =            8  plain     mixing
     Exchange-correlation= SLA  PW   PSX  PSC
                           (   1   4  10   8   0   0   0)

     celldm(1)=   6.160000  celldm(2)=   0.000000  celldm(3)=   0.000000
     celldm(4)=   0.000000  celldm(5)=   0.000000  celldm(6)=   0.000000

     crystal axes: (cart. coord. in units of alat)
               a(1) = (   0.977326  -0.000176   0.000000 )  
               a(2) = (  -0.488540   0.846362   0.000000 )  
               a(3) = (   0.000000   0.000000   8.000000 )  

     reciprocal axes: (cart. coord. in units 2 pi/alat)
               b(1) = (  1.023307  0.590676  0.000000 )  
               b(2) = (  0.000213  1.181651  0.000000 )  
               b(3) = (  0.000000  0.000000  0.125000 )  


     PseudoPot. # 1 for Mo read from file:
     /shared/home/as3359/pseudo/Mo.pbesol-spn-kjpaw_psl.1.0.0.UPF
     MD5 check sum: de57925cfc675213e43241dcc441eda8
     Pseudo is Projector augmented-wave + core cor, Zval = 14.0
     Generated using &quot;atomic&quot; code by A. Dal Corso  v.6.3
     Shape of augmentation charge: PSQ
     Using radial grid of 1229 points,  6 beta functions with: 
                l(1) =   0
                l(2) =   0
                l(3) =   1
                l(4) =   1
                l(5) =   2
                l(6) =   2
     Q(r) pseudized with 0 coefficients 


     PseudoPot. # 2 for S  read from file:
     /shared/home/as3359/pseudo/S.pbesol-nl-kjpaw_psl.1.0.0.UPF
     MD5 check sum: bf3db50ec3f960682bbc396f1aadd1dd
     Pseudo is Projector augmented-wave + core cor, Zval =  6.0
     Generated using &quot;atomic&quot; code by A. Dal Corso  v.6.3
     Shape of augmentation charge: PSQ
     Using radial grid of 1151 points,  4 beta functions with: 
                l(1) =   0
                l(2) =   0
                l(3) =   1
                l(4) =   1
     Q(r) pseudized with 0 coefficients 


     atomic species   valence    mass     pseudopotential
        Mo            14.00    95.94000     Mo( 1.00)
        S              6.00    32.06500     S ( 1.00)

      2 Sym. Ops., with inversion, found ( 1 have fractional translation)



   Cartesian axes

     site n.     atom                  positions (alat units)
         1           Mo  tau(   1) = (   0.0000000   0.0000000   0.9844997  )
         2           S   tau(   2) = (   0.4887119   0.2819702   1.4701535  )
         3           S   tau(   3) = (   0.4887135   0.2819635   0.4988906  )
         4           Mo  tau(   4) = (   0.0000000   0.0000000   3.0155003  )
         5           S   tau(   5) = (  -0.4887135  -0.2819635   3.5011094  )
         6           S   tau(   6) = (  -0.4887119  -0.2819702   2.5298465  )

     number of k points=   113

     Number of k-points >= 100: set verbosity='high' to print them.

     Dense  grid:   384275 G-vectors     FFT dimensions: (  48,  48, 400)

     Estimated max dynamical RAM per process >       1.78 GB

     Estimated total dynamical RAM >       3.56 GB
     Cannot read rho : file not found

     Initial potential from superposition of free atoms

     starting charge   51.99828, renormalised to   52.00000

     negative rho (up, down):  1.622E-04 0.000E+00
     Message from routine qexsd_readschema :
     xml data file /scratch/as3359/Mos2_ct_lat/MoS2.save/data-file-schema.xml not fou
     Cannot read wfcs: file not found
     Starting wfcs are   36 randomized atomic wfcs
     Checking if some PAW data can be deallocated... 

     total cpu time spent up to now is       27.8 secs

     Self-consistent Calculation

     iteration #  1     ecut=   150.00 Ry     beta= 0.70
     Davidson diagonalization with overlap
     ethr =  1.00E-05,  avg # of iterations = 10.4

     negative rho (up, down):  2.079E-04 0.000E+00

     total cpu time spent up to now is      142.7 secs

     total energy              =    -979.40468215 Ry
     estimated scf accuracy    <       0.25051409 Ry

     iteration #  2     ecut=   150.00 Ry     beta= 0.70
     Davidson diagonalization with overlap
     ethr =  4.82E-04,  avg # of iterations =  4.5

     negative rho (up, down):  2.009E-04 0.000E+00

     total cpu time spent up to now is      197.8 secs

     total energy              =    -979.36358514 Ry
     estimated scf accuracy    <       0.67431535 Ry

     iteration #  3     ecut=   150.00 Ry     beta= 0.70
     Davidson diagonalization with overlap
     ethr =  4.82E-04,  avg # of iterations =  5.2

     negative rho (up, down):  2.032E-04 0.000E+00

     total cpu time spent up to now is      253.7 secs

     total energy              =    -979.49442064 Ry
     estimated scf accuracy    <       0.11544445 Ry

     iteration #  4     ecut=   150.00 Ry     beta= 0.70
     Davidson diagonalization with overlap
     ethr =  2.22E-04,  avg # of iterations =  2.8

     negative rho (up, down):  2.041E-04 0.000E+00

     total cpu time spent up to now is      295.2 secs

     total energy              =    -979.50394904 Ry
     estimated scf accuracy    <       0.01742916 Ry

     iteration #  5     ecut=   150.00 Ry     beta= 0.70
     Davidson diagonalization with overlap
     ethr =  3.35E-05,  avg # of iterations =  4.8

     negative rho (up, down):  2.095E-04 0.000E+00

     total cpu time spent up to now is      347.8 secs

     total energy              =    -979.50889824 Ry
     estimated scf accuracy    <       0.01975556 Ry

     iteration #  6     ecut=   150.00 Ry     beta= 0.70
     Davidson diagonalization with overlap
     ethr =  3.35E-05,  avg # of iterations =  2.7

     negative rho (up, down):  2.116E-04 0.000E+00

     total cpu time spent up to now is      389.3 secs

     total energy              =    -979.50975362 Ry
     estimated scf accuracy    <       0.00537356 Ry

     iteration #  7     ecut=   150.00 Ry     beta= 0.70
     Davidson diagonalization with overlap
     ethr =  1.03E-05,  avg # of iterations =  3.1

     negative rho (up, down):  2.136E-04 0.000E+00

     total cpu time spent up to now is      432.2 secs

     total energy              =    -979.51024038 Ry
     estimated scf accuracy    <       0.00148884 Ry

     iteration #  8     ecut=   150.00 Ry     beta= 0.70
     Davidson diagonalization with overlap
     ethr =  2.86E-06,  avg # of iterations =  3.8

     negative rho (up, down):  2.152E-04 0.000E+00

     total cpu time spent up to now is      476.2 secs

     total energy              =    -979.51035380 Ry
     estimated scf accuracy    <       0.00054334 Ry

     iteration #  9     ecut=   150.00 Ry     beta= 0.70
     Davidson diagonalization with overlap
     ethr =  1.04E-06,  avg # of iterations =  3.4

     negative rho (up, down):  2.159E-04 0.000E+00

     total cpu time spent up to now is      518.7 secs

     total energy              =    -979.51041759 Ry
     estimated scf accuracy    <       0.00001844 Ry

     iteration # 10     ecut=   150.00 Ry     beta= 0.70
     Davidson diagonalization with overlap
     ethr =  3.55E-08,  avg # of iterations =  5.8

     negative rho (up, down):  2.159E-04 0.000E+00

     total cpu time spent up to now is      581.4 secs

     total energy              =    -979.51043093 Ry
     estimated scf accuracy    <       0.00006392 Ry

     iteration # 11     ecut=   150.00 Ry     beta= 0.70
     Davidson diagonalization with overlap
     ethr =  3.55E-08,  avg # of iterations =  3.0

     negative rho (up, down):  2.161E-04 0.000E+00

     total cpu time spent up to now is      623.7 secs

     total energy              =    -979.51042836 Ry
     estimated scf accuracy    <       0.00001454 Ry

     iteration # 12     ecut=   150.00 Ry     beta= 0.70
     Davidson diagonalization with overlap
     ethr =  2.80E-08,  avg # of iterations =  5.2

     negative rho (up, down):  2.161E-04 0.000E+00

     total cpu time spent up to now is      678.4 secs

     total energy              =    -979.51043251 Ry
     estimated scf accuracy    <       0.00002849 Ry

     iteration # 13     ecut=   150.00 Ry     beta= 0.70
     Davidson diagonalization with overlap
     ethr =  2.80E-08,  avg # of iterations =  2.3

     negative rho (up, down):  2.161E-04 0.000E+00

     total cpu time spent up to now is      717.6 secs

     total energy              =    -979.51043257 Ry
     estimated scf accuracy    <       0.00000738 Ry

     iteration # 14     ecut=   150.00 Ry     beta= 0.70
     Davidson diagonalization with overlap
     ethr =  1.42E-08,  avg # of iterations =  3.3

     negative rho (up, down):  2.162E-04 0.000E+00

     total cpu time spent up to now is      760.9 secs

     total energy              =    -979.51043358 Ry
     estimated scf accuracy    <       0.00000010 Ry

     iteration # 15     ecut=   150.00 Ry     beta= 0.70
     Davidson diagonalization with overlap
     ethr =  1.88E-10,  avg # of iterations =  6.4

     negative rho (up, down):  2.162E-04 0.000E+00

     total cpu time spent up to now is      826.9 secs

     total energy              =    -979.51043362 Ry
     estimated scf accuracy    <       0.00000096 Ry

     iteration # 16     ecut=   150.00 Ry     beta= 0.70
     Davidson diagonalization with overlap
     ethr =  1.88E-10,  avg # of iterations =  5.0

     negative rho (up, down):  2.162E-04 0.000E+00

     total cpu time spent up to now is      881.3 secs

     total energy              =    -979.51043369 Ry
     estimated scf accuracy    <       0.00000002 Ry

     iteration # 17     ecut=   150.00 Ry     beta= 0.70
     Davidson diagonalization with overlap
     ethr =  3.76E-11,  avg # of iterations =  4.5

     negative rho (up, down):  2.162E-04 0.000E+00

     total cpu time spent up to now is      929.1 secs

     total energy              =    -979.51043369 Ry
     estimated scf accuracy    <          1.7E-10 Ry

     iteration # 18     ecut=   150.00 Ry     beta= 0.70
     Davidson diagonalization with overlap
     ethr =  3.31E-13,  avg # of iterations =  7.7

     negative rho (up, down):  2.162E-04 0.000E+00

     total cpu time spent up to now is      999.7 secs

     total energy              =    -979.51043369 Ry
     estimated scf accuracy    <          2.7E-09 Ry

     iteration # 19     ecut=   150.00 Ry     beta= 0.70
     Davidson diagonalization with overlap
     ethr =  3.31E-13,  avg # of iterations =  5.5

     negative rho (up, down):  2.162E-04 0.000E+00

     total cpu time spent up to now is     1060.5 secs

     total energy              =    -979.51043369 Ry
     estimated scf accuracy    <          2.5E-11 Ry

     iteration # 20     ecut=   150.00 Ry     beta= 0.70
     Davidson diagonalization with overlap
     ethr =  1.00E-13,  avg # of iterations =  6.0

     negative rho (up, down):  2.162E-04 0.000E+00

     total cpu time spent up to now is     1126.0 secs

     total energy              =    -979.51043369 Ry
     estimated scf accuracy    <          7.0E-10 Ry

     iteration # 21     ecut=   150.00 Ry     beta= 0.70
     Davidson diagonalization with overlap
     ethr =  1.00E-13,  avg # of iterations =  4.7

     negative rho (up, down):  2.162E-04 0.000E+00

     total cpu time spent up to now is     1178.8 secs

     total energy              =    -979.51043369 Ry
     estimated scf accuracy    <          9.7E-11 Ry

     iteration # 22     ecut=   150.00 Ry     beta= 0.70
     Davidson diagonalization with overlap
     ethr =  1.00E-13,  avg # of iterations =  4.4

     negative rho (up, down):  2.162E-04 0.000E+00

     total cpu time spent up to now is     1225.6 secs

     End of self-consistent calculation

     Number of k-points >= 100: set verbosity='high' to print the bands.

     highest occupied level (ev):     1.8398

!    total energy              =    -979.51043369 Ry

     total all-electron energy =    -19376.426124 Ry
     estimated scf accuracy    <          3.0E-13 Ry

     The total energy is the sum of the following terms:
     one-electron contribution =   -2713.49225410 Ry
     hartree contribution      =    1366.72483815 Ry
     xc contribution           =     -58.83874735 Ry
     ewald contribution        =    1051.85587566 Ry
     one-center paw contrib.   =    -625.76014606 Ry

     convergence has been achieved in  22 iterations

     negative rho (up, down):  2.162E-04 0.000E+00

     Forces acting on atoms (cartesian axes, Ry/au):

     atom    1 type  1   force =     0.00001354   -0.00005910   -0.00000170
     atom    2 type  2   force =    -0.00000602    0.00002626   -0.02725480
     atom    3 type  2   force =    -0.00000769    0.00003337    0.02760713
     atom    4 type  1   force =    -0.00001354    0.00005910    0.00000170
     atom    5 type  2   force =     0.00000769   -0.00003337   -0.02760713
     atom    6 type  2   force =     0.00000602   -0.00002626    0.02725480

     Total force =     0.054863     Total SCF correction =     0.000004


     Computing stress (Cartesian axis) and pressure


     negative rho (up, down):  2.162E-04 0.000E+00
          total   stress  (Ry/bohr**3)                   (kbar)     P=      -28.98
  -0.00018795   0.00000008   0.00000001          -27.65        0.01        0.00
   0.00000008  -0.00018732  -0.00000003            0.01      -27.56       -0.00
   0.00000001  -0.00000003  -0.00021564            0.00       -0.00      -31.72


     Writing output data file /scratch/as3359/Mos2_ct_lat/MoS2.save/
 
     init_run     :     50.67s CPU     27.64s WALL (       1 calls)
     electrons    :   2360.46s CPU   1197.83s WALL (       1 calls)
     forces       :     12.81s CPU      6.46s WALL (       1 calls)
     stress       :     48.12s CPU     24.34s WALL (       1 calls)

     Called by init_run:
     wfcinit      :     40.90s CPU     21.10s WALL (       1 calls)
     potinit      :      3.22s CPU      1.89s WALL (       1 calls)
     hinit0       :      5.44s CPU      3.99s WALL (       1 calls)

     Called by electrons:
     c_bands      :   2054.36s CPU   1040.15s WALL (      22 calls)
     sum_band     :    285.29s CPU    145.72s WALL (      22 calls)
     v_of_rho     :      5.12s CPU      2.79s WALL (      23 calls)
     newd         :      9.14s CPU      5.64s WALL (      23 calls)
     PAW_pot      :      5.21s CPU      2.70s WALL (      23 calls)
     mix_rho      :      1.85s CPU      1.10s WALL (      22 calls)

     Called by c_bands:
     init_us_2    :     38.69s CPU     19.36s WALL (    5311 calls)
     cegterg      :   1960.91s CPU    993.04s WALL (    2486 calls)

     Called by *egterg:
     cdiaghg      :     17.19s CPU      8.81s WALL (   14297 calls)
     h_psi        :   1597.43s CPU    810.76s WALL (   14410 calls)
     s_psi        :     73.51s CPU     36.84s WALL (   14410 calls)
     g_psi        :     14.41s CPU      7.23s WALL (   11811 calls)

     Called by h_psi:
     h_psi:calbec :     64.55s CPU     32.35s WALL (   14410 calls)
     vloc_psi     :   1445.76s CPU    734.63s WALL (   14410 calls)
     add_vuspsi   :     73.99s CPU     37.08s WALL (   14410 calls)

     General routines
     calbec       :     83.68s CPU     41.93s WALL (   17461 calls)
     fft          :      2.82s CPU      1.76s WALL (     278 calls)
     ffts         :      0.15s CPU      0.08s WALL (      22 calls)
     fftw         :   1429.11s CPU    727.16s WALL (  505326 calls)
 
     Parallel routines
 
     PWSCF        :  41m18.10s CPU  21m 1.74s WALL

 
   This run was terminated on:  20:30:20  17Apr2022            

=------------------------------------------------------------------------------=
   JOB DONE.
=------------------------------------------------------------------------------=
