
     Program PWSCF v.6.8 starts on 17Apr2022 at 16:46:15 

     This program is part of the open-source Quantum ESPRESSO suite
     for quantum simulation of materials; please cite
         "P. Giannozzi et al., J. Phys.:Condens. Matter 21 395502 (2009);
         "P. Giannozzi et al., J. Phys.:Condens. Matter 29 465901 (2017);
         "P. Giannozzi et al., J. Chem. Phys. 152 154105 (2020);
          URL http://www.quantum-espresso.org", 
     in publications or presentations arising from this work. More details at
     http://www.quantum-espresso.org/quote

     Parallel version (MPI & OpenMP), running on       4 processor cores
     Number of MPI processes:                 2
     Threads/MPI process:                     2

     MPI processes distributed on     1 nodes
     R & G space division:  proc/nbgrp/npool/nimage =       2
     124988 MiB available memory on the printing compute node when the environment starts
 
     Reading input from MoS2.scf.6.080.in
Warning: card  &CELL ignored
Warning: card     CELL_DYNAMICS='BFGS' ignored
Warning: card  / ignored

     Current dimensions of program PWSCF are:
     Max number of different atomic species (ntypx) = 10
     Max number of k-points (npk) =  40000
     Max angular momentum in pseudopotentials (lmaxx) =  4
     Message from routine iosys:
     restart disabled: needed files not found
     file Mo.pbesol-spn-kjpaw_psl.1.0.0.UPF: wavefunction(s)  4S 4D renormalized
     file S.pbesol-nl-kjpaw_psl.1.0.0.UPF: wavefunction(s)  3S renormalized
     Message from routine setup:
     using ibrav=0 with symmetry is DISCOURAGED, use correct ibrav instead

     Subspace diagonalization in iterative solution of the eigenvalue problem:
     a serial algorithm will be used

 
     Parallelization info
     --------------------
     sticks:   dense  smooth     PW     G-vecs:    dense   smooth      PW
     Min         729     729    215               184369   184369   29175
     Max         730     730    218               184392   184392   29182
     Sum        1459    1459    433               368761   368761   58357
 
     Using Slab Decomposition
 


     bravais-lattice index     =            0
     lattice parameter (alat)  =       6.0800  a.u.
     unit-cell volume          =    1487.1374 (a.u.)^3
     number of atoms/cell      =            6
     number of atomic types    =            2
     number of electrons       =        52.00
     number of Kohn-Sham states=           26
     kinetic-energy cutoff     =     150.0000  Ry
     charge density cutoff     =     600.0000  Ry
     scf convergence threshold =      1.0E-12
     mixing beta               =       0.7000
     number of iterations used =            8  plain     mixing
     Exchange-correlation= SLA  PW   PSX  PSC
                           (   1   4  10   8   0   0   0)

     celldm(1)=   6.080000  celldm(2)=   0.000000  celldm(3)=   0.000000
     celldm(4)=   0.000000  celldm(5)=   0.000000  celldm(6)=   0.000000

     crystal axes: (cart. coord. in units of alat)
               a(1) = (   0.977326  -0.000176   0.000000 )  
               a(2) = (  -0.488540   0.846362   0.000000 )  
               a(3) = (   0.000000   0.000000   8.000000 )  

     reciprocal axes: (cart. coord. in units 2 pi/alat)
               b(1) = (  1.023307  0.590676  0.000000 )  
               b(2) = (  0.000213  1.181651  0.000000 )  
               b(3) = (  0.000000  0.000000  0.125000 )  


     PseudoPot. # 1 for Mo read from file:
     /shared/home/as3359/pseudo/Mo.pbesol-spn-kjpaw_psl.1.0.0.UPF
     MD5 check sum: de57925cfc675213e43241dcc441eda8
     Pseudo is Projector augmented-wave + core cor, Zval = 14.0
     Generated using &quot;atomic&quot; code by A. Dal Corso  v.6.3
     Shape of augmentation charge: PSQ
     Using radial grid of 1229 points,  6 beta functions with: 
                l(1) =   0
                l(2) =   0
                l(3) =   1
                l(4) =   1
                l(5) =   2
                l(6) =   2
     Q(r) pseudized with 0 coefficients 


     PseudoPot. # 2 for S  read from file:
     /shared/home/as3359/pseudo/S.pbesol-nl-kjpaw_psl.1.0.0.UPF
     MD5 check sum: bf3db50ec3f960682bbc396f1aadd1dd
     Pseudo is Projector augmented-wave + core cor, Zval =  6.0
     Generated using &quot;atomic&quot; code by A. Dal Corso  v.6.3
     Shape of augmentation charge: PSQ
     Using radial grid of 1151 points,  4 beta functions with: 
                l(1) =   0
                l(2) =   0
                l(3) =   1
                l(4) =   1
     Q(r) pseudized with 0 coefficients 


     atomic species   valence    mass     pseudopotential
        Mo            14.00    95.94000     Mo( 1.00)
        S              6.00    32.06500     S ( 1.00)

      2 Sym. Ops., with inversion, found ( 1 have fractional translation)



   Cartesian axes

     site n.     atom                  positions (alat units)
         1           Mo  tau(   1) = (   0.0000000   0.0000000   0.9844997  )
         2           S   tau(   2) = (   0.4887119   0.2819702   1.4701535  )
         3           S   tau(   3) = (   0.4887135   0.2819635   0.4988906  )
         4           Mo  tau(   4) = (   0.0000000   0.0000000   3.0155003  )
         5           S   tau(   5) = (  -0.4887135  -0.2819635   3.5011094  )
         6           S   tau(   6) = (  -0.4887119  -0.2819702   2.5298465  )

     number of k points=   113

     Number of k-points >= 100: set verbosity='high' to print them.

     Dense  grid:   368761 G-vectors     FFT dimensions: (  48,  48, 384)

     Estimated max dynamical RAM per process >       1.71 GB

     Estimated total dynamical RAM >       3.42 GB
     Cannot read rho : file not found

     Initial potential from superposition of free atoms

     starting charge   51.99828, renormalised to   52.00000

     negative rho (up, down):  1.525E-04 0.000E+00
     Message from routine qexsd_readschema :
     xml data file /scratch/as3359/Mos2_ct_lat/MoS2.save/data-file-schema.xml not fou
     Cannot read wfcs: file not found
     Starting wfcs are   36 randomized atomic wfcs
     Checking if some PAW data can be deallocated... 

     total cpu time spent up to now is       26.2 secs

     Self-consistent Calculation

     iteration #  1     ecut=   150.00 Ry     beta= 0.70
     Davidson diagonalization with overlap
     ethr =  1.00E-05,  avg # of iterations = 10.4

     negative rho (up, down):  1.966E-04 0.000E+00

     total cpu time spent up to now is      137.1 secs

     total energy              =    -979.38755681 Ry
     estimated scf accuracy    <       0.28858490 Ry

     iteration #  2     ecut=   150.00 Ry     beta= 0.70
     Davidson diagonalization with overlap
     ethr =  5.55E-04,  avg # of iterations =  5.0

     negative rho (up, down):  1.863E-04 0.000E+00

     total cpu time spent up to now is      192.0 secs

     total energy              =    -979.31566774 Ry
     estimated scf accuracy    <       1.00480547 Ry

     iteration #  3     ecut=   150.00 Ry     beta= 0.70
     Davidson diagonalization with overlap
     ethr =  5.55E-04,  avg # of iterations =  5.2

     negative rho (up, down):  1.876E-04 0.000E+00

     total cpu time spent up to now is      246.1 secs

     total energy              =    -979.50267713 Ry
     estimated scf accuracy    <       0.09580381 Ry

     iteration #  4     ecut=   150.00 Ry     beta= 0.70
     Davidson diagonalization with overlap
     ethr =  1.84E-04,  avg # of iterations =  2.8

     negative rho (up, down):  1.890E-04 0.000E+00

     total cpu time spent up to now is      287.3 secs

     total energy              =    -979.51087301 Ry
     estimated scf accuracy    <       0.02043611 Ry

     iteration #  5     ecut=   150.00 Ry     beta= 0.70
     Davidson diagonalization with overlap
     ethr =  3.93E-05,  avg # of iterations =  4.0

     negative rho (up, down):  1.961E-04 0.000E+00

     total cpu time spent up to now is      333.7 secs

     total energy              =    -979.51560833 Ry
     estimated scf accuracy    <       0.01301646 Ry

     iteration #  6     ecut=   150.00 Ry     beta= 0.70
     Davidson diagonalization with overlap
     ethr =  2.50E-05,  avg # of iterations =  2.5

     negative rho (up, down):  1.987E-04 0.000E+00

     total cpu time spent up to now is      372.8 secs

     total energy              =    -979.51652126 Ry
     estimated scf accuracy    <       0.00234096 Ry

     iteration #  7     ecut=   150.00 Ry     beta= 0.70
     Davidson diagonalization with overlap
     ethr =  4.50E-06,  avg # of iterations =  4.3

     negative rho (up, down):  2.005E-04 0.000E+00

     total cpu time spent up to now is      418.5 secs

     total energy              =    -979.51686287 Ry
     estimated scf accuracy    <       0.00144219 Ry

     iteration #  8     ecut=   150.00 Ry     beta= 0.70
     Davidson diagonalization with overlap
     ethr =  2.77E-06,  avg # of iterations =  2.0

     negative rho (up, down):  2.024E-04 0.000E+00

     total cpu time spent up to now is      454.4 secs

     total energy              =    -979.51682041 Ry
     estimated scf accuracy    <       0.00053772 Ry

     iteration #  9     ecut=   150.00 Ry     beta= 0.70
     Davidson diagonalization with overlap
     ethr =  1.03E-06,  avg # of iterations =  4.5

     negative rho (up, down):  2.025E-04 0.000E+00

     total cpu time spent up to now is      500.5 secs

     total energy              =    -979.51694230 Ry
     estimated scf accuracy    <       0.00022190 Ry

     iteration # 10     ecut=   150.00 Ry     beta= 0.70
     Davidson diagonalization with overlap
     ethr =  4.27E-07,  avg # of iterations =  1.4

     negative rho (up, down):  2.027E-04 0.000E+00

     total cpu time spent up to now is      533.6 secs

     total energy              =    -979.51689935 Ry
     estimated scf accuracy    <       0.00012413 Ry

     iteration # 11     ecut=   150.00 Ry     beta= 0.70
     Davidson diagonalization with overlap
     ethr =  2.39E-07,  avg # of iterations =  4.4

     negative rho (up, down):  2.028E-04 0.000E+00

     total cpu time spent up to now is      580.7 secs

     total energy              =    -979.51693887 Ry
     estimated scf accuracy    <       0.00004228 Ry

     iteration # 12     ecut=   150.00 Ry     beta= 0.70
     Davidson diagonalization with overlap
     ethr =  8.13E-08,  avg # of iterations =  1.8

     negative rho (up, down):  2.027E-04 0.000E+00

     total cpu time spent up to now is      615.0 secs

     total energy              =    -979.51694082 Ry
     estimated scf accuracy    <       0.00001598 Ry

     iteration # 13     ecut=   150.00 Ry     beta= 0.70
     Davidson diagonalization with overlap
     ethr =  3.07E-08,  avg # of iterations =  1.3

     negative rho (up, down):  2.028E-04 0.000E+00

     total cpu time spent up to now is      647.8 secs

     total energy              =    -979.51694086 Ry
     estimated scf accuracy    <       0.00001354 Ry

     iteration # 14     ecut=   150.00 Ry     beta= 0.70
     Davidson diagonalization with overlap
     ethr =  2.60E-08,  avg # of iterations =  1.0

     negative rho (up, down):  2.029E-04 0.000E+00

     total cpu time spent up to now is      680.1 secs

     total energy              =    -979.51693820 Ry
     estimated scf accuracy    <       0.00001103 Ry

     iteration # 15     ecut=   150.00 Ry     beta= 0.70
     Davidson diagonalization with overlap
     ethr =  2.12E-08,  avg # of iterations =  4.1

     negative rho (up, down):  2.029E-04 0.000E+00

     total cpu time spent up to now is      724.5 secs

     total energy              =    -979.51694070 Ry
     estimated scf accuracy    <       0.00000031 Ry

     iteration # 16     ecut=   150.00 Ry     beta= 0.70
     Davidson diagonalization with overlap
     ethr =  6.02E-10,  avg # of iterations =  6.8

     negative rho (up, down):  2.029E-04 0.000E+00

     total cpu time spent up to now is      795.9 secs

     total energy              =    -979.51694085 Ry
     estimated scf accuracy    <       0.00000498 Ry

     iteration # 17     ecut=   150.00 Ry     beta= 0.70
     Davidson diagonalization with overlap
     ethr =  6.02E-10,  avg # of iterations =  2.9

     negative rho (up, down):  2.029E-04 0.000E+00

     total cpu time spent up to now is      837.4 secs

     total energy              =    -979.51694032 Ry
     estimated scf accuracy    <       0.00000281 Ry

     iteration # 18     ecut=   150.00 Ry     beta= 0.70
     Davidson diagonalization with overlap
     ethr =  6.02E-10,  avg # of iterations =  5.8

     negative rho (up, down):  2.029E-04 0.000E+00

     total cpu time spent up to now is      892.9 secs

     total energy              =    -979.51694061 Ry
     estimated scf accuracy    <       0.00000008 Ry

     iteration # 19     ecut=   150.00 Ry     beta= 0.70
     Davidson diagonalization with overlap
     ethr =  1.49E-10,  avg # of iterations =  3.8

     negative rho (up, down):  2.029E-04 0.000E+00

     total cpu time spent up to now is      933.1 secs

     total energy              =    -979.51694063 Ry
     estimated scf accuracy    <       0.00000003 Ry

     iteration # 20     ecut=   150.00 Ry     beta= 0.70
     Davidson diagonalization with overlap
     ethr =  5.69E-11,  avg # of iterations =  4.0

     negative rho (up, down):  2.029E-04 0.000E+00

     total cpu time spent up to now is      977.4 secs

     total energy              =    -979.51694061 Ry
     estimated scf accuracy    <       0.00000011 Ry

     iteration # 21     ecut=   150.00 Ry     beta= 0.70
     Davidson diagonalization with overlap
     ethr =  5.69E-11,  avg # of iterations =  3.2

     negative rho (up, down):  2.029E-04 0.000E+00

     total cpu time spent up to now is     1019.6 secs

     total energy              =    -979.51694061 Ry
     estimated scf accuracy    <       0.00000002 Ry

     iteration # 22     ecut=   150.00 Ry     beta= 0.70
     Davidson diagonalization with overlap
     ethr =  4.75E-11,  avg # of iterations =  4.0

     negative rho (up, down):  2.029E-04 0.000E+00

     total cpu time spent up to now is     1062.8 secs

     total energy              =    -979.51694062 Ry
     estimated scf accuracy    <          9.6E-10 Ry

     iteration # 23     ecut=   150.00 Ry     beta= 0.70
     Davidson diagonalization with overlap
     ethr =  1.85E-12,  avg # of iterations =  5.1

     negative rho (up, down):  2.029E-04 0.000E+00

     total cpu time spent up to now is     1115.2 secs

     total energy              =    -979.51694062 Ry
     estimated scf accuracy    <          2.8E-10 Ry

     iteration # 24     ecut=   150.00 Ry     beta= 0.70
     Davidson diagonalization with overlap
     ethr =  5.37E-13,  avg # of iterations =  5.1

     negative rho (up, down):  2.029E-04 0.000E+00

     total cpu time spent up to now is     1164.2 secs

     total energy              =    -979.51694062 Ry
     estimated scf accuracy    <          1.6E-09 Ry

     iteration # 25     ecut=   150.00 Ry     beta= 0.70
     Davidson diagonalization with overlap
     ethr =  5.37E-13,  avg # of iterations =  5.6

     negative rho (up, down):  2.029E-04 0.000E+00

     total cpu time spent up to now is     1220.0 secs

     total energy              =    -979.51694062 Ry
     estimated scf accuracy    <          2.4E-11 Ry

     iteration # 26     ecut=   150.00 Ry     beta= 0.70
     Davidson diagonalization with overlap
     ethr =  1.00E-13,  avg # of iterations =  5.9

     negative rho (up, down):  2.029E-04 0.000E+00

     total cpu time spent up to now is     1280.7 secs

     total energy              =    -979.51694062 Ry
     estimated scf accuracy    <          5.0E-10 Ry

     iteration # 27     ecut=   150.00 Ry     beta= 0.70
     Davidson diagonalization with overlap
     ethr =  1.00E-13,  avg # of iterations =  1.0

     negative rho (up, down):  2.029E-04 0.000E+00

     total cpu time spent up to now is     1312.9 secs

     total energy              =    -979.51694062 Ry
     estimated scf accuracy    <          5.1E-10 Ry

     iteration # 28     ecut=   150.00 Ry     beta= 0.70
     Davidson diagonalization with overlap
     ethr =  1.00E-13,  avg # of iterations =  2.9

     negative rho (up, down):  2.029E-04 0.000E+00

     total cpu time spent up to now is     1354.5 secs

     total energy              =    -979.51694062 Ry
     estimated scf accuracy    <          2.2E-10 Ry

     iteration # 29     ecut=   150.00 Ry     beta= 0.70
     Davidson diagonalization with overlap
     ethr =  1.00E-13,  avg # of iterations =  5.2

     negative rho (up, down):  2.029E-04 0.000E+00

     total cpu time spent up to now is     1405.6 secs

     total energy              =    -979.51694062 Ry
     estimated scf accuracy    <          2.4E-12 Ry

     iteration # 30     ecut=   150.00 Ry     beta= 0.70
     Davidson diagonalization with overlap
     ethr =  1.00E-13,  avg # of iterations =  2.0

     negative rho (up, down):  2.029E-04 0.000E+00

     total cpu time spent up to now is     1440.7 secs

     total energy              =    -979.51694062 Ry
     estimated scf accuracy    <          2.0E-12 Ry

     iteration # 31     ecut=   150.00 Ry     beta= 0.70
     Davidson diagonalization with overlap
     ethr =  1.00E-13,  avg # of iterations =  1.0

     negative rho (up, down):  2.029E-04 0.000E+00

     total cpu time spent up to now is     1472.9 secs

     total energy              =    -979.51694062 Ry
     estimated scf accuracy    <          3.4E-12 Ry

     iteration # 32     ecut=   150.00 Ry     beta= 0.70
     Davidson diagonalization with overlap
     ethr =  1.00E-13,  avg # of iterations =  1.0

     negative rho (up, down):  2.029E-04 0.000E+00

     total cpu time spent up to now is     1505.1 secs

     total energy              =    -979.51694062 Ry
     estimated scf accuracy    <          2.2E-12 Ry

     iteration # 33     ecut=   150.00 Ry     beta= 0.70
     Davidson diagonalization with overlap
     ethr =  1.00E-13,  avg # of iterations =  1.0

     negative rho (up, down):  2.029E-04 0.000E+00

     total cpu time spent up to now is     1537.3 secs

     End of self-consistent calculation

     Number of k-points >= 100: set verbosity='high' to print the bands.

     highest occupied level (ev):     2.1559

!    total energy              =    -979.51694062 Ry

     total all-electron energy =    -19376.432631 Ry
     estimated scf accuracy    <          7.1E-14 Ry

     The total energy is the sum of the following terms:
     one-electron contribution =   -2741.95230514 Ry
     hartree contribution      =    1381.54938751 Ry
     xc contribution           =     -59.03343363 Ry
     ewald contribution        =    1065.69608456 Ry
     one-center paw contrib.   =    -625.77667391 Ry

     convergence has been achieved in  33 iterations

 %%%%%%%%%%%%%%%%%%%%%%%%%%%%%%%%%%%%%%%%%%%%%%%%%%%%%%%%%%%%%%%%%%%%%%%%%%%%%%
     Error in routine create_directory (1):
     unable to create directory /scratch/as3359/Mos2_ct_lat/MoS2.save/
 %%%%%%%%%%%%%%%%%%%%%%%%%%%%%%%%%%%%%%%%%%%%%%%%%%%%%%%%%%%%%%%%%%%%%%%%%%%%%%

     stopping ...

 %%%%%%%%%%%%%%%%%%%%%%%%%%%%%%%%%%%%%%%%%%%%%%%%%%%%%%%%%%%%%%%%%%%%%%%%%%%%%%
     Error in routine create_directory (1):
     unable to create directory /scratch/as3359/Mos2_ct_lat/MoS2.save/
 %%%%%%%%%%%%%%%%%%%%%%%%%%%%%%%%%%%%%%%%%%%%%%%%%%%%%%%%%%%%%%%%%%%%%%%%%%%%%%

     stopping ...
