
     Program PWSCF v.6.8 starts on 18Apr2022 at 11:22:59 

     This program is part of the open-source Quantum ESPRESSO suite
     for quantum simulation of materials; please cite
         "P. Giannozzi et al., J. Phys.:Condens. Matter 21 395502 (2009);
         "P. Giannozzi et al., J. Phys.:Condens. Matter 29 465901 (2017);
         "P. Giannozzi et al., J. Chem. Phys. 152 154105 (2020);
          URL http://www.quantum-espresso.org", 
     in publications or presentations arising from this work. More details at
     http://www.quantum-espresso.org/quote

     Parallel version (MPI & OpenMP), running on       4 processor cores
     Number of MPI processes:                 2
     Threads/MPI process:                     2

     MPI processes distributed on     1 nodes
     R & G space division:  proc/nbgrp/npool/nimage =       2
     124966 MiB available memory on the printing compute node when the environment starts
 
     Reading input from MoS2.scf.6.075.in
Warning: card  &CELL ignored
Warning: card     CELL_DYNAMICS='BFGS' ignored
Warning: card  / ignored

     Current dimensions of program PWSCF are:
     Max number of different atomic species (ntypx) = 10
     Max number of k-points (npk) =  40000
     Max angular momentum in pseudopotentials (lmaxx) =  4
     Message from routine iosys:
     restart disabled: needed files not found
     file Mo.pbesol-spn-kjpaw_psl.1.0.0.UPF: wavefunction(s)  4S 4D renormalized
     file S.pbesol-nl-kjpaw_psl.1.0.0.UPF: wavefunction(s)  3S renormalized
     Message from routine setup:
     using ibrav=0 with symmetry is DISCOURAGED, use correct ibrav instead

     Subspace diagonalization in iterative solution of the eigenvalue problem:
     a serial algorithm will be used

 
     Parallelization info
     --------------------
     sticks:   dense  smooth     PW     G-vecs:    dense   smooth      PW
     Min         729     729    215               183947   183947   29091
     Max         730     730    218               183966   183966   29094
     Sum        1459    1459    433               367913   367913   58185
 
     Using Slab Decomposition
 


     bravais-lattice index     =            0
     lattice parameter (alat)  =       6.0750  a.u.
     unit-cell volume          =    1483.4715 (a.u.)^3
     number of atoms/cell      =            6
     number of atomic types    =            2
     number of electrons       =        52.00
     number of Kohn-Sham states=           26
     kinetic-energy cutoff     =     150.0000  Ry
     charge density cutoff     =     600.0000  Ry
     scf convergence threshold =      1.0E-12
     mixing beta               =       0.7000
     number of iterations used =            8  plain     mixing
     Exchange-correlation= SLA  PW   PSX  PSC
                           (   1   4  10   8   0   0   0)

     celldm(1)=   6.075000  celldm(2)=   0.000000  celldm(3)=   0.000000
     celldm(4)=   0.000000  celldm(5)=   0.000000  celldm(6)=   0.000000

     crystal axes: (cart. coord. in units of alat)
               a(1) = (   0.977326  -0.000176   0.000000 )  
               a(2) = (  -0.488540   0.846362   0.000000 )  
               a(3) = (   0.000000   0.000000   8.000000 )  

     reciprocal axes: (cart. coord. in units 2 pi/alat)
               b(1) = (  1.023307  0.590676  0.000000 )  
               b(2) = (  0.000213  1.181651  0.000000 )  
               b(3) = (  0.000000  0.000000  0.125000 )  


     PseudoPot. # 1 for Mo read from file:
     /shared/home/as3359/pseudo/Mo.pbesol-spn-kjpaw_psl.1.0.0.UPF
     MD5 check sum: de57925cfc675213e43241dcc441eda8
     Pseudo is Projector augmented-wave + core cor, Zval = 14.0
     Generated using &quot;atomic&quot; code by A. Dal Corso  v.6.3
     Shape of augmentation charge: PSQ
     Using radial grid of 1229 points,  6 beta functions with: 
                l(1) =   0
                l(2) =   0
                l(3) =   1
                l(4) =   1
                l(5) =   2
                l(6) =   2
     Q(r) pseudized with 0 coefficients 


     PseudoPot. # 2 for S  read from file:
     /shared/home/as3359/pseudo/S.pbesol-nl-kjpaw_psl.1.0.0.UPF
     MD5 check sum: bf3db50ec3f960682bbc396f1aadd1dd
     Pseudo is Projector augmented-wave + core cor, Zval =  6.0
     Generated using &quot;atomic&quot; code by A. Dal Corso  v.6.3
     Shape of augmentation charge: PSQ
     Using radial grid of 1151 points,  4 beta functions with: 
                l(1) =   0
                l(2) =   0
                l(3) =   1
                l(4) =   1
     Q(r) pseudized with 0 coefficients 


     atomic species   valence    mass     pseudopotential
        Mo            14.00    95.94000     Mo( 1.00)
        S              6.00    32.06500     S ( 1.00)

      2 Sym. Ops., with inversion, found ( 1 have fractional translation)



   Cartesian axes

     site n.     atom                  positions (alat units)
         1           Mo  tau(   1) = (   0.0000000   0.0000000   0.9844997  )
         2           S   tau(   2) = (   0.4887119   0.2819702   1.4701535  )
         3           S   tau(   3) = (   0.4887135   0.2819635   0.4988906  )
         4           Mo  tau(   4) = (   0.0000000   0.0000000   3.0155003  )
         5           S   tau(   5) = (  -0.4887135  -0.2819635   3.5011094  )
         6           S   tau(   6) = (  -0.4887119  -0.2819702   2.5298465  )

     number of k points=   113

     Number of k-points >= 100: set verbosity='high' to print them.

     Dense  grid:   367913 G-vectors     FFT dimensions: (  48,  48, 384)

     Estimated max dynamical RAM per process >       1.70 GB

     Estimated total dynamical RAM >       3.41 GB
     Cannot read rho : file not found

     Initial potential from superposition of free atoms

     starting charge   51.99828, renormalised to   52.00000

     negative rho (up, down):  1.581E-04 0.000E+00
     Message from routine qexsd_readschema :
     xml data file /scratch/as3359/Mos2_ct_lat/MoS2.save/data-file-schema.xml not fou
     Cannot read wfcs: file not found
     Starting wfcs are   36 randomized atomic wfcs
     Checking if some PAW data can be deallocated... 

     total cpu time spent up to now is       27.8 secs

     Self-consistent Calculation

     iteration #  1     ecut=   150.00 Ry     beta= 0.70
     Davidson diagonalization with overlap
     ethr =  1.00E-05,  avg # of iterations = 10.4

     negative rho (up, down):  2.031E-04 0.000E+00

     total cpu time spent up to now is      158.0 secs

     total energy              =    -979.38592536 Ry
     estimated scf accuracy    <       0.29124243 Ry

     iteration #  2     ecut=   150.00 Ry     beta= 0.70
     Davidson diagonalization with overlap
     ethr =  5.60E-04,  avg # of iterations =  5.0

     negative rho (up, down):  1.929E-04 0.000E+00

     total cpu time spent up to now is      223.3 secs

     total energy              =    -979.31238442 Ry
     estimated scf accuracy    <       1.02609551 Ry

     iteration #  3     ecut=   150.00 Ry     beta= 0.70
     Davidson diagonalization with overlap
     ethr =  5.60E-04,  avg # of iterations =  5.2

     negative rho (up, down):  1.944E-04 0.000E+00

     total cpu time spent up to now is      286.0 secs

     total energy              =    -979.50285029 Ry
     estimated scf accuracy    <       0.09424923 Ry

     iteration #  4     ecut=   150.00 Ry     beta= 0.70
     Davidson diagonalization with overlap
     ethr =  1.81E-04,  avg # of iterations =  2.8

     negative rho (up, down):  1.958E-04 0.000E+00

     total cpu time spent up to now is      333.5 secs

     total energy              =    -979.51093290 Ry
     estimated scf accuracy    <       0.02055256 Ry

     iteration #  5     ecut=   150.00 Ry     beta= 0.70
     Davidson diagonalization with overlap
     ethr =  3.95E-05,  avg # of iterations =  4.0

     negative rho (up, down):  2.030E-04 0.000E+00

     total cpu time spent up to now is      387.0 secs

     total energy              =    -979.51569091 Ry
     estimated scf accuracy    <       0.01244916 Ry

     iteration #  6     ecut=   150.00 Ry     beta= 0.70
     Davidson diagonalization with overlap
     ethr =  2.39E-05,  avg # of iterations =  2.5

     negative rho (up, down):  2.057E-04 0.000E+00

     total cpu time spent up to now is      432.6 secs

     total energy              =    -979.51657971 Ry
     estimated scf accuracy    <       0.00223248 Ry

     iteration #  7     ecut=   150.00 Ry     beta= 0.70
     Davidson diagonalization with overlap
     ethr =  4.29E-06,  avg # of iterations =  4.3

     negative rho (up, down):  2.076E-04 0.000E+00

     total cpu time spent up to now is      485.6 secs

     total energy              =    -979.51689334 Ry
     estimated scf accuracy    <       0.00137009 Ry

     iteration #  8     ecut=   150.00 Ry     beta= 0.70
     Davidson diagonalization with overlap
     ethr =  2.63E-06,  avg # of iterations =  2.1

     negative rho (up, down):  2.094E-04 0.000E+00

     total cpu time spent up to now is      527.4 secs

     total energy              =    -979.51686819 Ry
     estimated scf accuracy    <       0.00048596 Ry

     iteration #  9     ecut=   150.00 Ry     beta= 0.70
     Davidson diagonalization with overlap
     ethr =  9.35E-07,  avg # of iterations =  4.5

     negative rho (up, down):  2.095E-04 0.000E+00

     total cpu time spent up to now is      581.2 secs

     total energy              =    -979.51697856 Ry
     estimated scf accuracy    <       0.00019963 Ry

     iteration # 10     ecut=   150.00 Ry     beta= 0.70
     Davidson diagonalization with overlap
     ethr =  3.84E-07,  avg # of iterations =  1.4

     negative rho (up, down):  2.097E-04 0.000E+00

     total cpu time spent up to now is      619.0 secs

     total energy              =    -979.51693826 Ry
     estimated scf accuracy    <       0.00011396 Ry

     iteration # 11     ecut=   150.00 Ry     beta= 0.70
     Davidson diagonalization with overlap
     ethr =  2.19E-07,  avg # of iterations =  4.3

     negative rho (up, down):  2.097E-04 0.000E+00

     total cpu time spent up to now is      673.4 secs

     total energy              =    -979.51697469 Ry
     estimated scf accuracy    <       0.00003815 Ry

     iteration # 12     ecut=   150.00 Ry     beta= 0.70
     Davidson diagonalization with overlap
     ethr =  7.34E-08,  avg # of iterations =  1.9

     negative rho (up, down):  2.097E-04 0.000E+00

     total cpu time spent up to now is      713.2 secs

     total energy              =    -979.51697608 Ry
     estimated scf accuracy    <       0.00001448 Ry

     iteration # 13     ecut=   150.00 Ry     beta= 0.70
     Davidson diagonalization with overlap
     ethr =  2.78E-08,  avg # of iterations =  1.5

     negative rho (up, down):  2.098E-04 0.000E+00

     total cpu time spent up to now is      752.1 secs

     total energy              =    -979.51697536 Ry
     estimated scf accuracy    <       0.00001070 Ry

     iteration # 14     ecut=   150.00 Ry     beta= 0.70
     Davidson diagonalization with overlap
     ethr =  2.06E-08,  avg # of iterations =  2.7

     negative rho (up, down):  2.098E-04 0.000E+00

     total cpu time spent up to now is      795.8 secs

     total energy              =    -979.51697444 Ry
     estimated scf accuracy    <       0.00000380 Ry

     iteration # 15     ecut=   150.00 Ry     beta= 0.70
     Davidson diagonalization with overlap
     ethr =  7.30E-09,  avg # of iterations =  5.4

     negative rho (up, down):  2.098E-04 0.000E+00

     total cpu time spent up to now is      861.0 secs

     total energy              =    -979.51697645 Ry
     estimated scf accuracy    <       0.00000439 Ry

     iteration # 16     ecut=   150.00 Ry     beta= 0.70
     Davidson diagonalization with overlap
     ethr =  7.30E-09,  avg # of iterations =  1.0

     negative rho (up, down):  2.098E-04 0.000E+00

     total cpu time spent up to now is      898.1 secs

     total energy              =    -979.51697587 Ry
     estimated scf accuracy    <       0.00000285 Ry

     iteration # 17     ecut=   150.00 Ry     beta= 0.70
     Davidson diagonalization with overlap
     ethr =  5.48E-09,  avg # of iterations =  2.6

     negative rho (up, down):  2.098E-04 0.000E+00

     total cpu time spent up to now is      943.1 secs

     total energy              =    -979.51697616 Ry
     estimated scf accuracy    <       0.00000021 Ry

     iteration # 18     ecut=   150.00 Ry     beta= 0.70
     Davidson diagonalization with overlap
     ethr =  4.12E-10,  avg # of iterations =  4.7

     negative rho (up, down):  2.098E-04 0.000E+00

     total cpu time spent up to now is     1000.5 secs

     total energy              =    -979.51697623 Ry
     estimated scf accuracy    <          3.9E-10 Ry

     iteration # 19     ecut=   150.00 Ry     beta= 0.70
     Davidson diagonalization with overlap
     c_bands:  3 eigenvalues not converged
     ethr =  7.42E-13,  avg # of iterations = 12.5

     negative rho (up, down):  2.098E-04 0.000E+00

     total cpu time spent up to now is     1139.5 secs

     total energy              =    -979.51697626 Ry
     estimated scf accuracy    <       0.00000007 Ry

     iteration # 20     ecut=   150.00 Ry     beta= 0.70
     Davidson diagonalization with overlap
     ethr =  7.42E-13,  avg # of iterations =  8.1

     negative rho (up, down):  2.098E-04 0.000E+00

     total cpu time spent up to now is     1235.2 secs

     total energy              =    -979.51697621 Ry
     estimated scf accuracy    <       0.00000018 Ry

     iteration # 21     ecut=   150.00 Ry     beta= 0.70
     Davidson diagonalization with overlap
     ethr =  7.42E-13,  avg # of iterations = 11.3

     negative rho (up, down):  2.098E-04 0.000E+00

     total cpu time spent up to now is     1366.6 secs

     total energy              =    -979.51697623 Ry
     estimated scf accuracy    <          3.2E-09 Ry

     iteration # 22     ecut=   150.00 Ry     beta= 0.70
     Davidson diagonalization with overlap
     ethr =  7.42E-13,  avg # of iterations =  2.6

     negative rho (up, down):  2.098E-04 0.000E+00

     total cpu time spent up to now is     1413.4 secs

     total energy              =    -979.51697623 Ry
     estimated scf accuracy    <          1.3E-09 Ry

     iteration # 23     ecut=   150.00 Ry     beta= 0.70
     Davidson diagonalization with overlap
     ethr =  7.42E-13,  avg # of iterations =  4.1

     negative rho (up, down):  2.098E-04 0.000E+00

     total cpu time spent up to now is     1466.5 secs

     total energy              =    -979.51697623 Ry
     estimated scf accuracy    <          6.9E-11 Ry

     iteration # 24     ecut=   150.00 Ry     beta= 0.70
     Davidson diagonalization with overlap
     ethr =  1.32E-13,  avg # of iterations =  5.0

     negative rho (up, down):  2.098E-04 0.000E+00

     total cpu time spent up to now is     1528.0 secs

     total energy              =    -979.51697623 Ry
     estimated scf accuracy    <          2.8E-11 Ry

     iteration # 25     ecut=   150.00 Ry     beta= 0.70
     Davidson diagonalization with overlap
     ethr =  1.00E-13,  avg # of iterations =  4.8

     negative rho (up, down):  2.098E-04 0.000E+00

     total cpu time spent up to now is     1583.9 secs

     total energy              =    -979.51697623 Ry
     estimated scf accuracy    <          2.8E-10 Ry

     iteration # 26     ecut=   150.00 Ry     beta= 0.70
     Davidson diagonalization with overlap
     ethr =  1.00E-13,  avg # of iterations =  2.3

     negative rho (up, down):  2.098E-04 0.000E+00

     total cpu time spent up to now is     1627.2 secs

     total energy              =    -979.51697623 Ry
     estimated scf accuracy    <          1.3E-10 Ry

     iteration # 27     ecut=   150.00 Ry     beta= 0.70
     Davidson diagonalization with overlap
     ethr =  1.00E-13,  avg # of iterations =  4.9

     negative rho (up, down):  2.098E-04 0.000E+00

     total cpu time spent up to now is     1682.9 secs

     End of self-consistent calculation

     Number of k-points >= 100: set verbosity='high' to print the bands.

     highest occupied level (ev):     2.1761

!    total energy              =    -979.51697623 Ry

     total all-electron energy =    -19376.432667 Ry
     estimated scf accuracy    <          7.2E-13 Ry

     The total energy is the sum of the following terms:
     one-electron contribution =   -2743.75539174 Ry
     hartree contribution      =    1382.48896638 Ry
     xc contribution           =     -59.04598685 Ry
     ewald contribution        =    1066.57320067 Ry
     one-center paw contrib.   =    -625.77776470 Ry

     convergence has been achieved in  27 iterations

     negative rho (up, down):  2.098E-04 0.000E+00

     Forces acting on atoms (cartesian axes, Ry/au):

     atom    1 type  1   force =     0.00001330   -0.00005896    0.00000074
     atom    2 type  2   force =    -0.00000579    0.00002562   -0.00143545
     atom    3 type  2   force =    -0.00000768    0.00003359    0.00143537
     atom    4 type  1   force =    -0.00001330    0.00005896   -0.00000074
     atom    5 type  2   force =     0.00000768   -0.00003359   -0.00143537
     atom    6 type  2   force =     0.00000579   -0.00002562    0.00143545

     Total force =     0.002873     Total SCF correction =     0.000002


     Computing stress (Cartesian axis) and pressure


     negative rho (up, down):  2.098E-04 0.000E+00
          total   stress  (Ry/bohr**3)                   (kbar)     P=       -0.59
  -0.00000034   0.00000009   0.00000001           -0.05        0.01        0.00
   0.00000009   0.00000035  -0.00000004            0.01        0.05       -0.01
   0.00000001  -0.00000004  -0.00001202            0.00       -0.01       -1.77


     Writing output data file /scratch/as3359/Mos2_ct_lat/MoS2.save/
 
     init_run     :     51.55s CPU     27.65s WALL (       1 calls)
     electrons    :   3260.84s CPU   1655.18s WALL (       1 calls)
     forces       :     13.35s CPU      6.77s WALL (       1 calls)
     stress       :     53.38s CPU     27.08s WALL (       1 calls)

     Called by init_run:
     wfcinit      :     43.71s CPU     22.66s WALL (       1 calls)
     potinit      :      2.30s CPU      1.18s WALL (       1 calls)
     hinit0       :      4.42s CPU      3.14s WALL (       1 calls)

     Called by electrons:
     c_bands      :   2845.70s CPU   1440.29s WALL (      27 calls)
     sum_band     :    385.77s CPU    197.44s WALL (      27 calls)
     v_of_rho     :      7.19s CPU      3.91s WALL (      28 calls)
     newd         :     13.19s CPU      8.60s WALL (      28 calls)
     PAW_pot      :      6.25s CPU      3.26s WALL (      28 calls)
     mix_rho      :      3.17s CPU      1.92s WALL (      27 calls)

     Called by c_bands:
     init_us_2    :     54.76s CPU     27.42s WALL (    6441 calls)
     cegterg      :   2728.80s CPU   1381.13s WALL (    3051 calls)

     Called by *egterg:
     cdiaghg      :     21.06s CPU     10.80s WALL (   16818 calls)
     h_psi        :   2174.35s CPU   1103.30s WALL (   16931 calls)
     s_psi        :    115.21s CPU     57.69s WALL (   16931 calls)
     g_psi        :     13.68s CPU      6.87s WALL (   13767 calls)

     Called by h_psi:
     h_psi:calbec :     85.31s CPU     42.77s WALL (   16931 calls)
     vloc_psi     :   1946.36s CPU    988.83s WALL (   16931 calls)
     add_vuspsi   :    127.14s CPU     63.69s WALL (   16931 calls)

     General routines
     calbec       :    109.22s CPU     54.77s WALL (   20547 calls)
     fft          :      2.98s CPU      1.53s WALL (     333 calls)
     ffts         :      0.23s CPU      0.12s WALL (      27 calls)
     fftw         :   1881.25s CPU    957.28s WALL (  630204 calls)
 
     Parallel routines
 
     PWSCF        :  56m25.66s CPU  28m43.03s WALL

 
   This run was terminated on:  11:51:42  18Apr2022            

=------------------------------------------------------------------------------=
   JOB DONE.
=------------------------------------------------------------------------------=
