
     Program PWSCF v.6.8 starts on 17Apr2022 at 15:50:48 

     This program is part of the open-source Quantum ESPRESSO suite
     for quantum simulation of materials; please cite
         "P. Giannozzi et al., J. Phys.:Condens. Matter 21 395502 (2009);
         "P. Giannozzi et al., J. Phys.:Condens. Matter 29 465901 (2017);
         "P. Giannozzi et al., J. Chem. Phys. 152 154105 (2020);
          URL http://www.quantum-espresso.org", 
     in publications or presentations arising from this work. More details at
     http://www.quantum-espresso.org/quote

     Parallel version (MPI & OpenMP), running on       4 processor cores
     Number of MPI processes:                 2
     Threads/MPI process:                     2

     MPI processes distributed on     1 nodes
     R & G space division:  proc/nbgrp/npool/nimage =       2
     124993 MiB available memory on the printing compute node when the environment starts
 
     Reading input from MoS2.scf.6.060.in
Warning: card  &CELL ignored
Warning: card     CELL_DYNAMICS='BFGS' ignored
Warning: card  / ignored

     Current dimensions of program PWSCF are:
     Max number of different atomic species (ntypx) = 10
     Max number of k-points (npk) =  40000
     Max angular momentum in pseudopotentials (lmaxx) =  4
     Message from routine iosys:
     restart disabled: needed files not found
     file Mo.pbesol-spn-kjpaw_psl.1.0.0.UPF: wavefunction(s)  4S 4D renormalized
     file S.pbesol-nl-kjpaw_psl.1.0.0.UPF: wavefunction(s)  3S renormalized
     Message from routine setup:
     using ibrav=0 with symmetry is DISCOURAGED, use correct ibrav instead

     Subspace diagonalization in iterative solution of the eigenvalue problem:
     a serial algorithm will be used

 
     Parallelization info
     --------------------
     sticks:   dense  smooth     PW     G-vecs:    dense   smooth      PW
     Min         726     726    210               182492   182492   28886
     Max         727     727    211               182501   182501   28923
     Sum        1453    1453    421               364993   364993   57809
 
     Using Slab Decomposition
 


     bravais-lattice index     =            0
     lattice parameter (alat)  =       6.0600  a.u.
     unit-cell volume          =    1472.5099 (a.u.)^3
     number of atoms/cell      =            6
     number of atomic types    =            2
     number of electrons       =        52.00
     number of Kohn-Sham states=           26
     kinetic-energy cutoff     =     150.0000  Ry
     charge density cutoff     =     600.0000  Ry
     scf convergence threshold =      1.0E-12
     mixing beta               =       0.7000
     number of iterations used =            8  plain     mixing
     Exchange-correlation= SLA  PW   PSX  PSC
                           (   1   4  10   8   0   0   0)

     celldm(1)=   6.060000  celldm(2)=   0.000000  celldm(3)=   0.000000
     celldm(4)=   0.000000  celldm(5)=   0.000000  celldm(6)=   0.000000

     crystal axes: (cart. coord. in units of alat)
               a(1) = (   0.977326  -0.000176   0.000000 )  
               a(2) = (  -0.488540   0.846362   0.000000 )  
               a(3) = (   0.000000   0.000000   8.000000 )  

     reciprocal axes: (cart. coord. in units 2 pi/alat)
               b(1) = (  1.023307  0.590676  0.000000 )  
               b(2) = (  0.000213  1.181651  0.000000 )  
               b(3) = (  0.000000  0.000000  0.125000 )  


     PseudoPot. # 1 for Mo read from file:
     /shared/home/as3359/pseudo/Mo.pbesol-spn-kjpaw_psl.1.0.0.UPF
     MD5 check sum: de57925cfc675213e43241dcc441eda8
     Pseudo is Projector augmented-wave + core cor, Zval = 14.0
     Generated using &quot;atomic&quot; code by A. Dal Corso  v.6.3
     Shape of augmentation charge: PSQ
     Using radial grid of 1229 points,  6 beta functions with: 
                l(1) =   0
                l(2) =   0
                l(3) =   1
                l(4) =   1
                l(5) =   2
                l(6) =   2
     Q(r) pseudized with 0 coefficients 


     PseudoPot. # 2 for S  read from file:
     /shared/home/as3359/pseudo/S.pbesol-nl-kjpaw_psl.1.0.0.UPF
     MD5 check sum: bf3db50ec3f960682bbc396f1aadd1dd
     Pseudo is Projector augmented-wave + core cor, Zval =  6.0
     Generated using &quot;atomic&quot; code by A. Dal Corso  v.6.3
     Shape of augmentation charge: PSQ
     Using radial grid of 1151 points,  4 beta functions with: 
                l(1) =   0
                l(2) =   0
                l(3) =   1
                l(4) =   1
     Q(r) pseudized with 0 coefficients 


     atomic species   valence    mass     pseudopotential
        Mo            14.00    95.94000     Mo( 1.00)
        S              6.00    32.06500     S ( 1.00)

      2 Sym. Ops., with inversion, found ( 1 have fractional translation)



   Cartesian axes

     site n.     atom                  positions (alat units)
         1           Mo  tau(   1) = (   0.0000000   0.0000000   0.9844997  )
         2           S   tau(   2) = (   0.4887119   0.2819702   1.4701535  )
         3           S   tau(   3) = (   0.4887135   0.2819635   0.4988906  )
         4           Mo  tau(   4) = (   0.0000000   0.0000000   3.0155003  )
         5           S   tau(   5) = (  -0.4887135  -0.2819635   3.5011094  )
         6           S   tau(   6) = (  -0.4887119  -0.2819702   2.5298465  )

     number of k points=   113

     Number of k-points >= 100: set verbosity='high' to print them.

     Dense  grid:   364993 G-vectors     FFT dimensions: (  48,  48, 384)

     Estimated max dynamical RAM per process >       1.69 GB

     Estimated total dynamical RAM >       3.38 GB
     Cannot read rho : file not found

     Initial potential from superposition of free atoms

     starting charge   51.99828, renormalised to   52.00000

     negative rho (up, down):  1.615E-04 0.000E+00
     Message from routine qexsd_readschema :
     xml data file /scratch/as3359/Mos2_ct_lat/MoS2.save/data-file-schema.xml not fou
     Cannot read wfcs: file not found
     Starting wfcs are   36 randomized atomic wfcs
     Checking if some PAW data can be deallocated... 

     total cpu time spent up to now is       26.1 secs

     Self-consistent Calculation

     iteration #  1     ecut=   150.00 Ry     beta= 0.70
     Davidson diagonalization with overlap
     ethr =  1.00E-05,  avg # of iterations = 10.4

     negative rho (up, down):  2.085E-04 0.000E+00

     total cpu time spent up to now is      136.0 secs

     total energy              =    -979.38079641 Ry
     estimated scf accuracy    <       0.29918846 Ry

     iteration #  2     ecut=   150.00 Ry     beta= 0.70
     Davidson diagonalization with overlap
     ethr =  5.75E-04,  avg # of iterations =  5.0

     negative rho (up, down):  1.976E-04 0.000E+00

     total cpu time spent up to now is      191.0 secs

     total energy              =    -979.29967959 Ry
     estimated scf accuracy    <       1.10355009 Ry

     iteration #  3     ecut=   150.00 Ry     beta= 0.70
     Davidson diagonalization with overlap
     ethr =  5.75E-04,  avg # of iterations =  5.3

     negative rho (up, down):  1.989E-04 0.000E+00

     total cpu time spent up to now is      244.8 secs

     total energy              =    -979.50306364 Ry
     estimated scf accuracy    <       0.09055668 Ry

     iteration #  4     ecut=   150.00 Ry     beta= 0.70
     Davidson diagonalization with overlap
     ethr =  1.74E-04,  avg # of iterations =  2.8

     negative rho (up, down):  2.004E-04 0.000E+00

     total cpu time spent up to now is      285.7 secs

     total energy              =    -979.51057968 Ry
     estimated scf accuracy    <       0.02272539 Ry

     iteration #  5     ecut=   150.00 Ry     beta= 0.70
     Davidson diagonalization with overlap
     ethr =  4.37E-05,  avg # of iterations =  3.8

     negative rho (up, down):  2.084E-04 0.000E+00

     total cpu time spent up to now is      330.8 secs

     total energy              =    -979.51565041 Ry
     estimated scf accuracy    <       0.01032022 Ry

     iteration #  6     ecut=   150.00 Ry     beta= 0.70
     Davidson diagonalization with overlap
     ethr =  1.98E-05,  avg # of iterations =  2.7

     negative rho (up, down):  2.116E-04 0.000E+00

     total cpu time spent up to now is      370.6 secs

     total energy              =    -979.51645446 Ry
     estimated scf accuracy    <       0.00179526 Ry

     iteration #  7     ecut=   150.00 Ry     beta= 0.70
     Davidson diagonalization with overlap
     ethr =  3.45E-06,  avg # of iterations =  4.3

     negative rho (up, down):  2.135E-04 0.000E+00

     total cpu time spent up to now is      416.2 secs

     total energy              =    -979.51673995 Ry
     estimated scf accuracy    <       0.00104207 Ry

     iteration #  8     ecut=   150.00 Ry     beta= 0.70
     Davidson diagonalization with overlap
     ethr =  2.00E-06,  avg # of iterations =  2.1

     negative rho (up, down):  2.152E-04 0.000E+00

     total cpu time spent up to now is      452.4 secs

     total energy              =    -979.51672298 Ry
     estimated scf accuracy    <       0.00034760 Ry

     iteration #  9     ecut=   150.00 Ry     beta= 0.70
     Davidson diagonalization with overlap
     ethr =  6.68E-07,  avg # of iterations =  4.6

     negative rho (up, down):  2.152E-04 0.000E+00

     total cpu time spent up to now is      499.3 secs

     total energy              =    -979.51680877 Ry
     estimated scf accuracy    <       0.00017563 Ry

     iteration # 10     ecut=   150.00 Ry     beta= 0.70
     Davidson diagonalization with overlap
     ethr =  3.38E-07,  avg # of iterations =  1.1

     negative rho (up, down):  2.154E-04 0.000E+00

     total cpu time spent up to now is      531.6 secs

     total energy              =    -979.51677283 Ry
     estimated scf accuracy    <       0.00010373 Ry

     iteration # 11     ecut=   150.00 Ry     beta= 0.70
     Davidson diagonalization with overlap
     ethr =  1.99E-07,  avg # of iterations =  4.4

     negative rho (up, down):  2.154E-04 0.000E+00

     total cpu time spent up to now is      578.0 secs

     total energy              =    -979.51680407 Ry
     estimated scf accuracy    <       0.00003623 Ry

     iteration # 12     ecut=   150.00 Ry     beta= 0.70
     Davidson diagonalization with overlap
     ethr =  6.97E-08,  avg # of iterations =  1.7

     negative rho (up, down):  2.153E-04 0.000E+00

     total cpu time spent up to now is      611.9 secs

     total energy              =    -979.51680618 Ry
     estimated scf accuracy    <       0.00001455 Ry

     iteration # 13     ecut=   150.00 Ry     beta= 0.70
     Davidson diagonalization with overlap
     ethr =  2.80E-08,  avg # of iterations =  1.0

     negative rho (up, down):  2.154E-04 0.000E+00

     total cpu time spent up to now is      644.1 secs

     total energy              =    -979.51680673 Ry
     estimated scf accuracy    <       0.00001440 Ry

     iteration # 14     ecut=   150.00 Ry     beta= 0.70
     Davidson diagonalization with overlap
     ethr =  2.77E-08,  avg # of iterations =  1.0

     negative rho (up, down):  2.154E-04 0.000E+00

     total cpu time spent up to now is      676.3 secs

     total energy              =    -979.51680663 Ry
     estimated scf accuracy    <       0.00001471 Ry

     iteration # 15     ecut=   150.00 Ry     beta= 0.70
     Davidson diagonalization with overlap
     ethr =  2.77E-08,  avg # of iterations =  1.0

     negative rho (up, down):  2.156E-04 0.000E+00

     total cpu time spent up to now is      708.4 secs

     total energy              =    -979.51680574 Ry
     estimated scf accuracy    <       0.00001397 Ry

     iteration # 16     ecut=   150.00 Ry     beta= 0.70
     Davidson diagonalization with overlap
     ethr =  2.69E-08,  avg # of iterations =  1.0

     negative rho (up, down):  2.155E-04 0.000E+00

     total cpu time spent up to now is      740.6 secs

     total energy              =    -979.51680477 Ry
     estimated scf accuracy    <       0.00001027 Ry

     iteration # 17     ecut=   150.00 Ry     beta= 0.70
     Davidson diagonalization with overlap
     ethr =  1.98E-08,  avg # of iterations =  2.1

     negative rho (up, down):  2.154E-04 0.000E+00

     total cpu time spent up to now is      774.7 secs

     total energy              =    -979.51680399 Ry
     estimated scf accuracy    <       0.00000381 Ry

     iteration # 18     ecut=   150.00 Ry     beta= 0.70
     Davidson diagonalization with overlap
     ethr =  7.32E-09,  avg # of iterations =  5.0

     negative rho (up, down):  2.154E-04 0.000E+00

     total cpu time spent up to now is      825.3 secs

     total energy              =    -979.51680612 Ry
     estimated scf accuracy    <       0.00000256 Ry

     iteration # 19     ecut=   150.00 Ry     beta= 0.70
     Davidson diagonalization with overlap
     ethr =  4.93E-09,  avg # of iterations =  2.3

     negative rho (up, down):  2.154E-04 0.000E+00

     total cpu time spent up to now is      861.7 secs

     total energy              =    -979.51680536 Ry
     estimated scf accuracy    <       0.00000559 Ry

     iteration # 20     ecut=   150.00 Ry     beta= 0.70
     Davidson diagonalization with overlap
     ethr =  4.93E-09,  avg # of iterations =  1.9

     negative rho (up, down):  2.154E-04 0.000E+00

     total cpu time spent up to now is      896.0 secs

     total energy              =    -979.51680537 Ry
     estimated scf accuracy    <       0.00000257 Ry

     iteration # 21     ecut=   150.00 Ry     beta= 0.70
     Davidson diagonalization with overlap
     ethr =  4.93E-09,  avg # of iterations =  1.0

     negative rho (up, down):  2.154E-04 0.000E+00

     total cpu time spent up to now is      928.1 secs

     total energy              =    -979.51680532 Ry
     estimated scf accuracy    <       0.00000183 Ry

     iteration # 22     ecut=   150.00 Ry     beta= 0.70
     Davidson diagonalization with overlap
     ethr =  3.52E-09,  avg # of iterations =  1.0

     negative rho (up, down):  2.155E-04 0.000E+00

     total cpu time spent up to now is      960.2 secs

     total energy              =    -979.51680533 Ry
     estimated scf accuracy    <       0.00000120 Ry

     iteration # 23     ecut=   150.00 Ry     beta= 0.70
     Davidson diagonalization with overlap
     ethr =  2.30E-09,  avg # of iterations =  1.2

     negative rho (up, down):  2.155E-04 0.000E+00

     total cpu time spent up to now is      992.8 secs

     total energy              =    -979.51680527 Ry
     estimated scf accuracy    <       0.00000091 Ry

     iteration # 24     ecut=   150.00 Ry     beta= 0.70
     Davidson diagonalization with overlap
     ethr =  1.74E-09,  avg # of iterations =  2.8

     negative rho (up, down):  2.154E-04 0.000E+00

     total cpu time spent up to now is     1029.0 secs

     total energy              =    -979.51680525 Ry
     estimated scf accuracy    <       0.00000022 Ry

     iteration # 25     ecut=   150.00 Ry     beta= 0.70
     Davidson diagonalization with overlap
     ethr =  4.29E-10,  avg # of iterations =  5.4

     negative rho (up, down):  2.155E-04 0.000E+00

     total cpu time spent up to now is     1085.3 secs

     total energy              =    -979.51680560 Ry
     estimated scf accuracy    <       0.00000053 Ry

     iteration # 26     ecut=   150.00 Ry     beta= 0.70
     Davidson diagonalization with overlap
     ethr =  4.29E-10,  avg # of iterations =  5.5

     negative rho (up, down):  2.155E-04 0.000E+00

     total cpu time spent up to now is     1139.8 secs

     total energy              =    -979.51680507 Ry
     estimated scf accuracy    <       0.00000347 Ry

     iteration # 27     ecut=   150.00 Ry     beta= 0.70
     Davidson diagonalization with overlap
     ethr =  4.29E-10,  avg # of iterations =  5.6

     negative rho (up, down):  2.155E-04 0.000E+00

     total cpu time spent up to now is     1199.6 secs

     total energy              =    -979.51680534 Ry
     estimated scf accuracy    <       0.00000010 Ry

     iteration # 28     ecut=   150.00 Ry     beta= 0.70
     Davidson diagonalization with overlap
     ethr =  1.90E-10,  avg # of iterations =  2.9

     negative rho (up, down):  2.155E-04 0.000E+00

     total cpu time spent up to now is     1238.5 secs

     total energy              =    -979.51680535 Ry
     estimated scf accuracy    <       0.00000001 Ry

     iteration # 29     ecut=   150.00 Ry     beta= 0.70
     Davidson diagonalization with overlap
     ethr =  2.21E-11,  avg # of iterations =  5.7

     negative rho (up, down):  2.155E-04 0.000E+00

     total cpu time spent up to now is     1297.6 secs

     total energy              =    -979.51680535 Ry
     estimated scf accuracy    <       0.00000002 Ry

     iteration # 30     ecut=   150.00 Ry     beta= 0.70
     Davidson diagonalization with overlap
     ethr =  2.21E-11,  avg # of iterations =  1.0

     negative rho (up, down):  2.155E-04 0.000E+00

     total cpu time spent up to now is     1329.7 secs

     total energy              =    -979.51680535 Ry
     estimated scf accuracy    <          8.7E-09 Ry

     iteration # 31     ecut=   150.00 Ry     beta= 0.70
     Davidson diagonalization with overlap
     ethr =  1.67E-11,  avg # of iterations =  1.8

     negative rho (up, down):  2.155E-04 0.000E+00

     total cpu time spent up to now is     1363.9 secs

     total energy              =    -979.51680535 Ry
     estimated scf accuracy    <          3.5E-09 Ry

     iteration # 32     ecut=   150.00 Ry     beta= 0.70
     Davidson diagonalization with overlap
     ethr =  6.74E-12,  avg # of iterations =  4.2

     negative rho (up, down):  2.155E-04 0.000E+00

     total cpu time spent up to now is     1407.2 secs

     total energy              =    -979.51680535 Ry
     estimated scf accuracy    <          8.9E-11 Ry

     iteration # 33     ecut=   150.00 Ry     beta= 0.70
     Davidson diagonalization with overlap
     ethr =  1.71E-13,  avg # of iterations =  7.1

     negative rho (up, down):  2.155E-04 0.000E+00

     total cpu time spent up to now is     1480.1 secs

     total energy              =    -979.51680535 Ry
     estimated scf accuracy    <          1.5E-09 Ry

     iteration # 34     ecut=   150.00 Ry     beta= 0.70
     Davidson diagonalization with overlap
     ethr =  1.71E-13,  avg # of iterations =  2.1

     negative rho (up, down):  2.155E-04 0.000E+00

     total cpu time spent up to now is     1517.5 secs

     total energy              =    -979.51680535 Ry
     estimated scf accuracy    <          1.3E-09 Ry

     iteration # 35     ecut=   150.00 Ry     beta= 0.70
     Davidson diagonalization with overlap
     ethr =  1.71E-13,  avg # of iterations =  3.9

     negative rho (up, down):  2.155E-04 0.000E+00

     total cpu time spent up to now is     1563.9 secs

     total energy              =    -979.51680535 Ry
     estimated scf accuracy    <          3.2E-10 Ry

     iteration # 36     ecut=   150.00 Ry     beta= 0.70
     Davidson diagonalization with overlap
     ethr =  1.71E-13,  avg # of iterations =  4.6

     negative rho (up, down):  2.155E-04 0.000E+00

     total cpu time spent up to now is     1612.2 secs

     total energy              =    -979.51680535 Ry
     estimated scf accuracy    <          9.9E-12 Ry

     iteration # 37     ecut=   150.00 Ry     beta= 0.70
     Davidson diagonalization with overlap
     ethr =  1.00E-13,  avg # of iterations =  1.0

     negative rho (up, down):  2.155E-04 0.000E+00

     total cpu time spent up to now is     1644.2 secs

     total energy              =    -979.51680535 Ry
     estimated scf accuracy    <          9.3E-12 Ry

     iteration # 38     ecut=   150.00 Ry     beta= 0.70
     Davidson diagonalization with overlap
     ethr =  1.00E-13,  avg # of iterations =  1.5

     negative rho (up, down):  2.155E-04 0.000E+00

     total cpu time spent up to now is     1677.5 secs

     End of self-consistent calculation

     Number of k-points >= 100: set verbosity='high' to print the bands.

     highest occupied level (ev):     2.2371

!    total energy              =    -979.51680535 Ry

     total all-electron energy =    -19376.432496 Ry
     estimated scf accuracy    <          1.7E-13 Ry

     The total energy is the sum of the following terms:
     one-electron contribution =   -2749.18218180 Ry
     hartree contribution      =    1385.31714726 Ry
     xc contribution           =     -59.08392495 Ry
     ewald contribution        =    1069.21323335 Ry
     one-center paw contrib.   =    -625.78107920 Ry

     convergence has been achieved in  38 iterations

     negative rho (up, down):  2.155E-04 0.000E+00

     Forces acting on atoms (cartesian axes, Ry/au):

     atom    1 type  1   force =     0.00001330   -0.00005871    0.00000041
     atom    2 type  2   force =    -0.00000574    0.00002554    0.00349802
     atom    3 type  2   force =    -0.00000767    0.00003361   -0.00357125
     atom    4 type  1   force =    -0.00001330    0.00005871   -0.00000041
     atom    5 type  2   force =     0.00000767   -0.00003361    0.00357125
     atom    6 type  2   force =     0.00000574   -0.00002554   -0.00349802

     Total force =     0.007070     Total SCF correction =     0.000003


     Computing stress (Cartesian axis) and pressure


     negative rho (up, down):  2.155E-04 0.000E+00
          total   stress  (Ry/bohr**3)                   (kbar)     P=        5.04
   0.00003691   0.00000009   0.00000001            5.43        0.01        0.00
   0.00000009   0.00003760  -0.00000004            0.01        5.53       -0.01
   0.00000001  -0.00000004   0.00002826            0.00       -0.01        4.16


     Writing output data file /scratch/as3359/Mos2_ct_lat/MoS2.save/
 
     init_run     :     47.61s CPU     25.77s WALL (       1 calls)
     electrons    :   3252.59s CPU   1651.40s WALL (       1 calls)
     forces       :     12.20s CPU      6.15s WALL (       1 calls)
     stress       :     45.05s CPU     22.84s WALL (       1 calls)

     Called by init_run:
     wfcinit      :     38.78s CPU     20.02s WALL (       1 calls)
     potinit      :      2.54s CPU      1.29s WALL (       1 calls)
     hinit0       :      5.23s CPU      3.83s WALL (       1 calls)

     Called by electrons:
     c_bands      :   2746.42s CPU   1390.81s WALL (      38 calls)
     sum_band     :    471.17s CPU    240.64s WALL (      38 calls)
     v_of_rho     :      8.21s CPU      4.46s WALL (      39 calls)
     newd         :     14.78s CPU      9.08s WALL (      39 calls)
     PAW_pot      :      8.83s CPU      4.50s WALL (      39 calls)
     mix_rho      :      3.40s CPU      1.96s WALL (      38 calls)

     Called by c_bands:
     init_us_2    :     62.85s CPU     31.47s WALL (    8927 calls)
     cegterg      :   2591.76s CPU   1312.91s WALL (    4294 calls)

     Called by *egterg:
     cdiaghg      :     21.10s CPU     10.82s WALL (   18060 calls)
     h_psi        :   2153.71s CPU   1093.18s WALL (   18173 calls)
     s_psi        :    101.58s CPU     50.91s WALL (   18173 calls)
     g_psi        :     14.56s CPU      7.31s WALL (   13766 calls)

     Called by h_psi:
     h_psi:calbec :     83.59s CPU     41.88s WALL (   18173 calls)
     vloc_psi     :   1948.92s CPU    990.40s WALL (   18173 calls)
     add_vuspsi   :    103.73s CPU     52.00s WALL (   18173 calls)

     General routines
     calbec       :    116.37s CPU     58.35s WALL (   23032 calls)
     fft          :      3.75s CPU      2.23s WALL (     454 calls)
     ffts         :      0.24s CPU      0.13s WALL (      38 calls)
     fftw         :   1982.53s CPU   1008.72s WALL (  738886 calls)
 
     Parallel routines
 
     PWSCF        :  56m 3.28s CPU  28m31.71s WALL

 
   This run was terminated on:  16:19:19  17Apr2022            

=------------------------------------------------------------------------------=
   JOB DONE.
=------------------------------------------------------------------------------=
