
     Program PWSCF v.6.8 starts on 17Apr2022 at 18:30:43 

     This program is part of the open-source Quantum ESPRESSO suite
     for quantum simulation of materials; please cite
         "P. Giannozzi et al., J. Phys.:Condens. Matter 21 395502 (2009);
         "P. Giannozzi et al., J. Phys.:Condens. Matter 29 465901 (2017);
         "P. Giannozzi et al., J. Chem. Phys. 152 154105 (2020);
          URL http://www.quantum-espresso.org", 
     in publications or presentations arising from this work. More details at
     http://www.quantum-espresso.org/quote

     Parallel version (MPI & OpenMP), running on       4 processor cores
     Number of MPI processes:                 2
     Threads/MPI process:                     2

     MPI processes distributed on     1 nodes
     R & G space division:  proc/nbgrp/npool/nimage =       2
     124980 MiB available memory on the printing compute node when the environment starts
 
     Reading input from MoS2.scf.6.120.in
Warning: card  &CELL ignored
Warning: card     CELL_DYNAMICS='BFGS' ignored
Warning: card  / ignored

     Current dimensions of program PWSCF are:
     Max number of different atomic species (ntypx) = 10
     Max number of k-points (npk) =  40000
     Max angular momentum in pseudopotentials (lmaxx) =  4
     Message from routine iosys:
     restart disabled: needed files not found
     file Mo.pbesol-spn-kjpaw_psl.1.0.0.UPF: wavefunction(s)  4S 4D renormalized
     file S.pbesol-nl-kjpaw_psl.1.0.0.UPF: wavefunction(s)  3S renormalized
     Message from routine setup:
     using ibrav=0 with symmetry is DISCOURAGED, use correct ibrav instead

     Subspace diagonalization in iterative solution of the eigenvalue problem:
     a serial algorithm will be used

 
     Parallelization info
     --------------------
     sticks:   dense  smooth     PW     G-vecs:    dense   smooth      PW
     Min         741     741    216               188295   188295   29716
     Max         742     742    217               188332   188332   29723
     Sum        1483    1483    433               376627   376627   59439
 
     Using Slab Decomposition
 


     bravais-lattice index     =            0
     lattice parameter (alat)  =       6.1200  a.u.
     unit-cell volume          =    1516.6823 (a.u.)^3
     number of atoms/cell      =            6
     number of atomic types    =            2
     number of electrons       =        52.00
     number of Kohn-Sham states=           26
     kinetic-energy cutoff     =     150.0000  Ry
     charge density cutoff     =     600.0000  Ry
     scf convergence threshold =      1.0E-12
     mixing beta               =       0.7000
     number of iterations used =            8  plain     mixing
     Exchange-correlation= SLA  PW   PSX  PSC
                           (   1   4  10   8   0   0   0)

     celldm(1)=   6.120000  celldm(2)=   0.000000  celldm(3)=   0.000000
     celldm(4)=   0.000000  celldm(5)=   0.000000  celldm(6)=   0.000000

     crystal axes: (cart. coord. in units of alat)
               a(1) = (   0.977326  -0.000176   0.000000 )  
               a(2) = (  -0.488540   0.846362   0.000000 )  
               a(3) = (   0.000000   0.000000   8.000000 )  

     reciprocal axes: (cart. coord. in units 2 pi/alat)
               b(1) = (  1.023307  0.590676  0.000000 )  
               b(2) = (  0.000213  1.181651  0.000000 )  
               b(3) = (  0.000000  0.000000  0.125000 )  


     PseudoPot. # 1 for Mo read from file:
     /shared/home/as3359/pseudo/Mo.pbesol-spn-kjpaw_psl.1.0.0.UPF
     MD5 check sum: de57925cfc675213e43241dcc441eda8
     Pseudo is Projector augmented-wave + core cor, Zval = 14.0
     Generated using &quot;atomic&quot; code by A. Dal Corso  v.6.3
     Shape of augmentation charge: PSQ
     Using radial grid of 1229 points,  6 beta functions with: 
                l(1) =   0
                l(2) =   0
                l(3) =   1
                l(4) =   1
                l(5) =   2
                l(6) =   2
     Q(r) pseudized with 0 coefficients 


     PseudoPot. # 2 for S  read from file:
     /shared/home/as3359/pseudo/S.pbesol-nl-kjpaw_psl.1.0.0.UPF
     MD5 check sum: bf3db50ec3f960682bbc396f1aadd1dd
     Pseudo is Projector augmented-wave + core cor, Zval =  6.0
     Generated using &quot;atomic&quot; code by A. Dal Corso  v.6.3
     Shape of augmentation charge: PSQ
     Using radial grid of 1151 points,  4 beta functions with: 
                l(1) =   0
                l(2) =   0
                l(3) =   1
                l(4) =   1
     Q(r) pseudized with 0 coefficients 


     atomic species   valence    mass     pseudopotential
        Mo            14.00    95.94000     Mo( 1.00)
        S              6.00    32.06500     S ( 1.00)

      2 Sym. Ops., with inversion, found ( 1 have fractional translation)



   Cartesian axes

     site n.     atom                  positions (alat units)
         1           Mo  tau(   1) = (   0.0000000   0.0000000   0.9844997  )
         2           S   tau(   2) = (   0.4887119   0.2819702   1.4701535  )
         3           S   tau(   3) = (   0.4887135   0.2819635   0.4988906  )
         4           Mo  tau(   4) = (   0.0000000   0.0000000   3.0155003  )
         5           S   tau(   5) = (  -0.4887135  -0.2819635   3.5011094  )
         6           S   tau(   6) = (  -0.4887119  -0.2819702   2.5298465  )

     number of k points=   113

     Number of k-points >= 100: set verbosity='high' to print them.

     Dense  grid:   376627 G-vectors     FFT dimensions: (  48,  48, 384)

     Estimated max dynamical RAM per process >       1.74 GB

     Estimated total dynamical RAM >       3.48 GB
     Cannot read rho : file not found

     Initial potential from superposition of free atoms

     starting charge   51.99828, renormalised to   52.00000

     negative rho (up, down):  1.626E-04 0.000E+00
     Message from routine qexsd_readschema :
     xml data file /scratch/as3359/Mos2_ct_lat/MoS2.save/data-file-schema.xml not fou
     Cannot read wfcs: file not found
     Starting wfcs are   36 randomized atomic wfcs
     Checking if some PAW data can be deallocated... 

     total cpu time spent up to now is       26.4 secs

     Self-consistent Calculation

     iteration #  1     ecut=   150.00 Ry     beta= 0.70
     Davidson diagonalization with overlap
     ethr =  1.00E-05,  avg # of iterations = 10.4

     negative rho (up, down):  2.091E-04 0.000E+00

     total cpu time spent up to now is      139.2 secs

     total energy              =    -979.39813967 Ry
     estimated scf accuracy    <       0.26858519 Ry

     iteration #  2     ecut=   150.00 Ry     beta= 0.70
     Davidson diagonalization with overlap
     ethr =  5.17E-04,  avg # of iterations =  4.8

     negative rho (up, down):  2.008E-04 0.000E+00

     total cpu time spent up to now is      194.1 secs

     total energy              =    -979.34236980 Ry
     estimated scf accuracy    <       0.82857418 Ry

     iteration #  3     ecut=   150.00 Ry     beta= 0.70
     Davidson diagonalization with overlap
     ethr =  5.17E-04,  avg # of iterations =  5.1

     negative rho (up, down):  2.029E-04 0.000E+00

     total cpu time spent up to now is      248.7 secs

     total energy              =    -979.49995923 Ry
     estimated scf accuracy    <       0.10556486 Ry

     iteration #  4     ecut=   150.00 Ry     beta= 0.70
     Davidson diagonalization with overlap
     ethr =  2.03E-04,  avg # of iterations =  2.9

     negative rho (up, down):  2.040E-04 0.000E+00

     total cpu time spent up to now is      289.7 secs

     total energy              =    -979.50879184 Ry
     estimated scf accuracy    <       0.01872665 Ry

     iteration #  5     ecut=   150.00 Ry     beta= 0.70
     Davidson diagonalization with overlap
     ethr =  3.60E-05,  avg # of iterations =  4.6

     negative rho (up, down):  2.102E-04 0.000E+00

     total cpu time spent up to now is      339.2 secs

     total energy              =    -979.51355037 Ry
     estimated scf accuracy    <       0.01651603 Ry

     iteration #  6     ecut=   150.00 Ry     beta= 0.70
     Davidson diagonalization with overlap
     ethr =  3.18E-05,  avg # of iterations =  2.5

     negative rho (up, down):  2.125E-04 0.000E+00

     total cpu time spent up to now is      378.9 secs

     total energy              =    -979.51454767 Ry
     estimated scf accuracy    <       0.00353798 Ry

     iteration #  7     ecut=   150.00 Ry     beta= 0.70
     Davidson diagonalization with overlap
     ethr =  6.80E-06,  avg # of iterations =  3.8

     negative rho (up, down):  2.144E-04 0.000E+00

     total cpu time spent up to now is      423.0 secs

     total energy              =    -979.51494320 Ry
     estimated scf accuracy    <       0.00147488 Ry

     iteration #  8     ecut=   150.00 Ry     beta= 0.70
     Davidson diagonalization with overlap
     ethr =  2.84E-06,  avg # of iterations =  2.2

     negative rho (up, down):  2.164E-04 0.000E+00

     total cpu time spent up to now is      461.0 secs

     total energy              =    -979.51492702 Ry
     estimated scf accuracy    <       0.00058941 Ry

     iteration #  9     ecut=   150.00 Ry     beta= 0.70
     Davidson diagonalization with overlap
     ethr =  1.13E-06,  avg # of iterations =  4.3

     negative rho (up, down):  2.165E-04 0.000E+00

     total cpu time spent up to now is      507.8 secs

     total energy              =    -979.51504917 Ry
     estimated scf accuracy    <       0.00021320 Ry

     iteration # 10     ecut=   150.00 Ry     beta= 0.70
     Davidson diagonalization with overlap
     ethr =  4.10E-07,  avg # of iterations =  1.7

     negative rho (up, down):  2.166E-04 0.000E+00

     total cpu time spent up to now is      542.3 secs

     total energy              =    -979.51501180 Ry
     estimated scf accuracy    <       0.00011036 Ry

     iteration # 11     ecut=   150.00 Ry     beta= 0.70
     Davidson diagonalization with overlap
     ethr =  2.12E-07,  avg # of iterations =  4.6

     negative rho (up, down):  2.168E-04 0.000E+00

     total cpu time spent up to now is      591.0 secs

     total energy              =    -979.51505030 Ry
     estimated scf accuracy    <       0.00004278 Ry

     iteration # 12     ecut=   150.00 Ry     beta= 0.70
     Davidson diagonalization with overlap
     ethr =  8.23E-08,  avg # of iterations =  1.5

     negative rho (up, down):  2.168E-04 0.000E+00

     total cpu time spent up to now is      625.0 secs

     total energy              =    -979.51504862 Ry
     estimated scf accuracy    <       0.00002342 Ry

     iteration # 13     ecut=   150.00 Ry     beta= 0.70
     Davidson diagonalization with overlap
     ethr =  4.50E-08,  avg # of iterations =  2.1

     negative rho (up, down):  2.168E-04 0.000E+00

     total cpu time spent up to now is      660.3 secs

     total energy              =    -979.51504803 Ry
     estimated scf accuracy    <       0.00000814 Ry

     iteration # 14     ecut=   150.00 Ry     beta= 0.70
     Davidson diagonalization with overlap
     ethr =  1.57E-08,  avg # of iterations =  4.4

     negative rho (up, down):  2.169E-04 0.000E+00

     total cpu time spent up to now is      707.2 secs

     total energy              =    -979.51505001 Ry
     estimated scf accuracy    <       0.00000012 Ry

     iteration # 15     ecut=   150.00 Ry     beta= 0.70
     Davidson diagonalization with overlap
     ethr =  2.24E-10,  avg # of iterations =  7.5

     negative rho (up, down):  2.169E-04 0.000E+00

     total cpu time spent up to now is      787.6 secs

     total energy              =    -979.51505004 Ry
     estimated scf accuracy    <       0.00000299 Ry

     iteration # 16     ecut=   150.00 Ry     beta= 0.70
     Davidson diagonalization with overlap
     ethr =  2.24E-10,  avg # of iterations =  4.5

     negative rho (up, down):  2.169E-04 0.000E+00

     total cpu time spent up to now is      838.6 secs

     total energy              =    -979.51504967 Ry
     estimated scf accuracy    <       0.00000105 Ry

     iteration # 17     ecut=   150.00 Ry     beta= 0.70
     Davidson diagonalization with overlap
     ethr =  2.24E-10,  avg # of iterations =  7.5

     negative rho (up, down):  2.169E-04 0.000E+00

     total cpu time spent up to now is      916.1 secs

     total energy              =    -979.51504995 Ry
     estimated scf accuracy    <       0.00000115 Ry

     iteration # 18     ecut=   150.00 Ry     beta= 0.70
     Davidson diagonalization with overlap
     ethr =  2.24E-10,  avg # of iterations =  4.7

     negative rho (up, down):  2.169E-04 0.000E+00

     total cpu time spent up to now is      967.5 secs

     total energy              =    -979.51505000 Ry
     estimated scf accuracy    <       0.00000014 Ry

     iteration # 19     ecut=   150.00 Ry     beta= 0.70
     Davidson diagonalization with overlap
     ethr =  2.24E-10,  avg # of iterations =  3.1

     negative rho (up, down):  2.169E-04 0.000E+00

     total cpu time spent up to now is     1008.2 secs

     total energy              =    -979.51505001 Ry
     estimated scf accuracy    <       0.00000002 Ry

     iteration # 20     ecut=   150.00 Ry     beta= 0.70
     Davidson diagonalization with overlap
     ethr =  3.43E-11,  avg # of iterations =  4.9

     negative rho (up, down):  2.169E-04 0.000E+00

     total cpu time spent up to now is     1062.0 secs

     total energy              =    -979.51505001 Ry
     estimated scf accuracy    <          1.8E-09 Ry

     iteration # 21     ecut=   150.00 Ry     beta= 0.70
     Davidson diagonalization with overlap
     ethr =  3.44E-12,  avg # of iterations =  4.3

     negative rho (up, down):  2.169E-04 0.000E+00

     total cpu time spent up to now is     1103.1 secs

     total energy              =    -979.51505001 Ry
     estimated scf accuracy    <          3.3E-09 Ry

     iteration # 22     ecut=   150.00 Ry     beta= 0.70
     Davidson diagonalization with overlap
     ethr =  3.44E-12,  avg # of iterations =  1.0

     negative rho (up, down):  2.169E-04 0.000E+00

     total cpu time spent up to now is     1135.7 secs

     total energy              =    -979.51505001 Ry
     estimated scf accuracy    <          3.4E-09 Ry

     iteration # 23     ecut=   150.00 Ry     beta= 0.70
     Davidson diagonalization with overlap
     ethr =  3.44E-12,  avg # of iterations =  2.4

     negative rho (up, down):  2.169E-04 0.000E+00

     total cpu time spent up to now is     1175.0 secs

     total energy              =    -979.51505001 Ry
     estimated scf accuracy    <          8.8E-10 Ry

     iteration # 24     ecut=   150.00 Ry     beta= 0.70
     Davidson diagonalization with overlap
     ethr =  1.70E-12,  avg # of iterations =  3.5

     negative rho (up, down):  2.169E-04 0.000E+00

     total cpu time spent up to now is     1216.3 secs

     total energy              =    -979.51505001 Ry
     estimated scf accuracy    <          6.9E-11 Ry

     iteration # 25     ecut=   150.00 Ry     beta= 0.70
     Davidson diagonalization with overlap
     ethr =  1.34E-13,  avg # of iterations =  5.8

     negative rho (up, down):  2.169E-04 0.000E+00

     total cpu time spent up to now is     1277.3 secs

     total energy              =    -979.51505001 Ry
     estimated scf accuracy    <          9.6E-11 Ry

     iteration # 26     ecut=   150.00 Ry     beta= 0.70
     Davidson diagonalization with overlap
     ethr =  1.34E-13,  avg # of iterations =  2.0

     negative rho (up, down):  2.169E-04 0.000E+00

     total cpu time spent up to now is     1313.8 secs

     total energy              =    -979.51505001 Ry
     estimated scf accuracy    <          2.8E-11 Ry

     iteration # 27     ecut=   150.00 Ry     beta= 0.70
     Davidson diagonalization with overlap
     ethr =  1.00E-13,  avg # of iterations =  3.3

     negative rho (up, down):  2.169E-04 0.000E+00

     total cpu time spent up to now is     1356.3 secs

     End of self-consistent calculation

     Number of k-points >= 100: set verbosity='high' to print the bands.

     highest occupied level (ev):     1.9961

!    total energy              =    -979.51505001 Ry

     total all-electron energy =    -19376.430741 Ry
     estimated scf accuracy    <          8.7E-13 Ry

     The total energy is the sum of the following terms:
     one-electron contribution =   -2727.63110074 Ry
     hartree contribution      =    1374.08814746 Ry
     xc contribution           =     -58.93465172 Ry
     ewald contribution        =    1058.73075067 Ry
     one-center paw contrib.   =    -625.76819568 Ry

     convergence has been achieved in  27 iterations

     negative rho (up, down):  2.169E-04 0.000E+00

     Forces acting on atoms (cartesian axes, Ry/au):

     atom    1 type  1   force =     0.00001371   -0.00005887   -0.00000259
     atom    2 type  2   force =    -0.00000590    0.00002597   -0.01554533
     atom    3 type  2   force =    -0.00000774    0.00003347    0.01574473
     atom    4 type  1   force =    -0.00001371    0.00005887    0.00000259
     atom    5 type  2   force =     0.00000774   -0.00003347   -0.01574473
     atom    6 type  2   force =     0.00000590   -0.00002597    0.01554533

     Total force =     0.031291     Total SCF correction =     0.000004


     Computing stress (Cartesian axis) and pressure


     negative rho (up, down):  2.169E-04 0.000E+00
          total   stress  (Ry/bohr**3)                   (kbar)     P=      -16.33
  -0.00010444   0.00000009   0.00000001          -15.36        0.01        0.00
   0.00000009  -0.00010378  -0.00000003            0.01      -15.27       -0.00
   0.00000001  -0.00000003  -0.00012484            0.00       -0.00      -18.36


     Writing output data file /scratch/as3359/Mos2_ct_lat/MoS2.save/
 
     init_run     :     48.51s CPU     26.26s WALL (       1 calls)
     electrons    :   2619.68s CPU   1329.99s WALL (       1 calls)
     forces       :     12.57s CPU      6.35s WALL (       1 calls)
     stress       :     48.94s CPU     24.76s WALL (       1 calls)

     Called by init_run:
     wfcinit      :     39.53s CPU     20.39s WALL (       1 calls)
     potinit      :      2.56s CPU      1.30s WALL (       1 calls)
     hinit0       :      5.34s CPU      3.92s WALL (       1 calls)

     Called by electrons:
     c_bands      :   2257.25s CPU   1143.19s WALL (      27 calls)
     sum_band     :    337.35s CPU    172.46s WALL (      27 calls)
     v_of_rho     :      5.97s CPU      3.25s WALL (      28 calls)
     newd         :     10.96s CPU      6.74s WALL (      28 calls)
     PAW_pot      :      6.27s CPU      3.23s WALL (      28 calls)
     mix_rho      :      2.33s CPU      1.36s WALL (      27 calls)

     Called by c_bands:
     init_us_2    :     46.03s CPU     23.04s WALL (    6441 calls)
     cegterg      :   2142.13s CPU   1085.16s WALL (    3051 calls)

     Called by *egterg:
     cdiaghg      :     18.34s CPU      9.40s WALL (   15415 calls)
     h_psi        :   1729.05s CPU    877.70s WALL (   15528 calls)
     s_psi        :     81.64s CPU     40.91s WALL (   15528 calls)
     g_psi        :     15.42s CPU      7.74s WALL (   12364 calls)

     Called by h_psi:
     h_psi:calbec :     69.64s CPU     34.91s WALL (   15528 calls)
     vloc_psi     :   1563.30s CPU    794.48s WALL (   15528 calls)
     add_vuspsi   :     81.74s CPU     40.98s WALL (   15528 calls)

     General routines
     calbec       :     93.27s CPU     46.78s WALL (   19144 calls)
     fft          :      3.03s CPU      1.87s WALL (     333 calls)
     ffts         :      0.17s CPU      0.09s WALL (      27 calls)
     fftw         :   1564.01s CPU    795.90s WALL (  577510 calls)
 
     Parallel routines
 
     PWSCF        :  45m35.48s CPU  23m12.64s WALL

 
   This run was terminated on:  18:53:55  17Apr2022            

=------------------------------------------------------------------------------=
   JOB DONE.
=------------------------------------------------------------------------------=
