
     Program PWSCF v.6.8 starts on 18Apr2022 at 10:46:35 

     This program is part of the open-source Quantum ESPRESSO suite
     for quantum simulation of materials; please cite
         "P. Giannozzi et al., J. Phys.:Condens. Matter 21 395502 (2009);
         "P. Giannozzi et al., J. Phys.:Condens. Matter 29 465901 (2017);
         "P. Giannozzi et al., J. Chem. Phys. 152 154105 (2020);
          URL http://www.quantum-espresso.org", 
     in publications or presentations arising from this work. More details at
     http://www.quantum-espresso.org/quote

     Parallel version (MPI & OpenMP), running on       4 processor cores
     Number of MPI processes:                 2
     Threads/MPI process:                     2

     MPI processes distributed on     1 nodes
     R & G space division:  proc/nbgrp/npool/nimage =       2
     124972 MiB available memory on the printing compute node when the environment starts
 
     Reading input from MoS2.scf.6.074.in
Warning: card  &CELL ignored
Warning: card     CELL_DYNAMICS='BFGS' ignored
Warning: card  / ignored

     Current dimensions of program PWSCF are:
     Max number of different atomic species (ntypx) = 10
     Max number of k-points (npk) =  40000
     Max angular momentum in pseudopotentials (lmaxx) =  4
     Message from routine iosys:
     restart disabled: needed files not found
     file Mo.pbesol-spn-kjpaw_psl.1.0.0.UPF: wavefunction(s)  4S 4D renormalized
     file S.pbesol-nl-kjpaw_psl.1.0.0.UPF: wavefunction(s)  3S renormalized
     Message from routine setup:
     using ibrav=0 with symmetry is DISCOURAGED, use correct ibrav instead

     Subspace diagonalization in iterative solution of the eigenvalue problem:
     a serial algorithm will be used

 
     Parallelization info
     --------------------
     sticks:   dense  smooth     PW     G-vecs:    dense   smooth      PW
     Min         729     729    215               183811   183811   29074
     Max         730     730    218               183830   183830   29079
     Sum        1459    1459    433               367641   367641   58153
 
     Using Slab Decomposition
 


     bravais-lattice index     =            0
     lattice parameter (alat)  =       6.0740  a.u.
     unit-cell volume          =    1482.7390 (a.u.)^3
     number of atoms/cell      =            6
     number of atomic types    =            2
     number of electrons       =        52.00
     number of Kohn-Sham states=           26
     kinetic-energy cutoff     =     150.0000  Ry
     charge density cutoff     =     600.0000  Ry
     scf convergence threshold =      1.0E-12
     mixing beta               =       0.7000
     number of iterations used =            8  plain     mixing
     Exchange-correlation= SLA  PW   PSX  PSC
                           (   1   4  10   8   0   0   0)

     celldm(1)=   6.074000  celldm(2)=   0.000000  celldm(3)=   0.000000
     celldm(4)=   0.000000  celldm(5)=   0.000000  celldm(6)=   0.000000

     crystal axes: (cart. coord. in units of alat)
               a(1) = (   0.977326  -0.000176   0.000000 )  
               a(2) = (  -0.488540   0.846362   0.000000 )  
               a(3) = (   0.000000   0.000000   8.000000 )  

     reciprocal axes: (cart. coord. in units 2 pi/alat)
               b(1) = (  1.023307  0.590676  0.000000 )  
               b(2) = (  0.000213  1.181651  0.000000 )  
               b(3) = (  0.000000  0.000000  0.125000 )  


     PseudoPot. # 1 for Mo read from file:
     /shared/home/as3359/pseudo/Mo.pbesol-spn-kjpaw_psl.1.0.0.UPF
     MD5 check sum: de57925cfc675213e43241dcc441eda8
     Pseudo is Projector augmented-wave + core cor, Zval = 14.0
     Generated using &quot;atomic&quot; code by A. Dal Corso  v.6.3
     Shape of augmentation charge: PSQ
     Using radial grid of 1229 points,  6 beta functions with: 
                l(1) =   0
                l(2) =   0
                l(3) =   1
                l(4) =   1
                l(5) =   2
                l(6) =   2
     Q(r) pseudized with 0 coefficients 


     PseudoPot. # 2 for S  read from file:
     /shared/home/as3359/pseudo/S.pbesol-nl-kjpaw_psl.1.0.0.UPF
     MD5 check sum: bf3db50ec3f960682bbc396f1aadd1dd
     Pseudo is Projector augmented-wave + core cor, Zval =  6.0
     Generated using &quot;atomic&quot; code by A. Dal Corso  v.6.3
     Shape of augmentation charge: PSQ
     Using radial grid of 1151 points,  4 beta functions with: 
                l(1) =   0
                l(2) =   0
                l(3) =   1
                l(4) =   1
     Q(r) pseudized with 0 coefficients 


     atomic species   valence    mass     pseudopotential
        Mo            14.00    95.94000     Mo( 1.00)
        S              6.00    32.06500     S ( 1.00)

      2 Sym. Ops., with inversion, found ( 1 have fractional translation)



   Cartesian axes

     site n.     atom                  positions (alat units)
         1           Mo  tau(   1) = (   0.0000000   0.0000000   0.9844997  )
         2           S   tau(   2) = (   0.4887119   0.2819702   1.4701535  )
         3           S   tau(   3) = (   0.4887135   0.2819635   0.4988906  )
         4           Mo  tau(   4) = (   0.0000000   0.0000000   3.0155003  )
         5           S   tau(   5) = (  -0.4887135  -0.2819635   3.5011094  )
         6           S   tau(   6) = (  -0.4887119  -0.2819702   2.5298465  )

     number of k points=   113

     Number of k-points >= 100: set verbosity='high' to print them.

     Dense  grid:   367641 G-vectors     FFT dimensions: (  48,  48, 384)

     Estimated max dynamical RAM per process >       1.70 GB

     Estimated total dynamical RAM >       3.41 GB
     Cannot read rho : file not found

     Initial potential from superposition of free atoms

     starting charge   51.99828, renormalised to   52.00000

     negative rho (up, down):  1.605E-04 0.000E+00
     Message from routine qexsd_readschema :
     xml data file /scratch/as3359/Mos2_ct_lat/MoS2.save/data-file-schema.xml not fou
     Cannot read wfcs: file not found
     Starting wfcs are   36 randomized atomic wfcs
     Checking if some PAW data can be deallocated... 

     total cpu time spent up to now is       27.3 secs

     Self-consistent Calculation

     iteration #  1     ecut=   150.00 Ry     beta= 0.70
     Davidson diagonalization with overlap
     ethr =  1.00E-05,  avg # of iterations = 10.4

     negative rho (up, down):  2.060E-04 0.000E+00

     total cpu time spent up to now is      155.1 secs

     total energy              =    -979.38560856 Ry
     estimated scf accuracy    <       0.29174889 Ry

     iteration #  2     ecut=   150.00 Ry     beta= 0.70
     Davidson diagonalization with overlap
     ethr =  5.61E-04,  avg # of iterations =  5.0

     negative rho (up, down):  1.957E-04 0.000E+00

     total cpu time spent up to now is      219.9 secs

     total energy              =    -979.31088115 Ry
     estimated scf accuracy    <       1.03471324 Ry

     iteration #  3     ecut=   150.00 Ry     beta= 0.70
     Davidson diagonalization with overlap
     ethr =  5.61E-04,  avg # of iterations =  5.2

     negative rho (up, down):  1.972E-04 0.000E+00

     total cpu time spent up to now is      282.9 secs

     total energy              =    -979.50297171 Ry
     estimated scf accuracy    <       0.09287714 Ry

     iteration #  4     ecut=   150.00 Ry     beta= 0.70
     Davidson diagonalization with overlap
     ethr =  1.79E-04,  avg # of iterations =  2.8

     negative rho (up, down):  1.986E-04 0.000E+00

     total cpu time spent up to now is      330.2 secs

     total energy              =    -979.51093641 Ry
     estimated scf accuracy    <       0.02067945 Ry

     iteration #  5     ecut=   150.00 Ry     beta= 0.70
     Davidson diagonalization with overlap
     ethr =  3.98E-05,  avg # of iterations =  4.0

     negative rho (up, down):  2.059E-04 0.000E+00

     total cpu time spent up to now is      383.4 secs

     total energy              =    -979.51567732 Ry
     estimated scf accuracy    <       0.01231795 Ry

     iteration #  6     ecut=   150.00 Ry     beta= 0.70
     Davidson diagonalization with overlap
     ethr =  2.37E-05,  avg # of iterations =  2.6

     negative rho (up, down):  2.086E-04 0.000E+00

     total cpu time spent up to now is      429.4 secs

     total energy              =    -979.51658681 Ry
     estimated scf accuracy    <       0.00214800 Ry

     iteration #  7     ecut=   150.00 Ry     beta= 0.70
     Davidson diagonalization with overlap
     ethr =  4.13E-06,  avg # of iterations =  4.4

     negative rho (up, down):  2.106E-04 0.000E+00

     total cpu time spent up to now is      482.6 secs

     total energy              =    -979.51689289 Ry
     estimated scf accuracy    <       0.00134927 Ry

     iteration #  8     ecut=   150.00 Ry     beta= 0.70
     Davidson diagonalization with overlap
     ethr =  2.59E-06,  avg # of iterations =  2.0

     negative rho (up, down):  2.123E-04 0.000E+00

     total cpu time spent up to now is      524.0 secs

     total energy              =    -979.51687837 Ry
     estimated scf accuracy    <       0.00045573 Ry

     iteration #  9     ecut=   150.00 Ry     beta= 0.70
     Davidson diagonalization with overlap
     ethr =  8.76E-07,  avg # of iterations =  4.6

     negative rho (up, down):  2.124E-04 0.000E+00

     total cpu time spent up to now is      578.0 secs

     total energy              =    -979.51698006 Ry
     estimated scf accuracy    <       0.00018681 Ry

     iteration # 10     ecut=   150.00 Ry     beta= 0.70
     Davidson diagonalization with overlap
     ethr =  3.59E-07,  avg # of iterations =  1.3

     negative rho (up, down):  2.126E-04 0.000E+00

     total cpu time spent up to now is      616.8 secs

     total energy              =    -979.51694103 Ry
     estimated scf accuracy    <       0.00010810 Ry

     iteration # 11     ecut=   150.00 Ry     beta= 0.70
     Davidson diagonalization with overlap
     ethr =  2.08E-07,  avg # of iterations =  4.5

     negative rho (up, down):  2.127E-04 0.000E+00

     total cpu time spent up to now is      673.5 secs

     total energy              =    -979.51697587 Ry
     estimated scf accuracy    <       0.00004259 Ry

     iteration # 12     ecut=   150.00 Ry     beta= 0.70
     Davidson diagonalization with overlap
     ethr =  8.19E-08,  avg # of iterations =  1.8

     negative rho (up, down):  2.126E-04 0.000E+00

     total cpu time spent up to now is      712.9 secs

     total energy              =    -979.51697742 Ry
     estimated scf accuracy    <       0.00001534 Ry

     iteration # 13     ecut=   150.00 Ry     beta= 0.70
     Davidson diagonalization with overlap
     ethr =  2.95E-08,  avg # of iterations =  1.6

     negative rho (up, down):  2.127E-04 0.000E+00

     total cpu time spent up to now is      750.8 secs

     total energy              =    -979.51697680 Ry
     estimated scf accuracy    <       0.00001117 Ry

     iteration # 14     ecut=   150.00 Ry     beta= 0.70
     Davidson diagonalization with overlap
     ethr =  2.15E-08,  avg # of iterations =  2.6

     negative rho (up, down):  2.128E-04 0.000E+00

     total cpu time spent up to now is      791.4 secs

     total energy              =    -979.51697566 Ry
     estimated scf accuracy    <       0.00000424 Ry

     iteration # 15     ecut=   150.00 Ry     beta= 0.70
     Davidson diagonalization with overlap
     ethr =  8.16E-09,  avg # of iterations =  5.6

     negative rho (up, down):  2.128E-04 0.000E+00

     total cpu time spent up to now is      856.0 secs

     total energy              =    -979.51697797 Ry
     estimated scf accuracy    <       0.00000553 Ry

     iteration # 16     ecut=   150.00 Ry     beta= 0.70
     Davidson diagonalization with overlap
     ethr =  8.16E-09,  avg # of iterations =  1.0

     negative rho (up, down):  2.128E-04 0.000E+00

     total cpu time spent up to now is      892.8 secs

     total energy              =    -979.51697726 Ry
     estimated scf accuracy    <       0.00000356 Ry

     iteration # 17     ecut=   150.00 Ry     beta= 0.70
     Davidson diagonalization with overlap
     ethr =  6.84E-09,  avg # of iterations =  2.7

     negative rho (up, down):  2.128E-04 0.000E+00

     total cpu time spent up to now is      938.0 secs

     total energy              =    -979.51697767 Ry
     estimated scf accuracy    <       0.00000026 Ry

     iteration # 18     ecut=   150.00 Ry     beta= 0.70
     Davidson diagonalization with overlap
     ethr =  5.00E-10,  avg # of iterations =  4.3

     negative rho (up, down):  2.128E-04 0.000E+00

     total cpu time spent up to now is      986.6 secs

     total energy              =    -979.51697765 Ry
     estimated scf accuracy    <       0.00000013 Ry

     iteration # 19     ecut=   150.00 Ry     beta= 0.70
     Davidson diagonalization with overlap
     ethr =  2.46E-10,  avg # of iterations =  5.7

     negative rho (up, down):  2.128E-04 0.000E+00

     total cpu time spent up to now is     1050.9 secs

     total energy              =    -979.51697774 Ry
     estimated scf accuracy    <       0.00000026 Ry

     iteration # 20     ecut=   150.00 Ry     beta= 0.70
     Davidson diagonalization with overlap
     ethr =  2.46E-10,  avg # of iterations =  1.0

     negative rho (up, down):  2.128E-04 0.000E+00

     total cpu time spent up to now is     1087.2 secs

     total energy              =    -979.51697764 Ry
     estimated scf accuracy    <       0.00000024 Ry

     iteration # 21     ecut=   150.00 Ry     beta= 0.70
     Davidson diagonalization with overlap
     ethr =  2.46E-10,  avg # of iterations =  4.8

     negative rho (up, down):  2.128E-04 0.000E+00

     total cpu time spent up to now is     1145.8 secs

     total energy              =    -979.51697772 Ry
     estimated scf accuracy    <       0.00000008 Ry

     iteration # 22     ecut=   150.00 Ry     beta= 0.70
     Davidson diagonalization with overlap
     ethr =  1.53E-10,  avg # of iterations =  1.2

     negative rho (up, down):  2.128E-04 0.000E+00

     total cpu time spent up to now is     1183.0 secs

     total energy              =    -979.51697771 Ry
     estimated scf accuracy    <       0.00000005 Ry

     iteration # 23     ecut=   150.00 Ry     beta= 0.70
     Davidson diagonalization with overlap
     ethr =  1.05E-10,  avg # of iterations =  1.1

     negative rho (up, down):  2.128E-04 0.000E+00

     total cpu time spent up to now is     1220.0 secs

     total energy              =    -979.51697771 Ry
     estimated scf accuracy    <       0.00000004 Ry

     iteration # 24     ecut=   150.00 Ry     beta= 0.70
     Davidson diagonalization with overlap
     ethr =  7.47E-11,  avg # of iterations =  2.3

     negative rho (up, down):  2.128E-04 0.000E+00

     total cpu time spent up to now is     1259.9 secs

     total energy              =    -979.51697771 Ry
     estimated scf accuracy    <       0.00000002 Ry

     iteration # 25     ecut=   150.00 Ry     beta= 0.70
     Davidson diagonalization with overlap
     ethr =  3.22E-11,  avg # of iterations =  4.2

     negative rho (up, down):  2.128E-04 0.000E+00

     total cpu time spent up to now is     1312.8 secs

     total energy              =    -979.51697771 Ry
     estimated scf accuracy    <          6.9E-10 Ry

     iteration # 26     ecut=   150.00 Ry     beta= 0.70
     Davidson diagonalization with overlap
     ethr =  1.32E-12,  avg # of iterations =  6.5

     negative rho (up, down):  2.128E-04 0.000E+00

     total cpu time spent up to now is     1388.7 secs

     total energy              =    -979.51697771 Ry
     estimated scf accuracy    <          7.3E-09 Ry

     iteration # 27     ecut=   150.00 Ry     beta= 0.70
     Davidson diagonalization with overlap
     ethr =  1.32E-12,  avg # of iterations =  2.3

     negative rho (up, down):  2.128E-04 0.000E+00

     total cpu time spent up to now is     1433.2 secs

     total energy              =    -979.51697771 Ry
     estimated scf accuracy    <          4.8E-09 Ry

     iteration # 28     ecut=   150.00 Ry     beta= 0.70
     Davidson diagonalization with overlap
     ethr =  1.32E-12,  avg # of iterations =  5.2

     negative rho (up, down):  2.128E-04 0.000E+00

     total cpu time spent up to now is     1492.8 secs

     total energy              =    -979.51697771 Ry
     estimated scf accuracy    <          2.7E-10 Ry

     iteration # 29     ecut=   150.00 Ry     beta= 0.70
     Davidson diagonalization with overlap
     ethr =  5.11E-13,  avg # of iterations =  5.2

     negative rho (up, down):  2.128E-04 0.000E+00

     total cpu time spent up to now is     1555.9 secs

     total energy              =    -979.51697771 Ry
     estimated scf accuracy    <          1.8E-10 Ry

     iteration # 30     ecut=   150.00 Ry     beta= 0.70
     Davidson diagonalization with overlap
     ethr =  3.45E-13,  avg # of iterations =  1.2

     negative rho (up, down):  2.128E-04 0.000E+00

     total cpu time spent up to now is     1592.9 secs

     total energy              =    -979.51697771 Ry
     estimated scf accuracy    <          1.0E-10 Ry

     iteration # 31     ecut=   150.00 Ry     beta= 0.70
     Davidson diagonalization with overlap
     ethr =  1.99E-13,  avg # of iterations =  3.9

     negative rho (up, down):  2.128E-04 0.000E+00

     total cpu time spent up to now is     1644.2 secs

     total energy              =    -979.51697771 Ry
     estimated scf accuracy    <          5.7E-12 Ry

     iteration # 32     ecut=   150.00 Ry     beta= 0.70
     Davidson diagonalization with overlap
     ethr =  1.00E-13,  avg # of iterations =  5.6

     negative rho (up, down):  2.128E-04 0.000E+00

     total cpu time spent up to now is     1705.7 secs

     total energy              =    -979.51697771 Ry
     estimated scf accuracy    <          2.6E-10 Ry

     iteration # 33     ecut=   150.00 Ry     beta= 0.70
     Davidson diagonalization with overlap
     ethr =  1.00E-13,  avg # of iterations =  1.4

     negative rho (up, down):  2.128E-04 0.000E+00

     total cpu time spent up to now is     1743.8 secs

     total energy              =    -979.51697771 Ry
     estimated scf accuracy    <          1.9E-10 Ry

     iteration # 34     ecut=   150.00 Ry     beta= 0.70
     Davidson diagonalization with overlap
     ethr =  1.00E-13,  avg # of iterations =  5.5

     negative rho (up, down):  2.128E-04 0.000E+00

     total cpu time spent up to now is     1804.1 secs

     total energy              =    -979.51697771 Ry
     estimated scf accuracy    <          4.1E-12 Ry

     iteration # 35     ecut=   150.00 Ry     beta= 0.70
     Davidson diagonalization with overlap
     ethr =  1.00E-13,  avg # of iterations =  4.4

     negative rho (up, down):  2.128E-04 0.000E+00

     total cpu time spent up to now is     1859.7 secs

     total energy              =    -979.51697771 Ry
     estimated scf accuracy    <          1.1E-10 Ry

     iteration # 36     ecut=   150.00 Ry     beta= 0.70
     Davidson diagonalization with overlap
     ethr =  1.00E-13,  avg # of iterations =  1.0

     negative rho (up, down):  2.128E-04 0.000E+00

     total cpu time spent up to now is     1896.7 secs

     total energy              =    -979.51697771 Ry
     estimated scf accuracy    <          1.1E-10 Ry

     iteration # 37     ecut=   150.00 Ry     beta= 0.70
     Davidson diagonalization with overlap
     ethr =  1.00E-13,  avg # of iterations =  1.0

     negative rho (up, down):  2.128E-04 0.000E+00

     total cpu time spent up to now is     1933.5 secs

     total energy              =    -979.51697771 Ry
     estimated scf accuracy    <          9.1E-11 Ry

     iteration # 38     ecut=   150.00 Ry     beta= 0.70
     Davidson diagonalization with overlap
     ethr =  1.00E-13,  avg # of iterations =  1.5

     negative rho (up, down):  2.128E-04 0.000E+00

     total cpu time spent up to now is     1973.1 secs

     total energy              =    -979.51697771 Ry
     estimated scf accuracy    <          4.3E-11 Ry

     iteration # 39     ecut=   150.00 Ry     beta= 0.70
     Davidson diagonalization with overlap
     ethr =  1.00E-13,  avg # of iterations =  1.2

     negative rho (up, down):  2.128E-04 0.000E+00

     total cpu time spent up to now is     2010.7 secs

     total energy              =    -979.51697771 Ry
     estimated scf accuracy    <          5.0E-11 Ry

     iteration # 40     ecut=   150.00 Ry     beta= 0.70
     Davidson diagonalization with overlap
     ethr =  1.00E-13,  avg # of iterations =  4.4

     negative rho (up, down):  2.128E-04 0.000E+00

     total cpu time spent up to now is     2065.4 secs

     total energy              =    -979.51697771 Ry
     estimated scf accuracy    <          2.3E-11 Ry

     iteration # 41     ecut=   150.00 Ry     beta= 0.70
     Davidson diagonalization with overlap
     ethr =  1.00E-13,  avg # of iterations =  1.5

     negative rho (up, down):  2.128E-04 0.000E+00

     total cpu time spent up to now is     2103.6 secs

     total energy              =    -979.51697771 Ry
     estimated scf accuracy    <          3.7E-12 Ry

     iteration # 42     ecut=   150.00 Ry     beta= 0.70
     Davidson diagonalization with overlap
     ethr =  1.00E-13,  avg # of iterations =  1.2

     negative rho (up, down):  2.128E-04 0.000E+00

     total cpu time spent up to now is     2141.0 secs

     End of self-consistent calculation

     Number of k-points >= 100: set verbosity='high' to print the bands.

     highest occupied level (ev):     2.1802

!    total energy              =    -979.51697771 Ry

     total all-electron energy =    -19376.432668 Ry
     estimated scf accuracy    <          5.2E-13 Ry

     The total energy is the sum of the following terms:
     one-electron contribution =   -2744.11634919 Ry
     hartree contribution      =    1382.67706069 Ry
     xc contribution           =     -59.04850287 Ry
     ewald contribution        =    1066.74879718 Ry
     one-center paw contrib.   =    -625.77798353 Ry

     convergence has been achieved in  42 iterations

     negative rho (up, down):  2.128E-04 0.000E+00

     Forces acting on atoms (cartesian axes, Ry/au):

     atom    1 type  1   force =     0.00001323   -0.00005869    0.00000044
     atom    2 type  2   force =    -0.00000579    0.00002566   -0.00111073
     atom    3 type  2   force =    -0.00000771    0.00003365    0.00110563
     atom    4 type  1   force =    -0.00001323    0.00005869   -0.00000044
     atom    5 type  2   force =     0.00000771   -0.00003365   -0.00110563
     atom    6 type  2   force =     0.00000579   -0.00002566    0.00111073

     Total force =     0.002219     Total SCF correction =     0.000002


     Computing stress (Cartesian axis) and pressure


     negative rho (up, down):  2.128E-04 0.000E+00
          total   stress  (Ry/bohr**3)                   (kbar)     P=       -0.22
   0.00000210   0.00000009   0.00000001            0.31        0.01        0.00
   0.00000009   0.00000279  -0.00000004            0.01        0.41       -0.01
   0.00000001  -0.00000004  -0.00000938            0.00       -0.01       -1.38


     Writing output data file /scratch/as3359/Mos2_ct_lat/MoS2.save/
 
     init_run     :     50.45s CPU     27.09s WALL (       1 calls)
     electrons    :   4161.77s CPU   2113.83s WALL (       1 calls)
     forces       :     13.41s CPU      6.80s WALL (       1 calls)
     stress       :     55.40s CPU     28.12s WALL (       1 calls)

     Called by init_run:
     wfcinit      :     42.61s CPU     22.09s WALL (       1 calls)
     potinit      :      2.31s CPU      1.18s WALL (       1 calls)
     hinit0       :      4.41s CPU      3.14s WALL (       1 calls)

     Called by electrons:
     c_bands      :   3518.45s CPU   1780.92s WALL (      42 calls)
     sum_band     :    597.26s CPU    305.68s WALL (      42 calls)
     v_of_rho     :     11.04s CPU      6.01s WALL (      43 calls)
     newd         :     20.49s CPU     13.29s WALL (      43 calls)
     PAW_pot      :      9.54s CPU      4.91s WALL (      43 calls)
     mix_rho      :      5.17s CPU      3.06s WALL (      42 calls)

     Called by c_bands:
     init_us_2    :     84.79s CPU     42.46s WALL (    9831 calls)
     cegterg      :   3329.19s CPU   1685.33s WALL (    4746 calls)

     Called by *egterg:
     cdiaghg      :     24.65s CPU     12.64s WALL (   20506 calls)
     h_psi        :   2691.78s CPU   1365.87s WALL (   20619 calls)
     s_psi        :    142.61s CPU     71.40s WALL (   20619 calls)
     g_psi        :     19.28s CPU      9.68s WALL (   15760 calls)

     Called by h_psi:
     h_psi:calbec :    105.28s CPU     52.77s WALL (   20619 calls)
     vloc_psi     :   2411.75s CPU   1225.35s WALL (   20619 calls)
     add_vuspsi   :    155.03s CPU     77.62s WALL (   20619 calls)

     General routines
     calbec       :    140.22s CPU     70.30s WALL (   25930 calls)
     fft          :      4.55s CPU      2.33s WALL (     498 calls)
     ffts         :      0.36s CPU      0.19s WALL (      42 calls)
     fftw         :   2396.19s CPU   1219.34s WALL (  809324 calls)
 
     Parallel routines
 
     PWSCF        :      1h11m CPU  36m22.23s WALL

 
   This run was terminated on:  11:22:57  18Apr2022            

=------------------------------------------------------------------------------=
   JOB DONE.
=------------------------------------------------------------------------------=
