
     Program PWSCF v.6.8 starts on 18Apr2022 at 11:51:44 

     This program is part of the open-source Quantum ESPRESSO suite
     for quantum simulation of materials; please cite
         "P. Giannozzi et al., J. Phys.:Condens. Matter 21 395502 (2009);
         "P. Giannozzi et al., J. Phys.:Condens. Matter 29 465901 (2017);
         "P. Giannozzi et al., J. Chem. Phys. 152 154105 (2020);
          URL http://www.quantum-espresso.org", 
     in publications or presentations arising from this work. More details at
     http://www.quantum-espresso.org/quote

     Parallel version (MPI & OpenMP), running on       4 processor cores
     Number of MPI processes:                 2
     Threads/MPI process:                     2

     MPI processes distributed on     1 nodes
     R & G space division:  proc/nbgrp/npool/nimage =       2
     124963 MiB available memory on the printing compute node when the environment starts
 
     Reading input from MoS2.scf.6.076.in
Warning: card  &CELL ignored
Warning: card     CELL_DYNAMICS='BFGS' ignored
Warning: card  / ignored

     Current dimensions of program PWSCF are:
     Max number of different atomic species (ntypx) = 10
     Max number of k-points (npk) =  40000
     Max angular momentum in pseudopotentials (lmaxx) =  4
     Message from routine iosys:
     restart disabled: needed files not found
     file Mo.pbesol-spn-kjpaw_psl.1.0.0.UPF: wavefunction(s)  4S 4D renormalized
     file S.pbesol-nl-kjpaw_psl.1.0.0.UPF: wavefunction(s)  3S renormalized
     Message from routine setup:
     using ibrav=0 with symmetry is DISCOURAGED, use correct ibrav instead

     Subspace diagonalization in iterative solution of the eigenvalue problem:
     a serial algorithm will be used

 
     Parallelization info
     --------------------
     sticks:   dense  smooth     PW     G-vecs:    dense   smooth      PW
     Min         729     729    215               184021   184021   29099
     Max         730     730    218               184044   184044   29102
     Sum        1459    1459    433               368065   368065   58201
 
     Using Slab Decomposition
 


     bravais-lattice index     =            0
     lattice parameter (alat)  =       6.0760  a.u.
     unit-cell volume          =    1484.2042 (a.u.)^3
     number of atoms/cell      =            6
     number of atomic types    =            2
     number of electrons       =        52.00
     number of Kohn-Sham states=           26
     kinetic-energy cutoff     =     150.0000  Ry
     charge density cutoff     =     600.0000  Ry
     scf convergence threshold =      1.0E-12
     mixing beta               =       0.7000
     number of iterations used =            8  plain     mixing
     Exchange-correlation= SLA  PW   PSX  PSC
                           (   1   4  10   8   0   0   0)

     celldm(1)=   6.076000  celldm(2)=   0.000000  celldm(3)=   0.000000
     celldm(4)=   0.000000  celldm(5)=   0.000000  celldm(6)=   0.000000

     crystal axes: (cart. coord. in units of alat)
               a(1) = (   0.977326  -0.000176   0.000000 )  
               a(2) = (  -0.488540   0.846362   0.000000 )  
               a(3) = (   0.000000   0.000000   8.000000 )  

     reciprocal axes: (cart. coord. in units 2 pi/alat)
               b(1) = (  1.023307  0.590676  0.000000 )  
               b(2) = (  0.000213  1.181651  0.000000 )  
               b(3) = (  0.000000  0.000000  0.125000 )  


     PseudoPot. # 1 for Mo read from file:
     /shared/home/as3359/pseudo/Mo.pbesol-spn-kjpaw_psl.1.0.0.UPF
     MD5 check sum: de57925cfc675213e43241dcc441eda8
     Pseudo is Projector augmented-wave + core cor, Zval = 14.0
     Generated using &quot;atomic&quot; code by A. Dal Corso  v.6.3
     Shape of augmentation charge: PSQ
     Using radial grid of 1229 points,  6 beta functions with: 
                l(1) =   0
                l(2) =   0
                l(3) =   1
                l(4) =   1
                l(5) =   2
                l(6) =   2
     Q(r) pseudized with 0 coefficients 


     PseudoPot. # 2 for S  read from file:
     /shared/home/as3359/pseudo/S.pbesol-nl-kjpaw_psl.1.0.0.UPF
     MD5 check sum: bf3db50ec3f960682bbc396f1aadd1dd
     Pseudo is Projector augmented-wave + core cor, Zval =  6.0
     Generated using &quot;atomic&quot; code by A. Dal Corso  v.6.3
     Shape of augmentation charge: PSQ
     Using radial grid of 1151 points,  4 beta functions with: 
                l(1) =   0
                l(2) =   0
                l(3) =   1
                l(4) =   1
     Q(r) pseudized with 0 coefficients 


     atomic species   valence    mass     pseudopotential
        Mo            14.00    95.94000     Mo( 1.00)
        S              6.00    32.06500     S ( 1.00)

      2 Sym. Ops., with inversion, found ( 1 have fractional translation)



   Cartesian axes

     site n.     atom                  positions (alat units)
         1           Mo  tau(   1) = (   0.0000000   0.0000000   0.9844997  )
         2           S   tau(   2) = (   0.4887119   0.2819702   1.4701535  )
         3           S   tau(   3) = (   0.4887135   0.2819635   0.4988906  )
         4           Mo  tau(   4) = (   0.0000000   0.0000000   3.0155003  )
         5           S   tau(   5) = (  -0.4887135  -0.2819635   3.5011094  )
         6           S   tau(   6) = (  -0.4887119  -0.2819702   2.5298465  )

     number of k points=   113

     Number of k-points >= 100: set verbosity='high' to print them.

     Dense  grid:   368065 G-vectors     FFT dimensions: (  48,  48, 384)

     Estimated max dynamical RAM per process >       1.71 GB

     Estimated total dynamical RAM >       3.41 GB
     Cannot read rho : file not found

     Initial potential from superposition of free atoms

     starting charge   51.99828, renormalised to   52.00000

     negative rho (up, down):  1.552E-04 0.000E+00
     Message from routine qexsd_readschema :
     xml data file /scratch/as3359/Mos2_ct_lat/MoS2.save/data-file-schema.xml not fou
     Cannot read wfcs: file not found
     Starting wfcs are   36 randomized atomic wfcs
     Checking if some PAW data can be deallocated... 

     total cpu time spent up to now is       26.9 secs

     Self-consistent Calculation

     iteration #  1     ecut=   150.00 Ry     beta= 0.70
     Davidson diagonalization with overlap
     ethr =  1.00E-05,  avg # of iterations = 10.4

     negative rho (up, down):  1.992E-04 0.000E+00

     total cpu time spent up to now is      151.9 secs

     total energy              =    -979.38615879 Ry
     estimated scf accuracy    <       0.29082598 Ry

     iteration #  2     ecut=   150.00 Ry     beta= 0.70
     Davidson diagonalization with overlap
     ethr =  5.59E-04,  avg # of iterations =  5.0

     negative rho (up, down):  1.892E-04 0.000E+00

     total cpu time spent up to now is      213.6 secs

     total energy              =    -979.31325384 Ry
     estimated scf accuracy    <       1.02115535 Ry

     iteration #  3     ecut=   150.00 Ry     beta= 0.70
     Davidson diagonalization with overlap
     ethr =  5.59E-04,  avg # of iterations =  5.2

     negative rho (up, down):  1.906E-04 0.000E+00

     total cpu time spent up to now is      274.6 secs

     total energy              =    -979.50277384 Ry
     estimated scf accuracy    <       0.09475992 Ry

     iteration #  4     ecut=   150.00 Ry     beta= 0.70
     Davidson diagonalization with overlap
     ethr =  1.82E-04,  avg # of iterations =  2.8

     negative rho (up, down):  1.920E-04 0.000E+00

     total cpu time spent up to now is      320.5 secs

     total energy              =    -979.51091353 Ry
     estimated scf accuracy    <       0.02059420 Ry

     iteration #  5     ecut=   150.00 Ry     beta= 0.70
     Davidson diagonalization with overlap
     ethr =  3.96E-05,  avg # of iterations =  4.0

     negative rho (up, down):  1.991E-04 0.000E+00

     total cpu time spent up to now is      372.6 secs

     total energy              =    -979.51568217 Ry
     estimated scf accuracy    <       0.01252640 Ry

     iteration #  6     ecut=   150.00 Ry     beta= 0.70
     Davidson diagonalization with overlap
     ethr =  2.41E-05,  avg # of iterations =  2.6

     negative rho (up, down):  2.017E-04 0.000E+00

     total cpu time spent up to now is      416.4 secs

     total energy              =    -979.51656938 Ry
     estimated scf accuracy    <       0.00224632 Ry

     iteration #  7     ecut=   150.00 Ry     beta= 0.70
     Davidson diagonalization with overlap
     ethr =  4.32E-06,  avg # of iterations =  4.3

     negative rho (up, down):  2.035E-04 0.000E+00

     total cpu time spent up to now is      468.2 secs

     total energy              =    -979.51689635 Ry
     estimated scf accuracy    <       0.00136408 Ry

     iteration #  8     ecut=   150.00 Ry     beta= 0.70
     Davidson diagonalization with overlap
     ethr =  2.62E-06,  avg # of iterations =  2.0

     negative rho (up, down):  2.054E-04 0.000E+00

     total cpu time spent up to now is      508.4 secs

     total energy              =    -979.51686094 Ry
     estimated scf accuracy    <       0.00049297 Ry

     iteration #  9     ecut=   150.00 Ry     beta= 0.70
     Davidson diagonalization with overlap
     ethr =  9.48E-07,  avg # of iterations =  4.5

     negative rho (up, down):  2.055E-04 0.000E+00

     total cpu time spent up to now is      560.9 secs

     total energy              =    -979.51697329 Ry
     estimated scf accuracy    <       0.00021314 Ry

     iteration # 10     ecut=   150.00 Ry     beta= 0.70
     Davidson diagonalization with overlap
     ethr =  4.10E-07,  avg # of iterations =  1.3

     negative rho (up, down):  2.057E-04 0.000E+00

     total cpu time spent up to now is      597.4 secs

     total energy              =    -979.51693418 Ry
     estimated scf accuracy    <       0.00011442 Ry

     iteration # 11     ecut=   150.00 Ry     beta= 0.70
     Davidson diagonalization with overlap
     ethr =  2.20E-07,  avg # of iterations =  4.3

     negative rho (up, down):  2.057E-04 0.000E+00

     total cpu time spent up to now is      650.7 secs

     total energy              =    -979.51697121 Ry
     estimated scf accuracy    <       0.00004165 Ry

     iteration # 12     ecut=   150.00 Ry     beta= 0.70
     Davidson diagonalization with overlap
     ethr =  8.01E-08,  avg # of iterations =  1.8

     negative rho (up, down):  2.057E-04 0.000E+00

     total cpu time spent up to now is      689.0 secs

     total energy              =    -979.51697272 Ry
     estimated scf accuracy    <       0.00001581 Ry

     iteration # 13     ecut=   150.00 Ry     beta= 0.70
     Davidson diagonalization with overlap
     ethr =  3.04E-08,  avg # of iterations =  1.4

     negative rho (up, down):  2.057E-04 0.000E+00

     total cpu time spent up to now is      726.2 secs

     total energy              =    -979.51697210 Ry
     estimated scf accuracy    <       0.00001216 Ry

     iteration # 14     ecut=   150.00 Ry     beta= 0.70
     Davidson diagonalization with overlap
     ethr =  2.34E-08,  avg # of iterations =  2.1

     negative rho (up, down):  2.058E-04 0.000E+00

     total cpu time spent up to now is      765.0 secs

     total energy              =    -979.51697056 Ry
     estimated scf accuracy    <       0.00000582 Ry

     iteration # 15     ecut=   150.00 Ry     beta= 0.70
     Davidson diagonalization with overlap
     ethr =  1.12E-08,  avg # of iterations =  4.9

     negative rho (up, down):  2.058E-04 0.000E+00

     total cpu time spent up to now is      824.8 secs

     total energy              =    -979.51697324 Ry
     estimated scf accuracy    <       0.00000332 Ry

     iteration # 16     ecut=   150.00 Ry     beta= 0.70
     Davidson diagonalization with overlap
     ethr =  6.38E-09,  avg # of iterations =  1.0

     negative rho (up, down):  2.058E-04 0.000E+00

     total cpu time spent up to now is      860.9 secs

     total energy              =    -979.51697264 Ry
     estimated scf accuracy    <       0.00000288 Ry

     iteration # 17     ecut=   150.00 Ry     beta= 0.70
     Davidson diagonalization with overlap
     ethr =  5.55E-09,  avg # of iterations =  2.1

     negative rho (up, down):  2.058E-04 0.000E+00

     total cpu time spent up to now is      902.6 secs

     total energy              =    -979.51697271 Ry
     estimated scf accuracy    <       0.00000065 Ry

     iteration # 18     ecut=   150.00 Ry     beta= 0.70
     Davidson diagonalization with overlap
     ethr =  1.26E-09,  avg # of iterations =  3.8

     negative rho (up, down):  2.058E-04 0.000E+00

     total cpu time spent up to now is      952.4 secs

     total energy              =    -979.51697282 Ry
     estimated scf accuracy    <       0.00000004 Ry

     iteration # 19     ecut=   150.00 Ry     beta= 0.70
     Davidson diagonalization with overlap
     ethr =  7.83E-11,  avg # of iterations =  4.8

     negative rho (up, down):  2.058E-04 0.000E+00

     total cpu time spent up to now is     1014.3 secs

     total energy              =    -979.51697284 Ry
     estimated scf accuracy    <          9.3E-09 Ry

     iteration # 20     ecut=   150.00 Ry     beta= 0.70
     Davidson diagonalization with overlap
     ethr =  1.78E-11,  avg # of iterations =  2.3

     negative rho (up, down):  2.058E-04 0.000E+00

     total cpu time spent up to now is     1055.2 secs

     total energy              =    -979.51697284 Ry
     estimated scf accuracy    <          6.6E-09 Ry

     iteration # 21     ecut=   150.00 Ry     beta= 0.70
     Davidson diagonalization with overlap
     ethr =  1.26E-11,  avg # of iterations =  4.4

     negative rho (up, down):  2.058E-04 0.000E+00

     total cpu time spent up to now is     1111.2 secs

     total energy              =    -979.51697290 Ry
     estimated scf accuracy    <       0.00000002 Ry

     iteration # 22     ecut=   150.00 Ry     beta= 0.70
     Davidson diagonalization with overlap
     ethr =  1.26E-11,  avg # of iterations =  9.1

     negative rho (up, down):  2.058E-04 0.000E+00

     total cpu time spent up to now is     1221.1 secs

     total energy              =    -979.51697298 Ry
     estimated scf accuracy    <       0.00000128 Ry

     iteration # 23     ecut=   150.00 Ry     beta= 0.70
     Davidson diagonalization with overlap
     ethr =  1.26E-11,  avg # of iterations =  2.4

     negative rho (up, down):  2.058E-04 0.000E+00

     total cpu time spent up to now is     1267.6 secs

     total energy              =    -979.51697282 Ry
     estimated scf accuracy    <       0.00000113 Ry

     iteration # 24     ecut=   150.00 Ry     beta= 0.70
     Davidson diagonalization with overlap
     ethr =  1.26E-11,  avg # of iterations =  8.0

     negative rho (up, down):  2.058E-04 0.000E+00

     total cpu time spent up to now is     1362.1 secs

     total energy              =    -979.51697288 Ry
     estimated scf accuracy    <       0.00000021 Ry

     iteration # 25     ecut=   150.00 Ry     beta= 0.70
     Davidson diagonalization with overlap
     ethr =  1.26E-11,  avg # of iterations =  2.3

     negative rho (up, down):  2.058E-04 0.000E+00

     total cpu time spent up to now is     1406.1 secs

     total energy              =    -979.51697291 Ry
     estimated scf accuracy    <       0.00000026 Ry

     iteration # 26     ecut=   150.00 Ry     beta= 0.70
     Davidson diagonalization with overlap
     ethr =  1.26E-11,  avg # of iterations =  5.3

     negative rho (up, down):  2.058E-04 0.000E+00

     total cpu time spent up to now is     1468.4 secs

     total energy              =    -979.51697285 Ry
     estimated scf accuracy    <       0.00000052 Ry

     iteration # 27     ecut=   150.00 Ry     beta= 0.70
     Davidson diagonalization with overlap
     ethr =  1.26E-11,  avg # of iterations =  5.7

     negative rho (up, down):  2.058E-04 0.000E+00

     total cpu time spent up to now is     1540.9 secs

     total energy              =    -979.51697279 Ry
     estimated scf accuracy    <       0.00000018 Ry

     iteration # 28     ecut=   150.00 Ry     beta= 0.70
     Davidson diagonalization with overlap
     ethr =  1.26E-11,  avg # of iterations =  8.3

     negative rho (up, down):  2.058E-04 0.000E+00

     total cpu time spent up to now is     1637.0 secs

     total energy              =    -979.51697283 Ry
     estimated scf accuracy    <       0.00000011 Ry

     iteration # 29     ecut=   150.00 Ry     beta= 0.70
     Davidson diagonalization with overlap
     ethr =  1.26E-11,  avg # of iterations =  5.5

     negative rho (up, down):  2.058E-04 0.000E+00

     total cpu time spent up to now is     1704.4 secs

     total energy              =    -979.51697284 Ry
     estimated scf accuracy    <          6.7E-09 Ry

     iteration # 30     ecut=   150.00 Ry     beta= 0.70
     Davidson diagonalization with overlap
     ethr =  1.26E-11,  avg # of iterations =  1.3

     negative rho (up, down):  2.058E-04 0.000E+00

     total cpu time spent up to now is     1741.0 secs

     total energy              =    -979.51697284 Ry
     estimated scf accuracy    <          3.2E-09 Ry

     iteration # 31     ecut=   150.00 Ry     beta= 0.70
     Davidson diagonalization with overlap
     ethr =  6.21E-12,  avg # of iterations =  4.1

     negative rho (up, down):  2.058E-04 0.000E+00

     total cpu time spent up to now is     1790.3 secs

     total energy              =    -979.51697284 Ry
     estimated scf accuracy    <          5.6E-11 Ry

     iteration # 32     ecut=   150.00 Ry     beta= 0.70
     Davidson diagonalization with overlap
     ethr =  1.07E-13,  avg # of iterations =  7.8

     negative rho (up, down):  2.058E-04 0.000E+00

     total cpu time spent up to now is     1876.2 secs

     total energy              =    -979.51697284 Ry
     estimated scf accuracy    <          4.6E-10 Ry

     iteration # 33     ecut=   150.00 Ry     beta= 0.70
     Davidson diagonalization with overlap
     ethr =  1.07E-13,  avg # of iterations =  2.0

     negative rho (up, down):  2.058E-04 0.000E+00

     total cpu time spent up to now is     1915.3 secs

     total energy              =    -979.51697284 Ry
     estimated scf accuracy    <          3.1E-10 Ry

     iteration # 34     ecut=   150.00 Ry     beta= 0.70
     Davidson diagonalization with overlap
     ethr =  1.07E-13,  avg # of iterations =  4.1

     negative rho (up, down):  2.058E-04 0.000E+00

     total cpu time spent up to now is     1965.5 secs

     total energy              =    -979.51697284 Ry
     estimated scf accuracy    <          5.8E-11 Ry

     iteration # 35     ecut=   150.00 Ry     beta= 0.70
     Davidson diagonalization with overlap
     ethr =  1.07E-13,  avg # of iterations =  4.4

     negative rho (up, down):  2.058E-04 0.000E+00

     total cpu time spent up to now is     2018.8 secs

     total energy              =    -979.51697284 Ry
     estimated scf accuracy    <          1.0E-11 Ry

     iteration # 36     ecut=   150.00 Ry     beta= 0.70
     Davidson diagonalization with overlap
     ethr =  1.00E-13,  avg # of iterations =  1.1

     negative rho (up, down):  2.058E-04 0.000E+00

     total cpu time spent up to now is     2054.1 secs

     total energy              =    -979.51697284 Ry
     estimated scf accuracy    <          3.2E-12 Ry

     iteration # 37     ecut=   150.00 Ry     beta= 0.70
     Davidson diagonalization with overlap
     ethr =  1.00E-13,  avg # of iterations =  1.0

     negative rho (up, down):  2.058E-04 0.000E+00

     total cpu time spent up to now is     2089.9 secs

     total energy              =    -979.51697284 Ry
     estimated scf accuracy    <          3.8E-12 Ry

     iteration # 38     ecut=   150.00 Ry     beta= 0.70
     Davidson diagonalization with overlap
     ethr =  1.00E-13,  avg # of iterations =  1.0

     negative rho (up, down):  2.058E-04 0.000E+00

     total cpu time spent up to now is     2125.5 secs

     total energy              =    -979.51697284 Ry
     estimated scf accuracy    <          1.4E-12 Ry

     iteration # 39     ecut=   150.00 Ry     beta= 0.70
     Davidson diagonalization with overlap
     ethr =  1.00E-13,  avg # of iterations =  1.0

     negative rho (up, down):  2.058E-04 0.000E+00

     total cpu time spent up to now is     2162.3 secs

     total energy              =    -979.51697284 Ry
     estimated scf accuracy    <          1.8E-12 Ry

     iteration # 40     ecut=   150.00 Ry     beta= 0.70
     Davidson diagonalization with overlap
     ethr =  1.00E-13,  avg # of iterations =  1.0

     negative rho (up, down):  2.058E-04 0.000E+00

     total cpu time spent up to now is     2198.6 secs

     total energy              =    -979.51697284 Ry
     estimated scf accuracy    <          2.3E-12 Ry

     iteration # 41     ecut=   150.00 Ry     beta= 0.70
     Davidson diagonalization with overlap
     ethr =  1.00E-13,  avg # of iterations =  1.0

     negative rho (up, down):  2.058E-04 0.000E+00

     total cpu time spent up to now is     2234.5 secs

     End of self-consistent calculation

     Number of k-points >= 100: set verbosity='high' to print the bands.

     highest occupied level (ev):     2.1721

!    total energy              =    -979.51697284 Ry

     total all-electron energy =    -19376.432663 Ry
     estimated scf accuracy    <          2.3E-13 Ry

     The total energy is the sum of the following terms:
     one-electron contribution =   -2743.39454957 Ry
     hartree contribution      =    1382.30093365 Ry
     xc contribution           =     -59.04347290 Ry
     ewald contribution        =    1066.39766196 Ry
     one-center paw contrib.   =    -625.77754598 Ry

     convergence has been achieved in  41 iterations

     negative rho (up, down):  2.058E-04 0.000E+00

     Forces acting on atoms (cartesian axes, Ry/au):

     atom    1 type  1   force =     0.00001343   -0.00005889   -0.00000074
     atom    2 type  2   force =    -0.00000578    0.00002568   -0.00176041
     atom    3 type  2   force =    -0.00000766    0.00003355    0.00176499
     atom    4 type  1   force =    -0.00001343    0.00005889    0.00000074
     atom    5 type  2   force =     0.00000766   -0.00003355   -0.00176499
     atom    6 type  2   force =     0.00000578   -0.00002568    0.00176041

     Total force =     0.003527     Total SCF correction =     0.000001


     Computing stress (Cartesian axis) and pressure


     negative rho (up, down):  2.058E-04 0.000E+00
          total   stress  (Ry/bohr**3)                   (kbar)     P=       -0.96
  -0.00000277   0.00000009   0.00000001           -0.41        0.01        0.00
   0.00000009  -0.00000209  -0.00000004            0.01       -0.31       -0.01
   0.00000001  -0.00000004  -0.00001465            0.00       -0.01       -2.16


     Writing output data file /scratch/as3359/Mos2_ct_lat/MoS2.save/
 
     init_run     :     49.64s CPU     26.69s WALL (       1 calls)
     electrons    :   4347.40s CPU   2207.70s WALL (       1 calls)
     forces       :     13.40s CPU      6.81s WALL (       1 calls)
     stress       :     54.12s CPU     27.52s WALL (       1 calls)

     Called by init_run:
     wfcinit      :     41.85s CPU     21.72s WALL (       1 calls)
     potinit      :      2.29s CPU      1.17s WALL (       1 calls)
     hinit0       :      4.41s CPU      3.13s WALL (       1 calls)

     Called by electrons:
     c_bands      :   3732.70s CPU   1889.43s WALL (      41 calls)
     sum_band     :    569.96s CPU    291.80s WALL (      41 calls)
     v_of_rho     :     10.69s CPU      5.81s WALL (      42 calls)
     newd         :     19.93s CPU     12.91s WALL (      42 calls)
     PAW_pot      :      9.34s CPU      4.85s WALL (      42 calls)
     mix_rho      :      4.97s CPU      2.96s WALL (      41 calls)

     Called by c_bands:
     init_us_2    :     81.62s CPU     40.86s WALL (    9605 calls)
     cegterg      :   3556.15s CPU   1800.22s WALL (    4633 calls)

     Called by *egterg:
     cdiaghg      :     26.88s CPU     13.79s WALL (   21735 calls)
     h_psi        :   2844.10s CPU   1443.11s WALL (   21848 calls)
     s_psi        :    150.48s CPU     75.35s WALL (   21848 calls)
     g_psi        :     17.53s CPU      8.80s WALL (   17102 calls)

     Called by h_psi:
     h_psi:calbec :    110.92s CPU     55.60s WALL (   21848 calls)
     vloc_psi     :   2549.92s CPU   1295.44s WALL (   21848 calls)
     add_vuspsi   :    162.52s CPU     81.42s WALL (   21848 calls)

     General routines
     calbec       :    146.74s CPU     73.59s WALL (   27046 calls)
     fft          :      4.44s CPU      2.28s WALL (     487 calls)
     ffts         :      0.35s CPU      0.18s WALL (      41 calls)
     fftw         :   2506.24s CPU   1275.22s WALL (  860478 calls)
 
     Parallel routines
 
     PWSCF        :      1h14m CPU  37m54.42s WALL

 
   This run was terminated on:  12:29:38  18Apr2022            

=------------------------------------------------------------------------------=
   JOB DONE.
=------------------------------------------------------------------------------=
