
     Program PWSCF v.6.8 starts on 18Apr2022 at 12:29:40 

     This program is part of the open-source Quantum ESPRESSO suite
     for quantum simulation of materials; please cite
         "P. Giannozzi et al., J. Phys.:Condens. Matter 21 395502 (2009);
         "P. Giannozzi et al., J. Phys.:Condens. Matter 29 465901 (2017);
         "P. Giannozzi et al., J. Chem. Phys. 152 154105 (2020);
          URL http://www.quantum-espresso.org", 
     in publications or presentations arising from this work. More details at
     http://www.quantum-espresso.org/quote

     Parallel version (MPI & OpenMP), running on       4 processor cores
     Number of MPI processes:                 2
     Threads/MPI process:                     2

     MPI processes distributed on     1 nodes
     R & G space division:  proc/nbgrp/npool/nimage =       2
     124962 MiB available memory on the printing compute node when the environment starts
 
     Reading input from MoS2.scf.6.077.in
Warning: card  &CELL ignored
Warning: card     CELL_DYNAMICS='BFGS' ignored
Warning: card  / ignored

     Current dimensions of program PWSCF are:
     Max number of different atomic species (ntypx) = 10
     Max number of k-points (npk) =  40000
     Max angular momentum in pseudopotentials (lmaxx) =  4
     Message from routine iosys:
     restart disabled: needed files not found
     file Mo.pbesol-spn-kjpaw_psl.1.0.0.UPF: wavefunction(s)  4S 4D renormalized
     file S.pbesol-nl-kjpaw_psl.1.0.0.UPF: wavefunction(s)  3S renormalized
     Message from routine setup:
     using ibrav=0 with symmetry is DISCOURAGED, use correct ibrav instead

     Subspace diagonalization in iterative solution of the eigenvalue problem:
     a serial algorithm will be used

 
     Parallelization info
     --------------------
     sticks:   dense  smooth     PW     G-vecs:    dense   smooth      PW
     Min         729     729    215               184109   184109   29103
     Max         730     730    218               184132   184132   29106
     Sum        1459    1459    433               368241   368241   58209
 
     Using Slab Decomposition
 


     bravais-lattice index     =            0
     lattice parameter (alat)  =       6.0770  a.u.
     unit-cell volume          =    1484.9371 (a.u.)^3
     number of atoms/cell      =            6
     number of atomic types    =            2
     number of electrons       =        52.00
     number of Kohn-Sham states=           26
     kinetic-energy cutoff     =     150.0000  Ry
     charge density cutoff     =     600.0000  Ry
     scf convergence threshold =      1.0E-12
     mixing beta               =       0.7000
     number of iterations used =            8  plain     mixing
     Exchange-correlation= SLA  PW   PSX  PSC
                           (   1   4  10   8   0   0   0)

     celldm(1)=   6.077000  celldm(2)=   0.000000  celldm(3)=   0.000000
     celldm(4)=   0.000000  celldm(5)=   0.000000  celldm(6)=   0.000000

     crystal axes: (cart. coord. in units of alat)
               a(1) = (   0.977326  -0.000176   0.000000 )  
               a(2) = (  -0.488540   0.846362   0.000000 )  
               a(3) = (   0.000000   0.000000   8.000000 )  

     reciprocal axes: (cart. coord. in units 2 pi/alat)
               b(1) = (  1.023307  0.590676  0.000000 )  
               b(2) = (  0.000213  1.181651  0.000000 )  
               b(3) = (  0.000000  0.000000  0.125000 )  


     PseudoPot. # 1 for Mo read from file:
     /shared/home/as3359/pseudo/Mo.pbesol-spn-kjpaw_psl.1.0.0.UPF
     MD5 check sum: de57925cfc675213e43241dcc441eda8
     Pseudo is Projector augmented-wave + core cor, Zval = 14.0
     Generated using &quot;atomic&quot; code by A. Dal Corso  v.6.3
     Shape of augmentation charge: PSQ
     Using radial grid of 1229 points,  6 beta functions with: 
                l(1) =   0
                l(2) =   0
                l(3) =   1
                l(4) =   1
                l(5) =   2
                l(6) =   2
     Q(r) pseudized with 0 coefficients 


     PseudoPot. # 2 for S  read from file:
     /shared/home/as3359/pseudo/S.pbesol-nl-kjpaw_psl.1.0.0.UPF
     MD5 check sum: bf3db50ec3f960682bbc396f1aadd1dd
     Pseudo is Projector augmented-wave + core cor, Zval =  6.0
     Generated using &quot;atomic&quot; code by A. Dal Corso  v.6.3
     Shape of augmentation charge: PSQ
     Using radial grid of 1151 points,  4 beta functions with: 
                l(1) =   0
                l(2) =   0
                l(3) =   1
                l(4) =   1
     Q(r) pseudized with 0 coefficients 


     atomic species   valence    mass     pseudopotential
        Mo            14.00    95.94000     Mo( 1.00)
        S              6.00    32.06500     S ( 1.00)

      2 Sym. Ops., with inversion, found ( 1 have fractional translation)



   Cartesian axes

     site n.     atom                  positions (alat units)
         1           Mo  tau(   1) = (   0.0000000   0.0000000   0.9844997  )
         2           S   tau(   2) = (   0.4887119   0.2819702   1.4701535  )
         3           S   tau(   3) = (   0.4887135   0.2819635   0.4988906  )
         4           Mo  tau(   4) = (   0.0000000   0.0000000   3.0155003  )
         5           S   tau(   5) = (  -0.4887135  -0.2819635   3.5011094  )
         6           S   tau(   6) = (  -0.4887119  -0.2819702   2.5298465  )

     number of k points=   113

     Number of k-points >= 100: set verbosity='high' to print them.

     Dense  grid:   368241 G-vectors     FFT dimensions: (  48,  48, 384)

     Estimated max dynamical RAM per process >       1.71 GB

     Estimated total dynamical RAM >       3.41 GB
     Cannot read rho : file not found

     Initial potential from superposition of free atoms

     starting charge   51.99828, renormalised to   52.00000

     negative rho (up, down):  1.543E-04 0.000E+00
     Message from routine qexsd_readschema :
     xml data file /scratch/as3359/Mos2_ct_lat/MoS2.save/data-file-schema.xml not fou
     Cannot read wfcs: file not found
     Starting wfcs are   36 randomized atomic wfcs
     Checking if some PAW data can be deallocated... 

     total cpu time spent up to now is       27.2 secs

     Self-consistent Calculation

     iteration #  1     ecut=   150.00 Ry     beta= 0.70
     Davidson diagonalization with overlap
     ethr =  1.00E-05,  avg # of iterations = 10.4

     negative rho (up, down):  1.982E-04 0.000E+00

     total cpu time spent up to now is      156.3 secs

     total energy              =    -979.38660381 Ry
     estimated scf accuracy    <       0.29015670 Ry

     iteration #  2     ecut=   150.00 Ry     beta= 0.70
     Davidson diagonalization with overlap
     ethr =  5.58E-04,  avg # of iterations =  5.0

     negative rho (up, down):  1.882E-04 0.000E+00

     total cpu time spent up to now is      220.2 secs

     total energy              =    -979.31396993 Ry
     estimated scf accuracy    <       1.01605304 Ry

     iteration #  3     ecut=   150.00 Ry     beta= 0.70
     Davidson diagonalization with overlap
     ethr =  5.58E-04,  avg # of iterations =  5.2

     negative rho (up, down):  1.896E-04 0.000E+00

     total cpu time spent up to now is      283.7 secs

     total energy              =    -979.50279652 Ry
     estimated scf accuracy    <       0.09484192 Ry

     iteration #  4     ecut=   150.00 Ry     beta= 0.70
     Davidson diagonalization with overlap
     ethr =  1.82E-04,  avg # of iterations =  2.8

     negative rho (up, down):  1.910E-04 0.000E+00

     total cpu time spent up to now is      330.9 secs

     total energy              =    -979.51092214 Ry
     estimated scf accuracy    <       0.02044013 Ry

     iteration #  5     ecut=   150.00 Ry     beta= 0.70
     Davidson diagonalization with overlap
     ethr =  3.93E-05,  avg # of iterations =  4.0

     negative rho (up, down):  1.980E-04 0.000E+00

     total cpu time spent up to now is      384.8 secs

     total energy              =    -979.51563805 Ry
     estimated scf accuracy    <       0.01294955 Ry

     iteration #  6     ecut=   150.00 Ry     beta= 0.70
     Davidson diagonalization with overlap
     ethr =  2.49E-05,  avg # of iterations =  2.5

     negative rho (up, down):  2.006E-04 0.000E+00

     total cpu time spent up to now is      431.2 secs

     total energy              =    -979.51654968 Ry
     estimated scf accuracy    <       0.00229988 Ry

     iteration #  7     ecut=   150.00 Ry     beta= 0.70
     Davidson diagonalization with overlap
     ethr =  4.42E-06,  avg # of iterations =  4.3

     negative rho (up, down):  2.025E-04 0.000E+00

     total cpu time spent up to now is      484.7 secs

     total energy              =    -979.51688925 Ry
     estimated scf accuracy    <       0.00144872 Ry

     iteration #  8     ecut=   150.00 Ry     beta= 0.70
     Davidson diagonalization with overlap
     ethr =  2.79E-06,  avg # of iterations =  2.0

     negative rho (up, down):  2.043E-04 0.000E+00

     total cpu time spent up to now is      526.2 secs

     total energy              =    -979.51684936 Ry
     estimated scf accuracy    <       0.00053002 Ry

     iteration #  9     ecut=   150.00 Ry     beta= 0.70
     Davidson diagonalization with overlap
     ethr =  1.02E-06,  avg # of iterations =  4.5

     negative rho (up, down):  2.044E-04 0.000E+00

     total cpu time spent up to now is      579.6 secs

     total energy              =    -979.51696932 Ry
     estimated scf accuracy    <       0.00021901 Ry

     iteration # 10     ecut=   150.00 Ry     beta= 0.70
     Davidson diagonalization with overlap
     ethr =  4.21E-07,  avg # of iterations =  1.4

     negative rho (up, down):  2.046E-04 0.000E+00

     total cpu time spent up to now is      617.2 secs

     total energy              =    -979.51692633 Ry
     estimated scf accuracy    <       0.00012350 Ry

     iteration # 11     ecut=   150.00 Ry     beta= 0.70
     Davidson diagonalization with overlap
     ethr =  2.37E-07,  avg # of iterations =  4.4

     negative rho (up, down):  2.047E-04 0.000E+00

     total cpu time spent up to now is      672.1 secs

     total energy              =    -979.51696555 Ry
     estimated scf accuracy    <       0.00004272 Ry

     iteration # 12     ecut=   150.00 Ry     beta= 0.70
     Davidson diagonalization with overlap
     ethr =  8.22E-08,  avg # of iterations =  1.9

     negative rho (up, down):  2.047E-04 0.000E+00

     total cpu time spent up to now is      712.2 secs

     total energy              =    -979.51696757 Ry
     estimated scf accuracy    <       0.00001515 Ry

     iteration # 13     ecut=   150.00 Ry     beta= 0.70
     Davidson diagonalization with overlap
     ethr =  2.91E-08,  avg # of iterations =  1.3

     negative rho (up, down):  2.047E-04 0.000E+00

     total cpu time spent up to now is      749.2 secs

     total energy              =    -979.51696763 Ry
     estimated scf accuracy    <       0.00001260 Ry

     iteration # 14     ecut=   150.00 Ry     beta= 0.70
     Davidson diagonalization with overlap
     ethr =  2.42E-08,  avg # of iterations =  1.1

     negative rho (up, down):  2.048E-04 0.000E+00

     total cpu time spent up to now is      786.0 secs

     total energy              =    -979.51696511 Ry
     estimated scf accuracy    <       0.00000999 Ry

     iteration # 15     ecut=   150.00 Ry     beta= 0.70
     Davidson diagonalization with overlap
     ethr =  1.92E-08,  avg # of iterations =  4.2

     negative rho (up, down):  2.048E-04 0.000E+00

     total cpu time spent up to now is      837.8 secs

     total energy              =    -979.51696766 Ry
     estimated scf accuracy    <       0.00000044 Ry

     iteration # 16     ecut=   150.00 Ry     beta= 0.70
     Davidson diagonalization with overlap
     ethr =  8.38E-10,  avg # of iterations =  5.8

     negative rho (up, down):  2.048E-04 0.000E+00

     total cpu time spent up to now is      910.7 secs

     total energy              =    -979.51696771 Ry
     estimated scf accuracy    <       0.00000451 Ry

     iteration # 17     ecut=   150.00 Ry     beta= 0.70
     Davidson diagonalization with overlap
     ethr =  8.38E-10,  avg # of iterations =  2.4

     negative rho (up, down):  2.048E-04 0.000E+00

     total cpu time spent up to now is      956.1 secs

     total energy              =    -979.51696724 Ry
     estimated scf accuracy    <       0.00000264 Ry

     iteration # 18     ecut=   150.00 Ry     beta= 0.70
     Davidson diagonalization with overlap
     ethr =  8.38E-10,  avg # of iterations =  5.3

     negative rho (up, down):  2.048E-04 0.000E+00

     total cpu time spent up to now is     1016.2 secs

     total energy              =    -979.51696750 Ry
     estimated scf accuracy    <       0.00000014 Ry

     iteration # 19     ecut=   150.00 Ry     beta= 0.70
     Davidson diagonalization with overlap
     ethr =  2.74E-10,  avg # of iterations =  1.9

     negative rho (up, down):  2.048E-04 0.000E+00

     total cpu time spent up to now is     1055.0 secs

     total energy              =    -979.51696751 Ry
     estimated scf accuracy    <       0.00000012 Ry

     iteration # 20     ecut=   150.00 Ry     beta= 0.70
     Davidson diagonalization with overlap
     ethr =  2.33E-10,  avg # of iterations =  1.0

     negative rho (up, down):  2.048E-04 0.000E+00

     total cpu time spent up to now is     1091.1 secs

     total energy              =    -979.51696750 Ry
     estimated scf accuracy    <       0.00000012 Ry

     iteration # 21     ecut=   150.00 Ry     beta= 0.70
     Davidson diagonalization with overlap
     ethr =  2.31E-10,  avg # of iterations =  1.6

     negative rho (up, down):  2.048E-04 0.000E+00

     total cpu time spent up to now is     1129.0 secs

     total energy              =    -979.51696749 Ry
     estimated scf accuracy    <       0.00000005 Ry

     iteration # 22     ecut=   150.00 Ry     beta= 0.70
     Davidson diagonalization with overlap
     ethr =  1.04E-10,  avg # of iterations =  4.4

     negative rho (up, down):  2.048E-04 0.000E+00

     total cpu time spent up to now is     1180.8 secs

     total energy              =    -979.51696750 Ry
     estimated scf accuracy    <          2.3E-09 Ry

     iteration # 23     ecut=   150.00 Ry     beta= 0.70
     Davidson diagonalization with overlap
     ethr =  4.44E-12,  avg # of iterations =  5.2

     negative rho (up, down):  2.048E-04 0.000E+00

     total cpu time spent up to now is     1240.0 secs

     total energy              =    -979.51696750 Ry
     estimated scf accuracy    <          1.3E-09 Ry

     iteration # 24     ecut=   150.00 Ry     beta= 0.70
     Davidson diagonalization with overlap
     ethr =  2.51E-12,  avg # of iterations =  1.7

     negative rho (up, down):  2.048E-04 0.000E+00

     total cpu time spent up to now is     1278.5 secs

     total energy              =    -979.51696750 Ry
     estimated scf accuracy    <          9.2E-10 Ry

     iteration # 25     ecut=   150.00 Ry     beta= 0.70
     Davidson diagonalization with overlap
     ethr =  1.77E-12,  avg # of iterations =  1.4

     negative rho (up, down):  2.048E-04 0.000E+00

     total cpu time spent up to now is     1316.2 secs

     total energy              =    -979.51696750 Ry
     estimated scf accuracy    <          6.8E-10 Ry

     iteration # 26     ecut=   150.00 Ry     beta= 0.70
     Davidson diagonalization with overlap
     ethr =  1.30E-12,  avg # of iterations =  3.7

     negative rho (up, down):  2.048E-04 0.000E+00

     total cpu time spent up to now is     1365.5 secs

     total energy              =    -979.51696750 Ry
     estimated scf accuracy    <          1.5E-09 Ry

     iteration # 27     ecut=   150.00 Ry     beta= 0.70
     Davidson diagonalization with overlap
     ethr =  1.30E-12,  avg # of iterations =  1.6

     negative rho (up, down):  2.048E-04 0.000E+00

     total cpu time spent up to now is     1403.5 secs

     total energy              =    -979.51696750 Ry
     estimated scf accuracy    <          1.0E-09 Ry

     iteration # 28     ecut=   150.00 Ry     beta= 0.70
     Davidson diagonalization with overlap
     ethr =  1.30E-12,  avg # of iterations =  2.8

     negative rho (up, down):  2.048E-04 0.000E+00

     total cpu time spent up to now is     1450.0 secs

     total energy              =    -979.51696750 Ry
     estimated scf accuracy    <          1.7E-10 Ry

     iteration # 29     ecut=   150.00 Ry     beta= 0.70
     Davidson diagonalization with overlap
     ethr =  3.32E-13,  avg # of iterations =  1.4

     negative rho (up, down):  2.048E-04 0.000E+00

     total cpu time spent up to now is     1487.3 secs

     total energy              =    -979.51696750 Ry
     estimated scf accuracy    <          1.1E-10 Ry

     iteration # 30     ecut=   150.00 Ry     beta= 0.70
     Davidson diagonalization with overlap
     ethr =  2.21E-13,  avg # of iterations =  3.5

     negative rho (up, down):  2.048E-04 0.000E+00

     total cpu time spent up to now is     1536.6 secs

     total energy              =    -979.51696751 Ry
     estimated scf accuracy    <          7.2E-12 Ry

     iteration # 31     ecut=   150.00 Ry     beta= 0.70
     Davidson diagonalization with overlap
     ethr =  1.00E-13,  avg # of iterations =  3.9

     negative rho (up, down):  2.048E-04 0.000E+00

     total cpu time spent up to now is     1587.2 secs

     total energy              =    -979.51696750 Ry
     estimated scf accuracy    <          1.0E-10 Ry

     iteration # 32     ecut=   150.00 Ry     beta= 0.70
     Davidson diagonalization with overlap
     ethr =  1.00E-13,  avg # of iterations =  4.2

     negative rho (up, down):  2.048E-04 0.000E+00

     total cpu time spent up to now is     1640.5 secs

     total energy              =    -979.51696750 Ry
     estimated scf accuracy    <          1.3E-12 Ry

     iteration # 33     ecut=   150.00 Ry     beta= 0.70
     Davidson diagonalization with overlap
     ethr =  1.00E-13,  avg # of iterations =  1.0

     negative rho (up, down):  2.048E-04 0.000E+00

     total cpu time spent up to now is     1676.6 secs

     total energy              =    -979.51696750 Ry
     estimated scf accuracy    <          2.9E-12 Ry

     iteration # 34     ecut=   150.00 Ry     beta= 0.70
     Davidson diagonalization with overlap
     ethr =  1.00E-13,  avg # of iterations =  1.0

     negative rho (up, down):  2.048E-04 0.000E+00

     total cpu time spent up to now is     1712.8 secs

     total energy              =    -979.51696751 Ry
     estimated scf accuracy    <          2.0E-12 Ry

     iteration # 35     ecut=   150.00 Ry     beta= 0.70
     Davidson diagonalization with overlap
     ethr =  1.00E-13,  avg # of iterations =  1.0

     negative rho (up, down):  2.048E-04 0.000E+00

     total cpu time spent up to now is     1748.8 secs

     End of self-consistent calculation

     Number of k-points >= 100: set verbosity='high' to print the bands.

     highest occupied level (ev):     2.1680

!    total energy              =    -979.51696750 Ry

     total all-electron energy =    -19376.432658 Ry
     estimated scf accuracy    <          5.6E-13 Ry

     The total energy is the sum of the following terms:
     one-electron contribution =   -2743.03382828 Ry
     hartree contribution      =    1382.11296781 Ry
     xc contribution           =     -59.04096048 Ry
     ewald contribution        =    1066.22218103 Ry
     one-center paw contrib.   =    -625.77732757 Ry

     convergence has been achieved in  35 iterations

     negative rho (up, down):  2.048E-04 0.000E+00

     Forces acting on atoms (cartesian axes, Ry/au):

     atom    1 type  1   force =     0.00001340   -0.00005863   -0.00000049
     atom    2 type  2   force =    -0.00000579    0.00002567   -0.00208465
     atom    3 type  2   force =    -0.00000767    0.00003360    0.00209398
     atom    4 type  1   force =    -0.00001340    0.00005863    0.00000049
     atom    5 type  2   force =     0.00000767   -0.00003360   -0.00209398
     atom    6 type  2   force =     0.00000579   -0.00002567    0.00208465

     Total force =     0.004180     Total SCF correction =     0.000002


     Computing stress (Cartesian axis) and pressure


     negative rho (up, down):  2.048E-04 0.000E+00
          total   stress  (Ry/bohr**3)                   (kbar)     P=       -1.32
  -0.00000521   0.00000009   0.00000001           -0.77        0.01        0.00
   0.00000009  -0.00000452  -0.00000004            0.01       -0.67       -0.01
   0.00000001  -0.00000004  -0.00001728            0.00       -0.01       -2.54


     Writing output data file /scratch/as3359/Mos2_ct_lat/MoS2.save/
 
     init_run     :     50.42s CPU     27.06s WALL (       1 calls)
     electrons    :   3388.42s CPU   1721.62s WALL (       1 calls)
     forces       :     13.41s CPU      6.81s WALL (       1 calls)
     stress       :     53.54s CPU     27.17s WALL (       1 calls)

     Called by init_run:
     wfcinit      :     42.53s CPU     22.06s WALL (       1 calls)
     potinit      :      2.33s CPU      1.18s WALL (       1 calls)
     hinit0       :      4.42s CPU      3.14s WALL (       1 calls)

     Called by electrons:
     c_bands      :   2857.10s CPU   1446.49s WALL (      35 calls)
     sum_band     :    493.07s CPU    252.45s WALL (      35 calls)
     v_of_rho     :      9.21s CPU      5.02s WALL (      36 calls)
     newd         :     17.15s CPU     11.11s WALL (      36 calls)
     PAW_pot      :      8.08s CPU      4.21s WALL (      36 calls)
     mix_rho      :      4.18s CPU      2.51s WALL (      35 calls)

     Called by c_bands:
     init_us_2    :     70.88s CPU     35.49s WALL (    8249 calls)
     cegterg      :   2704.62s CPU   1369.38s WALL (    3955 calls)

     Called by *egterg:
     cdiaghg      :     19.97s CPU     10.24s WALL (   16394 calls)
     h_psi        :   2197.32s CPU   1115.13s WALL (   16507 calls)
     s_psi        :    116.37s CPU     58.27s WALL (   16507 calls)
     g_psi        :     12.67s CPU      6.36s WALL (   12439 calls)

     Called by h_psi:
     h_psi:calbec :     86.00s CPU     43.12s WALL (   16507 calls)
     vloc_psi     :   1969.17s CPU   1000.54s WALL (   16507 calls)
     add_vuspsi   :    125.81s CPU     63.03s WALL (   16507 calls)

     General routines
     calbec       :    116.24s CPU     58.29s WALL (   21027 calls)
     fft          :      3.81s CPU      1.96s WALL (     421 calls)
     ffts         :      0.30s CPU      0.16s WALL (      35 calls)
     fftw         :   1959.19s CPU    997.11s WALL (  667092 calls)
 
     Parallel routines
 
     PWSCF        :  58m32.37s CPU  29m48.69s WALL

 
   This run was terminated on:  12:59:28  18Apr2022            

=------------------------------------------------------------------------------=
   JOB DONE.
=------------------------------------------------------------------------------=
