
     Program PWSCF v.6.8 starts on 17Apr2022 at 20:57:53 

     This program is part of the open-source Quantum ESPRESSO suite
     for quantum simulation of materials; please cite
         "P. Giannozzi et al., J. Phys.:Condens. Matter 21 395502 (2009);
         "P. Giannozzi et al., J. Phys.:Condens. Matter 29 465901 (2017);
         "P. Giannozzi et al., J. Chem. Phys. 152 154105 (2020);
          URL http://www.quantum-espresso.org", 
     in publications or presentations arising from this work. More details at
     http://www.quantum-espresso.org/quote

     Parallel version (MPI & OpenMP), running on       4 processor cores
     Number of MPI processes:                 2
     Threads/MPI process:                     2

     MPI processes distributed on     1 nodes
     R & G space division:  proc/nbgrp/npool/nimage =       2
     124978 MiB available memory on the printing compute node when the environment starts
 
     Reading input from MoS2.scf.6.180.in
Warning: card  &CELL ignored
Warning: card     CELL_DYNAMICS='BFGS' ignored
Warning: card  / ignored

     Current dimensions of program PWSCF are:
     Max number of different atomic species (ntypx) = 10
     Max number of k-points (npk) =  40000
     Max angular momentum in pseudopotentials (lmaxx) =  4
     Message from routine iosys:
     restart disabled: needed files not found
     file Mo.pbesol-spn-kjpaw_psl.1.0.0.UPF: wavefunction(s)  4S 4D renormalized
     file S.pbesol-nl-kjpaw_psl.1.0.0.UPF: wavefunction(s)  3S renormalized
     Message from routine setup:
     using ibrav=0 with symmetry is DISCOURAGED, use correct ibrav instead

     Subspace diagonalization in iterative solution of the eigenvalue problem:
     a serial algorithm will be used

 
     Parallelization info
     --------------------
     sticks:   dense  smooth     PW     G-vecs:    dense   smooth      PW
     Min         753     753    218               193885   193885   30475
     Max         754     754    221               193922   193922   30476
     Sum        1507    1507    439               387807   387807   60951
 
     Using Slab Decomposition
 


     bravais-lattice index     =            0
     lattice parameter (alat)  =       6.1800  a.u.
     unit-cell volume          =    1561.7294 (a.u.)^3
     number of atoms/cell      =            6
     number of atomic types    =            2
     number of electrons       =        52.00
     number of Kohn-Sham states=           26
     kinetic-energy cutoff     =     150.0000  Ry
     charge density cutoff     =     600.0000  Ry
     scf convergence threshold =      1.0E-12
     mixing beta               =       0.7000
     number of iterations used =            8  plain     mixing
     Exchange-correlation= SLA  PW   PSX  PSC
                           (   1   4  10   8   0   0   0)

     celldm(1)=   6.180000  celldm(2)=   0.000000  celldm(3)=   0.000000
     celldm(4)=   0.000000  celldm(5)=   0.000000  celldm(6)=   0.000000

     crystal axes: (cart. coord. in units of alat)
               a(1) = (   0.977326  -0.000176   0.000000 )  
               a(2) = (  -0.488540   0.846362   0.000000 )  
               a(3) = (   0.000000   0.000000   8.000000 )  

     reciprocal axes: (cart. coord. in units 2 pi/alat)
               b(1) = (  1.023307  0.590676  0.000000 )  
               b(2) = (  0.000213  1.181651  0.000000 )  
               b(3) = (  0.000000  0.000000  0.125000 )  


     PseudoPot. # 1 for Mo read from file:
     /shared/home/as3359/pseudo/Mo.pbesol-spn-kjpaw_psl.1.0.0.UPF
     MD5 check sum: de57925cfc675213e43241dcc441eda8
     Pseudo is Projector augmented-wave + core cor, Zval = 14.0
     Generated using &quot;atomic&quot; code by A. Dal Corso  v.6.3
     Shape of augmentation charge: PSQ
     Using radial grid of 1229 points,  6 beta functions with: 
                l(1) =   0
                l(2) =   0
                l(3) =   1
                l(4) =   1
                l(5) =   2
                l(6) =   2
     Q(r) pseudized with 0 coefficients 


     PseudoPot. # 2 for S  read from file:
     /shared/home/as3359/pseudo/S.pbesol-nl-kjpaw_psl.1.0.0.UPF
     MD5 check sum: bf3db50ec3f960682bbc396f1aadd1dd
     Pseudo is Projector augmented-wave + core cor, Zval =  6.0
     Generated using &quot;atomic&quot; code by A. Dal Corso  v.6.3
     Shape of augmentation charge: PSQ
     Using radial grid of 1151 points,  4 beta functions with: 
                l(1) =   0
                l(2) =   0
                l(3) =   1
                l(4) =   1
     Q(r) pseudized with 0 coefficients 


     atomic species   valence    mass     pseudopotential
        Mo            14.00    95.94000     Mo( 1.00)
        S              6.00    32.06500     S ( 1.00)

      2 Sym. Ops., with inversion, found ( 1 have fractional translation)



   Cartesian axes

     site n.     atom                  positions (alat units)
         1           Mo  tau(   1) = (   0.0000000   0.0000000   0.9844997  )
         2           S   tau(   2) = (   0.4887119   0.2819702   1.4701535  )
         3           S   tau(   3) = (   0.4887135   0.2819635   0.4988906  )
         4           Mo  tau(   4) = (   0.0000000   0.0000000   3.0155003  )
         5           S   tau(   5) = (  -0.4887135  -0.2819635   3.5011094  )
         6           S   tau(   6) = (  -0.4887119  -0.2819702   2.5298465  )

     number of k points=   113

     Number of k-points >= 100: set verbosity='high' to print them.

     Dense  grid:   387807 G-vectors     FFT dimensions: (  48,  48, 400)

     Estimated max dynamical RAM per process >       1.79 GB

     Estimated total dynamical RAM >       3.59 GB
     Cannot read rho : file not found

     Initial potential from superposition of free atoms

     starting charge   51.99828, renormalised to   52.00000

     negative rho (up, down):  1.635E-04 0.000E+00
     Message from routine qexsd_readschema :
     xml data file /scratch/as3359/Mos2_ct_lat/MoS2.save/data-file-schema.xml not fou
     Cannot read wfcs: file not found
     Starting wfcs are   36 randomized atomic wfcs
     Checking if some PAW data can be deallocated... 

     total cpu time spent up to now is       27.5 secs

     Self-consistent Calculation

     iteration #  1     ecut=   150.00 Ry     beta= 0.70
     Davidson diagonalization with overlap
     ethr =  1.00E-05,  avg # of iterations = 10.4

     negative rho (up, down):  2.095E-04 0.000E+00

     total cpu time spent up to now is      145.1 secs

     total energy              =    -979.40660577 Ry
     estimated scf accuracy    <       0.24206381 Ry

     iteration #  2     ecut=   150.00 Ry     beta= 0.70
     Davidson diagonalization with overlap
     ethr =  4.66E-04,  avg # of iterations =  4.4

     negative rho (up, down):  2.033E-04 0.000E+00

     total cpu time spent up to now is      201.3 secs

     total energy              =    -979.37307979 Ry
     estimated scf accuracy    <       0.60166956 Ry

     iteration #  3     ecut=   150.00 Ry     beta= 0.70
     Davidson diagonalization with overlap
     ethr =  4.66E-04,  avg # of iterations =  5.1

     negative rho (up, down):  2.055E-04 0.000E+00

     total cpu time spent up to now is      258.2 secs

     total energy              =    -979.49080932 Ry
     estimated scf accuracy    <       0.12004502 Ry

     iteration #  4     ecut=   150.00 Ry     beta= 0.70
     Davidson diagonalization with overlap
     ethr =  2.31E-04,  avg # of iterations =  2.7

     negative rho (up, down):  2.064E-04 0.000E+00

     total cpu time spent up to now is      300.8 secs

     total energy              =    -979.50062169 Ry
     estimated scf accuracy    <       0.01642792 Ry

     iteration #  5     ecut=   150.00 Ry     beta= 0.70
     Davidson diagonalization with overlap
     ethr =  3.16E-05,  avg # of iterations =  4.9

     negative rho (up, down):  2.114E-04 0.000E+00

     total cpu time spent up to now is      355.7 secs

     total energy              =    -979.50561840 Ry
     estimated scf accuracy    <       0.02218590 Ry

     iteration #  6     ecut=   150.00 Ry     beta= 0.70
     Davidson diagonalization with overlap
     ethr =  3.16E-05,  avg # of iterations =  3.0

     negative rho (up, down):  2.136E-04 0.000E+00

     total cpu time spent up to now is      399.4 secs

     total energy              =    -979.50632045 Ry
     estimated scf accuracy    <       0.00695903 Ry

     iteration #  7     ecut=   150.00 Ry     beta= 0.70
     Davidson diagonalization with overlap
     ethr =  1.34E-05,  avg # of iterations =  2.8

     negative rho (up, down):  2.157E-04 0.000E+00

     total cpu time spent up to now is      442.0 secs

     total energy              =    -979.50680267 Ry
     estimated scf accuracy    <       0.00160032 Ry

     iteration #  8     ecut=   150.00 Ry     beta= 0.70
     Davidson diagonalization with overlap
     ethr =  3.08E-06,  avg # of iterations =  4.5

     negative rho (up, down):  2.169E-04 0.000E+00

     total cpu time spent up to now is      491.2 secs

     total energy              =    -979.50711212 Ry
     estimated scf accuracy    <       0.00038651 Ry

     iteration #  9     ecut=   150.00 Ry     beta= 0.70
     Davidson diagonalization with overlap
     ethr =  7.43E-07,  avg # of iterations =  2.7

     negative rho (up, down):  2.179E-04 0.000E+00

     total cpu time spent up to now is      532.0 secs

     total energy              =    -979.50713151 Ry
     estimated scf accuracy    <       0.00008077 Ry

     iteration # 10     ecut=   150.00 Ry     beta= 0.70
     Davidson diagonalization with overlap
     ethr =  1.55E-07,  avg # of iterations =  5.0

     negative rho (up, down):  2.181E-04 0.000E+00

     total cpu time spent up to now is      587.3 secs

     total energy              =    -979.50715494 Ry
     estimated scf accuracy    <       0.00008332 Ry

     iteration # 11     ecut=   150.00 Ry     beta= 0.70
     Davidson diagonalization with overlap
     ethr =  1.55E-07,  avg # of iterations =  2.0

     negative rho (up, down):  2.180E-04 0.000E+00

     total cpu time spent up to now is      626.0 secs

     total energy              =    -979.50715770 Ry
     estimated scf accuracy    <       0.00003568 Ry

     iteration # 12     ecut=   150.00 Ry     beta= 0.70
     Davidson diagonalization with overlap
     ethr =  6.86E-08,  avg # of iterations =  1.9

     negative rho (up, down):  2.180E-04 0.000E+00

     total cpu time spent up to now is      662.7 secs

     total energy              =    -979.50715853 Ry
     estimated scf accuracy    <       0.00001858 Ry

     iteration # 13     ecut=   150.00 Ry     beta= 0.70
     Davidson diagonalization with overlap
     ethr =  3.57E-08,  avg # of iterations =  2.6

     negative rho (up, down):  2.180E-04 0.000E+00

     total cpu time spent up to now is      701.0 secs

     total energy              =    -979.50715841 Ry
     estimated scf accuracy    <       0.00001013 Ry

     iteration # 14     ecut=   150.00 Ry     beta= 0.70
     Davidson diagonalization with overlap
     ethr =  1.95E-08,  avg # of iterations =  4.1

     negative rho (up, down):  2.181E-04 0.000E+00

     total cpu time spent up to now is      745.7 secs

     total energy              =    -979.50715965 Ry
     estimated scf accuracy    <       0.00000080 Ry

     iteration # 15     ecut=   150.00 Ry     beta= 0.70
     Davidson diagonalization with overlap
     ethr =  1.53E-09,  avg # of iterations =  5.0

     negative rho (up, down):  2.181E-04 0.000E+00

     total cpu time spent up to now is      799.8 secs

     total energy              =    -979.50715996 Ry
     estimated scf accuracy    <       0.00000019 Ry

     iteration # 16     ecut=   150.00 Ry     beta= 0.70
     Davidson diagonalization with overlap
     ethr =  3.60E-10,  avg # of iterations =  5.4

     negative rho (up, down):  2.181E-04 0.000E+00

     total cpu time spent up to now is      857.5 secs

     total energy              =    -979.50716001 Ry
     estimated scf accuracy    <       0.00000055 Ry

     iteration # 17     ecut=   150.00 Ry     beta= 0.70
     Davidson diagonalization with overlap
     ethr =  3.60E-10,  avg # of iterations =  3.1

     negative rho (up, down):  2.181E-04 0.000E+00

     total cpu time spent up to now is      900.7 secs

     total energy              =    -979.50715994 Ry
     estimated scf accuracy    <       0.00000030 Ry

     iteration # 18     ecut=   150.00 Ry     beta= 0.70
     Davidson diagonalization with overlap
     ethr =  3.60E-10,  avg # of iterations =  4.4

     negative rho (up, down):  2.181E-04 0.000E+00

     total cpu time spent up to now is      951.3 secs

     total energy              =    -979.50716000 Ry
     estimated scf accuracy    <       0.00000004 Ry

     iteration # 19     ecut=   150.00 Ry     beta= 0.70
     Davidson diagonalization with overlap
     ethr =  8.33E-11,  avg # of iterations =  3.8

     negative rho (up, down):  2.181E-04 0.000E+00

     total cpu time spent up to now is      996.8 secs

     total energy              =    -979.50716001 Ry
     estimated scf accuracy    <       0.00000006 Ry

     iteration # 20     ecut=   150.00 Ry     beta= 0.70
     Davidson diagonalization with overlap
     ethr =  8.33E-11,  avg # of iterations =  1.0

     negative rho (up, down):  2.181E-04 0.000E+00

     total cpu time spent up to now is     1031.2 secs

     total energy              =    -979.50716000 Ry
     estimated scf accuracy    <       0.00000004 Ry

     iteration # 21     ecut=   150.00 Ry     beta= 0.70
     Davidson diagonalization with overlap
     ethr =  7.24E-11,  avg # of iterations =  2.7

     negative rho (up, down):  2.181E-04 0.000E+00

     total cpu time spent up to now is     1071.6 secs

     total energy              =    -979.50716000 Ry
     estimated scf accuracy    <          4.0E-09 Ry

     iteration # 22     ecut=   150.00 Ry     beta= 0.70
     Davidson diagonalization with overlap
     ethr =  7.63E-12,  avg # of iterations =  7.0

     negative rho (up, down):  2.181E-04 0.000E+00

     total cpu time spent up to now is     1146.0 secs

     total energy              =    -979.50716000 Ry
     estimated scf accuracy    <       0.00000004 Ry

     iteration # 23     ecut=   150.00 Ry     beta= 0.70
     Davidson diagonalization with overlap
     ethr =  7.63E-12,  avg # of iterations =  4.1

     negative rho (up, down):  2.181E-04 0.000E+00

     total cpu time spent up to now is     1195.2 secs

     total energy              =    -979.50716000 Ry
     estimated scf accuracy    <       0.00000002 Ry

     iteration # 24     ecut=   150.00 Ry     beta= 0.70
     Davidson diagonalization with overlap
     ethr =  7.63E-12,  avg # of iterations =  3.4

     negative rho (up, down):  2.181E-04 0.000E+00

     total cpu time spent up to now is     1239.6 secs

     total energy              =    -979.50716000 Ry
     estimated scf accuracy    <          6.1E-09 Ry

     iteration # 25     ecut=   150.00 Ry     beta= 0.70
     Davidson diagonalization with overlap
     ethr =  7.63E-12,  avg # of iterations =  4.5

     negative rho (up, down):  2.181E-04 0.000E+00

     total cpu time spent up to now is     1291.2 secs

     total energy              =    -979.50716000 Ry
     estimated scf accuracy    <          2.8E-10 Ry

     iteration # 26     ecut=   150.00 Ry     beta= 0.70
     Davidson diagonalization with overlap
     ethr =  5.30E-13,  avg # of iterations =  5.0

     negative rho (up, down):  2.181E-04 0.000E+00

     total cpu time spent up to now is     1348.0 secs

     total energy              =    -979.50716000 Ry
     estimated scf accuracy    <          1.3E-09 Ry

     iteration # 27     ecut=   150.00 Ry     beta= 0.70
     Davidson diagonalization with overlap
     ethr =  5.30E-13,  avg # of iterations =  1.0

     negative rho (up, down):  2.181E-04 0.000E+00

     total cpu time spent up to now is     1382.2 secs

     total energy              =    -979.50716000 Ry
     estimated scf accuracy    <          1.3E-09 Ry

     iteration # 28     ecut=   150.00 Ry     beta= 0.70
     Davidson diagonalization with overlap
     ethr =  5.30E-13,  avg # of iterations =  2.1

     negative rho (up, down):  2.181E-04 0.000E+00

     total cpu time spent up to now is     1421.3 secs

     total energy              =    -979.50716000 Ry
     estimated scf accuracy    <          6.9E-10 Ry

     iteration # 29     ecut=   150.00 Ry     beta= 0.70
     Davidson diagonalization with overlap
     ethr =  5.30E-13,  avg # of iterations =  4.0

     negative rho (up, down):  2.181E-04 0.000E+00

     total cpu time spent up to now is     1469.1 secs

     total energy              =    -979.50716000 Ry
     estimated scf accuracy    <          3.6E-11 Ry

     iteration # 30     ecut=   150.00 Ry     beta= 0.70
     Davidson diagonalization with overlap
     ethr =  1.00E-13,  avg # of iterations =  5.7

     negative rho (up, down):  2.181E-04 0.000E+00

     total cpu time spent up to now is     1533.4 secs

     total energy              =    -979.50716000 Ry
     estimated scf accuracy    <          2.4E-10 Ry

     iteration # 31     ecut=   150.00 Ry     beta= 0.70
     Davidson diagonalization with overlap
     ethr =  1.00E-13,  avg # of iterations =  3.9

     negative rho (up, down):  2.181E-04 0.000E+00

     total cpu time spent up to now is     1580.3 secs

     total energy              =    -979.50716000 Ry
     estimated scf accuracy    <          4.4E-11 Ry

     iteration # 32     ecut=   150.00 Ry     beta= 0.70
     Davidson diagonalization with overlap
     ethr =  1.00E-13,  avg # of iterations =  2.4

     negative rho (up, down):  2.181E-04 0.000E+00

     total cpu time spent up to now is     1620.1 secs

     total energy              =    -979.50716000 Ry
     estimated scf accuracy    <          9.0E-12 Ry

     iteration # 33     ecut=   150.00 Ry     beta= 0.70
     Davidson diagonalization with overlap
     ethr =  1.00E-13,  avg # of iterations =  1.0

     negative rho (up, down):  2.181E-04 0.000E+00

     total cpu time spent up to now is     1654.4 secs

     total energy              =    -979.50716000 Ry
     estimated scf accuracy    <          4.1E-12 Ry

     iteration # 34     ecut=   150.00 Ry     beta= 0.70
     Davidson diagonalization with overlap
     ethr =  1.00E-13,  avg # of iterations =  1.0

     negative rho (up, down):  2.181E-04 0.000E+00

     total cpu time spent up to now is     1688.6 secs

     total energy              =    -979.50716000 Ry
     estimated scf accuracy    <          1.5E-12 Ry

     iteration # 35     ecut=   150.00 Ry     beta= 0.70
     Davidson diagonalization with overlap
     ethr =  1.00E-13,  avg # of iterations =  1.0

     negative rho (up, down):  2.181E-04 0.000E+00

     total cpu time spent up to now is     1722.8 secs

     End of self-consistent calculation

     Number of k-points >= 100: set verbosity='high' to print the bands.

     highest occupied level (ev):     1.7628

!    total energy              =    -979.50716000 Ry

     total all-electron energy =    -19376.422851 Ry
     estimated scf accuracy    <          5.0E-13 Ry

     The total energy is the sum of the following terms:
     one-electron contribution =   -2706.49015420 Ry
     hartree contribution      =    1363.07931041 Ry
     xc contribution           =     -58.79185099 Ry
     ewald contribution        =    1048.45181134 Ry
     one-center paw contrib.   =    -625.75627656 Ry

     convergence has been achieved in  35 iterations

     negative rho (up, down):  2.181E-04 0.000E+00

     Forces acting on atoms (cartesian axes, Ry/au):

     atom    1 type  1   force =     0.00001374   -0.00005919   -0.00000694
     atom    2 type  2   force =    -0.00000604    0.00002632   -0.03282949
     atom    3 type  2   force =    -0.00000769    0.00003329    0.03325111
     atom    4 type  1   force =    -0.00001374    0.00005919    0.00000694
     atom    5 type  2   force =     0.00000769   -0.00003329   -0.03325111
     atom    6 type  2   force =     0.00000604   -0.00002632    0.03282949

     Total force =     0.066082     Total SCF correction =     0.000003


     Computing stress (Cartesian axis) and pressure


     negative rho (up, down):  2.181E-04 0.000E+00
          total   stress  (Ry/bohr**3)                   (kbar)     P=      -34.85
  -0.00022674   0.00000008   0.00000001          -33.35        0.01        0.00
   0.00000008  -0.00022611  -0.00000003            0.01      -33.26       -0.00
   0.00000001  -0.00000003  -0.00025790            0.00       -0.00      -37.94


     Writing output data file /scratch/as3359/Mos2_ct_lat/MoS2.save/
 
     init_run     :     50.47s CPU     27.29s WALL (       1 calls)
     electrons    :   3340.28s CPU   1695.41s WALL (       1 calls)
     forces       :     13.11s CPU      6.63s WALL (       1 calls)
     stress       :     50.41s CPU     25.52s WALL (       1 calls)

     Called by init_run:
     wfcinit      :     41.50s CPU     21.38s WALL (       1 calls)
     potinit      :      2.38s CPU      1.21s WALL (       1 calls)
     hinit0       :      5.48s CPU      4.03s WALL (       1 calls)

     Called by electrons:
     c_bands      :   2846.79s CPU   1441.12s WALL (      35 calls)
     sum_band     :    459.65s CPU    234.88s WALL (      35 calls)
     v_of_rho     :      8.11s CPU      4.41s WALL (      36 calls)
     newd         :     14.63s CPU      8.99s WALL (      36 calls)
     PAW_pot      :      8.18s CPU      4.24s WALL (      36 calls)
     mix_rho      :      3.27s CPU      1.91s WALL (      35 calls)

     Called by c_bands:
     init_us_2    :     60.73s CPU     30.40s WALL (    8249 calls)
     cegterg      :   2694.12s CPU   1364.17s WALL (    3955 calls)

     Called by *egterg:
     cdiaghg      :     21.61s CPU     11.07s WALL (   18364 calls)
     h_psi        :   2196.48s CPU   1114.56s WALL (   18477 calls)
     s_psi        :    107.19s CPU     53.66s WALL (   18477 calls)
     g_psi        :     18.41s CPU      9.24s WALL (   14409 calls)

     Called by h_psi:
     h_psi:calbec :     87.93s CPU     44.07s WALL (   18477 calls)
     vloc_psi     :   1981.08s CPU   1006.49s WALL (   18477 calls)
     add_vuspsi   :    109.63s CPU     54.90s WALL (   18477 calls)

     General routines
     calbec       :    119.14s CPU     59.74s WALL (   22997 calls)
     fft          :      3.90s CPU      2.32s WALL (     421 calls)
     ffts         :      0.24s CPU      0.13s WALL (      35 calls)
     fftw         :   2002.81s CPU   1018.92s WALL (  701618 calls)
 
     Parallel routines
 
     PWSCF        :  57m40.27s CPU  29m20.28s WALL

 
   This run was terminated on:  21:27:13  17Apr2022            

=------------------------------------------------------------------------------=
   JOB DONE.
=------------------------------------------------------------------------------=
