
     Program PWSCF v.6.8 starts on 18Apr2022 at 12:59:30 

     This program is part of the open-source Quantum ESPRESSO suite
     for quantum simulation of materials; please cite
         "P. Giannozzi et al., J. Phys.:Condens. Matter 21 395502 (2009);
         "P. Giannozzi et al., J. Phys.:Condens. Matter 29 465901 (2017);
         "P. Giannozzi et al., J. Chem. Phys. 152 154105 (2020);
          URL http://www.quantum-espresso.org", 
     in publications or presentations arising from this work. More details at
     http://www.quantum-espresso.org/quote

     Parallel version (MPI & OpenMP), running on       4 processor cores
     Number of MPI processes:                 2
     Threads/MPI process:                     2

     MPI processes distributed on     1 nodes
     R & G space division:  proc/nbgrp/npool/nimage =       2
     124961 MiB available memory on the printing compute node when the environment starts
 
     Reading input from MoS2.scf.6.078.in
Warning: card  &CELL ignored
Warning: card     CELL_DYNAMICS='BFGS' ignored
Warning: card  / ignored

     Current dimensions of program PWSCF are:
     Max number of different atomic species (ntypx) = 10
     Max number of k-points (npk) =  40000
     Max angular momentum in pseudopotentials (lmaxx) =  4
     Message from routine iosys:
     restart disabled: needed files not found
     file Mo.pbesol-spn-kjpaw_psl.1.0.0.UPF: wavefunction(s)  4S 4D renormalized
     file S.pbesol-nl-kjpaw_psl.1.0.0.UPF: wavefunction(s)  3S renormalized
     Message from routine setup:
     using ibrav=0 with symmetry is DISCOURAGED, use correct ibrav instead

     Subspace diagonalization in iterative solution of the eigenvalue problem:
     a serial algorithm will be used

 
     Parallelization info
     --------------------
     sticks:   dense  smooth     PW     G-vecs:    dense   smooth      PW
     Min         729     729    216               184205   184205   29111
     Max         730     730    217               184228   184228   29122
     Sum        1459    1459    433               368433   368433   58233
 
     Using Slab Decomposition
 


     bravais-lattice index     =            0
     lattice parameter (alat)  =       6.0780  a.u.
     unit-cell volume          =    1485.6703 (a.u.)^3
     number of atoms/cell      =            6
     number of atomic types    =            2
     number of electrons       =        52.00
     number of Kohn-Sham states=           26
     kinetic-energy cutoff     =     150.0000  Ry
     charge density cutoff     =     600.0000  Ry
     scf convergence threshold =      1.0E-12
     mixing beta               =       0.7000
     number of iterations used =            8  plain     mixing
     Exchange-correlation= SLA  PW   PSX  PSC
                           (   1   4  10   8   0   0   0)

     celldm(1)=   6.078000  celldm(2)=   0.000000  celldm(3)=   0.000000
     celldm(4)=   0.000000  celldm(5)=   0.000000  celldm(6)=   0.000000

     crystal axes: (cart. coord. in units of alat)
               a(1) = (   0.977326  -0.000176   0.000000 )  
               a(2) = (  -0.488540   0.846362   0.000000 )  
               a(3) = (   0.000000   0.000000   8.000000 )  

     reciprocal axes: (cart. coord. in units 2 pi/alat)
               b(1) = (  1.023307  0.590676  0.000000 )  
               b(2) = (  0.000213  1.181651  0.000000 )  
               b(3) = (  0.000000  0.000000  0.125000 )  


     PseudoPot. # 1 for Mo read from file:
     /shared/home/as3359/pseudo/Mo.pbesol-spn-kjpaw_psl.1.0.0.UPF
     MD5 check sum: de57925cfc675213e43241dcc441eda8
     Pseudo is Projector augmented-wave + core cor, Zval = 14.0
     Generated using &quot;atomic&quot; code by A. Dal Corso  v.6.3
     Shape of augmentation charge: PSQ
     Using radial grid of 1229 points,  6 beta functions with: 
                l(1) =   0
                l(2) =   0
                l(3) =   1
                l(4) =   1
                l(5) =   2
                l(6) =   2
     Q(r) pseudized with 0 coefficients 


     PseudoPot. # 2 for S  read from file:
     /shared/home/as3359/pseudo/S.pbesol-nl-kjpaw_psl.1.0.0.UPF
     MD5 check sum: bf3db50ec3f960682bbc396f1aadd1dd
     Pseudo is Projector augmented-wave + core cor, Zval =  6.0
     Generated using &quot;atomic&quot; code by A. Dal Corso  v.6.3
     Shape of augmentation charge: PSQ
     Using radial grid of 1151 points,  4 beta functions with: 
                l(1) =   0
                l(2) =   0
                l(3) =   1
                l(4) =   1
     Q(r) pseudized with 0 coefficients 


     atomic species   valence    mass     pseudopotential
        Mo            14.00    95.94000     Mo( 1.00)
        S              6.00    32.06500     S ( 1.00)

      2 Sym. Ops., with inversion, found ( 1 have fractional translation)



   Cartesian axes

     site n.     atom                  positions (alat units)
         1           Mo  tau(   1) = (   0.0000000   0.0000000   0.9844997  )
         2           S   tau(   2) = (   0.4887119   0.2819702   1.4701535  )
         3           S   tau(   3) = (   0.4887135   0.2819635   0.4988906  )
         4           Mo  tau(   4) = (   0.0000000   0.0000000   3.0155003  )
         5           S   tau(   5) = (  -0.4887135  -0.2819635   3.5011094  )
         6           S   tau(   6) = (  -0.4887119  -0.2819702   2.5298465  )

     number of k points=   113

     Number of k-points >= 100: set verbosity='high' to print them.

     Dense  grid:   368433 G-vectors     FFT dimensions: (  48,  48, 384)

     Estimated max dynamical RAM per process >       1.71 GB

     Estimated total dynamical RAM >       3.41 GB
     Cannot read rho : file not found

     Initial potential from superposition of free atoms

     starting charge   51.99828, renormalised to   52.00000

     negative rho (up, down):  1.542E-04 0.000E+00
     Message from routine qexsd_readschema :
     xml data file /scratch/as3359/Mos2_ct_lat/MoS2.save/data-file-schema.xml not fou
     Cannot read wfcs: file not found
     Starting wfcs are   36 randomized atomic wfcs
     Checking if some PAW data can be deallocated... 

     total cpu time spent up to now is       27.9 secs

     Self-consistent Calculation

     iteration #  1     ecut=   150.00 Ry     beta= 0.70
     Davidson diagonalization with overlap
     ethr =  1.00E-05,  avg # of iterations = 10.4

     negative rho (up, down):  1.985E-04 0.000E+00

     total cpu time spent up to now is      160.0 secs

     total energy              =    -979.38690476 Ry
     estimated scf accuracy    <       0.28964502 Ry

     iteration #  2     ecut=   150.00 Ry     beta= 0.70
     Davidson diagonalization with overlap
     ethr =  5.57E-04,  avg # of iterations =  5.0

     negative rho (up, down):  1.885E-04 0.000E+00

     total cpu time spent up to now is      225.4 secs

     total energy              =    -979.31439808 Ry
     estimated scf accuracy    <       1.01343800 Ry

     iteration #  3     ecut=   150.00 Ry     beta= 0.70
     Davidson diagonalization with overlap
     ethr =  5.57E-04,  avg # of iterations =  5.2

     negative rho (up, down):  1.900E-04 0.000E+00

     total cpu time spent up to now is      289.3 secs

     total energy              =    -979.50278001 Ry
     estimated scf accuracy    <       0.09500660 Ry

     iteration #  4     ecut=   150.00 Ry     beta= 0.70
     Davidson diagonalization with overlap
     ethr =  1.83E-04,  avg # of iterations =  2.8

     negative rho (up, down):  1.914E-04 0.000E+00

     total cpu time spent up to now is      337.4 secs

     total energy              =    -979.51091499 Ry
     estimated scf accuracy    <       0.02044562 Ry

     iteration #  5     ecut=   150.00 Ry     beta= 0.70
     Davidson diagonalization with overlap
     ethr =  3.93E-05,  avg # of iterations =  4.0

     negative rho (up, down):  1.985E-04 0.000E+00

     total cpu time spent up to now is      392.3 secs

     total energy              =    -979.51563081 Ry
     estimated scf accuracy    <       0.01293487 Ry

     iteration #  6     ecut=   150.00 Ry     beta= 0.70
     Davidson diagonalization with overlap
     ethr =  2.49E-05,  avg # of iterations =  2.5

     negative rho (up, down):  2.011E-04 0.000E+00

     total cpu time spent up to now is      437.8 secs

     total energy              =    -979.51654370 Ry
     estimated scf accuracy    <       0.00228955 Ry

     iteration #  7     ecut=   150.00 Ry     beta= 0.70
     Davidson diagonalization with overlap
     ethr =  4.40E-06,  avg # of iterations =  4.3

     negative rho (up, down):  2.029E-04 0.000E+00

     total cpu time spent up to now is      492.8 secs

     total energy              =    -979.51688295 Ry
     estimated scf accuracy    <       0.00145331 Ry

     iteration #  8     ecut=   150.00 Ry     beta= 0.70
     Davidson diagonalization with overlap
     ethr =  2.79E-06,  avg # of iterations =  2.0

     negative rho (up, down):  2.048E-04 0.000E+00

     total cpu time spent up to now is      534.8 secs

     total energy              =    -979.51684172 Ry
     estimated scf accuracy    <       0.00053250 Ry

     iteration #  9     ecut=   150.00 Ry     beta= 0.70
     Davidson diagonalization with overlap
     ethr =  1.02E-06,  avg # of iterations =  4.5

     negative rho (up, down):  2.049E-04 0.000E+00

     total cpu time spent up to now is      589.1 secs

     total energy              =    -979.51696231 Ry
     estimated scf accuracy    <       0.00021947 Ry

     iteration # 10     ecut=   150.00 Ry     beta= 0.70
     Davidson diagonalization with overlap
     ethr =  4.22E-07,  avg # of iterations =  1.3

     negative rho (up, down):  2.051E-04 0.000E+00

     total cpu time spent up to now is      626.9 secs

     total energy              =    -979.51691889 Ry
     estimated scf accuracy    <       0.00012487 Ry

     iteration # 11     ecut=   150.00 Ry     beta= 0.70
     Davidson diagonalization with overlap
     ethr =  2.40E-07,  avg # of iterations =  4.4

     negative rho (up, down):  2.051E-04 0.000E+00

     total cpu time spent up to now is      683.8 secs

     total energy              =    -979.51695837 Ry
     estimated scf accuracy    <       0.00004211 Ry

     iteration # 12     ecut=   150.00 Ry     beta= 0.70
     Davidson diagonalization with overlap
     ethr =  8.10E-08,  avg # of iterations =  2.0

     negative rho (up, down):  2.051E-04 0.000E+00

     total cpu time spent up to now is      724.7 secs

     total energy              =    -979.51696033 Ry
     estimated scf accuracy    <       0.00001510 Ry

     iteration # 13     ecut=   150.00 Ry     beta= 0.70
     Davidson diagonalization with overlap
     ethr =  2.90E-08,  avg # of iterations =  1.4

     negative rho (up, down):  2.052E-04 0.000E+00

     total cpu time spent up to now is      762.9 secs

     total energy              =    -979.51696035 Ry
     estimated scf accuracy    <       0.00001243 Ry

     iteration # 14     ecut=   150.00 Ry     beta= 0.70
     Davidson diagonalization with overlap
     ethr =  2.39E-08,  avg # of iterations =  1.1

     negative rho (up, down):  2.052E-04 0.000E+00

     total cpu time spent up to now is      800.0 secs

     total energy              =    -979.51695799 Ry
     estimated scf accuracy    <       0.00000973 Ry

     iteration # 15     ecut=   150.00 Ry     beta= 0.70
     Davidson diagonalization with overlap
     ethr =  1.87E-08,  avg # of iterations =  4.3

     negative rho (up, down):  2.053E-04 0.000E+00

     total cpu time spent up to now is      852.6 secs

     total energy              =    -979.51696038 Ry
     estimated scf accuracy    <       0.00000033 Ry

     iteration # 16     ecut=   150.00 Ry     beta= 0.70
     Davidson diagonalization with overlap
     ethr =  6.32E-10,  avg # of iterations =  6.2

     negative rho (up, down):  2.052E-04 0.000E+00

     total cpu time spent up to now is      928.6 secs

     total energy              =    -979.51696046 Ry
     estimated scf accuracy    <       0.00000407 Ry

     iteration # 17     ecut=   150.00 Ry     beta= 0.70
     Davidson diagonalization with overlap
     ethr =  6.32E-10,  avg # of iterations =  2.4

     negative rho (up, down):  2.052E-04 0.000E+00

     total cpu time spent up to now is      974.6 secs

     total energy              =    -979.51696000 Ry
     estimated scf accuracy    <       0.00000239 Ry

     iteration # 18     ecut=   150.00 Ry     beta= 0.70
     Davidson diagonalization with overlap
     ethr =  6.32E-10,  avg # of iterations =  5.7

     negative rho (up, down):  2.052E-04 0.000E+00

     total cpu time spent up to now is     1035.3 secs

     total energy              =    -979.51696026 Ry
     estimated scf accuracy    <       0.00000007 Ry

     iteration # 19     ecut=   150.00 Ry     beta= 0.70
     Davidson diagonalization with overlap
     ethr =  1.30E-10,  avg # of iterations =  3.7

     negative rho (up, down):  2.052E-04 0.000E+00

     total cpu time spent up to now is     1082.3 secs

     total energy              =    -979.51696028 Ry
     estimated scf accuracy    <       0.00000003 Ry

     iteration # 20     ecut=   150.00 Ry     beta= 0.70
     Davidson diagonalization with overlap
     ethr =  5.06E-11,  avg # of iterations =  4.5

     negative rho (up, down):  2.052E-04 0.000E+00

     total cpu time spent up to now is     1136.4 secs

     total energy              =    -979.51696027 Ry
     estimated scf accuracy    <       0.00000016 Ry

     iteration # 21     ecut=   150.00 Ry     beta= 0.70
     Davidson diagonalization with overlap
     ethr =  5.06E-11,  avg # of iterations =  2.6

     negative rho (up, down):  2.052E-04 0.000E+00

     total cpu time spent up to now is     1181.2 secs

     total energy              =    -979.51696026 Ry
     estimated scf accuracy    <       0.00000007 Ry

     iteration # 22     ecut=   150.00 Ry     beta= 0.70
     Davidson diagonalization with overlap
     ethr =  5.06E-11,  avg # of iterations =  4.6

     negative rho (up, down):  2.052E-04 0.000E+00

     total cpu time spent up to now is     1235.6 secs

     total energy              =    -979.51696027 Ry
     estimated scf accuracy    <          8.7E-10 Ry

     iteration # 23     ecut=   150.00 Ry     beta= 0.70
     Davidson diagonalization with overlap
     ethr =  1.68E-12,  avg # of iterations =  5.4

     negative rho (up, down):  2.052E-04 0.000E+00

     total cpu time spent up to now is     1302.2 secs

     total energy              =    -979.51696027 Ry
     estimated scf accuracy    <          2.3E-09 Ry

     iteration # 24     ecut=   150.00 Ry     beta= 0.70
     Davidson diagonalization with overlap
     ethr =  1.68E-12,  avg # of iterations =  1.0

     negative rho (up, down):  2.052E-04 0.000E+00

     total cpu time spent up to now is     1337.5 secs

     total energy              =    -979.51696027 Ry
     estimated scf accuracy    <          2.9E-09 Ry

     iteration # 25     ecut=   150.00 Ry     beta= 0.70
     Davidson diagonalization with overlap
     ethr =  1.68E-12,  avg # of iterations =  1.0

     negative rho (up, down):  2.052E-04 0.000E+00

     total cpu time spent up to now is     1372.9 secs

     total energy              =    -979.51696027 Ry
     estimated scf accuracy    <          2.9E-09 Ry

     iteration # 26     ecut=   150.00 Ry     beta= 0.70
     Davidson diagonalization with overlap
     ethr =  1.68E-12,  avg # of iterations =  3.1

     negative rho (up, down):  2.052E-04 0.000E+00

     total cpu time spent up to now is     1419.7 secs

     total energy              =    -979.51696027 Ry
     estimated scf accuracy    <          6.7E-09 Ry

     iteration # 27     ecut=   150.00 Ry     beta= 0.70
     Davidson diagonalization with overlap
     ethr =  1.68E-12,  avg # of iterations =  5.9

     negative rho (up, down):  2.052E-04 0.000E+00

     total cpu time spent up to now is     1479.3 secs

     total energy              =    -979.51696027 Ry
     estimated scf accuracy    <       0.00000002 Ry

     iteration # 28     ecut=   150.00 Ry     beta= 0.70
     Davidson diagonalization with overlap
     ethr =  1.68E-12,  avg # of iterations =  4.2

     negative rho (up, down):  2.052E-04 0.000E+00

     total cpu time spent up to now is     1530.1 secs

     total energy              =    -979.51696027 Ry
     estimated scf accuracy    <          7.7E-09 Ry

     iteration # 29     ecut=   150.00 Ry     beta= 0.70
     Davidson diagonalization with overlap
     ethr =  1.68E-12,  avg # of iterations =  4.5

     negative rho (up, down):  2.052E-04 0.000E+00

     total cpu time spent up to now is     1584.4 secs

     total energy              =    -979.51696027 Ry
     estimated scf accuracy    <          2.1E-09 Ry

     iteration # 30     ecut=   150.00 Ry     beta= 0.70
     Davidson diagonalization with overlap
     ethr =  1.68E-12,  avg # of iterations =  4.4

     negative rho (up, down):  2.052E-04 0.000E+00

     total cpu time spent up to now is     1636.0 secs

     total energy              =    -979.51696027 Ry
     estimated scf accuracy    <          8.2E-11 Ry

     iteration # 31     ecut=   150.00 Ry     beta= 0.70
     Davidson diagonalization with overlap
     ethr =  1.58E-13,  avg # of iterations =  3.6

     negative rho (up, down):  2.052E-04 0.000E+00

     total cpu time spent up to now is     1682.6 secs

     total energy              =    -979.51696027 Ry
     estimated scf accuracy    <          1.4E-10 Ry

     iteration # 32     ecut=   150.00 Ry     beta= 0.70
     Davidson diagonalization with overlap
     ethr =  1.58E-13,  avg # of iterations =  3.3

     negative rho (up, down):  2.052E-04 0.000E+00

     total cpu time spent up to now is     1727.3 secs

     total energy              =    -979.51696027 Ry
     estimated scf accuracy    <          2.8E-11 Ry

     iteration # 33     ecut=   150.00 Ry     beta= 0.70
     Davidson diagonalization with overlap
     ethr =  1.00E-13,  avg # of iterations =  3.8

     negative rho (up, down):  2.052E-04 0.000E+00

     total cpu time spent up to now is     1773.6 secs

     End of self-consistent calculation

     Number of k-points >= 100: set verbosity='high' to print the bands.

     highest occupied level (ev):     2.1640

!    total energy              =    -979.51696027 Ry

     total all-electron energy =    -19376.432651 Ry
     estimated scf accuracy    <          8.1E-14 Ry

     The total energy is the sum of the following terms:
     one-electron contribution =   -2742.67320723 Ry
     hartree contribution      =    1381.92504775 Ry
     xc contribution           =     -59.03844913 Ry
     ewald contribution        =    1066.04675783 Ry
     one-center paw contrib.   =    -625.77710948 Ry

     convergence has been achieved in  33 iterations

     negative rho (up, down):  2.052E-04 0.000E+00

     Forces acting on atoms (cartesian axes, Ry/au):

     atom    1 type  1   force =     0.00001344   -0.00005911   -0.00000014
     atom    2 type  2   force =    -0.00000580    0.00002569   -0.00240798
     atom    3 type  2   force =    -0.00000768    0.00003355    0.00242211
     atom    4 type  1   force =    -0.00001344    0.00005911    0.00000014
     atom    5 type  2   force =     0.00000768   -0.00003355   -0.00242211
     atom    6 type  2   force =     0.00000580   -0.00002569    0.00240798

     Total force =     0.004831     Total SCF correction =     0.000002


     Computing stress (Cartesian axis) and pressure


     negative rho (up, down):  2.052E-04 0.000E+00
          total   stress  (Ry/bohr**3)                   (kbar)     P=       -1.69
  -0.00000763   0.00000009   0.00000001           -1.12        0.01        0.00
   0.00000009  -0.00000695  -0.00000004            0.01       -1.02       -0.01
   0.00000001  -0.00000004  -0.00001991            0.00       -0.01       -2.93


     Writing output data file /scratch/as3359/Mos2_ct_lat/MoS2.save/
 
     init_run     :     51.60s CPU     27.73s WALL (       1 calls)
     electrons    :   3438.16s CPU   1745.76s WALL (       1 calls)
     forces       :     13.21s CPU      6.70s WALL (       1 calls)
     stress       :     53.50s CPU     27.17s WALL (       1 calls)

     Called by init_run:
     wfcinit      :     43.72s CPU     22.72s WALL (       1 calls)
     potinit      :      2.31s CPU      1.18s WALL (       1 calls)
     hinit0       :      4.44s CPU      3.16s WALL (       1 calls)

     Called by electrons:
     c_bands      :   2939.60s CPU   1487.69s WALL (      33 calls)
     sum_band     :    462.53s CPU    236.67s WALL (      33 calls)
     v_of_rho     :      8.76s CPU      4.78s WALL (      34 calls)
     newd         :     16.02s CPU     10.46s WALL (      34 calls)
     PAW_pot      :      7.58s CPU      3.94s WALL (      34 calls)
     mix_rho      :      4.02s CPU      2.39s WALL (      33 calls)

     Called by c_bands:
     init_us_2    :     67.33s CPU     33.71s WALL (    7797 calls)
     cegterg      :   2791.75s CPU   1413.05s WALL (    3729 calls)

     Called by *egterg:
     cdiaghg      :     21.91s CPU     11.23s WALL (   17840 calls)
     h_psi        :   2241.48s CPU   1137.34s WALL (   17953 calls)
     s_psi        :    121.31s CPU     60.72s WALL (   17953 calls)
     g_psi        :     16.70s CPU      8.38s WALL (   14111 calls)

     Called by h_psi:
     h_psi:calbec :     92.42s CPU     46.35s WALL (   17953 calls)
     vloc_psi     :   2001.35s CPU   1016.79s WALL (   17953 calls)
     add_vuspsi   :    131.44s CPU     65.80s WALL (   17953 calls)

     General routines
     calbec       :    121.54s CPU     60.95s WALL (   22247 calls)
     fft          :      3.66s CPU      1.88s WALL (     399 calls)
     ffts         :      0.28s CPU      0.14s WALL (      33 calls)
     fftw         :   1975.62s CPU   1005.33s WALL (  671836 calls)
 
     Parallel routines
 
     PWSCF        :  59m22.74s CPU  30m12.99s WALL

 
   This run was terminated on:  13:29:43  18Apr2022            

=------------------------------------------------------------------------------=
   JOB DONE.
=------------------------------------------------------------------------------=
