
     Program PWSCF v.6.8 starts on 17Apr2022 at 13:30: 7 

     This program is part of the open-source Quantum ESPRESSO suite
     for quantum simulation of materials; please cite
         "P. Giannozzi et al., J. Phys.:Condens. Matter 21 395502 (2009);
         "P. Giannozzi et al., J. Phys.:Condens. Matter 29 465901 (2017);
         "P. Giannozzi et al., J. Chem. Phys. 152 154105 (2020);
          URL http://www.quantum-espresso.org", 
     in publications or presentations arising from this work. More details at
     http://www.quantum-espresso.org/quote

     Parallel version (MPI & OpenMP), running on       4 processor cores
     Number of MPI processes:                 2
     Threads/MPI process:                     2

     MPI processes distributed on     1 nodes
     R & G space division:  proc/nbgrp/npool/nimage =       2
     125260 MiB available memory on the printing compute node when the environment starts
 
     Reading input from MoS2.scf.6.000.in
Warning: card  &CELL ignored
Warning: card     CELL_DYNAMICS='BFGS' ignored
Warning: card  / ignored

     Current dimensions of program PWSCF are:
     Max number of different atomic species (ntypx) = 10
     Max number of k-points (npk) =  40000
     Max angular momentum in pseudopotentials (lmaxx) =  4
     file Mo.pbesol-spn-kjpaw_psl.1.0.0.UPF: wavefunction(s)  4S 4D renormalized
     file S.pbesol-nl-kjpaw_psl.1.0.0.UPF: wavefunction(s)  3S renormalized
     Message from routine setup:
     using ibrav=0 with symmetry is DISCOURAGED, use correct ibrav instead

     Subspace diagonalization in iterative solution of the eigenvalue problem:
     a serial algorithm will be used

 
     Parallelization info
     --------------------
     sticks:   dense  smooth     PW     G-vecs:    dense   smooth      PW
     Min         708     708    210               177406   177406   28118
     Max         709     709    211               177433   177433   28145
     Sum        1417    1417    421               354839   354839   56263
 
     Using Slab Decomposition
 


     bravais-lattice index     =            0
     lattice parameter (alat)  =       6.0000  a.u.
     unit-cell volume          =    1429.2036 (a.u.)^3
     number of atoms/cell      =            6
     number of atomic types    =            2
     number of electrons       =        52.00
     number of Kohn-Sham states=           26
     kinetic-energy cutoff     =     150.0000  Ry
     charge density cutoff     =     600.0000  Ry
     scf convergence threshold =      1.0E-12
     mixing beta               =       0.7000
     number of iterations used =            8  plain     mixing
     Exchange-correlation= SLA  PW   PSX  PSC
                           (   1   4  10   8   0   0   0)

     celldm(1)=   6.000000  celldm(2)=   0.000000  celldm(3)=   0.000000
     celldm(4)=   0.000000  celldm(5)=   0.000000  celldm(6)=   0.000000

     crystal axes: (cart. coord. in units of alat)
               a(1) = (   0.977326  -0.000176   0.000000 )  
               a(2) = (  -0.488540   0.846362   0.000000 )  
               a(3) = (   0.000000   0.000000   8.000000 )  

     reciprocal axes: (cart. coord. in units 2 pi/alat)
               b(1) = (  1.023307  0.590676  0.000000 )  
               b(2) = (  0.000213  1.181651  0.000000 )  
               b(3) = (  0.000000  0.000000  0.125000 )  


     PseudoPot. # 1 for Mo read from file:
     /shared/home/as3359/pseudo/Mo.pbesol-spn-kjpaw_psl.1.0.0.UPF
     MD5 check sum: de57925cfc675213e43241dcc441eda8
     Pseudo is Projector augmented-wave + core cor, Zval = 14.0
     Generated using &quot;atomic&quot; code by A. Dal Corso  v.6.3
     Shape of augmentation charge: PSQ
     Using radial grid of 1229 points,  6 beta functions with: 
                l(1) =   0
                l(2) =   0
                l(3) =   1
                l(4) =   1
                l(5) =   2
                l(6) =   2
     Q(r) pseudized with 0 coefficients 


     PseudoPot. # 2 for S  read from file:
     /shared/home/as3359/pseudo/S.pbesol-nl-kjpaw_psl.1.0.0.UPF
     MD5 check sum: bf3db50ec3f960682bbc396f1aadd1dd
     Pseudo is Projector augmented-wave + core cor, Zval =  6.0
     Generated using &quot;atomic&quot; code by A. Dal Corso  v.6.3
     Shape of augmentation charge: PSQ
     Using radial grid of 1151 points,  4 beta functions with: 
                l(1) =   0
                l(2) =   0
                l(3) =   1
                l(4) =   1
     Q(r) pseudized with 0 coefficients 


     atomic species   valence    mass     pseudopotential
        Mo            14.00    95.94000     Mo( 1.00)
        S              6.00    32.06500     S ( 1.00)

      2 Sym. Ops., with inversion, found ( 1 have fractional translation)



   Cartesian axes

     site n.     atom                  positions (alat units)
         1           Mo  tau(   1) = (   0.0000000   0.0000000   0.9844997  )
         2           S   tau(   2) = (   0.4887119   0.2819702   1.4701535  )
         3           S   tau(   3) = (   0.4887135   0.2819635   0.4988906  )
         4           Mo  tau(   4) = (   0.0000000   0.0000000   3.0155003  )
         5           S   tau(   5) = (  -0.4887135  -0.2819635   3.5011094  )
         6           S   tau(   6) = (  -0.4887119  -0.2819702   2.5298465  )

     number of k points=   113

     Number of k-points >= 100: set verbosity='high' to print them.

     Dense  grid:   354839 G-vectors     FFT dimensions: (  45,  45, 384)

     Estimated max dynamical RAM per process >       1.64 GB

     Estimated total dynamical RAM >       3.28 GB

     Atomic positions and unit cell read from directory:
     /scratch/as3359/Mos2_ct_lat/MoS2.save/
     Message from routine qexsd_readschema :
     xml data file /scratch/as3359/Mos2_ct_lat/MoS2.save/data-file-schema.xml not fou
     Nothing found: using input atomic positions and unit cell

     Cannot read rho : file not found

     Initial potential from superposition of free atoms

     starting charge   51.99828, renormalised to   52.00000

     negative rho (up, down):  1.466E-04 0.000E+00
     Message from routine qexsd_readschema :
     xml data file /scratch/as3359/Mos2_ct_lat/MoS2.save/data-file-schema.xml not fou
     Cannot read wfcs: file not found
     Starting wfcs are   36 randomized atomic wfcs
     Checking if some PAW data can be deallocated... 

     total cpu time spent up to now is       27.4 secs

     Self-consistent Calculation

     iteration #  1     ecut=   150.00 Ry     beta= 0.70
     Davidson diagonalization with overlap
     ethr =  1.00E-05,  avg # of iterations = 10.5

     negative rho (up, down):  1.895E-04 0.000E+00

     total cpu time spent up to now is      149.5 secs

     total energy              =    -979.35404586 Ry
     estimated scf accuracy    <       0.33380056 Ry

     iteration #  2     ecut=   150.00 Ry     beta= 0.70
     Davidson diagonalization with overlap
     ethr =  6.42E-04,  avg # of iterations =  5.1

     negative rho (up, down):  1.768E-04 0.000E+00

     total cpu time spent up to now is      211.2 secs

     total energy              =    -979.25382112 Ry
     estimated scf accuracy    <       1.37310003 Ry

     iteration #  3     ecut=   150.00 Ry     beta= 0.70
     Davidson diagonalization with overlap
     ethr =  6.42E-04,  avg # of iterations =  5.3

     negative rho (up, down):  1.766E-04 0.000E+00

     total cpu time spent up to now is      270.9 secs

     total energy              =    -979.49862754 Ry
     estimated scf accuracy    <       0.07379800 Ry

     iteration #  4     ecut=   150.00 Ry     beta= 0.70
     Davidson diagonalization with overlap
     ethr =  1.42E-04,  avg # of iterations =  3.2

     negative rho (up, down):  1.781E-04 0.000E+00

     total cpu time spent up to now is      317.6 secs

     total energy              =    -979.50517037 Ry
     estimated scf accuracy    <       0.03284472 Ry

     iteration #  5     ecut=   150.00 Ry     beta= 0.70
     Davidson diagonalization with overlap
     ethr =  6.32E-05,  avg # of iterations =  3.2

     negative rho (up, down):  1.873E-04 0.000E+00

     total cpu time spent up to now is      363.9 secs

     total energy              =    -979.51107786 Ry
     estimated scf accuracy    <       0.00426465 Ry

     iteration #  6     ecut=   150.00 Ry     beta= 0.70
     Davidson diagonalization with overlap
     ethr =  8.20E-06,  avg # of iterations =  4.0

     negative rho (up, down):  1.918E-04 0.000E+00

     total cpu time spent up to now is      411.9 secs

     total energy              =    -979.51148429 Ry
     estimated scf accuracy    <       0.00137432 Ry

     iteration #  7     ecut=   150.00 Ry     beta= 0.70
     Davidson diagonalization with overlap
     ethr =  2.64E-06,  avg # of iterations =  4.3

     negative rho (up, down):  1.937E-04 0.000E+00

     total cpu time spent up to now is      460.3 secs

     total energy              =    -979.51173600 Ry
     estimated scf accuracy    <       0.00025448 Ry

     iteration #  8     ecut=   150.00 Ry     beta= 0.70
     Davidson diagonalization with overlap
     ethr =  4.89E-07,  avg # of iterations =  4.0

     negative rho (up, down):  1.946E-04 0.000E+00

     total cpu time spent up to now is      507.3 secs

     total energy              =    -979.51175508 Ry
     estimated scf accuracy    <       0.00010136 Ry

     iteration #  9     ecut=   150.00 Ry     beta= 0.70
     Davidson diagonalization with overlap
     ethr =  1.95E-07,  avg # of iterations =  4.3

     negative rho (up, down):  1.947E-04 0.000E+00

     total cpu time spent up to now is      555.0 secs

     total energy              =    -979.51177327 Ry
     estimated scf accuracy    <       0.00000928 Ry

     iteration # 10     ecut=   150.00 Ry     beta= 0.70
     Davidson diagonalization with overlap
     ethr =  1.78E-08,  avg # of iterations =  4.7

     negative rho (up, down):  1.947E-04 0.000E+00

     total cpu time spent up to now is      605.9 secs

     total energy              =    -979.51177399 Ry
     estimated scf accuracy    <       0.00000872 Ry

     iteration # 11     ecut=   150.00 Ry     beta= 0.70
     Davidson diagonalization with overlap
     ethr =  1.68E-08,  avg # of iterations =  2.6

     negative rho (up, down):  1.947E-04 0.000E+00

     total cpu time spent up to now is      647.4 secs

     total energy              =    -979.51177461 Ry
     estimated scf accuracy    <       0.00000076 Ry

     iteration # 12     ecut=   150.00 Ry     beta= 0.70
     Davidson diagonalization with overlap
     ethr =  1.46E-09,  avg # of iterations =  5.2

     negative rho (up, down):  1.948E-04 0.000E+00

     total cpu time spent up to now is      706.5 secs

     total energy              =    -979.51177495 Ry
     estimated scf accuracy    <       0.00000078 Ry

     iteration # 13     ecut=   150.00 Ry     beta= 0.70
     Davidson diagonalization with overlap
     ethr =  1.46E-09,  avg # of iterations =  1.3

     negative rho (up, down):  1.948E-04 0.000E+00

     total cpu time spent up to now is      742.7 secs

     total energy              =    -979.51177491 Ry
     estimated scf accuracy    <       0.00000033 Ry

     iteration # 14     ecut=   150.00 Ry     beta= 0.70
     Davidson diagonalization with overlap
     ethr =  6.28E-10,  avg # of iterations =  2.8

     negative rho (up, down):  1.948E-04 0.000E+00

     total cpu time spent up to now is      786.4 secs

     total energy              =    -979.51177495 Ry
     estimated scf accuracy    <          8.4E-09 Ry

     iteration # 15     ecut=   150.00 Ry     beta= 0.70
     Davidson diagonalization with overlap
     ethr =  1.61E-11,  avg # of iterations =  6.6

     negative rho (up, down):  1.948E-04 0.000E+00

     total cpu time spent up to now is      854.6 secs

     total energy              =    -979.51177496 Ry
     estimated scf accuracy    <       0.00000008 Ry

     iteration # 16     ecut=   150.00 Ry     beta= 0.70
     Davidson diagonalization with overlap
     ethr =  1.61E-11,  avg # of iterations =  4.3

     negative rho (up, down):  1.948E-04 0.000E+00

     total cpu time spent up to now is      908.3 secs

     total energy              =    -979.51177496 Ry
     estimated scf accuracy    <          9.2E-09 Ry

     iteration # 17     ecut=   150.00 Ry     beta= 0.70
     Davidson diagonalization with overlap
     ethr =  1.61E-11,  avg # of iterations =  2.0

     negative rho (up, down):  1.948E-04 0.000E+00

     total cpu time spent up to now is      948.7 secs

     total energy              =    -979.51177496 Ry
     estimated scf accuracy    <          1.8E-09 Ry

     iteration # 18     ecut=   150.00 Ry     beta= 0.70
     Davidson diagonalization with overlap
     ethr =  3.37E-12,  avg # of iterations =  4.8

     negative rho (up, down):  1.948E-04 0.000E+00

     total cpu time spent up to now is     1003.3 secs

     total energy              =    -979.51177496 Ry
     estimated scf accuracy    <          2.8E-10 Ry

     iteration # 19     ecut=   150.00 Ry     beta= 0.70
     Davidson diagonalization with overlap
     ethr =  5.36E-13,  avg # of iterations =  2.3

     negative rho (up, down):  1.948E-04 0.000E+00

     total cpu time spent up to now is     1042.4 secs

     total energy              =    -979.51177496 Ry
     estimated scf accuracy    <          2.2E-10 Ry

     iteration # 20     ecut=   150.00 Ry     beta= 0.70
     Davidson diagonalization with overlap
     ethr =  4.14E-13,  avg # of iterations =  4.4

     negative rho (up, down):  1.948E-04 0.000E+00

     total cpu time spent up to now is     1094.2 secs

     total energy              =    -979.51177496 Ry
     estimated scf accuracy    <          1.7E-10 Ry

     iteration # 21     ecut=   150.00 Ry     beta= 0.70
     Davidson diagonalization with overlap
     ethr =  3.34E-13,  avg # of iterations =  1.8

     negative rho (up, down):  1.948E-04 0.000E+00

     total cpu time spent up to now is     1132.4 secs

     total energy              =    -979.51177496 Ry
     estimated scf accuracy    <          3.4E-10 Ry

     iteration # 22     ecut=   150.00 Ry     beta= 0.70
     Davidson diagonalization with overlap
     ethr =  3.34E-13,  avg # of iterations =  2.0

     negative rho (up, down):  1.948E-04 0.000E+00

     total cpu time spent up to now is     1173.1 secs

     total energy              =    -979.51177496 Ry
     estimated scf accuracy    <          1.0E-10 Ry

     iteration # 23     ecut=   150.00 Ry     beta= 0.70
     Davidson diagonalization with overlap
     ethr =  1.94E-13,  avg # of iterations =  2.9

     negative rho (up, down):  1.948E-04 0.000E+00

     total cpu time spent up to now is     1216.4 secs

     total energy              =    -979.51177496 Ry
     estimated scf accuracy    <          4.4E-12 Ry

     iteration # 24     ecut=   150.00 Ry     beta= 0.70
     Davidson diagonalization with overlap
     ethr =  1.00E-13,  avg # of iterations =  1.0

     negative rho (up, down):  1.948E-04 0.000E+00

     total cpu time spent up to now is     1251.9 secs

     total energy              =    -979.51177496 Ry
     estimated scf accuracy    <          3.5E-12 Ry

     iteration # 25     ecut=   150.00 Ry     beta= 0.70
     Davidson diagonalization with overlap
     ethr =  1.00E-13,  avg # of iterations =  1.0

     negative rho (up, down):  1.948E-04 0.000E+00

     total cpu time spent up to now is     1287.5 secs

     total energy              =    -979.51177496 Ry
     estimated scf accuracy    <          1.2E-12 Ry

     iteration # 26     ecut=   150.00 Ry     beta= 0.70
     Davidson diagonalization with overlap
     ethr =  1.00E-13,  avg # of iterations =  1.0

     negative rho (up, down):  1.948E-04 0.000E+00

     total cpu time spent up to now is     1323.0 secs

     End of self-consistent calculation

     Number of k-points >= 100: set verbosity='high' to print the bands.

     highest occupied level (ev):     2.4860

!    total energy              =    -979.51177496 Ry

     total all-electron energy =    -19376.427466 Ry
     estimated scf accuracy    <          3.9E-13 Ry

     The total energy is the sum of the following terms:
     one-electron contribution =   -2771.15479630 Ry
     hartree contribution      =    1396.77257001 Ry
     xc contribution           =     -59.23992784 Ry
     ewald contribution        =    1079.90536568 Ry
     one-center paw contrib.   =    -625.79498652 Ry

     convergence has been achieved in  26 iterations

     negative rho (up, down):  1.948E-04 0.000E+00

     Forces acting on atoms (cartesian axes, Ry/au):

     atom    1 type  1   force =     0.00001292   -0.00005810    0.00000077
     atom    2 type  2   force =    -0.00000553    0.00002497    0.02444055
     atom    3 type  2   force =    -0.00000760    0.00003365   -0.02484168
     atom    4 type  1   force =    -0.00001292    0.00005810   -0.00000077
     atom    5 type  2   force =     0.00000760   -0.00003365    0.02484168
     atom    6 type  2   force =     0.00000553   -0.00002497   -0.02444055

     Total force =     0.049284     Total SCF correction =     0.000005


     Computing stress (Cartesian axis) and pressure


     negative rho (up, down):  1.948E-04 0.000E+00
          total   stress  (Ry/bohr**3)                   (kbar)     P=       29.60
   0.00019962   0.00000010   0.00000001           29.37        0.01        0.00
   0.00000010   0.00020035  -0.00000004            0.01       29.47       -0.01
   0.00000001  -0.00000004   0.00020374            0.00       -0.01       29.97


     Writing output data file /scratch/as3359/Mos2_ct_lat/MoS2.save/
 
     init_run     :     50.56s CPU     27.04s WALL (       1 calls)
     electrons    :   2557.96s CPU   1295.78s WALL (       1 calls)
     forces       :     11.91s CPU      6.04s WALL (       1 calls)
     stress       :     43.37s CPU     21.97s WALL (       1 calls)

     Called by init_run:
     wfcinit      :     42.51s CPU     21.84s WALL (       1 calls)
     potinit      :      2.20s CPU      1.12s WALL (       1 calls)
     hinit0       :      4.80s CPU      3.46s WALL (       1 calls)

     Called by electrons:
     c_bands      :   2174.75s CPU   1099.11s WALL (      26 calls)
     sum_band     :    360.18s CPU    183.38s WALL (      26 calls)
     v_of_rho     :      5.26s CPU      2.86s WALL (      27 calls)
     newd         :      9.87s CPU      6.10s WALL (      27 calls)
     PAW_pot      :      6.15s CPU      3.21s WALL (      27 calls)
     mix_rho      :      2.07s CPU      1.22s WALL (      26 calls)

     Called by c_bands:
     init_us_2    :     42.03s CPU     21.05s WALL (    6215 calls)
     cegterg      :   2070.32s CPU   1046.14s WALL (    2938 calls)

     Called by *egterg:
     cdiaghg      :     16.17s CPU      8.30s WALL (   13662 calls)
     h_psi        :   1752.24s CPU    886.49s WALL (   13775 calls)
     s_psi        :     69.33s CPU     34.72s WALL (   13775 calls)
     g_psi        :     12.66s CPU      6.35s WALL (   10724 calls)

     Called by h_psi:
     h_psi:calbec :     59.82s CPU     29.99s WALL (   13775 calls)
     vloc_psi     :   1611.24s CPU    815.70s WALL (   13775 calls)
     add_vuspsi   :     68.89s CPU     34.52s WALL (   13775 calls)

     General routines
     calbec       :     80.20s CPU     40.21s WALL (   17278 calls)
     fft          :      2.59s CPU      1.48s WALL (     322 calls)
     ffts         :      0.16s CPU      0.09s WALL (      26 calls)
     fftw         :   1693.98s CPU    858.18s WALL (  523856 calls)
 
     Parallel routines
 
     PWSCF        :  44m34.85s CPU  22m42.66s WALL

 
   This run was terminated on:  13:52:49  17Apr2022            

=------------------------------------------------------------------------------=
   JOB DONE.
=------------------------------------------------------------------------------=
