
     Program PWSCF v.6.8 starts on 17Apr2022 at 16:19:21 

     This program is part of the open-source Quantum ESPRESSO suite
     for quantum simulation of materials; please cite
         "P. Giannozzi et al., J. Phys.:Condens. Matter 21 395502 (2009);
         "P. Giannozzi et al., J. Phys.:Condens. Matter 29 465901 (2017);
         "P. Giannozzi et al., J. Chem. Phys. 152 154105 (2020);
          URL http://www.quantum-espresso.org", 
     in publications or presentations arising from this work. More details at
     http://www.quantum-espresso.org/quote

     Parallel version (MPI & OpenMP), running on       4 processor cores
     Number of MPI processes:                 2
     Threads/MPI process:                     2

     MPI processes distributed on     1 nodes
     R & G space division:  proc/nbgrp/npool/nimage =       2
     124986 MiB available memory on the printing compute node when the environment starts
 
     Reading input from MoS2.scf.6.070.in
Warning: card  &CELL ignored
Warning: card     CELL_DYNAMICS='BFGS' ignored
Warning: card  / ignored

     Current dimensions of program PWSCF are:
     Max number of different atomic species (ntypx) = 10
     Max number of k-points (npk) =  40000
     Max angular momentum in pseudopotentials (lmaxx) =  4
     Message from routine iosys:
     restart disabled: needed files not found
     file Mo.pbesol-spn-kjpaw_psl.1.0.0.UPF: wavefunction(s)  4S 4D renormalized
     file S.pbesol-nl-kjpaw_psl.1.0.0.UPF: wavefunction(s)  3S renormalized
     Message from routine setup:
     using ibrav=0 with symmetry is DISCOURAGED, use correct ibrav instead

     Subspace diagonalization in iterative solution of the eigenvalue problem:
     a serial algorithm will be used

 
     Parallelization info
     --------------------
     sticks:   dense  smooth     PW     G-vecs:    dense   smooth      PW
     Min         729     729    214               183535   183535   29032
     Max         730     730    219               183550   183550   29033
     Sum        1459    1459    433               367085   367085   58065
 
     Using Slab Decomposition
 


     bravais-lattice index     =            0
     lattice parameter (alat)  =       6.0700  a.u.
     unit-cell volume          =    1479.8116 (a.u.)^3
     number of atoms/cell      =            6
     number of atomic types    =            2
     number of electrons       =        52.00
     number of Kohn-Sham states=           26
     kinetic-energy cutoff     =     150.0000  Ry
     charge density cutoff     =     600.0000  Ry
     scf convergence threshold =      1.0E-12
     mixing beta               =       0.7000
     number of iterations used =            8  plain     mixing
     Exchange-correlation= SLA  PW   PSX  PSC
                           (   1   4  10   8   0   0   0)

     celldm(1)=   6.070000  celldm(2)=   0.000000  celldm(3)=   0.000000
     celldm(4)=   0.000000  celldm(5)=   0.000000  celldm(6)=   0.000000

     crystal axes: (cart. coord. in units of alat)
               a(1) = (   0.977326  -0.000176   0.000000 )  
               a(2) = (  -0.488540   0.846362   0.000000 )  
               a(3) = (   0.000000   0.000000   8.000000 )  

     reciprocal axes: (cart. coord. in units 2 pi/alat)
               b(1) = (  1.023307  0.590676  0.000000 )  
               b(2) = (  0.000213  1.181651  0.000000 )  
               b(3) = (  0.000000  0.000000  0.125000 )  


     PseudoPot. # 1 for Mo read from file:
     /shared/home/as3359/pseudo/Mo.pbesol-spn-kjpaw_psl.1.0.0.UPF
     MD5 check sum: de57925cfc675213e43241dcc441eda8
     Pseudo is Projector augmented-wave + core cor, Zval = 14.0
     Generated using &quot;atomic&quot; code by A. Dal Corso  v.6.3
     Shape of augmentation charge: PSQ
     Using radial grid of 1229 points,  6 beta functions with: 
                l(1) =   0
                l(2) =   0
                l(3) =   1
                l(4) =   1
                l(5) =   2
                l(6) =   2
     Q(r) pseudized with 0 coefficients 


     PseudoPot. # 2 for S  read from file:
     /shared/home/as3359/pseudo/S.pbesol-nl-kjpaw_psl.1.0.0.UPF
     MD5 check sum: bf3db50ec3f960682bbc396f1aadd1dd
     Pseudo is Projector augmented-wave + core cor, Zval =  6.0
     Generated using &quot;atomic&quot; code by A. Dal Corso  v.6.3
     Shape of augmentation charge: PSQ
     Using radial grid of 1151 points,  4 beta functions with: 
                l(1) =   0
                l(2) =   0
                l(3) =   1
                l(4) =   1
     Q(r) pseudized with 0 coefficients 


     atomic species   valence    mass     pseudopotential
        Mo            14.00    95.94000     Mo( 1.00)
        S              6.00    32.06500     S ( 1.00)

      2 Sym. Ops., with inversion, found ( 1 have fractional translation)



   Cartesian axes

     site n.     atom                  positions (alat units)
         1           Mo  tau(   1) = (   0.0000000   0.0000000   0.9844997  )
         2           S   tau(   2) = (   0.4887119   0.2819702   1.4701535  )
         3           S   tau(   3) = (   0.4887135   0.2819635   0.4988906  )
         4           Mo  tau(   4) = (   0.0000000   0.0000000   3.0155003  )
         5           S   tau(   5) = (  -0.4887135  -0.2819635   3.5011094  )
         6           S   tau(   6) = (  -0.4887119  -0.2819702   2.5298465  )

     number of k points=   113

     Number of k-points >= 100: set verbosity='high' to print them.

     Dense  grid:   367085 G-vectors     FFT dimensions: (  48,  48, 384)

     Estimated max dynamical RAM per process >       1.70 GB

     Estimated total dynamical RAM >       3.40 GB
     Cannot read rho : file not found

     Initial potential from superposition of free atoms

     starting charge   51.99828, renormalised to   52.00000

     negative rho (up, down):  1.601E-04 0.000E+00
     Message from routine qexsd_readschema :
     xml data file /scratch/as3359/Mos2_ct_lat/MoS2.save/data-file-schema.xml not fou
     Cannot read wfcs: file not found
     Starting wfcs are   36 randomized atomic wfcs
     Checking if some PAW data can be deallocated... 

     total cpu time spent up to now is       26.7 secs

     Self-consistent Calculation

     iteration #  1     ecut=   150.00 Ry     beta= 0.70
     Davidson diagonalization with overlap
     ethr =  1.00E-05,  avg # of iterations = 10.4

     negative rho (up, down):  2.063E-04 0.000E+00

     total cpu time spent up to now is      137.3 secs

     total energy              =    -979.38424177 Ry
     estimated scf accuracy    <       0.29390642 Ry

     iteration #  2     ecut=   150.00 Ry     beta= 0.70
     Davidson diagonalization with overlap
     ethr =  5.65E-04,  avg # of iterations =  5.0

     negative rho (up, down):  1.958E-04 0.000E+00

     total cpu time spent up to now is      192.3 secs

     total energy              =    -979.30744557 Ry
     estimated scf accuracy    <       1.05555241 Ry

     iteration #  3     ecut=   150.00 Ry     beta= 0.70
     Davidson diagonalization with overlap
     ethr =  5.65E-04,  avg # of iterations =  5.3

     negative rho (up, down):  1.972E-04 0.000E+00

     total cpu time spent up to now is      246.3 secs

     total energy              =    -979.50298920 Ry
     estimated scf accuracy    <       0.09269366 Ry

     iteration #  4     ecut=   150.00 Ry     beta= 0.70
     Davidson diagonalization with overlap
     ethr =  1.78E-04,  avg # of iterations =  2.8

     negative rho (up, down):  1.987E-04 0.000E+00

     total cpu time spent up to now is      287.4 secs

     total energy              =    -979.51083201 Ry
     estimated scf accuracy    <       0.02137187 Ry

     iteration #  5     ecut=   150.00 Ry     beta= 0.70
     Davidson diagonalization with overlap
     ethr =  4.11E-05,  avg # of iterations =  4.0

     negative rho (up, down):  2.061E-04 0.000E+00

     total cpu time spent up to now is      333.4 secs

     total energy              =    -979.51571755 Ry
     estimated scf accuracy    <       0.01152883 Ry

     iteration #  6     ecut=   150.00 Ry     beta= 0.70
     Davidson diagonalization with overlap
     ethr =  2.22E-05,  avg # of iterations =  2.7

     negative rho (up, down):  2.091E-04 0.000E+00

     total cpu time spent up to now is      373.3 secs

     total energy              =    -979.51660040 Ry
     estimated scf accuracy    <       0.00206403 Ry

     iteration #  7     ecut=   150.00 Ry     beta= 0.70
     Davidson diagonalization with overlap
     ethr =  3.97E-06,  avg # of iterations =  4.2

     negative rho (up, down):  2.111E-04 0.000E+00

     total cpu time spent up to now is      418.6 secs

     total energy              =    -979.51688094 Ry
     estimated scf accuracy    <       0.00113359 Ry

     iteration #  8     ecut=   150.00 Ry     beta= 0.70
     Davidson diagonalization with overlap
     ethr =  2.18E-06,  avg # of iterations =  2.3

     negative rho (up, down):  2.128E-04 0.000E+00

     total cpu time spent up to now is      455.9 secs

     total energy              =    -979.51688241 Ry
     estimated scf accuracy    <       0.00036451 Ry

     iteration #  9     ecut=   150.00 Ry     beta= 0.70
     Davidson diagonalization with overlap
     ethr =  7.01E-07,  avg # of iterations =  4.5

     negative rho (up, down):  2.128E-04 0.000E+00

     total cpu time spent up to now is      502.8 secs

     total energy              =    -979.51696496 Ry
     estimated scf accuracy    <       0.00017102 Ry

     iteration # 10     ecut=   150.00 Ry     beta= 0.70
     Davidson diagonalization with overlap
     ethr =  3.29E-07,  avg # of iterations =  1.4

     negative rho (up, down):  2.130E-04 0.000E+00

     total cpu time spent up to now is      536.2 secs

     total energy              =    -979.51693459 Ry
     estimated scf accuracy    <       0.00008649 Ry

     iteration # 11     ecut=   150.00 Ry     beta= 0.70
     Davidson diagonalization with overlap
     ethr =  1.66E-07,  avg # of iterations =  4.5

     negative rho (up, down):  2.130E-04 0.000E+00

     total cpu time spent up to now is      584.7 secs

     total energy              =    -979.51696495 Ry
     estimated scf accuracy    <       0.00004870 Ry

     iteration # 12     ecut=   150.00 Ry     beta= 0.70
     Davidson diagonalization with overlap
     ethr =  9.37E-08,  avg # of iterations =  1.4

     negative rho (up, down):  2.130E-04 0.000E+00

     total cpu time spent up to now is      618.0 secs

     total energy              =    -979.51696540 Ry
     estimated scf accuracy    <       0.00002148 Ry

     iteration # 13     ecut=   150.00 Ry     beta= 0.70
     Davidson diagonalization with overlap
     ethr =  4.13E-08,  avg # of iterations =  1.2

     negative rho (up, down):  2.131E-04 0.000E+00

     total cpu time spent up to now is      650.9 secs

     total energy              =    -979.51696492 Ry
     estimated scf accuracy    <       0.00001473 Ry

     iteration # 14     ecut=   150.00 Ry     beta= 0.70
     Davidson diagonalization with overlap
     ethr =  2.83E-08,  avg # of iterations =  1.8

     negative rho (up, down):  2.131E-04 0.000E+00

     total cpu time spent up to now is      684.9 secs

     total energy              =    -979.51696270 Ry
     estimated scf accuracy    <       0.00000810 Ry

     iteration # 15     ecut=   150.00 Ry     beta= 0.70
     Davidson diagonalization with overlap
     ethr =  1.56E-08,  avg # of iterations =  4.8

     negative rho (up, down):  2.131E-04 0.000E+00

     total cpu time spent up to now is      736.4 secs

     total energy              =    -979.51696656 Ry
     estimated scf accuracy    <       0.00000467 Ry

     iteration # 16     ecut=   150.00 Ry     beta= 0.70
     Davidson diagonalization with overlap
     ethr =  8.99E-09,  avg # of iterations =  1.0

     negative rho (up, down):  2.131E-04 0.000E+00

     total cpu time spent up to now is      768.7 secs

     total energy              =    -979.51696551 Ry
     estimated scf accuracy    <       0.00000472 Ry

     iteration # 17     ecut=   150.00 Ry     beta= 0.70
     Davidson diagonalization with overlap
     ethr =  8.99E-09,  avg # of iterations =  1.9

     negative rho (up, down):  2.131E-04 0.000E+00

     total cpu time spent up to now is      803.9 secs

     total energy              =    -979.51696575 Ry
     estimated scf accuracy    <       0.00000105 Ry

     iteration # 18     ecut=   150.00 Ry     beta= 0.70
     Davidson diagonalization with overlap
     ethr =  2.02E-09,  avg # of iterations =  1.9

     negative rho (up, down):  2.131E-04 0.000E+00

     total cpu time spent up to now is      838.4 secs

     total energy              =    -979.51696566 Ry
     estimated scf accuracy    <       0.00000077 Ry

     iteration # 19     ecut=   150.00 Ry     beta= 0.70
     Davidson diagonalization with overlap
     ethr =  1.48E-09,  avg # of iterations =  3.8

     negative rho (up, down):  2.131E-04 0.000E+00

     total cpu time spent up to now is      881.6 secs

     total energy              =    -979.51696579 Ry
     estimated scf accuracy    <          3.8E-09 Ry

     iteration # 20     ecut=   150.00 Ry     beta= 0.70
     Davidson diagonalization with overlap
     ethr =  7.23E-12,  avg # of iterations = 11.3

     negative rho (up, down):  2.131E-04 0.000E+00

     total cpu time spent up to now is      993.8 secs

     total energy              =    -979.51696580 Ry
     estimated scf accuracy    <       0.00000058 Ry

     iteration # 21     ecut=   150.00 Ry     beta= 0.70
     Davidson diagonalization with overlap
     ethr =  7.23E-12,  avg # of iterations =  7.6

     negative rho (up, down):  2.131E-04 0.000E+00

     total cpu time spent up to now is     1073.8 secs

     total energy              =    -979.51696581 Ry
     estimated scf accuracy    <       0.00000008 Ry

     iteration # 22     ecut=   150.00 Ry     beta= 0.70
     Davidson diagonalization with overlap
     ethr =  7.23E-12,  avg # of iterations =  4.2

     negative rho (up, down):  2.131E-04 0.000E+00

     total cpu time spent up to now is     1122.4 secs

     total energy              =    -979.51696581 Ry
     estimated scf accuracy    <       0.00000003 Ry

     iteration # 23     ecut=   150.00 Ry     beta= 0.70
     Davidson diagonalization with overlap
     ethr =  7.23E-12,  avg # of iterations =  5.9

     negative rho (up, down):  2.131E-04 0.000E+00

     total cpu time spent up to now is     1182.3 secs

     total energy              =    -979.51696581 Ry
     estimated scf accuracy    <          8.2E-10 Ry

     iteration # 24     ecut=   150.00 Ry     beta= 0.70
     Davidson diagonalization with overlap
     ethr =  1.57E-12,  avg # of iterations =  2.4

     negative rho (up, down):  2.131E-04 0.000E+00

     total cpu time spent up to now is     1221.9 secs

     total energy              =    -979.51696581 Ry
     estimated scf accuracy    <          5.9E-11 Ry

     iteration # 25     ecut=   150.00 Ry     beta= 0.70
     Davidson diagonalization with overlap
     ethr =  1.14E-13,  avg # of iterations =  7.1

     negative rho (up, down):  2.131E-04 0.000E+00

     total cpu time spent up to now is     1297.7 secs

     total energy              =    -979.51696581 Ry
     estimated scf accuracy    <          1.5E-09 Ry

     iteration # 26     ecut=   150.00 Ry     beta= 0.70
     Davidson diagonalization with overlap
     ethr =  1.14E-13,  avg # of iterations =  5.9

     negative rho (up, down):  2.131E-04 0.000E+00

     total cpu time spent up to now is     1359.9 secs

     total energy              =    -979.51696581 Ry
     estimated scf accuracy    <          8.6E-11 Ry

     iteration # 27     ecut=   150.00 Ry     beta= 0.70
     Davidson diagonalization with overlap
     ethr =  1.14E-13,  avg # of iterations =  4.7

     negative rho (up, down):  2.131E-04 0.000E+00

     total cpu time spent up to now is     1408.0 secs

     total energy              =    -979.51696581 Ry
     estimated scf accuracy    <          1.2E-11 Ry

     iteration # 28     ecut=   150.00 Ry     beta= 0.70
     Davidson diagonalization with overlap
     ethr =  1.00E-13,  avg # of iterations =  2.8

     negative rho (up, down):  2.131E-04 0.000E+00

     total cpu time spent up to now is     1447.4 secs

     total energy              =    -979.51696581 Ry
     estimated scf accuracy    <          6.9E-11 Ry

     iteration # 29     ecut=   150.00 Ry     beta= 0.70
     Davidson diagonalization with overlap
     ethr =  1.00E-13,  avg # of iterations =  1.4

     negative rho (up, down):  2.131E-04 0.000E+00

     total cpu time spent up to now is     1480.8 secs

     total energy              =    -979.51696581 Ry
     estimated scf accuracy    <          2.6E-11 Ry

     iteration # 30     ecut=   150.00 Ry     beta= 0.70
     Davidson diagonalization with overlap
     ethr =  1.00E-13,  avg # of iterations =  1.2

     negative rho (up, down):  2.131E-04 0.000E+00

     total cpu time spent up to now is     1513.4 secs

     total energy              =    -979.51696581 Ry
     estimated scf accuracy    <          1.0E-11 Ry

     iteration # 31     ecut=   150.00 Ry     beta= 0.70
     Davidson diagonalization with overlap
     ethr =  1.00E-13,  avg # of iterations =  1.1

     negative rho (up, down):  2.131E-04 0.000E+00

     total cpu time spent up to now is     1546.0 secs

     total energy              =    -979.51696581 Ry
     estimated scf accuracy    <          3.8E-12 Ry

     iteration # 32     ecut=   150.00 Ry     beta= 0.70
     Davidson diagonalization with overlap
     ethr =  1.00E-13,  avg # of iterations =  1.1

     negative rho (up, down):  2.131E-04 0.000E+00

     total cpu time spent up to now is     1578.5 secs

     End of self-consistent calculation

     Number of k-points >= 100: set verbosity='high' to print the bands.

     highest occupied level (ev):     2.1964

!    total energy              =    -979.51696581 Ry

     total all-electron energy =    -19376.432656 Ry
     estimated scf accuracy    <          2.5E-13 Ry

     The total energy is the sum of the following terms:
     one-electron contribution =   -2745.56141360 Ry
     hartree contribution      =    1383.43013466 Ry
     xc contribution           =     -59.05858640 Ry
     ewald contribution        =    1067.45176180 Ry
     one-center paw contrib.   =    -625.77886227 Ry

     convergence has been achieved in  32 iterations

     negative rho (up, down):  2.131E-04 0.000E+00

     Forces acting on atoms (cartesian axes, Ry/au):

     atom    1 type  1   force =     0.00001338   -0.00005882   -0.00000226
     atom    2 type  2   force =    -0.00000578    0.00002562    0.00019581
     atom    3 type  2   force =    -0.00000766    0.00003359   -0.00021989
     atom    4 type  1   force =    -0.00001338    0.00005882    0.00000226
     atom    5 type  2   force =     0.00000766   -0.00003359    0.00021989
     atom    6 type  2   force =     0.00000578   -0.00002562   -0.00019581

     Total force =     0.000429     Total SCF correction =     0.000003


     Computing stress (Cartesian axis) and pressure


     negative rho (up, down):  2.131E-04 0.000E+00
          total   stress  (Ry/bohr**3)                   (kbar)     P=        1.27
   0.00001193   0.00000009   0.00000001            1.76        0.01        0.00
   0.00000009   0.00001262  -0.00000004            0.01        1.86       -0.01
   0.00000001  -0.00000004   0.00000125            0.00       -0.01        0.18


     Writing output data file /scratch/as3359/Mos2_ct_lat/MoS2.save/
 
     init_run     :     48.65s CPU     26.49s WALL (       1 calls)
     electrons    :   3056.93s CPU   1551.90s WALL (       1 calls)
     forces       :     12.20s CPU      6.17s WALL (       1 calls)
     stress       :     45.28s CPU     22.96s WALL (       1 calls)

     Called by init_run:
     wfcinit      :     39.31s CPU     20.28s WALL (       1 calls)
     potinit      :      3.07s CPU      1.78s WALL (       1 calls)
     hinit0       :      5.21s CPU      3.81s WALL (       1 calls)

     Called by electrons:
     c_bands      :   2629.22s CPU   1331.52s WALL (      32 calls)
     sum_band     :    398.35s CPU    203.57s WALL (      32 calls)
     v_of_rho     :      6.95s CPU      3.78s WALL (      33 calls)
     newd         :     12.53s CPU      7.70s WALL (      33 calls)
     PAW_pot      :      7.47s CPU      3.87s WALL (      33 calls)
     mix_rho      :      2.74s CPU      1.62s WALL (      32 calls)

     Called by c_bands:
     init_us_2    :     53.40s CPU     26.73s WALL (    7571 calls)
     cegterg      :   2499.01s CPU   1265.87s WALL (    3616 calls)

     Called by *egterg:
     cdiaghg      :     20.68s CPU     10.59s WALL (   17363 calls)
     h_psi        :   2059.53s CPU   1045.44s WALL (   17476 calls)
     s_psi        :     98.56s CPU     49.41s WALL (   17476 calls)
     g_psi        :     14.67s CPU      7.36s WALL (   13747 calls)

     Called by h_psi:
     h_psi:calbec :     80.02s CPU     40.08s WALL (   17476 calls)
     vloc_psi     :   1861.52s CPU    945.98s WALL (   17476 calls)
     add_vuspsi   :    101.62s CPU     51.00s WALL (   17476 calls)

     General routines
     calbec       :    109.08s CPU     54.70s WALL (   21657 calls)
     fft          :      3.29s CPU      1.99s WALL (     388 calls)
     ffts         :      0.21s CPU      0.11s WALL (      32 calls)
     fftw         :   1862.49s CPU    947.69s WALL (  688136 calls)
 
     Parallel routines
 
     PWSCF        :  52m48.91s CPU  26m52.93s WALL

 
   This run was terminated on:  16:46:14  17Apr2022            

=------------------------------------------------------------------------------=
   JOB DONE.
=------------------------------------------------------------------------------=
