
     Program PWSCF v.6.8 starts on 18Apr2022 at 10:18: 9 

     This program is part of the open-source Quantum ESPRESSO suite
     for quantum simulation of materials; please cite
         "P. Giannozzi et al., J. Phys.:Condens. Matter 21 395502 (2009);
         "P. Giannozzi et al., J. Phys.:Condens. Matter 29 465901 (2017);
         "P. Giannozzi et al., J. Chem. Phys. 152 154105 (2020);
          URL http://www.quantum-espresso.org", 
     in publications or presentations arising from this work. More details at
     http://www.quantum-espresso.org/quote

     Parallel version (MPI & OpenMP), running on       4 processor cores
     Number of MPI processes:                 2
     Threads/MPI process:                     2

     MPI processes distributed on     1 nodes
     R & G space division:  proc/nbgrp/npool/nimage =       2
     124981 MiB available memory on the printing compute node when the environment starts
 
     Reading input from MoS2.scf.6.073.in
Warning: card  &CELL ignored
Warning: card     CELL_DYNAMICS='BFGS' ignored
Warning: card  / ignored

     Current dimensions of program PWSCF are:
     Max number of different atomic species (ntypx) = 10
     Max number of k-points (npk) =  40000
     Max angular momentum in pseudopotentials (lmaxx) =  4
     Message from routine iosys:
     restart disabled: needed files not found
     file Mo.pbesol-spn-kjpaw_psl.1.0.0.UPF: wavefunction(s)  4S 4D renormalized
     file S.pbesol-nl-kjpaw_psl.1.0.0.UPF: wavefunction(s)  3S renormalized
     Message from routine setup:
     using ibrav=0 with symmetry is DISCOURAGED, use correct ibrav instead

     Subspace diagonalization in iterative solution of the eigenvalue problem:
     a serial algorithm will be used

 
     Parallelization info
     --------------------
     sticks:   dense  smooth     PW     G-vecs:    dense   smooth      PW
     Min         729     729    215               183711   183711   29062
     Max         730     730    218               183726   183726   29067
     Sum        1459    1459    433               367437   367437   58129
 
     Using Slab Decomposition
 


     bravais-lattice index     =            0
     lattice parameter (alat)  =       6.0730  a.u.
     unit-cell volume          =    1482.0068 (a.u.)^3
     number of atoms/cell      =            6
     number of atomic types    =            2
     number of electrons       =        52.00
     number of Kohn-Sham states=           26
     kinetic-energy cutoff     =     150.0000  Ry
     charge density cutoff     =     600.0000  Ry
     scf convergence threshold =      1.0E-12
     mixing beta               =       0.7000
     number of iterations used =            8  plain     mixing
     Exchange-correlation= SLA  PW   PSX  PSC
                           (   1   4  10   8   0   0   0)

     celldm(1)=   6.073000  celldm(2)=   0.000000  celldm(3)=   0.000000
     celldm(4)=   0.000000  celldm(5)=   0.000000  celldm(6)=   0.000000

     crystal axes: (cart. coord. in units of alat)
               a(1) = (   0.977326  -0.000176   0.000000 )  
               a(2) = (  -0.488540   0.846362   0.000000 )  
               a(3) = (   0.000000   0.000000   8.000000 )  

     reciprocal axes: (cart. coord. in units 2 pi/alat)
               b(1) = (  1.023307  0.590676  0.000000 )  
               b(2) = (  0.000213  1.181651  0.000000 )  
               b(3) = (  0.000000  0.000000  0.125000 )  


     PseudoPot. # 1 for Mo read from file:
     /shared/home/as3359/pseudo/Mo.pbesol-spn-kjpaw_psl.1.0.0.UPF
     MD5 check sum: de57925cfc675213e43241dcc441eda8
     Pseudo is Projector augmented-wave + core cor, Zval = 14.0
     Generated using &quot;atomic&quot; code by A. Dal Corso  v.6.3
     Shape of augmentation charge: PSQ
     Using radial grid of 1229 points,  6 beta functions with: 
                l(1) =   0
                l(2) =   0
                l(3) =   1
                l(4) =   1
                l(5) =   2
                l(6) =   2
     Q(r) pseudized with 0 coefficients 


     PseudoPot. # 2 for S  read from file:
     /shared/home/as3359/pseudo/S.pbesol-nl-kjpaw_psl.1.0.0.UPF
     MD5 check sum: bf3db50ec3f960682bbc396f1aadd1dd
     Pseudo is Projector augmented-wave + core cor, Zval =  6.0
     Generated using &quot;atomic&quot; code by A. Dal Corso  v.6.3
     Shape of augmentation charge: PSQ
     Using radial grid of 1151 points,  4 beta functions with: 
                l(1) =   0
                l(2) =   0
                l(3) =   1
                l(4) =   1
     Q(r) pseudized with 0 coefficients 


     atomic species   valence    mass     pseudopotential
        Mo            14.00    95.94000     Mo( 1.00)
        S              6.00    32.06500     S ( 1.00)

      2 Sym. Ops., with inversion, found ( 1 have fractional translation)



   Cartesian axes

     site n.     atom                  positions (alat units)
         1           Mo  tau(   1) = (   0.0000000   0.0000000   0.9844997  )
         2           S   tau(   2) = (   0.4887119   0.2819702   1.4701535  )
         3           S   tau(   3) = (   0.4887135   0.2819635   0.4988906  )
         4           Mo  tau(   4) = (   0.0000000   0.0000000   3.0155003  )
         5           S   tau(   5) = (  -0.4887135  -0.2819635   3.5011094  )
         6           S   tau(   6) = (  -0.4887119  -0.2819702   2.5298465  )

     number of k points=   113

     Number of k-points >= 100: set verbosity='high' to print them.

     Dense  grid:   367437 G-vectors     FFT dimensions: (  48,  48, 384)

     Estimated max dynamical RAM per process >       1.70 GB

     Estimated total dynamical RAM >       3.40 GB
     Cannot read rho : file not found

     Initial potential from superposition of free atoms

     starting charge   51.99828, renormalised to   52.00000

     negative rho (up, down):  1.606E-04 0.000E+00
     Message from routine qexsd_readschema :
     xml data file /scratch/as3359/Mos2_ct_lat/MoS2.save/data-file-schema.xml not fou
     Cannot read wfcs: file not found
     Starting wfcs are   36 randomized atomic wfcs
     Checking if some PAW data can be deallocated... 

     total cpu time spent up to now is       27.5 secs

     Self-consistent Calculation

     iteration #  1     ecut=   150.00 Ry     beta= 0.70
     Davidson diagonalization with overlap
     ethr =  1.00E-05,  avg # of iterations = 10.4

     negative rho (up, down):  2.066E-04 0.000E+00

     total cpu time spent up to now is      157.4 secs

     total energy              =    -979.38527586 Ry
     estimated scf accuracy    <       0.29227750 Ry

     iteration #  2     ecut=   150.00 Ry     beta= 0.70
     Davidson diagonalization with overlap
     ethr =  5.62E-04,  avg # of iterations =  5.0

     negative rho (up, down):  1.961E-04 0.000E+00

     total cpu time spent up to now is      221.7 secs

     total energy              =    -979.31006760 Ry
     estimated scf accuracy    <       1.03965730 Ry

     iteration #  3     ecut=   150.00 Ry     beta= 0.70
     Davidson diagonalization with overlap
     ethr =  5.62E-04,  avg # of iterations =  5.2

     negative rho (up, down):  1.976E-04 0.000E+00

     total cpu time spent up to now is      284.6 secs

     total energy              =    -979.50281162 Ry
     estimated scf accuracy    <       0.09426293 Ry

     iteration #  4     ecut=   150.00 Ry     beta= 0.70
     Davidson diagonalization with overlap
     ethr =  1.81E-04,  avg # of iterations =  2.8

     negative rho (up, down):  1.990E-04 0.000E+00

     total cpu time spent up to now is      331.9 secs

     total energy              =    -979.51086516 Ry
     estimated scf accuracy    <       0.02102930 Ry

     iteration #  5     ecut=   150.00 Ry     beta= 0.70
     Davidson diagonalization with overlap
     ethr =  4.04E-05,  avg # of iterations =  4.0

     negative rho (up, down):  2.064E-04 0.000E+00

     total cpu time spent up to now is      386.9 secs

     total energy              =    -979.51572042 Ry
     estimated scf accuracy    <       0.01193635 Ry

     iteration #  6     ecut=   150.00 Ry     beta= 0.70
     Davidson diagonalization with overlap
     ethr =  2.30E-05,  avg # of iterations =  2.6

     negative rho (up, down):  2.092E-04 0.000E+00

     total cpu time spent up to now is      433.0 secs

     total energy              =    -979.51659980 Ry
     estimated scf accuracy    <       0.00216173 Ry

     iteration #  7     ecut=   150.00 Ry     beta= 0.70
     Davidson diagonalization with overlap
     ethr =  4.16E-06,  avg # of iterations =  4.3

     negative rho (up, down):  2.112E-04 0.000E+00

     total cpu time spent up to now is      486.5 secs

     total energy              =    -979.51689147 Ry
     estimated scf accuracy    <       0.00130986 Ry

     iteration #  8     ecut=   150.00 Ry     beta= 0.70
     Davidson diagonalization with overlap
     ethr =  2.52E-06,  avg # of iterations =  2.1

     negative rho (up, down):  2.129E-04 0.000E+00

     total cpu time spent up to now is      528.6 secs

     total energy              =    -979.51687876 Ry
     estimated scf accuracy    <       0.00043788 Ry

     iteration #  9     ecut=   150.00 Ry     beta= 0.70
     Davidson diagonalization with overlap
     ethr =  8.42E-07,  avg # of iterations =  4.5

     negative rho (up, down):  2.131E-04 0.000E+00

     total cpu time spent up to now is      583.6 secs

     total energy              =    -979.51697949 Ry
     estimated scf accuracy    <       0.00017639 Ry

     iteration # 10     ecut=   150.00 Ry     beta= 0.70
     Davidson diagonalization with overlap
     ethr =  3.39E-07,  avg # of iterations =  1.4

     negative rho (up, down):  2.133E-04 0.000E+00

     total cpu time spent up to now is      621.1 secs

     total energy              =    -979.51694426 Ry
     estimated scf accuracy    <       0.00009976 Ry

     iteration # 11     ecut=   150.00 Ry     beta= 0.70
     Davidson diagonalization with overlap
     ethr =  1.92E-07,  avg # of iterations =  4.4

     negative rho (up, down):  2.133E-04 0.000E+00

     total cpu time spent up to now is      676.2 secs

     total energy              =    -979.51697548 Ry
     estimated scf accuracy    <       0.00003685 Ry

     iteration # 12     ecut=   150.00 Ry     beta= 0.70
     Davidson diagonalization with overlap
     ethr =  7.09E-08,  avg # of iterations =  1.9

     negative rho (up, down):  2.133E-04 0.000E+00

     total cpu time spent up to now is      715.3 secs

     total energy              =    -979.51697723 Ry
     estimated scf accuracy    <       0.00001201 Ry

     iteration # 13     ecut=   150.00 Ry     beta= 0.70
     Davidson diagonalization with overlap
     ethr =  2.31E-08,  avg # of iterations =  1.6

     negative rho (up, down):  2.133E-04 0.000E+00

     total cpu time spent up to now is      753.7 secs

     total energy              =    -979.51697630 Ry
     estimated scf accuracy    <       0.00000917 Ry

     iteration # 14     ecut=   150.00 Ry     beta= 0.70
     Davidson diagonalization with overlap
     ethr =  1.76E-08,  avg # of iterations =  3.4

     negative rho (up, down):  2.134E-04 0.000E+00

     total cpu time spent up to now is      798.7 secs

     total energy              =    -979.51697654 Ry
     estimated scf accuracy    <       0.00000121 Ry

     iteration # 15     ecut=   150.00 Ry     beta= 0.70
     Davidson diagonalization with overlap
     ethr =  2.33E-09,  avg # of iterations =  6.2

     negative rho (up, down):  2.134E-04 0.000E+00

     total cpu time spent up to now is      874.6 secs

     total energy              =    -979.51697783 Ry
     estimated scf accuracy    <       0.00000704 Ry

     iteration # 16     ecut=   150.00 Ry     beta= 0.70
     Davidson diagonalization with overlap
     ethr =  2.33E-09,  avg # of iterations =  2.0

     negative rho (up, down):  2.134E-04 0.000E+00

     total cpu time spent up to now is      914.7 secs

     total energy              =    -979.51697737 Ry
     estimated scf accuracy    <       0.00000430 Ry

     iteration # 17     ecut=   150.00 Ry     beta= 0.70
     Davidson diagonalization with overlap
     ethr =  2.33E-09,  avg # of iterations =  3.1

     negative rho (up, down):  2.134E-04 0.000E+00

     total cpu time spent up to now is      963.0 secs

     total energy              =    -979.51697731 Ry
     estimated scf accuracy    <       0.00000124 Ry

     iteration # 18     ecut=   150.00 Ry     beta= 0.70
     Davidson diagonalization with overlap
     ethr =  2.33E-09,  avg # of iterations =  3.0

     negative rho (up, down):  2.134E-04 0.000E+00

     total cpu time spent up to now is     1009.7 secs

     total energy              =    -979.51697749 Ry
     estimated scf accuracy    <       0.00000005 Ry

     iteration # 19     ecut=   150.00 Ry     beta= 0.70
     Davidson diagonalization with overlap
     ethr =  9.81E-11,  avg # of iterations =  4.9

     negative rho (up, down):  2.134E-04 0.000E+00

     total cpu time spent up to now is     1069.6 secs

     total energy              =    -979.51697751 Ry
     estimated scf accuracy    <          1.5E-09 Ry

     iteration # 20     ecut=   150.00 Ry     beta= 0.70
     Davidson diagonalization with overlap
     ethr =  2.95E-12,  avg # of iterations =  6.8

     negative rho (up, down):  2.134E-04 0.000E+00

     total cpu time spent up to now is     1152.8 secs

     total energy              =    -979.51697751 Ry
     estimated scf accuracy    <       0.00000005 Ry

     iteration # 21     ecut=   150.00 Ry     beta= 0.70
     Davidson diagonalization with overlap
     ethr =  2.95E-12,  avg # of iterations =  5.7

     negative rho (up, down):  2.134E-04 0.000E+00

     total cpu time spent up to now is     1225.9 secs

     total energy              =    -979.51697751 Ry
     estimated scf accuracy    <          5.1E-09 Ry

     iteration # 22     ecut=   150.00 Ry     beta= 0.70
     Davidson diagonalization with overlap
     ethr =  2.95E-12,  avg # of iterations =  5.7

     negative rho (up, down):  2.134E-04 0.000E+00

     total cpu time spent up to now is     1285.5 secs

     total energy              =    -979.51697751 Ry
     estimated scf accuracy    <          2.6E-10 Ry

     iteration # 23     ecut=   150.00 Ry     beta= 0.70
     Davidson diagonalization with overlap
     ethr =  5.02E-13,  avg # of iterations =  6.0

     negative rho (up, down):  2.134E-04 0.000E+00

     total cpu time spent up to now is     1360.6 secs

     total energy              =    -979.51697751 Ry
     estimated scf accuracy    <          4.1E-09 Ry

     iteration # 24     ecut=   150.00 Ry     beta= 0.70
     Davidson diagonalization with overlap
     ethr =  5.02E-13,  avg # of iterations =  5.7

     negative rho (up, down):  2.134E-04 0.000E+00

     total cpu time spent up to now is     1432.4 secs

     total energy              =    -979.51697751 Ry
     estimated scf accuracy    <          3.2E-11 Ry

     iteration # 25     ecut=   150.00 Ry     beta= 0.70
     Davidson diagonalization with overlap
     ethr =  1.00E-13,  avg # of iterations =  4.5

     negative rho (up, down):  2.134E-04 0.000E+00

     total cpu time spent up to now is     1484.3 secs

     total energy              =    -979.51697751 Ry
     estimated scf accuracy    <          2.4E-12 Ry

     iteration # 26     ecut=   150.00 Ry     beta= 0.70
     Davidson diagonalization with overlap
     ethr =  1.00E-13,  avg # of iterations =  1.2

     negative rho (up, down):  2.134E-04 0.000E+00

     total cpu time spent up to now is     1520.4 secs

     total energy              =    -979.51697751 Ry
     estimated scf accuracy    <          9.3E-12 Ry

     iteration # 27     ecut=   150.00 Ry     beta= 0.70
     Davidson diagonalization with overlap
     ethr =  1.00E-13,  avg # of iterations =  1.0

     negative rho (up, down):  2.134E-04 0.000E+00

     total cpu time spent up to now is     1556.2 secs

     total energy              =    -979.51697751 Ry
     estimated scf accuracy    <          4.5E-12 Ry

     iteration # 28     ecut=   150.00 Ry     beta= 0.70
     Davidson diagonalization with overlap
     ethr =  1.00E-13,  avg # of iterations =  1.0

     negative rho (up, down):  2.134E-04 0.000E+00

     total cpu time spent up to now is     1592.1 secs

     total energy              =    -979.51697751 Ry
     estimated scf accuracy    <          3.0E-12 Ry

     iteration # 29     ecut=   150.00 Ry     beta= 0.70
     Davidson diagonalization with overlap
     ethr =  1.00E-13,  avg # of iterations =  1.0

     negative rho (up, down):  2.134E-04 0.000E+00

     total cpu time spent up to now is     1628.9 secs

     total energy              =    -979.51697751 Ry
     estimated scf accuracy    <          2.2E-12 Ry

     iteration # 30     ecut=   150.00 Ry     beta= 0.70
     Davidson diagonalization with overlap
     ethr =  1.00E-13,  avg # of iterations =  1.0

     negative rho (up, down):  2.134E-04 0.000E+00

     total cpu time spent up to now is     1665.0 secs

     End of self-consistent calculation

     Number of k-points >= 100: set verbosity='high' to print the bands.

     highest occupied level (ev):     2.1842

!    total energy              =    -979.51697751 Ry

     total all-electron energy =    -19376.432668 Ry
     estimated scf accuracy    <          1.7E-13 Ry

     The total energy is the sum of the following terms:
     one-electron contribution =   -2744.47743089 Ry
     hartree contribution      =    1382.86522531 Ry
     xc contribution           =     -59.05102061 Ry
     ewald contribution        =    1066.92445152 Ry
     one-center paw contrib.   =    -625.77820284 Ry

     convergence has been achieved in  30 iterations

     negative rho (up, down):  2.134E-04 0.000E+00

     Forces acting on atoms (cartesian axes, Ry/au):

     atom    1 type  1   force =     0.00001344   -0.00005890   -0.00000061
     atom    2 type  2   force =    -0.00000578    0.00002565   -0.00078465
     atom    3 type  2   force =    -0.00000768    0.00003359    0.00077475
     atom    4 type  1   force =    -0.00001344    0.00005890    0.00000061
     atom    5 type  2   force =     0.00000768   -0.00003359   -0.00077475
     atom    6 type  2   force =     0.00000578   -0.00002565    0.00078465

     Total force =     0.001563     Total SCF correction =     0.000001


     Computing stress (Cartesian axis) and pressure


     negative rho (up, down):  2.134E-04 0.000E+00
          total   stress  (Ry/bohr**3)                   (kbar)     P=        0.15
   0.00000455   0.00000009   0.00000001            0.67        0.01        0.00
   0.00000009   0.00000524  -0.00000004            0.01        0.77       -0.01
   0.00000001  -0.00000004  -0.00000673            0.00       -0.01       -0.99


     Writing output data file /scratch/as3359/Mos2_ct_lat/MoS2.save/
 
     init_run     :     50.94s CPU     27.35s WALL (       1 calls)
     electrons    :   3225.41s CPU   1637.60s WALL (       1 calls)
     forces       :     13.43s CPU      6.80s WALL (       1 calls)
     stress       :     54.16s CPU     27.46s WALL (       1 calls)

     Called by init_run:
     wfcinit      :     43.12s CPU     22.39s WALL (       1 calls)
     potinit      :      2.30s CPU      1.17s WALL (       1 calls)
     hinit0       :      4.39s CPU      3.11s WALL (       1 calls)

     Called by electrons:
     c_bands      :   2770.48s CPU   1402.18s WALL (      30 calls)
     sum_band     :    421.93s CPU    215.91s WALL (      30 calls)
     v_of_rho     :      8.01s CPU      4.35s WALL (      31 calls)
     newd         :     14.82s CPU      9.60s WALL (      31 calls)
     PAW_pot      :      6.93s CPU      3.56s WALL (      31 calls)
     mix_rho      :      3.60s CPU      2.14s WALL (      30 calls)

     Called by c_bands:
     init_us_2    :     61.44s CPU     30.76s WALL (    7119 calls)
     cegterg      :   2637.55s CPU   1335.02s WALL (    3390 calls)

     Called by *egterg:
     cdiaghg      :     19.92s CPU     10.21s WALL (   16067 calls)
     h_psi        :   2120.93s CPU   1076.20s WALL (   16180 calls)
     s_psi        :    112.49s CPU     56.31s WALL (   16180 calls)
     g_psi        :     15.09s CPU      7.58s WALL (   12677 calls)

     Called by h_psi:
     h_psi:calbec :     82.97s CPU     41.58s WALL (   16180 calls)
     vloc_psi     :   1900.10s CPU    965.34s WALL (   16180 calls)
     add_vuspsi   :    122.15s CPU     61.16s WALL (   16180 calls)

     General routines
     calbec       :    109.03s CPU     54.65s WALL (   20135 calls)
     fft          :      3.38s CPU      1.72s WALL (     366 calls)
     ffts         :      0.26s CPU      0.13s WALL (      30 calls)
     fftw         :   1858.96s CPU    945.90s WALL (  632546 calls)
 
     Parallel routines
 
     PWSCF        :  55m50.40s CPU  28m24.94s WALL

 
   This run was terminated on:  10:46:34  18Apr2022            

=------------------------------------------------------------------------------=
   JOB DONE.
=------------------------------------------------------------------------------=
