
     Program PWSCF v.6.8 starts on 17Apr2022 at 17:11:53 

     This program is part of the open-source Quantum ESPRESSO suite
     for quantum simulation of materials; please cite
         "P. Giannozzi et al., J. Phys.:Condens. Matter 21 395502 (2009);
         "P. Giannozzi et al., J. Phys.:Condens. Matter 29 465901 (2017);
         "P. Giannozzi et al., J. Chem. Phys. 152 154105 (2020);
          URL http://www.quantum-espresso.org", 
     in publications or presentations arising from this work. More details at
     http://www.quantum-espresso.org/quote

     Parallel version (MPI & OpenMP), running on       4 processor cores
     Number of MPI processes:                 2
     Threads/MPI process:                     2

     MPI processes distributed on     1 nodes
     R & G space division:  proc/nbgrp/npool/nimage =       2
     124987 MiB available memory on the printing compute node when the environment starts
 
     Reading input from MoS2.scf.6.090.in
Warning: card  &CELL ignored
Warning: card     CELL_DYNAMICS='BFGS' ignored
Warning: card  / ignored

     Current dimensions of program PWSCF are:
     Max number of different atomic species (ntypx) = 10
     Max number of k-points (npk) =  40000
     Max angular momentum in pseudopotentials (lmaxx) =  4
     Message from routine iosys:
     restart disabled: needed files not found
     file Mo.pbesol-spn-kjpaw_psl.1.0.0.UPF: wavefunction(s)  4S 4D renormalized
     file S.pbesol-nl-kjpaw_psl.1.0.0.UPF: wavefunction(s)  3S renormalized
     Message from routine setup:
     using ibrav=0 with symmetry is DISCOURAGED, use correct ibrav instead

     Subspace diagonalization in iterative solution of the eigenvalue problem:
     a serial algorithm will be used

 
     Parallelization info
     --------------------
     sticks:   dense  smooth     PW     G-vecs:    dense   smooth      PW
     Min         741     741    216               185525   185525   29295
     Max         742     742    217               185528   185528   29306
     Sum        1483    1483    433               371053   371053   58601
 
     Using Slab Decomposition
 


     bravais-lattice index     =            0
     lattice parameter (alat)  =       6.0900  a.u.
     unit-cell volume          =    1494.4873 (a.u.)^3
     number of atoms/cell      =            6
     number of atomic types    =            2
     number of electrons       =        52.00
     number of Kohn-Sham states=           26
     kinetic-energy cutoff     =     150.0000  Ry
     charge density cutoff     =     600.0000  Ry
     scf convergence threshold =      1.0E-12
     mixing beta               =       0.7000
     number of iterations used =            8  plain     mixing
     Exchange-correlation= SLA  PW   PSX  PSC
                           (   1   4  10   8   0   0   0)

     celldm(1)=   6.090000  celldm(2)=   0.000000  celldm(3)=   0.000000
     celldm(4)=   0.000000  celldm(5)=   0.000000  celldm(6)=   0.000000

     crystal axes: (cart. coord. in units of alat)
               a(1) = (   0.977326  -0.000176   0.000000 )  
               a(2) = (  -0.488540   0.846362   0.000000 )  
               a(3) = (   0.000000   0.000000   8.000000 )  

     reciprocal axes: (cart. coord. in units 2 pi/alat)
               b(1) = (  1.023307  0.590676  0.000000 )  
               b(2) = (  0.000213  1.181651  0.000000 )  
               b(3) = (  0.000000  0.000000  0.125000 )  


     PseudoPot. # 1 for Mo read from file:
     /shared/home/as3359/pseudo/Mo.pbesol-spn-kjpaw_psl.1.0.0.UPF
     MD5 check sum: de57925cfc675213e43241dcc441eda8
     Pseudo is Projector augmented-wave + core cor, Zval = 14.0
     Generated using &quot;atomic&quot; code by A. Dal Corso  v.6.3
     Shape of augmentation charge: PSQ
     Using radial grid of 1229 points,  6 beta functions with: 
                l(1) =   0
                l(2) =   0
                l(3) =   1
                l(4) =   1
                l(5) =   2
                l(6) =   2
     Q(r) pseudized with 0 coefficients 


     PseudoPot. # 2 for S  read from file:
     /shared/home/as3359/pseudo/S.pbesol-nl-kjpaw_psl.1.0.0.UPF
     MD5 check sum: bf3db50ec3f960682bbc396f1aadd1dd
     Pseudo is Projector augmented-wave + core cor, Zval =  6.0
     Generated using &quot;atomic&quot; code by A. Dal Corso  v.6.3
     Shape of augmentation charge: PSQ
     Using radial grid of 1151 points,  4 beta functions with: 
                l(1) =   0
                l(2) =   0
                l(3) =   1
                l(4) =   1
     Q(r) pseudized with 0 coefficients 


     atomic species   valence    mass     pseudopotential
        Mo            14.00    95.94000     Mo( 1.00)
        S              6.00    32.06500     S ( 1.00)

      2 Sym. Ops., with inversion, found ( 1 have fractional translation)



   Cartesian axes

     site n.     atom                  positions (alat units)
         1           Mo  tau(   1) = (   0.0000000   0.0000000   0.9844997  )
         2           S   tau(   2) = (   0.4887119   0.2819702   1.4701535  )
         3           S   tau(   3) = (   0.4887135   0.2819635   0.4988906  )
         4           Mo  tau(   4) = (   0.0000000   0.0000000   3.0155003  )
         5           S   tau(   5) = (  -0.4887135  -0.2819635   3.5011094  )
         6           S   tau(   6) = (  -0.4887119  -0.2819702   2.5298465  )

     number of k points=   113

     Number of k-points >= 100: set verbosity='high' to print them.

     Dense  grid:   371053 G-vectors     FFT dimensions: (  48,  48, 384)

     Estimated max dynamical RAM per process >       1.72 GB

     Estimated total dynamical RAM >       3.43 GB
     Cannot read rho : file not found

     Initial potential from superposition of free atoms

     starting charge   51.99828, renormalised to   52.00000

     negative rho (up, down):  1.503E-04 0.000E+00
     Message from routine qexsd_readschema :
     xml data file /scratch/as3359/Mos2_ct_lat/MoS2.save/data-file-schema.xml not fou
     Cannot read wfcs: file not found
     Starting wfcs are   36 randomized atomic wfcs
     Checking if some PAW data can be deallocated... 

     total cpu time spent up to now is       27.3 secs

     Self-consistent Calculation

     iteration #  1     ecut=   150.00 Ry     beta= 0.70
     Davidson diagonalization with overlap
     ethr =  1.00E-05,  avg # of iterations = 10.4

     negative rho (up, down):  1.939E-04 0.000E+00

     total cpu time spent up to now is      136.7 secs

     total energy              =    -979.39056507 Ry
     estimated scf accuracy    <       0.28343839 Ry

     iteration #  2     ecut=   150.00 Ry     beta= 0.70
     Davidson diagonalization with overlap
     ethr =  5.45E-04,  avg # of iterations =  4.9

     negative rho (up, down):  1.845E-04 0.000E+00

     total cpu time spent up to now is      191.0 secs

     total energy              =    -979.32211175 Ry
     estimated scf accuracy    <       0.96250233 Ry

     iteration #  3     ecut=   150.00 Ry     beta= 0.70
     Davidson diagonalization with overlap
     ethr =  5.45E-04,  avg # of iterations =  5.2

     negative rho (up, down):  1.858E-04 0.000E+00

     total cpu time spent up to now is      244.4 secs

     total energy              =    -979.50212269 Ry
     estimated scf accuracy    <       0.09918210 Ry

     iteration #  4     ecut=   150.00 Ry     beta= 0.70
     Davidson diagonalization with overlap
     ethr =  1.91E-04,  avg # of iterations =  2.8

     negative rho (up, down):  1.871E-04 0.000E+00

     total cpu time spent up to now is      284.8 secs

     total energy              =    -979.51059785 Ry
     estimated scf accuracy    <       0.01950401 Ry

     iteration #  5     ecut=   150.00 Ry     beta= 0.70
     Davidson diagonalization with overlap
     ethr =  3.75E-05,  avg # of iterations =  4.2

     negative rho (up, down):  1.938E-04 0.000E+00

     total cpu time spent up to now is      331.8 secs

     total energy              =    -979.51532859 Ry
     estimated scf accuracy    <       0.01424731 Ry

     iteration #  6     ecut=   150.00 Ry     beta= 0.70
     Davidson diagonalization with overlap
     ethr =  2.74E-05,  avg # of iterations =  2.6

     negative rho (up, down):  1.962E-04 0.000E+00

     total cpu time spent up to now is      370.9 secs

     total energy              =    -979.51632188 Ry
     estimated scf accuracy    <       0.00274215 Ry

     iteration #  7     ecut=   150.00 Ry     beta= 0.70
     Davidson diagonalization with overlap
     ethr =  5.27E-06,  avg # of iterations =  4.1

     negative rho (up, down):  1.982E-04 0.000E+00

     total cpu time spent up to now is      415.1 secs

     total energy              =    -979.51662860 Ry
     estimated scf accuracy    <       0.00139058 Ry

     iteration #  8     ecut=   150.00 Ry     beta= 0.70
     Davidson diagonalization with overlap
     ethr =  2.67E-06,  avg # of iterations =  2.4

     negative rho (up, down):  2.002E-04 0.000E+00

     total cpu time spent up to now is      452.7 secs

     total energy              =    -979.51662901 Ry
     estimated scf accuracy    <       0.00048066 Ry

     iteration #  9     ecut=   150.00 Ry     beta= 0.70
     Davidson diagonalization with overlap
     ethr =  9.24E-07,  avg # of iterations =  4.4

     negative rho (up, down):  2.003E-04 0.000E+00

     total cpu time spent up to now is      498.6 secs

     total energy              =    -979.51673176 Ry
     estimated scf accuracy    <       0.00019710 Ry

     iteration # 10     ecut=   150.00 Ry     beta= 0.70
     Davidson diagonalization with overlap
     ethr =  3.79E-07,  avg # of iterations =  1.5

     negative rho (up, down):  2.004E-04 0.000E+00

     total cpu time spent up to now is      532.2 secs

     total energy              =    -979.51669750 Ry
     estimated scf accuracy    <       0.00009676 Ry

     iteration # 11     ecut=   150.00 Ry     beta= 0.70
     Davidson diagonalization with overlap
     ethr =  1.86E-07,  avg # of iterations =  4.6

     negative rho (up, down):  2.005E-04 0.000E+00

     total cpu time spent up to now is      580.7 secs

     total energy              =    -979.51673272 Ry
     estimated scf accuracy    <       0.00005410 Ry

     iteration # 12     ecut=   150.00 Ry     beta= 0.70
     Davidson diagonalization with overlap
     ethr =  1.04E-07,  avg # of iterations =  1.5

     negative rho (up, down):  2.005E-04 0.000E+00

     total cpu time spent up to now is      614.2 secs

     total energy              =    -979.51673218 Ry
     estimated scf accuracy    <       0.00002335 Ry

     iteration # 13     ecut=   150.00 Ry     beta= 0.70
     Davidson diagonalization with overlap
     ethr =  4.49E-08,  avg # of iterations =  2.3

     negative rho (up, down):  2.006E-04 0.000E+00

     total cpu time spent up to now is      649.1 secs

     total energy              =    -979.51673193 Ry
     estimated scf accuracy    <       0.00000937 Ry

     iteration # 14     ecut=   150.00 Ry     beta= 0.70
     Davidson diagonalization with overlap
     ethr =  1.80E-08,  avg # of iterations =  4.1

     negative rho (up, down):  2.006E-04 0.000E+00

     total cpu time spent up to now is      692.2 secs

     total energy              =    -979.51673348 Ry
     estimated scf accuracy    <       0.00000014 Ry

     iteration # 15     ecut=   150.00 Ry     beta= 0.70
     Davidson diagonalization with overlap
     ethr =  2.77E-10,  avg # of iterations =  9.1

     negative rho (up, down):  2.006E-04 0.000E+00

     total cpu time spent up to now is      784.9 secs

     total energy              =    -979.51673410 Ry
     estimated scf accuracy    <       0.00000526 Ry

     iteration # 16     ecut=   150.00 Ry     beta= 0.70
     Davidson diagonalization with overlap
     ethr =  2.77E-10,  avg # of iterations =  4.1

     negative rho (up, down):  2.006E-04 0.000E+00

     total cpu time spent up to now is      832.2 secs

     total energy              =    -979.51673316 Ry
     estimated scf accuracy    <       0.00000272 Ry

     iteration # 17     ecut=   150.00 Ry     beta= 0.70
     Davidson diagonalization with overlap
     ethr =  2.77E-10,  avg # of iterations =  7.8

     negative rho (up, down):  2.006E-04 0.000E+00

     total cpu time spent up to now is      911.6 secs

     total energy              =    -979.51673397 Ry
     estimated scf accuracy    <       0.00000127 Ry

     iteration # 18     ecut=   150.00 Ry     beta= 0.70
     Davidson diagonalization with overlap
     ethr =  2.77E-10,  avg # of iterations =  1.1

     negative rho (up, down):  2.006E-04 0.000E+00

     total cpu time spent up to now is      944.1 secs

     total energy              =    -979.51673377 Ry
     estimated scf accuracy    <       0.00000097 Ry

     iteration # 19     ecut=   150.00 Ry     beta= 0.70
     Davidson diagonalization with overlap
     ethr =  2.77E-10,  avg # of iterations =  4.6

     negative rho (up, down):  2.006E-04 0.000E+00

     total cpu time spent up to now is      992.6 secs

     total energy              =    -979.51673386 Ry
     estimated scf accuracy    <       0.00000004 Ry

     iteration # 20     ecut=   150.00 Ry     beta= 0.70
     Davidson diagonalization with overlap
     ethr =  7.71E-11,  avg # of iterations =  2.5

     negative rho (up, down):  2.006E-04 0.000E+00

     total cpu time spent up to now is     1027.9 secs

     total energy              =    -979.51673386 Ry
     estimated scf accuracy    <       0.00000003 Ry

     iteration # 21     ecut=   150.00 Ry     beta= 0.70
     Davidson diagonalization with overlap
     ethr =  5.04E-11,  avg # of iterations =  4.7

     negative rho (up, down):  2.006E-04 0.000E+00

     total cpu time spent up to now is     1075.2 secs

     total energy              =    -979.51673386 Ry
     estimated scf accuracy    <          1.2E-09 Ry

     iteration # 22     ecut=   150.00 Ry     beta= 0.70
     Davidson diagonalization with overlap
     ethr =  2.27E-12,  avg # of iterations =  5.3

     negative rho (up, down):  2.006E-04 0.000E+00

     total cpu time spent up to now is     1126.4 secs

     total energy              =    -979.51673386 Ry
     estimated scf accuracy    <          4.2E-09 Ry

     iteration # 23     ecut=   150.00 Ry     beta= 0.70
     Davidson diagonalization with overlap
     ethr =  2.27E-12,  avg # of iterations =  1.6

     negative rho (up, down):  2.006E-04 0.000E+00

     total cpu time spent up to now is     1160.2 secs

     total energy              =    -979.51673386 Ry
     estimated scf accuracy    <          2.5E-09 Ry

     iteration # 24     ecut=   150.00 Ry     beta= 0.70
     Davidson diagonalization with overlap
     ethr =  2.27E-12,  avg # of iterations =  3.2

     negative rho (up, down):  2.006E-04 0.000E+00

     total cpu time spent up to now is     1201.4 secs

     total energy              =    -979.51673386 Ry
     estimated scf accuracy    <          4.2E-10 Ry

     iteration # 25     ecut=   150.00 Ry     beta= 0.70
     Davidson diagonalization with overlap
     ethr =  8.10E-13,  avg # of iterations =  4.8

     negative rho (up, down):  2.006E-04 0.000E+00

     total cpu time spent up to now is     1250.3 secs

     total energy              =    -979.51673386 Ry
     estimated scf accuracy    <          1.3E-10 Ry

     iteration # 26     ecut=   150.00 Ry     beta= 0.70
     Davidson diagonalization with overlap
     ethr =  2.50E-13,  avg # of iterations =  2.0

     negative rho (up, down):  2.006E-04 0.000E+00

     total cpu time spent up to now is     1285.2 secs

     total energy              =    -979.51673386 Ry
     estimated scf accuracy    <          1.8E-10 Ry

     iteration # 27     ecut=   150.00 Ry     beta= 0.70
     Davidson diagonalization with overlap
     ethr =  2.50E-13,  avg # of iterations =  1.0

     negative rho (up, down):  2.006E-04 0.000E+00

     total cpu time spent up to now is     1317.5 secs

     total energy              =    -979.51673386 Ry
     estimated scf accuracy    <          1.2E-10 Ry

     iteration # 28     ecut=   150.00 Ry     beta= 0.70
     Davidson diagonalization with overlap
     ethr =  2.35E-13,  avg # of iterations =  1.5

     negative rho (up, down):  2.006E-04 0.000E+00

     total cpu time spent up to now is     1350.8 secs

     total energy              =    -979.51673386 Ry
     estimated scf accuracy    <          4.9E-11 Ry

     iteration # 29     ecut=   150.00 Ry     beta= 0.70
     Davidson diagonalization with overlap
     ethr =  1.00E-13,  avg # of iterations =  2.4

     negative rho (up, down):  2.006E-04 0.000E+00

     total cpu time spent up to now is     1386.2 secs

     total energy              =    -979.51673386 Ry
     estimated scf accuracy    <          2.2E-11 Ry

     iteration # 30     ecut=   150.00 Ry     beta= 0.70
     Davidson diagonalization with overlap
     ethr =  1.00E-13,  avg # of iterations =  1.8

     negative rho (up, down):  2.006E-04 0.000E+00

     total cpu time spent up to now is     1420.4 secs

     total energy              =    -979.51673386 Ry
     estimated scf accuracy    <          5.7E-12 Ry

     iteration # 31     ecut=   150.00 Ry     beta= 0.70
     Davidson diagonalization with overlap
     ethr =  1.00E-13,  avg # of iterations =  2.6

     negative rho (up, down):  2.006E-04 0.000E+00

     total cpu time spent up to now is     1456.4 secs

     End of self-consistent calculation

     Number of k-points >= 100: set verbosity='high' to print the bands.

     highest occupied level (ev):     2.1157

!    total energy              =    -979.51673386 Ry

     total all-electron energy =    -19376.432424 Ry
     estimated scf accuracy    <          5.3E-13 Ry

     The total energy is the sum of the following terms:
     one-electron contribution =   -2738.35472272 Ry
     hartree contribution      =    1379.67479354 Ry
     xc contribution           =     -59.00846442 Ry
     ewald contribution        =    1063.94617309 Ry
     one-center paw contrib.   =    -625.77451335 Ry

     convergence has been achieved in  31 iterations

     negative rho (up, down):  2.006E-04 0.000E+00

     Forces acting on atoms (cartesian axes, Ry/au):

     atom    1 type  1   force =     0.00001337   -0.00005873   -0.00000403
     atom    2 type  2   force =    -0.00000583    0.00002580   -0.00625215
     atom    3 type  2   force =    -0.00000769    0.00003367    0.00632138
     atom    4 type  1   force =    -0.00001337    0.00005873    0.00000403
     atom    5 type  2   force =     0.00000769   -0.00003367   -0.00632138
     atom    6 type  2   force =     0.00000583   -0.00002580    0.00625215

     Total force =     0.012574     Total SCF correction =     0.000003


     Computing stress (Cartesian axis) and pressure


     negative rho (up, down):  2.006E-04 0.000E+00
          total   stress  (Ry/bohr**3)                   (kbar)     P=       -6.02
  -0.00003629   0.00000009   0.00000001           -5.34        0.01        0.00
   0.00000009  -0.00003561  -0.00000003            0.01       -5.24       -0.01
   0.00000001  -0.00000003  -0.00005093            0.00       -0.01       -7.49


     Writing output data file /scratch/as3359/Mos2_ct_lat/MoS2.save/
 
     init_run     :     49.83s CPU     27.12s WALL (       1 calls)
     electrons    :   2815.46s CPU   1429.16s WALL (       1 calls)
     forces       :     12.38s CPU      6.25s WALL (       1 calls)
     stress       :     47.10s CPU     23.86s WALL (       1 calls)

     Called by init_run:
     wfcinit      :     39.98s CPU     20.62s WALL (       1 calls)
     potinit      :      3.25s CPU      1.90s WALL (       1 calls)
     hinit0       :      5.31s CPU      3.88s WALL (       1 calls)

     Called by electrons:
     c_bands      :   2401.45s CPU   1215.88s WALL (      31 calls)
     sum_band     :    385.39s CPU    196.87s WALL (      31 calls)
     v_of_rho     :      6.82s CPU      3.69s WALL (      32 calls)
     newd         :     12.48s CPU      7.68s WALL (      32 calls)
     PAW_pot      :      7.32s CPU      3.78s WALL (      32 calls)
     mix_rho      :      2.66s CPU      1.56s WALL (      31 calls)

     Called by c_bands:
     init_us_2    :     51.99s CPU     26.02s WALL (    7345 calls)
     cegterg      :   2273.30s CPU   1151.32s WALL (    3503 calls)

     Called by *egterg:
     cdiaghg      :     19.40s CPU      9.95s WALL (   16498 calls)
     h_psi        :   1884.16s CPU    956.27s WALL (   16611 calls)
     s_psi        :     87.15s CPU     43.66s WALL (   16611 calls)
     g_psi        :     16.32s CPU      8.18s WALL (   12995 calls)

     Called by h_psi:
     h_psi:calbec :     75.55s CPU     37.86s WALL (   16611 calls)
     vloc_psi     :   1706.54s CPU    867.11s WALL (   16611 calls)
     add_vuspsi   :     86.64s CPU     43.41s WALL (   16611 calls)

     General routines
     calbec       :    100.71s CPU     50.48s WALL (   20679 calls)
     fft          :      3.31s CPU      2.00s WALL (     377 calls)
     ffts         :      0.20s CPU      0.10s WALL (      31 calls)
     fftw         :   1718.27s CPU    874.25s WALL (  636616 calls)
 
     Parallel routines
 
     PWSCF        :  48m50.54s CPU  24m51.68s WALL

 
   This run was terminated on:  17:36:45  17Apr2022            

=------------------------------------------------------------------------------=
   JOB DONE.
=------------------------------------------------------------------------------=
