
     Program PWSCF v.6.8 starts on 17Apr2022 at 14:17: 3 

     This program is part of the open-source Quantum ESPRESSO suite
     for quantum simulation of materials; please cite
         "P. Giannozzi et al., J. Phys.:Condens. Matter 21 395502 (2009);
         "P. Giannozzi et al., J. Phys.:Condens. Matter 29 465901 (2017);
         "P. Giannozzi et al., J. Chem. Phys. 152 154105 (2020);
          URL http://www.quantum-espresso.org", 
     in publications or presentations arising from this work. More details at
     http://www.quantum-espresso.org/quote

     Parallel version (MPI & OpenMP), running on       4 processor cores
     Number of MPI processes:                 2
     Threads/MPI process:                     2

     MPI processes distributed on     1 nodes
     R & G space division:  proc/nbgrp/npool/nimage =       2
     125200 MiB available memory on the printing compute node when the environment starts
 
     Reading input from MoS2.scf.6.020.in
Warning: card  &CELL ignored
Warning: card     CELL_DYNAMICS='BFGS' ignored
Warning: card  / ignored

     Current dimensions of program PWSCF are:
     Max number of different atomic species (ntypx) = 10
     Max number of k-points (npk) =  40000
     Max angular momentum in pseudopotentials (lmaxx) =  4
     Message from routine iosys:
     restart disabled: needed files not found
     file Mo.pbesol-spn-kjpaw_psl.1.0.0.UPF: wavefunction(s)  4S 4D renormalized
     file S.pbesol-nl-kjpaw_psl.1.0.0.UPF: wavefunction(s)  3S renormalized
     Message from routine setup:
     using ibrav=0 with symmetry is DISCOURAGED, use correct ibrav instead

     Subspace diagonalization in iterative solution of the eigenvalue problem:
     a serial algorithm will be used

 
     Parallelization info
     --------------------
     sticks:   dense  smooth     PW     G-vecs:    dense   smooth      PW
     Min         708     708    210               178970   178970   28358
     Max         709     709    211               179005   179005   28389
     Sum        1417    1417    421               357975   357975   56747
 
     Using Slab Decomposition
 


     bravais-lattice index     =            0
     lattice parameter (alat)  =       6.0200  a.u.
     unit-cell volume          =    1443.5433 (a.u.)^3
     number of atoms/cell      =            6
     number of atomic types    =            2
     number of electrons       =        52.00
     number of Kohn-Sham states=           26
     kinetic-energy cutoff     =     150.0000  Ry
     charge density cutoff     =     600.0000  Ry
     scf convergence threshold =      1.0E-12
     mixing beta               =       0.7000
     number of iterations used =            8  plain     mixing
     Exchange-correlation= SLA  PW   PSX  PSC
                           (   1   4  10   8   0   0   0)

     celldm(1)=   6.020000  celldm(2)=   0.000000  celldm(3)=   0.000000
     celldm(4)=   0.000000  celldm(5)=   0.000000  celldm(6)=   0.000000

     crystal axes: (cart. coord. in units of alat)
               a(1) = (   0.977326  -0.000176   0.000000 )  
               a(2) = (  -0.488540   0.846362   0.000000 )  
               a(3) = (   0.000000   0.000000   8.000000 )  

     reciprocal axes: (cart. coord. in units 2 pi/alat)
               b(1) = (  1.023307  0.590676  0.000000 )  
               b(2) = (  0.000213  1.181651  0.000000 )  
               b(3) = (  0.000000  0.000000  0.125000 )  


     PseudoPot. # 1 for Mo read from file:
     /shared/home/as3359/pseudo/Mo.pbesol-spn-kjpaw_psl.1.0.0.UPF
     MD5 check sum: de57925cfc675213e43241dcc441eda8
     Pseudo is Projector augmented-wave + core cor, Zval = 14.0
     Generated using &quot;atomic&quot; code by A. Dal Corso  v.6.3
     Shape of augmentation charge: PSQ
     Using radial grid of 1229 points,  6 beta functions with: 
                l(1) =   0
                l(2) =   0
                l(3) =   1
                l(4) =   1
                l(5) =   2
                l(6) =   2
     Q(r) pseudized with 0 coefficients 


     PseudoPot. # 2 for S  read from file:
     /shared/home/as3359/pseudo/S.pbesol-nl-kjpaw_psl.1.0.0.UPF
     MD5 check sum: bf3db50ec3f960682bbc396f1aadd1dd
     Pseudo is Projector augmented-wave + core cor, Zval =  6.0
     Generated using &quot;atomic&quot; code by A. Dal Corso  v.6.3
     Shape of augmentation charge: PSQ
     Using radial grid of 1151 points,  4 beta functions with: 
                l(1) =   0
                l(2) =   0
                l(3) =   1
                l(4) =   1
     Q(r) pseudized with 0 coefficients 


     atomic species   valence    mass     pseudopotential
        Mo            14.00    95.94000     Mo( 1.00)
        S              6.00    32.06500     S ( 1.00)

      2 Sym. Ops., with inversion, found ( 1 have fractional translation)



   Cartesian axes

     site n.     atom                  positions (alat units)
         1           Mo  tau(   1) = (   0.0000000   0.0000000   0.9844997  )
         2           S   tau(   2) = (   0.4887119   0.2819702   1.4701535  )
         3           S   tau(   3) = (   0.4887135   0.2819635   0.4988906  )
         4           Mo  tau(   4) = (   0.0000000   0.0000000   3.0155003  )
         5           S   tau(   5) = (  -0.4887135  -0.2819635   3.5011094  )
         6           S   tau(   6) = (  -0.4887119  -0.2819702   2.5298465  )

     number of k points=   113

     Number of k-points >= 100: set verbosity='high' to print them.

     Dense  grid:   357975 G-vectors     FFT dimensions: (  45,  45, 384)

     Estimated max dynamical RAM per process >       1.66 GB

     Estimated total dynamical RAM >       3.31 GB
     Cannot read rho : file not found

     Initial potential from superposition of free atoms

     starting charge   51.99828, renormalised to   52.00000

     negative rho (up, down):  1.552E-04 0.000E+00
     Message from routine qexsd_readschema :
     xml data file /scratch/as3359/Mos2_ct_lat/MoS2.save/data-file-schema.xml not fou
     Cannot read wfcs: file not found
     Starting wfcs are   36 randomized atomic wfcs
     Checking if some PAW data can be deallocated... 

     total cpu time spent up to now is       28.0 secs

     Self-consistent Calculation

     iteration #  1     ecut=   150.00 Ry     beta= 0.70
     Davidson diagonalization with overlap
     ethr =  1.00E-05,  avg # of iterations = 10.5

     negative rho (up, down):  1.999E-04 0.000E+00

     total cpu time spent up to now is      149.6 secs

     total energy              =    -979.36407669 Ry
     estimated scf accuracy    <       0.32178217 Ry

     iteration #  2     ecut=   150.00 Ry     beta= 0.70
     Davidson diagonalization with overlap
     ethr =  6.19E-04,  avg # of iterations =  5.1

     negative rho (up, down):  1.882E-04 0.000E+00

     total cpu time spent up to now is      211.2 secs

     total energy              =    -979.26875821 Ry
     estimated scf accuracy    <       1.28795120 Ry

     iteration #  3     ecut=   150.00 Ry     beta= 0.70
     Davidson diagonalization with overlap
     ethr =  6.19E-04,  avg # of iterations =  5.4

     negative rho (up, down):  1.888E-04 0.000E+00

     total cpu time spent up to now is      270.8 secs

     total energy              =    -979.50060258 Ry
     estimated scf accuracy    <       0.08056965 Ry

     iteration #  4     ecut=   150.00 Ry     beta= 0.70
     Davidson diagonalization with overlap
     ethr =  1.55E-04,  avg # of iterations =  3.1

     negative rho (up, down):  1.902E-04 0.000E+00

     total cpu time spent up to now is      317.1 secs

     total energy              =    -979.50773389 Ry
     estimated scf accuracy    <       0.02936110 Ry

     iteration #  5     ecut=   150.00 Ry     beta= 0.70
     Davidson diagonalization with overlap
     ethr =  5.65E-05,  avg # of iterations =  3.5

     negative rho (up, down):  1.988E-04 0.000E+00

     total cpu time spent up to now is      364.5 secs

     total energy              =    -979.51343790 Ry
     estimated scf accuracy    <       0.00591889 Ry

     iteration #  6     ecut=   150.00 Ry     beta= 0.70
     Davidson diagonalization with overlap
     ethr =  1.14E-05,  avg # of iterations =  3.5

     negative rho (up, down):  2.030E-04 0.000E+00

     total cpu time spent up to now is      410.1 secs

     total energy              =    -979.51398105 Ry
     estimated scf accuracy    <       0.00101942 Ry

     iteration #  7     ecut=   150.00 Ry     beta= 0.70
     Davidson diagonalization with overlap
     ethr =  1.96E-06,  avg # of iterations =  4.8

     negative rho (up, down):  2.048E-04 0.000E+00

     total cpu time spent up to now is      461.5 secs

     total energy              =    -979.51419973 Ry
     estimated scf accuracy    <       0.00041822 Ry

     iteration #  8     ecut=   150.00 Ry     beta= 0.70
     Davidson diagonalization with overlap
     ethr =  8.04E-07,  avg # of iterations =  2.4

     negative rho (up, down):  2.058E-04 0.000E+00

     total cpu time spent up to now is      503.4 secs

     total energy              =    -979.51422370 Ry
     estimated scf accuracy    <       0.00007717 Ry

     iteration #  9     ecut=   150.00 Ry     beta= 0.70
     Davidson diagonalization with overlap
     ethr =  1.48E-07,  avg # of iterations =  4.9

     negative rho (up, down):  2.059E-04 0.000E+00

     total cpu time spent up to now is      558.8 secs

     total energy              =    -979.51425067 Ry
     estimated scf accuracy    <       0.00005991 Ry

     iteration # 10     ecut=   150.00 Ry     beta= 0.70
     Davidson diagonalization with overlap
     ethr =  1.15E-07,  avg # of iterations =  1.0

     negative rho (up, down):  2.059E-04 0.000E+00

     total cpu time spent up to now is      594.8 secs

     total energy              =    -979.51423923 Ry
     estimated scf accuracy    <       0.00004084 Ry

     iteration # 11     ecut=   150.00 Ry     beta= 0.70
     Davidson diagonalization with overlap
     ethr =  7.85E-08,  avg # of iterations =  3.4

     negative rho (up, down):  2.059E-04 0.000E+00

     total cpu time spent up to now is      641.7 secs

     total energy              =    -979.51424795 Ry
     estimated scf accuracy    <       0.00000181 Ry

     iteration # 12     ecut=   150.00 Ry     beta= 0.70
     Davidson diagonalization with overlap
     ethr =  3.48E-09,  avg # of iterations =  4.7

     negative rho (up, down):  2.059E-04 0.000E+00

     total cpu time spent up to now is      693.1 secs

     total energy              =    -979.51424808 Ry
     estimated scf accuracy    <       0.00000241 Ry

     iteration # 13     ecut=   150.00 Ry     beta= 0.70
     Davidson diagonalization with overlap
     ethr =  3.48E-09,  avg # of iterations =  2.1

     negative rho (up, down):  2.059E-04 0.000E+00

     total cpu time spent up to now is      731.5 secs

     total energy              =    -979.51424789 Ry
     estimated scf accuracy    <       0.00000083 Ry

     iteration # 14     ecut=   150.00 Ry     beta= 0.70
     Davidson diagonalization with overlap
     ethr =  1.59E-09,  avg # of iterations =  4.5

     negative rho (up, down):  2.059E-04 0.000E+00

     total cpu time spent up to now is      784.0 secs

     total energy              =    -979.51424819 Ry
     estimated scf accuracy    <       0.00000034 Ry

     iteration # 15     ecut=   150.00 Ry     beta= 0.70
     Davidson diagonalization with overlap
     ethr =  6.51E-10,  avg # of iterations =  1.1

     negative rho (up, down):  2.059E-04 0.000E+00

     total cpu time spent up to now is      819.7 secs

     total energy              =    -979.51424814 Ry
     estimated scf accuracy    <       0.00000029 Ry

     iteration # 16     ecut=   150.00 Ry     beta= 0.70
     Davidson diagonalization with overlap
     ethr =  5.61E-10,  avg # of iterations =  1.9

     negative rho (up, down):  2.059E-04 0.000E+00

     total cpu time spent up to now is      858.0 secs

     total energy              =    -979.51424814 Ry
     estimated scf accuracy    <       0.00000007 Ry

     iteration # 17     ecut=   150.00 Ry     beta= 0.70
     Davidson diagonalization with overlap
     ethr =  1.26E-10,  avg # of iterations =  4.4

     negative rho (up, down):  2.059E-04 0.000E+00

     total cpu time spent up to now is      911.4 secs

     total energy              =    -979.51424816 Ry
     estimated scf accuracy    <       0.00000002 Ry

     iteration # 18     ecut=   150.00 Ry     beta= 0.70
     Davidson diagonalization with overlap
     ethr =  3.40E-11,  avg # of iterations =  1.4

     negative rho (up, down):  2.059E-04 0.000E+00

     total cpu time spent up to now is      947.8 secs

     total energy              =    -979.51424816 Ry
     estimated scf accuracy    <       0.00000001 Ry

     iteration # 19     ecut=   150.00 Ry     beta= 0.70
     Davidson diagonalization with overlap
     ethr =  2.32E-11,  avg # of iterations =  2.1

     negative rho (up, down):  2.059E-04 0.000E+00

     total cpu time spent up to now is      986.7 secs

     total energy              =    -979.51424816 Ry
     estimated scf accuracy    <          2.8E-09 Ry

     iteration # 20     ecut=   150.00 Ry     beta= 0.70
     Davidson diagonalization with overlap
     ethr =  5.36E-12,  avg # of iterations =  4.5

     negative rho (up, down):  2.059E-04 0.000E+00

     total cpu time spent up to now is     1036.4 secs

     total energy              =    -979.51424816 Ry
     estimated scf accuracy    <          1.4E-10 Ry

     iteration # 21     ecut=   150.00 Ry     beta= 0.70
     Davidson diagonalization with overlap
     ethr =  2.72E-13,  avg # of iterations =  5.8

     negative rho (up, down):  2.059E-04 0.000E+00

     total cpu time spent up to now is     1100.6 secs

     total energy              =    -979.51424816 Ry
     estimated scf accuracy    <          1.2E-09 Ry

     iteration # 22     ecut=   150.00 Ry     beta= 0.70
     Davidson diagonalization with overlap
     ethr =  2.72E-13,  avg # of iterations =  2.2

     negative rho (up, down):  2.059E-04 0.000E+00

     total cpu time spent up to now is     1142.2 secs

     total energy              =    -979.51424816 Ry
     estimated scf accuracy    <          6.7E-10 Ry

     iteration # 23     ecut=   150.00 Ry     beta= 0.70
     Davidson diagonalization with overlap
     ethr =  2.72E-13,  avg # of iterations =  5.7

     negative rho (up, down):  2.059E-04 0.000E+00

     total cpu time spent up to now is     1203.1 secs

     total energy              =    -979.51424816 Ry
     estimated scf accuracy    <          1.0E-10 Ry

     iteration # 24     ecut=   150.00 Ry     beta= 0.70
     Davidson diagonalization with overlap
     ethr =  1.99E-13,  avg # of iterations =  3.9

     negative rho (up, down):  2.059E-04 0.000E+00

     total cpu time spent up to now is     1250.5 secs

     total energy              =    -979.51424816 Ry
     estimated scf accuracy    <          4.9E-10 Ry

     iteration # 25     ecut=   150.00 Ry     beta= 0.70
     Davidson diagonalization with overlap
     ethr =  1.99E-13,  avg # of iterations =  1.0

     negative rho (up, down):  2.059E-04 0.000E+00

     total cpu time spent up to now is     1286.2 secs

     total energy              =    -979.51424816 Ry
     estimated scf accuracy    <          4.2E-10 Ry

     iteration # 26     ecut=   150.00 Ry     beta= 0.70
     Davidson diagonalization with overlap
     ethr =  1.99E-13,  avg # of iterations =  1.0

     negative rho (up, down):  2.059E-04 0.000E+00

     total cpu time spent up to now is     1321.8 secs

     total energy              =    -979.51424816 Ry
     estimated scf accuracy    <          4.1E-10 Ry

     iteration # 27     ecut=   150.00 Ry     beta= 0.70
     Davidson diagonalization with overlap
     ethr =  1.99E-13,  avg # of iterations =  2.6

     negative rho (up, down):  2.059E-04 0.000E+00

     total cpu time spent up to now is     1366.5 secs

     total energy              =    -979.51424816 Ry
     estimated scf accuracy    <          8.9E-11 Ry

     iteration # 28     ecut=   150.00 Ry     beta= 0.70
     Davidson diagonalization with overlap
     ethr =  1.70E-13,  avg # of iterations =  3.8

     negative rho (up, down):  2.059E-04 0.000E+00

     total cpu time spent up to now is     1412.3 secs

     End of self-consistent calculation

     Number of k-points >= 100: set verbosity='high' to print the bands.

     highest occupied level (ev):     2.4021

!    total energy              =    -979.51424816 Ry

     total all-electron energy =    -19376.429939 Ry
     estimated scf accuracy    <          8.1E-14 Ry

     The total energy is the sum of the following terms:
     one-electron contribution =   -2763.78302338 Ry
     hartree contribution      =    1392.92853119 Ry
     xc contribution           =     -59.18716290 Ry
     ewald contribution        =    1076.31764022 Ry
     one-center paw contrib.   =    -625.79023328 Ry

     convergence has been achieved in  28 iterations

     negative rho (up, down):  2.059E-04 0.000E+00

     Forces acting on atoms (cartesian axes, Ry/au):

     atom    1 type  1   force =     0.00001314   -0.00005833    0.00000149
     atom    2 type  2   force =    -0.00000560    0.00002516    0.01723920
     atom    3 type  2   force =    -0.00000763    0.00003363   -0.01752467
     atom    4 type  1   force =    -0.00001314    0.00005833   -0.00000149
     atom    5 type  2   force =     0.00000763   -0.00003363    0.01752467
     atom    6 type  2   force =     0.00000560   -0.00002516   -0.01723920

     Total force =     0.034765     Total SCF correction =     0.000001


     Computing stress (Cartesian axis) and pressure


     negative rho (up, down):  2.059E-04 0.000E+00
          total   stress  (Ry/bohr**3)                   (kbar)     P=       21.04
   0.00014286   0.00000009   0.00000001           21.01        0.01        0.00
   0.00000009   0.00014357  -0.00000004            0.01       21.12       -0.01
   0.00000001  -0.00000004   0.00014261            0.00       -0.01       20.98


     Writing output data file /scratch/as3359/Mos2_ct_lat/MoS2.save/
 
     init_run     :     51.73s CPU     27.79s WALL (       1 calls)
     electrons    :   2733.48s CPU   1384.45s WALL (       1 calls)
     forces       :     11.92s CPU      6.03s WALL (       1 calls)
     stress       :     45.02s CPU     22.78s WALL (       1 calls)

     Called by init_run:
     wfcinit      :     42.89s CPU     22.03s WALL (       1 calls)
     potinit      :      2.65s CPU      1.39s WALL (       1 calls)
     hinit0       :      5.14s CPU      3.76s WALL (       1 calls)

     Called by electrons:
     c_bands      :   2318.22s CPU   1171.28s WALL (      28 calls)
     sum_band     :    390.34s CPU    198.83s WALL (      28 calls)
     v_of_rho     :      5.69s CPU      3.10s WALL (      29 calls)
     newd         :     10.72s CPU      6.62s WALL (      29 calls)
     PAW_pot      :      6.63s CPU      3.45s WALL (      29 calls)
     mix_rho      :      2.30s CPU      1.36s WALL (      28 calls)

     Called by c_bands:
     init_us_2    :     45.29s CPU     22.67s WALL (    6667 calls)
     cegterg      :   2206.66s CPU   1115.01s WALL (    3164 calls)

     Called by *egterg:
     cdiaghg      :     17.12s CPU      8.78s WALL (   14450 calls)
     h_psi        :   1886.08s CPU    954.29s WALL (   14563 calls)
     s_psi        :     73.83s CPU     36.99s WALL (   14563 calls)
     g_psi        :     13.54s CPU      6.80s WALL (   11286 calls)

     Called by h_psi:
     h_psi:calbec :     63.64s CPU     31.91s WALL (   14563 calls)
     vloc_psi     :   1735.47s CPU    878.67s WALL (   14563 calls)
     add_vuspsi   :     73.80s CPU     36.98s WALL (   14563 calls)

     General routines
     calbec       :     85.99s CPU     43.12s WALL (   18292 calls)
     fft          :      3.06s CPU      1.85s WALL (     344 calls)
     ffts         :      0.17s CPU      0.09s WALL (      28 calls)
     fftw         :   1823.71s CPU    923.99s WALL (  561392 calls)
 
     Parallel routines
 
     PWSCF        :  47m28.05s CPU  24m 6.51s WALL

 
   This run was terminated on:  14:41: 9  17Apr2022            

=------------------------------------------------------------------------------=
   JOB DONE.
=------------------------------------------------------------------------------=
