
     Program PWSCF v.6.8 starts on 17Apr2022 at 19:23: 3 

     This program is part of the open-source Quantum ESPRESSO suite
     for quantum simulation of materials; please cite
         "P. Giannozzi et al., J. Phys.:Condens. Matter 21 395502 (2009);
         "P. Giannozzi et al., J. Phys.:Condens. Matter 29 465901 (2017);
         "P. Giannozzi et al., J. Chem. Phys. 152 154105 (2020);
          URL http://www.quantum-espresso.org", 
     in publications or presentations arising from this work. More details at
     http://www.quantum-espresso.org/quote

     Parallel version (MPI & OpenMP), running on       4 processor cores
     Number of MPI processes:                 2
     Threads/MPI process:                     2

     MPI processes distributed on     1 nodes
     R & G space division:  proc/nbgrp/npool/nimage =       2
     124982 MiB available memory on the printing compute node when the environment starts
 
     Reading input from MoS2.scf.6.140.in
Warning: card  &CELL ignored
Warning: card     CELL_DYNAMICS='BFGS' ignored
Warning: card  / ignored

     Current dimensions of program PWSCF are:
     Max number of different atomic species (ntypx) = 10
     Max number of k-points (npk) =  40000
     Max angular momentum in pseudopotentials (lmaxx) =  4
     Message from routine iosys:
     restart disabled: needed files not found
     file Mo.pbesol-spn-kjpaw_psl.1.0.0.UPF: wavefunction(s)  4S 4D renormalized
     file S.pbesol-nl-kjpaw_psl.1.0.0.UPF: wavefunction(s)  3S renormalized
     Message from routine setup:
     using ibrav=0 with symmetry is DISCOURAGED, use correct ibrav instead

     Subspace diagonalization in iterative solution of the eigenvalue problem:
     a serial algorithm will be used

 
     Parallelization info
     --------------------
     sticks:   dense  smooth     PW     G-vecs:    dense   smooth      PW
     Min         747     747    216               190147   190147   29926
     Max         748     748    217               190150   190150   29937
     Sum        1495    1495    433               380297   380297   59863
 
     Using Slab Decomposition
 


     bravais-lattice index     =            0
     lattice parameter (alat)  =       6.1400  a.u.
     unit-cell volume          =    1531.6004 (a.u.)^3
     number of atoms/cell      =            6
     number of atomic types    =            2
     number of electrons       =        52.00
     number of Kohn-Sham states=           26
     kinetic-energy cutoff     =     150.0000  Ry
     charge density cutoff     =     600.0000  Ry
     scf convergence threshold =      1.0E-12
     mixing beta               =       0.7000
     number of iterations used =            8  plain     mixing
     Exchange-correlation= SLA  PW   PSX  PSC
                           (   1   4  10   8   0   0   0)

     celldm(1)=   6.140000  celldm(2)=   0.000000  celldm(3)=   0.000000
     celldm(4)=   0.000000  celldm(5)=   0.000000  celldm(6)=   0.000000

     crystal axes: (cart. coord. in units of alat)
               a(1) = (   0.977326  -0.000176   0.000000 )  
               a(2) = (  -0.488540   0.846362   0.000000 )  
               a(3) = (   0.000000   0.000000   8.000000 )  

     reciprocal axes: (cart. coord. in units 2 pi/alat)
               b(1) = (  1.023307  0.590676  0.000000 )  
               b(2) = (  0.000213  1.181651  0.000000 )  
               b(3) = (  0.000000  0.000000  0.125000 )  


     PseudoPot. # 1 for Mo read from file:
     /shared/home/as3359/pseudo/Mo.pbesol-spn-kjpaw_psl.1.0.0.UPF
     MD5 check sum: de57925cfc675213e43241dcc441eda8
     Pseudo is Projector augmented-wave + core cor, Zval = 14.0
     Generated using &quot;atomic&quot; code by A. Dal Corso  v.6.3
     Shape of augmentation charge: PSQ
     Using radial grid of 1229 points,  6 beta functions with: 
                l(1) =   0
                l(2) =   0
                l(3) =   1
                l(4) =   1
                l(5) =   2
                l(6) =   2
     Q(r) pseudized with 0 coefficients 


     PseudoPot. # 2 for S  read from file:
     /shared/home/as3359/pseudo/S.pbesol-nl-kjpaw_psl.1.0.0.UPF
     MD5 check sum: bf3db50ec3f960682bbc396f1aadd1dd
     Pseudo is Projector augmented-wave + core cor, Zval =  6.0
     Generated using &quot;atomic&quot; code by A. Dal Corso  v.6.3
     Shape of augmentation charge: PSQ
     Using radial grid of 1151 points,  4 beta functions with: 
                l(1) =   0
                l(2) =   0
                l(3) =   1
                l(4) =   1
     Q(r) pseudized with 0 coefficients 


     atomic species   valence    mass     pseudopotential
        Mo            14.00    95.94000     Mo( 1.00)
        S              6.00    32.06500     S ( 1.00)

      2 Sym. Ops., with inversion, found ( 1 have fractional translation)



   Cartesian axes

     site n.     atom                  positions (alat units)
         1           Mo  tau(   1) = (   0.0000000   0.0000000   0.9844997  )
         2           S   tau(   2) = (   0.4887119   0.2819702   1.4701535  )
         3           S   tau(   3) = (   0.4887135   0.2819635   0.4988906  )
         4           Mo  tau(   4) = (   0.0000000   0.0000000   3.0155003  )
         5           S   tau(   5) = (  -0.4887135  -0.2819635   3.5011094  )
         6           S   tau(   6) = (  -0.4887119  -0.2819702   2.5298465  )

     number of k points=   113

     Number of k-points >= 100: set verbosity='high' to print them.

     Dense  grid:   380297 G-vectors     FFT dimensions: (  48,  48, 384)

     Estimated max dynamical RAM per process >       1.76 GB

     Estimated total dynamical RAM >       3.52 GB
     Cannot read rho : file not found

     Initial potential from superposition of free atoms

     starting charge   51.99828, renormalised to   52.00000

     negative rho (up, down):  1.613E-04 0.000E+00
     Message from routine qexsd_readschema :
     xml data file /scratch/as3359/Mos2_ct_lat/MoS2.save/data-file-schema.xml not fou
     Cannot read wfcs: file not found
     Starting wfcs are   36 randomized atomic wfcs
     Checking if some PAW data can be deallocated... 

     total cpu time spent up to now is       26.2 secs

     Self-consistent Calculation

     iteration #  1     ecut=   150.00 Ry     beta= 0.70
     Davidson diagonalization with overlap
     ethr =  1.00E-05,  avg # of iterations = 10.3

     negative rho (up, down):  2.068E-04 0.000E+00

     total cpu time spent up to now is      138.5 secs

     total energy              =    -979.40187925 Ry
     estimated scf accuracy    <       0.25933570 Ry

     iteration #  2     ecut=   150.00 Ry     beta= 0.70
     Davidson diagonalization with overlap
     ethr =  4.99E-04,  avg # of iterations =  4.8

     negative rho (up, down):  1.991E-04 0.000E+00

     total cpu time spent up to now is      193.0 secs

     total energy              =    -979.35325906 Ry
     estimated scf accuracy    <       0.75032984 Ry

     iteration #  3     ecut=   150.00 Ry     beta= 0.70
     Davidson diagonalization with overlap
     ethr =  4.99E-04,  avg # of iterations =  5.2

     negative rho (up, down):  2.013E-04 0.000E+00

     total cpu time spent up to now is      247.6 secs

     total energy              =    -979.49730023 Ry
     estimated scf accuracy    <       0.11369213 Ry

     iteration #  4     ecut=   150.00 Ry     beta= 0.70
     Davidson diagonalization with overlap
     ethr =  2.19E-04,  avg # of iterations =  2.9

     negative rho (up, down):  2.023E-04 0.000E+00

     total cpu time spent up to now is      288.2 secs

     total energy              =    -979.50653186 Ry
     estimated scf accuracy    <       0.01799889 Ry

     iteration #  5     ecut=   150.00 Ry     beta= 0.70
     Davidson diagonalization with overlap
     ethr =  3.46E-05,  avg # of iterations =  4.8

     negative rho (up, down):  2.079E-04 0.000E+00

     total cpu time spent up to now is      339.1 secs

     total energy              =    -979.51147755 Ry
     estimated scf accuracy    <       0.01945585 Ry

     iteration #  6     ecut=   150.00 Ry     beta= 0.70
     Davidson diagonalization with overlap
     ethr =  3.46E-05,  avg # of iterations =  2.6

     negative rho (up, down):  2.100E-04 0.000E+00

     total cpu time spent up to now is      379.3 secs

     total energy              =    -979.51247137 Ry
     estimated scf accuracy    <       0.00516662 Ry

     iteration #  7     ecut=   150.00 Ry     beta= 0.70
     Davidson diagonalization with overlap
     ethr =  9.94E-06,  avg # of iterations =  2.9

     negative rho (up, down):  2.119E-04 0.000E+00

     total cpu time spent up to now is      420.5 secs

     total energy              =    -979.51287775 Ry
     estimated scf accuracy    <       0.00155380 Ry

     iteration #  8     ecut=   150.00 Ry     beta= 0.70
     Davidson diagonalization with overlap
     ethr =  2.99E-06,  avg # of iterations =  3.5

     negative rho (up, down):  2.137E-04 0.000E+00

     total cpu time spent up to now is      462.4 secs

     total energy              =    -979.51298725 Ry
     estimated scf accuracy    <       0.00048814 Ry

     iteration #  9     ecut=   150.00 Ry     beta= 0.70
     Davidson diagonalization with overlap
     ethr =  9.39E-07,  avg # of iterations =  3.6

     negative rho (up, down):  2.142E-04 0.000E+00

     total cpu time spent up to now is      505.4 secs

     total energy              =    -979.51306278 Ry
     estimated scf accuracy    <       0.00001510 Ry

     iteration # 10     ecut=   150.00 Ry     beta= 0.70
     Davidson diagonalization with overlap
     ethr =  2.90E-08,  avg # of iterations =  5.3

     negative rho (up, down):  2.143E-04 0.000E+00

     total cpu time spent up to now is      563.9 secs

     total energy              =    -979.51306556 Ry
     estimated scf accuracy    <       0.00004543 Ry

     iteration # 11     ecut=   150.00 Ry     beta= 0.70
     Davidson diagonalization with overlap
     ethr =  2.90E-08,  avg # of iterations =  4.5

     negative rho (up, down):  2.145E-04 0.000E+00

     total cpu time spent up to now is      611.0 secs

     total energy              =    -979.51306979 Ry
     estimated scf accuracy    <       0.00000167 Ry

     iteration # 12     ecut=   150.00 Ry     beta= 0.70
     Davidson diagonalization with overlap
     ethr =  3.21E-09,  avg # of iterations =  5.3

     negative rho (up, down):  2.146E-04 0.000E+00

     total cpu time spent up to now is      668.8 secs

     total energy              =    -979.51306997 Ry
     estimated scf accuracy    <       0.00000557 Ry

     iteration # 13     ecut=   150.00 Ry     beta= 0.70
     Davidson diagonalization with overlap
     ethr =  3.21E-09,  avg # of iterations =  4.3

     negative rho (up, down):  2.146E-04 0.000E+00

     total cpu time spent up to now is      715.3 secs

     total energy              =    -979.51307032 Ry
     estimated scf accuracy    <       0.00000027 Ry

     iteration # 14     ecut=   150.00 Ry     beta= 0.70
     Davidson diagonalization with overlap
     ethr =  5.16E-10,  avg # of iterations =  5.5

     negative rho (up, down):  2.146E-04 0.000E+00

     total cpu time spent up to now is      774.0 secs

     total energy              =    -979.51307040 Ry
     estimated scf accuracy    <       0.00000085 Ry

     iteration # 15     ecut=   150.00 Ry     beta= 0.70
     Davidson diagonalization with overlap
     ethr =  5.16E-10,  avg # of iterations =  3.0

     negative rho (up, down):  2.146E-04 0.000E+00

     total cpu time spent up to now is      816.1 secs

     total energy              =    -979.51307042 Ry
     estimated scf accuracy    <       0.00000013 Ry

     iteration # 16     ecut=   150.00 Ry     beta= 0.70
     Davidson diagonalization with overlap
     ethr =  2.59E-10,  avg # of iterations =  4.6

     negative rho (up, down):  2.146E-04 0.000E+00

     total cpu time spent up to now is      863.5 secs

     total energy              =    -979.51307045 Ry
     estimated scf accuracy    <       0.00000002 Ry

     iteration # 17     ecut=   150.00 Ry     beta= 0.70
     Davidson diagonalization with overlap
     ethr =  3.01E-11,  avg # of iterations =  2.7

     negative rho (up, down):  2.146E-04 0.000E+00

     total cpu time spent up to now is      902.3 secs

     total energy              =    -979.51307045 Ry
     estimated scf accuracy    <          8.2E-09 Ry

     iteration # 18     ecut=   150.00 Ry     beta= 0.70
     Davidson diagonalization with overlap
     ethr =  1.58E-11,  avg # of iterations =  2.8

     negative rho (up, down):  2.146E-04 0.000E+00

     total cpu time spent up to now is      939.9 secs

     total energy              =    -979.51307045 Ry
     estimated scf accuracy    <          2.9E-09 Ry

     iteration # 19     ecut=   150.00 Ry     beta= 0.70
     Davidson diagonalization with overlap
     ethr =  5.56E-12,  avg # of iterations =  3.9

     negative rho (up, down):  2.146E-04 0.000E+00

     total cpu time spent up to now is      984.6 secs

     total energy              =    -979.51307045 Ry
     estimated scf accuracy    <          2.5E-10 Ry

     iteration # 20     ecut=   150.00 Ry     beta= 0.70
     Davidson diagonalization with overlap
     ethr =  4.82E-13,  avg # of iterations =  5.0

     negative rho (up, down):  2.146E-04 0.000E+00

     total cpu time spent up to now is     1035.4 secs

     total energy              =    -979.51307045 Ry
     estimated scf accuracy    <          2.0E-10 Ry

     iteration # 21     ecut=   150.00 Ry     beta= 0.70
     Davidson diagonalization with overlap
     ethr =  3.91E-13,  avg # of iterations =  4.7

     negative rho (up, down):  2.146E-04 0.000E+00

     total cpu time spent up to now is     1086.8 secs

     total energy              =    -979.51307045 Ry
     estimated scf accuracy    <          3.8E-10 Ry

     iteration # 22     ecut=   150.00 Ry     beta= 0.70
     Davidson diagonalization with overlap
     ethr =  3.91E-13,  avg # of iterations =  1.0

     negative rho (up, down):  2.146E-04 0.000E+00

     total cpu time spent up to now is     1119.5 secs

     total energy              =    -979.51307045 Ry
     estimated scf accuracy    <          2.9E-10 Ry

     iteration # 23     ecut=   150.00 Ry     beta= 0.70
     Davidson diagonalization with overlap
     ethr =  3.91E-13,  avg # of iterations =  2.2

     negative rho (up, down):  2.146E-04 0.000E+00

     total cpu time spent up to now is     1157.3 secs

     total energy              =    -979.51307045 Ry
     estimated scf accuracy    <          6.1E-11 Ry

     iteration # 24     ecut=   150.00 Ry     beta= 0.70
     Davidson diagonalization with overlap
     ethr =  1.17E-13,  avg # of iterations =  3.1

     negative rho (up, down):  2.146E-04 0.000E+00

     total cpu time spent up to now is     1195.5 secs

     total energy              =    -979.51307045 Ry
     estimated scf accuracy    <          1.5E-11 Ry

     iteration # 25     ecut=   150.00 Ry     beta= 0.70
     Davidson diagonalization with overlap
     ethr =  1.00E-13,  avg # of iterations =  1.7

     negative rho (up, down):  2.146E-04 0.000E+00

     total cpu time spent up to now is     1229.9 secs

     total energy              =    -979.51307045 Ry
     estimated scf accuracy    <          6.1E-12 Ry

     iteration # 26     ecut=   150.00 Ry     beta= 0.70
     Davidson diagonalization with overlap
     ethr =  1.00E-13,  avg # of iterations =  1.0

     negative rho (up, down):  2.146E-04 0.000E+00

     total cpu time spent up to now is     1262.5 secs

     total energy              =    -979.51307045 Ry
     estimated scf accuracy    <          3.2E-12 Ry

     iteration # 27     ecut=   150.00 Ry     beta= 0.70
     Davidson diagonalization with overlap
     ethr =  1.00E-13,  avg # of iterations =  1.0

     negative rho (up, down):  2.146E-04 0.000E+00

     total cpu time spent up to now is     1295.2 secs

     total energy              =    -979.51307045 Ry
     estimated scf accuracy    <          2.8E-12 Ry

     iteration # 28     ecut=   150.00 Ry     beta= 0.70
     Davidson diagonalization with overlap
     ethr =  1.00E-13,  avg # of iterations =  1.0

     negative rho (up, down):  2.146E-04 0.000E+00

     total cpu time spent up to now is     1327.8 secs

     total energy              =    -979.51307045 Ry
     estimated scf accuracy    <          1.7E-12 Ry

     iteration # 29     ecut=   150.00 Ry     beta= 0.70
     Davidson diagonalization with overlap
     ethr =  1.00E-13,  avg # of iterations =  1.0

     negative rho (up, down):  2.146E-04 0.000E+00

     total cpu time spent up to now is     1360.5 secs

     total energy              =    -979.51307045 Ry
     estimated scf accuracy    <          1.3E-12 Ry

     iteration # 30     ecut=   150.00 Ry     beta= 0.70
     Davidson diagonalization with overlap
     ethr =  1.00E-13,  avg # of iterations =  1.0

     negative rho (up, down):  2.146E-04 0.000E+00

     total cpu time spent up to now is     1393.1 secs

     End of self-consistent calculation

     Number of k-points >= 100: set verbosity='high' to print the bands.

     highest occupied level (ev):     1.9175

!    total energy              =    -979.51307045 Ry

     total all-electron energy =    -19376.428761 Ry
     estimated scf accuracy    <          8.4E-13 Ry

     The total energy is the sum of the following terms:
     one-electron contribution =   -2720.53913077 Ry
     hartree contribution      =    1370.39440679 Ry
     xc contribution           =     -58.88634438 Ry
     ewald contribution        =    1055.28211630 Ry
     one-center paw contrib.   =    -625.76411839 Ry

     convergence has been achieved in  30 iterations

     negative rho (up, down):  2.146E-04 0.000E+00

     Forces acting on atoms (cartesian axes, Ry/au):

     atom    1 type  1   force =     0.00001351   -0.00005908    0.00000085
     atom    2 type  2   force =    -0.00000596    0.00002611   -0.02149521
     atom    3 type  2   force =    -0.00000771    0.00003342    0.02177347
     atom    4 type  1   force =    -0.00001351    0.00005908   -0.00000085
     atom    5 type  2   force =     0.00000771   -0.00003342   -0.02177347
     atom    6 type  2   force =     0.00000596   -0.00002611    0.02149521

     Total force =     0.043270     Total SCF correction =     0.000007


     Computing stress (Cartesian axis) and pressure


     negative rho (up, down):  2.146E-04 0.000E+00
          total   stress  (Ry/bohr**3)                   (kbar)     P=      -22.81
  -0.00014722   0.00000008   0.00000001          -21.66        0.01        0.00
   0.00000008  -0.00014657  -0.00000003            0.01      -21.56       -0.00
   0.00000001  -0.00000003  -0.00017131            0.00       -0.00      -25.20


     Writing output data file /scratch/as3359/Mos2_ct_lat/MoS2.save/
 
     init_run     :     48.26s CPU     26.03s WALL (       1 calls)
     electrons    :   2693.20s CPU   1366.98s WALL (       1 calls)
     forces       :     12.73s CPU      6.43s WALL (       1 calls)
     stress       :     49.21s CPU     24.94s WALL (       1 calls)

     Called by init_run:
     wfcinit      :     39.62s CPU     20.41s WALL (       1 calls)
     potinit      :      2.34s CPU      1.19s WALL (       1 calls)
     hinit0       :      5.21s CPU      3.78s WALL (       1 calls)

     Called by electrons:
     c_bands      :   2289.60s CPU   1159.04s WALL (      30 calls)
     sum_band     :    375.63s CPU    191.89s WALL (      30 calls)
     v_of_rho     :      6.62s CPU      3.60s WALL (      31 calls)
     newd         :     12.14s CPU      7.50s WALL (      31 calls)
     PAW_pot      :      6.94s CPU      3.58s WALL (      31 calls)
     mix_rho      :      2.67s CPU      1.56s WALL (      30 calls)

     Called by c_bands:
     init_us_2    :     51.18s CPU     25.63s WALL (    7119 calls)
     cegterg      :   2163.37s CPU   1095.40s WALL (    3390 calls)

     Called by *egterg:
     cdiaghg      :     17.90s CPU      9.17s WALL (   15297 calls)
     h_psi        :   1770.90s CPU    898.76s WALL (   15410 calls)
     s_psi        :     89.69s CPU     44.91s WALL (   15410 calls)
     g_psi        :     14.18s CPU      7.11s WALL (   11907 calls)

     Called by h_psi:
     h_psi:calbec :     71.72s CPU     35.94s WALL (   15410 calls)
     vloc_psi     :   1589.93s CPU    807.96s WALL (   15410 calls)
     add_vuspsi   :     94.79s CPU     47.47s WALL (   15410 calls)

     General routines
     calbec       :    100.67s CPU     50.51s WALL (   19365 calls)
     fft          :      3.05s CPU      1.79s WALL (     366 calls)
     ffts         :      0.19s CPU      0.10s WALL (      30 calls)
     fftw         :   1611.07s CPU    819.77s WALL (  596426 calls)
 
     Parallel routines
 
     PWSCF        :  46m49.44s CPU  23m49.93s WALL

 
   This run was terminated on:  19:46:53  17Apr2022            

=------------------------------------------------------------------------------=
   JOB DONE.
=------------------------------------------------------------------------------=
