
     Program PWSCF v.6.8 starts on 17Apr2022 at 20:30:21 

     This program is part of the open-source Quantum ESPRESSO suite
     for quantum simulation of materials; please cite
         "P. Giannozzi et al., J. Phys.:Condens. Matter 21 395502 (2009);
         "P. Giannozzi et al., J. Phys.:Condens. Matter 29 465901 (2017);
         "P. Giannozzi et al., J. Chem. Phys. 152 154105 (2020);
          URL http://www.quantum-espresso.org", 
     in publications or presentations arising from this work. More details at
     http://www.quantum-espresso.org/quote

     Parallel version (MPI & OpenMP), running on       4 processor cores
     Number of MPI processes:                 2
     Threads/MPI process:                     2

     MPI processes distributed on     1 nodes
     R & G space division:  proc/nbgrp/npool/nimage =       2
     124977 MiB available memory on the printing compute node when the environment starts
 
     Reading input from MoS2.scf.6.170.in
Warning: card  &CELL ignored
Warning: card     CELL_DYNAMICS='BFGS' ignored
Warning: card  / ignored

     Current dimensions of program PWSCF are:
     Max number of different atomic species (ntypx) = 10
     Max number of k-points (npk) =  40000
     Max angular momentum in pseudopotentials (lmaxx) =  4
     Message from routine iosys:
     restart disabled: needed files not found
     file Mo.pbesol-spn-kjpaw_psl.1.0.0.UPF: wavefunction(s)  4S 4D renormalized
     file S.pbesol-nl-kjpaw_psl.1.0.0.UPF: wavefunction(s)  3S renormalized
     Message from routine setup:
     using ibrav=0 with symmetry is DISCOURAGED, use correct ibrav instead

     Subspace diagonalization in iterative solution of the eigenvalue problem:
     a serial algorithm will be used

 
     Parallelization info
     --------------------
     sticks:   dense  smooth     PW     G-vecs:    dense   smooth      PW
     Min         753     753    216               192971   192971   30360
     Max         754     754    217               193000   193000   30383
     Sum        1507    1507    433               385971   385971   60743
 
     Using Slab Decomposition
 


     bravais-lattice index     =            0
     lattice parameter (alat)  =       6.1700  a.u.
     unit-cell volume          =    1554.1604 (a.u.)^3
     number of atoms/cell      =            6
     number of atomic types    =            2
     number of electrons       =        52.00
     number of Kohn-Sham states=           26
     kinetic-energy cutoff     =     150.0000  Ry
     charge density cutoff     =     600.0000  Ry
     scf convergence threshold =      1.0E-12
     mixing beta               =       0.7000
     number of iterations used =            8  plain     mixing
     Exchange-correlation= SLA  PW   PSX  PSC
                           (   1   4  10   8   0   0   0)

     celldm(1)=   6.170000  celldm(2)=   0.000000  celldm(3)=   0.000000
     celldm(4)=   0.000000  celldm(5)=   0.000000  celldm(6)=   0.000000

     crystal axes: (cart. coord. in units of alat)
               a(1) = (   0.977326  -0.000176   0.000000 )  
               a(2) = (  -0.488540   0.846362   0.000000 )  
               a(3) = (   0.000000   0.000000   8.000000 )  

     reciprocal axes: (cart. coord. in units 2 pi/alat)
               b(1) = (  1.023307  0.590676  0.000000 )  
               b(2) = (  0.000213  1.181651  0.000000 )  
               b(3) = (  0.000000  0.000000  0.125000 )  


     PseudoPot. # 1 for Mo read from file:
     /shared/home/as3359/pseudo/Mo.pbesol-spn-kjpaw_psl.1.0.0.UPF
     MD5 check sum: de57925cfc675213e43241dcc441eda8
     Pseudo is Projector augmented-wave + core cor, Zval = 14.0
     Generated using &quot;atomic&quot; code by A. Dal Corso  v.6.3
     Shape of augmentation charge: PSQ
     Using radial grid of 1229 points,  6 beta functions with: 
                l(1) =   0
                l(2) =   0
                l(3) =   1
                l(4) =   1
                l(5) =   2
                l(6) =   2
     Q(r) pseudized with 0 coefficients 


     PseudoPot. # 2 for S  read from file:
     /shared/home/as3359/pseudo/S.pbesol-nl-kjpaw_psl.1.0.0.UPF
     MD5 check sum: bf3db50ec3f960682bbc396f1aadd1dd
     Pseudo is Projector augmented-wave + core cor, Zval =  6.0
     Generated using &quot;atomic&quot; code by A. Dal Corso  v.6.3
     Shape of augmentation charge: PSQ
     Using radial grid of 1151 points,  4 beta functions with: 
                l(1) =   0
                l(2) =   0
                l(3) =   1
                l(4) =   1
     Q(r) pseudized with 0 coefficients 


     atomic species   valence    mass     pseudopotential
        Mo            14.00    95.94000     Mo( 1.00)
        S              6.00    32.06500     S ( 1.00)

      2 Sym. Ops., with inversion, found ( 1 have fractional translation)



   Cartesian axes

     site n.     atom                  positions (alat units)
         1           Mo  tau(   1) = (   0.0000000   0.0000000   0.9844997  )
         2           S   tau(   2) = (   0.4887119   0.2819702   1.4701535  )
         3           S   tau(   3) = (   0.4887135   0.2819635   0.4988906  )
         4           Mo  tau(   4) = (   0.0000000   0.0000000   3.0155003  )
         5           S   tau(   5) = (  -0.4887135  -0.2819635   3.5011094  )
         6           S   tau(   6) = (  -0.4887119  -0.2819702   2.5298465  )

     number of k points=   113

     Number of k-points >= 100: set verbosity='high' to print them.

     Dense  grid:   385971 G-vectors     FFT dimensions: (  48,  48, 400)

     Estimated max dynamical RAM per process >       1.79 GB

     Estimated total dynamical RAM >       3.57 GB
     Cannot read rho : file not found

     Initial potential from superposition of free atoms

     starting charge   51.99828, renormalised to   52.00000

     negative rho (up, down):  1.601E-04 0.000E+00
     Message from routine qexsd_readschema :
     xml data file /scratch/as3359/Mos2_ct_lat/MoS2.save/data-file-schema.xml not fou
     Cannot read wfcs: file not found
     Starting wfcs are   36 randomized atomic wfcs
     Checking if some PAW data can be deallocated... 

     total cpu time spent up to now is       28.4 secs

     Self-consistent Calculation

     iteration #  1     ecut=   150.00 Ry     beta= 0.70
     Davidson diagonalization with overlap
     ethr =  1.00E-05,  avg # of iterations = 10.4

     negative rho (up, down):  2.055E-04 0.000E+00

     total cpu time spent up to now is      144.7 secs

     total energy              =    -979.40580323 Ry
     estimated scf accuracy    <       0.24618130 Ry

     iteration #  2     ecut=   150.00 Ry     beta= 0.70
     Davidson diagonalization with overlap
     ethr =  4.73E-04,  avg # of iterations =  4.4

     negative rho (up, down):  1.988E-04 0.000E+00

     total cpu time spent up to now is      200.2 secs

     total energy              =    -979.36862594 Ry
     estimated scf accuracy    <       0.63676136 Ry

     iteration #  3     ecut=   150.00 Ry     beta= 0.70
     Davidson diagonalization with overlap
     ethr =  4.73E-04,  avg # of iterations =  5.1

     negative rho (up, down):  2.008E-04 0.000E+00

     total cpu time spent up to now is      256.4 secs

     total energy              =    -979.49285224 Ry
     estimated scf accuracy    <       0.11755437 Ry

     iteration #  4     ecut=   150.00 Ry     beta= 0.70
     Davidson diagonalization with overlap
     ethr =  2.26E-04,  avg # of iterations =  2.7

     negative rho (up, down):  2.018E-04 0.000E+00

     total cpu time spent up to now is      298.3 secs

     total energy              =    -979.50240517 Ry
     estimated scf accuracy    <       0.01665337 Ry

     iteration #  5     ecut=   150.00 Ry     beta= 0.70
     Davidson diagonalization with overlap
     ethr =  3.20E-05,  avg # of iterations =  4.8

     negative rho (up, down):  2.070E-04 0.000E+00

     total cpu time spent up to now is      352.1 secs

     total energy              =    -979.50727695 Ry
     estimated scf accuracy    <       0.02160559 Ry

     iteration #  6     ecut=   150.00 Ry     beta= 0.70
     Davidson diagonalization with overlap
     ethr =  3.20E-05,  avg # of iterations =  3.0

     negative rho (up, down):  2.092E-04 0.000E+00

     total cpu time spent up to now is      395.0 secs

     total energy              =    -979.50809286 Ry
     estimated scf accuracy    <       0.00642409 Ry

     iteration #  7     ecut=   150.00 Ry     beta= 0.70
     Davidson diagonalization with overlap
     ethr =  1.24E-05,  avg # of iterations =  2.8

     negative rho (up, down):  2.113E-04 0.000E+00

     total cpu time spent up to now is      437.3 secs

     total energy              =    -979.50856076 Ry
     estimated scf accuracy    <       0.00154522 Ry

     iteration #  8     ecut=   150.00 Ry     beta= 0.70
     Davidson diagonalization with overlap
     ethr =  2.97E-06,  avg # of iterations =  4.4

     negative rho (up, down):  2.126E-04 0.000E+00

     total cpu time spent up to now is      485.2 secs

     total energy              =    -979.50882855 Ry
     estimated scf accuracy    <       0.00036219 Ry

     iteration #  9     ecut=   150.00 Ry     beta= 0.70
     Davidson diagonalization with overlap
     ethr =  6.97E-07,  avg # of iterations =  2.8

     negative rho (up, down):  2.135E-04 0.000E+00

     total cpu time spent up to now is      525.8 secs

     total energy              =    -979.50885039 Ry
     estimated scf accuracy    <       0.00006128 Ry

     iteration # 10     ecut=   150.00 Ry     beta= 0.70
     Davidson diagonalization with overlap
     ethr =  1.18E-07,  avg # of iterations =  5.1

     negative rho (up, down):  2.136E-04 0.000E+00

     total cpu time spent up to now is      581.1 secs

     total energy              =    -979.50887208 Ry
     estimated scf accuracy    <       0.00007093 Ry

     iteration # 11     ecut=   150.00 Ry     beta= 0.70
     Davidson diagonalization with overlap
     ethr =  1.18E-07,  avg # of iterations =  1.9

     negative rho (up, down):  2.136E-04 0.000E+00

     total cpu time spent up to now is      618.4 secs

     total energy              =    -979.50887318 Ry
     estimated scf accuracy    <       0.00003170 Ry

     iteration # 12     ecut=   150.00 Ry     beta= 0.70
     Davidson diagonalization with overlap
     ethr =  6.10E-08,  avg # of iterations =  1.9

     negative rho (up, down):  2.136E-04 0.000E+00

     total cpu time spent up to now is      655.1 secs

     total energy              =    -979.50887335 Ry
     estimated scf accuracy    <       0.00001597 Ry

     iteration # 13     ecut=   150.00 Ry     beta= 0.70
     Davidson diagonalization with overlap
     ethr =  3.07E-08,  avg # of iterations =  4.0

     negative rho (up, down):  2.136E-04 0.000E+00

     total cpu time spent up to now is      697.7 secs

     total energy              =    -979.50887449 Ry
     estimated scf accuracy    <       0.00000433 Ry

     iteration # 14     ecut=   150.00 Ry     beta= 0.70
     Davidson diagonalization with overlap
     ethr =  8.33E-09,  avg # of iterations =  4.2

     negative rho (up, down):  2.136E-04 0.000E+00

     total cpu time spent up to now is      742.9 secs

     total energy              =    -979.50887503 Ry
     estimated scf accuracy    <       0.00000068 Ry

     iteration # 15     ecut=   150.00 Ry     beta= 0.70
     Davidson diagonalization with overlap
     ethr =  1.30E-09,  avg # of iterations =  4.9

     negative rho (up, down):  2.137E-04 0.000E+00

     total cpu time spent up to now is      794.1 secs

     total energy              =    -979.50887520 Ry
     estimated scf accuracy    <       0.00000049 Ry

     iteration # 16     ecut=   150.00 Ry     beta= 0.70
     Davidson diagonalization with overlap
     ethr =  9.39E-10,  avg # of iterations =  1.0

     negative rho (up, down):  2.137E-04 0.000E+00

     total cpu time spent up to now is      828.0 secs

     total energy              =    -979.50887522 Ry
     estimated scf accuracy    <       0.00000030 Ry

     iteration # 17     ecut=   150.00 Ry     beta= 0.70
     Davidson diagonalization with overlap
     ethr =  5.75E-10,  avg # of iterations =  2.8

     negative rho (up, down):  2.137E-04 0.000E+00

     total cpu time spent up to now is      871.0 secs

     total energy              =    -979.50887519 Ry
     estimated scf accuracy    <       0.00000038 Ry

     iteration # 18     ecut=   150.00 Ry     beta= 0.70
     Davidson diagonalization with overlap
     ethr =  5.75E-10,  avg # of iterations =  1.8

     negative rho (up, down):  2.137E-04 0.000E+00

     total cpu time spent up to now is      907.4 secs

     total energy              =    -979.50887519 Ry
     estimated scf accuracy    <       0.00000015 Ry

     iteration # 19     ecut=   150.00 Ry     beta= 0.70
     Davidson diagonalization with overlap
     ethr =  2.97E-10,  avg # of iterations =  2.0

     negative rho (up, down):  2.137E-04 0.000E+00

     total cpu time spent up to now is      944.0 secs

     total energy              =    -979.50887518 Ry
     estimated scf accuracy    <       0.00000008 Ry

     iteration # 20     ecut=   150.00 Ry     beta= 0.70
     Davidson diagonalization with overlap
     ethr =  1.45E-10,  avg # of iterations =  4.7

     negative rho (up, down):  2.137E-04 0.000E+00

     total cpu time spent up to now is      995.6 secs

     total energy              =    -979.50887520 Ry
     estimated scf accuracy    <       0.00000002 Ry

     iteration # 21     ecut=   150.00 Ry     beta= 0.70
     Davidson diagonalization with overlap
     ethr =  3.20E-11,  avg # of iterations =  3.9

     negative rho (up, down):  2.137E-04 0.000E+00

     total cpu time spent up to now is     1038.9 secs

     total energy              =    -979.50887520 Ry
     estimated scf accuracy    <       0.00000002 Ry

     iteration # 22     ecut=   150.00 Ry     beta= 0.70
     Davidson diagonalization with overlap
     ethr =  3.20E-11,  avg # of iterations =  2.7

     negative rho (up, down):  2.137E-04 0.000E+00

     total cpu time spent up to now is     1080.8 secs

     total energy              =    -979.50887520 Ry
     estimated scf accuracy    <          1.6E-09 Ry

     iteration # 23     ecut=   150.00 Ry     beta= 0.70
     Davidson diagonalization with overlap
     ethr =  3.04E-12,  avg # of iterations =  5.1

     negative rho (up, down):  2.137E-04 0.000E+00

     total cpu time spent up to now is     1138.3 secs

     total energy              =    -979.50887520 Ry
     estimated scf accuracy    <          1.5E-09 Ry

     iteration # 24     ecut=   150.00 Ry     beta= 0.70
     Davidson diagonalization with overlap
     ethr =  2.80E-12,  avg # of iterations =  2.0

     negative rho (up, down):  2.137E-04 0.000E+00

     total cpu time spent up to now is     1175.9 secs

     total energy              =    -979.50887520 Ry
     estimated scf accuracy    <          3.0E-10 Ry

     iteration # 25     ecut=   150.00 Ry     beta= 0.70
     Davidson diagonalization with overlap
     ethr =  5.70E-13,  avg # of iterations =  5.9

     negative rho (up, down):  2.137E-04 0.000E+00

     total cpu time spent up to now is     1236.4 secs

     total energy              =    -979.50887520 Ry
     estimated scf accuracy    <          6.0E-10 Ry

     iteration # 26     ecut=   150.00 Ry     beta= 0.70
     Davidson diagonalization with overlap
     ethr =  5.70E-13,  avg # of iterations =  1.6

     negative rho (up, down):  2.137E-04 0.000E+00

     total cpu time spent up to now is     1272.0 secs

     total energy              =    -979.50887520 Ry
     estimated scf accuracy    <          3.1E-10 Ry

     iteration # 27     ecut=   150.00 Ry     beta= 0.70
     Davidson diagonalization with overlap
     ethr =  5.70E-13,  avg # of iterations =  3.5

     negative rho (up, down):  2.137E-04 0.000E+00

     total cpu time spent up to now is     1315.8 secs

     total energy              =    -979.50887520 Ry
     estimated scf accuracy    <          2.0E-11 Ry

     iteration # 28     ecut=   150.00 Ry     beta= 0.70
     Davidson diagonalization with overlap
     ethr =  1.00E-13,  avg # of iterations =  4.9

     negative rho (up, down):  2.137E-04 0.000E+00

     total cpu time spent up to now is     1368.1 secs

     total energy              =    -979.50887520 Ry
     estimated scf accuracy    <          3.0E-11 Ry

     iteration # 29     ecut=   150.00 Ry     beta= 0.70
     Davidson diagonalization with overlap
     ethr =  1.00E-13,  avg # of iterations =  2.1

     negative rho (up, down):  2.137E-04 0.000E+00

     total cpu time spent up to now is     1405.6 secs

     total energy              =    -979.50887520 Ry
     estimated scf accuracy    <          3.2E-12 Ry

     iteration # 30     ecut=   150.00 Ry     beta= 0.70
     Davidson diagonalization with overlap
     ethr =  1.00E-13,  avg # of iterations =  2.8

     negative rho (up, down):  2.137E-04 0.000E+00

     total cpu time spent up to now is     1444.8 secs

     total energy              =    -979.50887520 Ry
     estimated scf accuracy    <          3.9E-12 Ry

     iteration # 31     ecut=   150.00 Ry     beta= 0.70
     Davidson diagonalization with overlap
     ethr =  1.00E-13,  avg # of iterations =  1.0

     negative rho (up, down):  2.137E-04 0.000E+00

     total cpu time spent up to now is     1478.6 secs

     total energy              =    -979.50887520 Ry
     estimated scf accuracy    <          4.9E-12 Ry

     iteration # 32     ecut=   150.00 Ry     beta= 0.70
     Davidson diagonalization with overlap
     ethr =  1.00E-13,  avg # of iterations =  1.0

     negative rho (up, down):  2.137E-04 0.000E+00

     total cpu time spent up to now is     1512.5 secs

     total energy              =    -979.50887520 Ry
     estimated scf accuracy    <          5.7E-12 Ry

     iteration # 33     ecut=   150.00 Ry     beta= 0.70
     Davidson diagonalization with overlap
     ethr =  1.00E-13,  avg # of iterations =  1.0

     negative rho (up, down):  2.137E-04 0.000E+00

     total cpu time spent up to now is     1546.4 secs

     total energy              =    -979.50887520 Ry
     estimated scf accuracy    <          2.5E-12 Ry

     iteration # 34     ecut=   150.00 Ry     beta= 0.70
     Davidson diagonalization with overlap
     ethr =  1.00E-13,  avg # of iterations =  1.0

     negative rho (up, down):  2.137E-04 0.000E+00

     total cpu time spent up to now is     1580.2 secs

     total energy              =    -979.50887520 Ry
     estimated scf accuracy    <          1.1E-12 Ry

     iteration # 35     ecut=   150.00 Ry     beta= 0.70
     Davidson diagonalization with overlap
     ethr =  1.00E-13,  avg # of iterations =  1.0

     negative rho (up, down):  2.137E-04 0.000E+00

     total cpu time spent up to now is     1614.0 secs

     End of self-consistent calculation

     Number of k-points >= 100: set verbosity='high' to print the bands.

     highest occupied level (ev):     1.8012

!    total energy              =    -979.50887520 Ry

     total all-electron energy =    -19376.424566 Ry
     estimated scf accuracy    <          8.9E-13 Ry

     The total energy is the sum of the following terms:
     one-electron contribution =   -2709.98560549 Ry
     hartree contribution      =    1364.89905554 Ry
     xc contribution           =     -58.81521156 Ry
     ewald contribution        =    1050.15108494 Ry
     one-center paw contrib.   =    -625.75819863 Ry

     convergence has been achieved in  35 iterations

     negative rho (up, down):  2.137E-04 0.000E+00

     Forces acting on atoms (cartesian axes, Ry/au):

     atom    1 type  1   force =     0.00001368   -0.00005927   -0.00000385
     atom    2 type  2   force =    -0.00000603    0.00002629   -0.03006486
     atom    3 type  2   force =    -0.00000770    0.00003332    0.03045226
     atom    4 type  1   force =    -0.00001368    0.00005927    0.00000385
     atom    5 type  2   force =     0.00000770   -0.00003332   -0.03045226
     atom    6 type  2   force =     0.00000603   -0.00002629    0.03006486

     Total force =     0.060518     Total SCF correction =     0.000002


     Computing stress (Cartesian axis) and pressure


     negative rho (up, down):  2.137E-04 0.000E+00
          total   stress  (Ry/bohr**3)                   (kbar)     P=      -31.95
  -0.00020758   0.00000008   0.00000001          -30.54        0.01        0.00
   0.00000008  -0.00020695  -0.00000003            0.01      -30.44       -0.00
   0.00000001  -0.00000003  -0.00023703            0.00       -0.00      -34.87


     Writing output data file /scratch/as3359/Mos2_ct_lat/MoS2.save/
 
     init_run     :     51.77s CPU     28.22s WALL (       1 calls)
     electrons    :   3123.47s CPU   1585.72s WALL (       1 calls)
     forces       :     13.02s CPU      6.57s WALL (       1 calls)
     stress       :     47.18s CPU     23.90s WALL (       1 calls)

     Called by init_run:
     wfcinit      :     41.57s CPU     21.43s WALL (       1 calls)
     potinit      :      3.37s CPU      1.98s WALL (       1 calls)
     hinit0       :      5.50s CPU      4.04s WALL (       1 calls)

     Called by electrons:
     c_bands      :   2637.22s CPU   1335.17s WALL (      35 calls)
     sum_band     :    452.73s CPU    231.39s WALL (      35 calls)
     v_of_rho     :      8.14s CPU      4.40s WALL (      36 calls)
     newd         :     14.58s CPU      8.94s WALL (      36 calls)
     PAW_pot      :      8.22s CPU      4.27s WALL (      36 calls)
     mix_rho      :      3.22s CPU      1.87s WALL (      35 calls)

     Called by c_bands:
     init_us_2    :     60.36s CPU     30.21s WALL (    8249 calls)
     cegterg      :   2488.36s CPU   1260.14s WALL (    3955 calls)

     Called by *egterg:
     cdiaghg      :     19.29s CPU      9.88s WALL (   16876 calls)
     h_psi        :   2049.62s CPU   1040.12s WALL (   16989 calls)
     s_psi        :    101.34s CPU     50.77s WALL (   16989 calls)
     g_psi        :     13.42s CPU      6.73s WALL (   12921 calls)

     Called by h_psi:
     h_psi:calbec :     80.45s CPU     40.30s WALL (   16989 calls)
     vloc_psi     :   1844.55s CPU    937.24s WALL (   16989 calls)
     add_vuspsi   :    107.98s CPU     54.09s WALL (   16989 calls)

     General routines
     calbec       :    110.75s CPU     55.52s WALL (   21509 calls)
     fft          :      3.93s CPU      2.33s WALL (     421 calls)
     ffts         :      0.24s CPU      0.13s WALL (      35 calls)
     fftw         :   1883.24s CPU    958.20s WALL (  666170 calls)
 
     Parallel routines
 
     PWSCF        :  54m 1.49s CPU  27m29.93s WALL

 
   This run was terminated on:  20:57:51  17Apr2022            

=------------------------------------------------------------------------------=
   JOB DONE.
=------------------------------------------------------------------------------=
