
     Program PWSCF v.6.8 starts on 17Apr2022 at 14:41:10 

     This program is part of the open-source Quantum ESPRESSO suite
     for quantum simulation of materials; please cite
         "P. Giannozzi et al., J. Phys.:Condens. Matter 21 395502 (2009);
         "P. Giannozzi et al., J. Phys.:Condens. Matter 29 465901 (2017);
         "P. Giannozzi et al., J. Chem. Phys. 152 154105 (2020);
          URL http://www.quantum-espresso.org", 
     in publications or presentations arising from this work. More details at
     http://www.quantum-espresso.org/quote

     Parallel version (MPI & OpenMP), running on       4 processor cores
     Number of MPI processes:                 2
     Threads/MPI process:                     2

     MPI processes distributed on     1 nodes
     R & G space division:  proc/nbgrp/npool/nimage =       2
     125009 MiB available memory on the printing compute node when the environment starts
 
     Reading input from MoS2.scf.6.030.in
Warning: card  &CELL ignored
Warning: card     CELL_DYNAMICS='BFGS' ignored
Warning: card  / ignored

     Current dimensions of program PWSCF are:
     Max number of different atomic species (ntypx) = 10
     Max number of k-points (npk) =  40000
     Max angular momentum in pseudopotentials (lmaxx) =  4
     Message from routine iosys:
     restart disabled: needed files not found
     file Mo.pbesol-spn-kjpaw_psl.1.0.0.UPF: wavefunction(s)  4S 4D renormalized
     file S.pbesol-nl-kjpaw_psl.1.0.0.UPF: wavefunction(s)  3S renormalized
     Message from routine setup:
     using ibrav=0 with symmetry is DISCOURAGED, use correct ibrav instead

     Subspace diagonalization in iterative solution of the eigenvalue problem:
     a serial algorithm will be used

 
     Parallelization info
     --------------------
     sticks:   dense  smooth     PW     G-vecs:    dense   smooth      PW
     Min         708     708    210               179830   179830   28464
     Max         709     709    211               179879   179879   28499
     Sum        1417    1417    421               359709   359709   56963
 
     Using Slab Decomposition
 


     bravais-lattice index     =            0
     lattice parameter (alat)  =       6.0300  a.u.
     unit-cell volume          =    1450.7490 (a.u.)^3
     number of atoms/cell      =            6
     number of atomic types    =            2
     number of electrons       =        52.00
     number of Kohn-Sham states=           26
     kinetic-energy cutoff     =     150.0000  Ry
     charge density cutoff     =     600.0000  Ry
     scf convergence threshold =      1.0E-12
     mixing beta               =       0.7000
     number of iterations used =            8  plain     mixing
     Exchange-correlation= SLA  PW   PSX  PSC
                           (   1   4  10   8   0   0   0)

     celldm(1)=   6.030000  celldm(2)=   0.000000  celldm(3)=   0.000000
     celldm(4)=   0.000000  celldm(5)=   0.000000  celldm(6)=   0.000000

     crystal axes: (cart. coord. in units of alat)
               a(1) = (   0.977326  -0.000176   0.000000 )  
               a(2) = (  -0.488540   0.846362   0.000000 )  
               a(3) = (   0.000000   0.000000   8.000000 )  

     reciprocal axes: (cart. coord. in units 2 pi/alat)
               b(1) = (  1.023307  0.590676  0.000000 )  
               b(2) = (  0.000213  1.181651  0.000000 )  
               b(3) = (  0.000000  0.000000  0.125000 )  


     PseudoPot. # 1 for Mo read from file:
     /shared/home/as3359/pseudo/Mo.pbesol-spn-kjpaw_psl.1.0.0.UPF
     MD5 check sum: de57925cfc675213e43241dcc441eda8
     Pseudo is Projector augmented-wave + core cor, Zval = 14.0
     Generated using &quot;atomic&quot; code by A. Dal Corso  v.6.3
     Shape of augmentation charge: PSQ
     Using radial grid of 1229 points,  6 beta functions with: 
                l(1) =   0
                l(2) =   0
                l(3) =   1
                l(4) =   1
                l(5) =   2
                l(6) =   2
     Q(r) pseudized with 0 coefficients 


     PseudoPot. # 2 for S  read from file:
     /shared/home/as3359/pseudo/S.pbesol-nl-kjpaw_psl.1.0.0.UPF
     MD5 check sum: bf3db50ec3f960682bbc396f1aadd1dd
     Pseudo is Projector augmented-wave + core cor, Zval =  6.0
     Generated using &quot;atomic&quot; code by A. Dal Corso  v.6.3
     Shape of augmentation charge: PSQ
     Using radial grid of 1151 points,  4 beta functions with: 
                l(1) =   0
                l(2) =   0
                l(3) =   1
                l(4) =   1
     Q(r) pseudized with 0 coefficients 


     atomic species   valence    mass     pseudopotential
        Mo            14.00    95.94000     Mo( 1.00)
        S              6.00    32.06500     S ( 1.00)

      2 Sym. Ops., with inversion, found ( 1 have fractional translation)



   Cartesian axes

     site n.     atom                  positions (alat units)
         1           Mo  tau(   1) = (   0.0000000   0.0000000   0.9844997  )
         2           S   tau(   2) = (   0.4887119   0.2819702   1.4701535  )
         3           S   tau(   3) = (   0.4887135   0.2819635   0.4988906  )
         4           Mo  tau(   4) = (   0.0000000   0.0000000   3.0155003  )
         5           S   tau(   5) = (  -0.4887135  -0.2819635   3.5011094  )
         6           S   tau(   6) = (  -0.4887119  -0.2819702   2.5298465  )

     number of k points=   113

     Number of k-points >= 100: set verbosity='high' to print them.

     Dense  grid:   359709 G-vectors     FFT dimensions: (  45,  45, 384)

     Estimated max dynamical RAM per process >       1.66 GB

     Estimated total dynamical RAM >       3.33 GB
     Cannot read rho : file not found

     Initial potential from superposition of free atoms

     starting charge   51.99828, renormalised to   52.00000

     negative rho (up, down):  1.532E-04 0.000E+00
     Message from routine qexsd_readschema :
     xml data file /scratch/as3359/Mos2_ct_lat/MoS2.save/data-file-schema.xml not fou
     Cannot read wfcs: file not found
     Starting wfcs are   36 randomized atomic wfcs
     Checking if some PAW data can be deallocated... 

     total cpu time spent up to now is       27.6 secs

     Self-consistent Calculation

     iteration #  1     ecut=   150.00 Ry     beta= 0.70
     Davidson diagonalization with overlap
     ethr =  1.00E-05,  avg # of iterations = 10.5

     negative rho (up, down):  1.983E-04 0.000E+00

     total cpu time spent up to now is      148.9 secs

     total energy              =    -979.36861194 Ry
     estimated scf accuracy    <       0.31601777 Ry

     iteration #  2     ecut=   150.00 Ry     beta= 0.70
     Davidson diagonalization with overlap
     ethr =  6.08E-04,  avg # of iterations =  5.1

     negative rho (up, down):  1.862E-04 0.000E+00

     total cpu time spent up to now is      210.0 secs

     total energy              =    -979.27547438 Ry
     estimated scf accuracy    <       1.24803036 Ry

     iteration #  3     ecut=   150.00 Ry     beta= 0.70
     Davidson diagonalization with overlap
     ethr =  6.08E-04,  avg # of iterations =  5.4

     negative rho (up, down):  1.871E-04 0.000E+00

     total cpu time spent up to now is      269.5 secs

     total energy              =    -979.50146549 Ry
     estimated scf accuracy    <       0.08302907 Ry

     iteration #  4     ecut=   150.00 Ry     beta= 0.70
     Davidson diagonalization with overlap
     ethr =  1.60E-04,  avg # of iterations =  3.0

     negative rho (up, down):  1.885E-04 0.000E+00

     total cpu time spent up to now is      315.3 secs

     total energy              =    -979.50875845 Ry
     estimated scf accuracy    <       0.02716424 Ry

     iteration #  5     ecut=   150.00 Ry     beta= 0.70
     Davidson diagonalization with overlap
     ethr =  5.22E-05,  avg # of iterations =  3.8

     negative rho (up, down):  1.971E-04 0.000E+00

     total cpu time spent up to now is      363.6 secs

     total energy              =    -979.51423042 Ry
     estimated scf accuracy    <       0.00763494 Ry

     iteration #  6     ecut=   150.00 Ry     beta= 0.70
     Davidson diagonalization with overlap
     ethr =  1.47E-05,  avg # of iterations =  2.8

     negative rho (up, down):  2.007E-04 0.000E+00

     total cpu time spent up to now is      407.2 secs

     total energy              =    -979.51485751 Ry
     estimated scf accuracy    <       0.00110221 Ry

     iteration #  7     ecut=   150.00 Ry     beta= 0.70
     Davidson diagonalization with overlap
     ethr =  2.12E-06,  avg # of iterations =  4.8

     negative rho (up, down):  2.026E-04 0.000E+00

     total cpu time spent up to now is      460.8 secs

     total energy              =    -979.51512395 Ry
     estimated scf accuracy    <       0.00080985 Ry

     iteration #  8     ecut=   150.00 Ry     beta= 0.70
     Davidson diagonalization with overlap
     ethr =  1.56E-06,  avg # of iterations =  2.0

     negative rho (up, down):  2.039E-04 0.000E+00

     total cpu time spent up to now is      500.2 secs

     total energy              =    -979.51512529 Ry
     estimated scf accuracy    <       0.00020478 Ry

     iteration #  9     ecut=   150.00 Ry     beta= 0.70
     Davidson diagonalization with overlap
     ethr =  3.94E-07,  avg # of iterations =  4.5

     negative rho (up, down):  2.040E-04 0.000E+00

     total cpu time spent up to now is      553.1 secs

     total energy              =    -979.51518622 Ry
     estimated scf accuracy    <       0.00010003 Ry

     iteration # 10     ecut=   150.00 Ry     beta= 0.70
     Davidson diagonalization with overlap
     ethr =  1.92E-07,  avg # of iterations =  1.0

     negative rho (up, down):  2.040E-04 0.000E+00

     total cpu time spent up to now is      588.8 secs

     total energy              =    -979.51516466 Ry
     estimated scf accuracy    <       0.00007521 Ry

     iteration # 11     ecut=   150.00 Ry     beta= 0.70
     Davidson diagonalization with overlap
     ethr =  1.45E-07,  avg # of iterations =  3.2

     negative rho (up, down):  2.040E-04 0.000E+00

     total cpu time spent up to now is      635.3 secs

     total energy              =    -979.51518023 Ry
     estimated scf accuracy    <       0.00000304 Ry

     iteration # 12     ecut=   150.00 Ry     beta= 0.70
     Davidson diagonalization with overlap
     ethr =  5.85E-09,  avg # of iterations =  4.7

     negative rho (up, down):  2.040E-04 0.000E+00

     total cpu time spent up to now is      686.1 secs

     total energy              =    -979.51518070 Ry
     estimated scf accuracy    <       0.00000238 Ry

     iteration # 13     ecut=   150.00 Ry     beta= 0.70
     Davidson diagonalization with overlap
     ethr =  4.58E-09,  avg # of iterations =  1.4

     negative rho (up, down):  2.041E-04 0.000E+00

     total cpu time spent up to now is      722.6 secs

     total energy              =    -979.51518027 Ry
     estimated scf accuracy    <       0.00000120 Ry

     iteration # 14     ecut=   150.00 Ry     beta= 0.70
     Davidson diagonalization with overlap
     ethr =  2.31E-09,  avg # of iterations =  4.7

     negative rho (up, down):  2.041E-04 0.000E+00

     total cpu time spent up to now is      775.8 secs

     total energy              =    -979.51518078 Ry
     estimated scf accuracy    <       0.00000073 Ry

     iteration # 15     ecut=   150.00 Ry     beta= 0.70
     Davidson diagonalization with overlap
     ethr =  1.40E-09,  avg # of iterations =  1.0

     negative rho (up, down):  2.041E-04 0.000E+00

     total cpu time spent up to now is      811.4 secs

     total energy              =    -979.51518068 Ry
     estimated scf accuracy    <       0.00000060 Ry

     iteration # 16     ecut=   150.00 Ry     beta= 0.70
     Davidson diagonalization with overlap
     ethr =  1.15E-09,  avg # of iterations =  2.1

     negative rho (up, down):  2.041E-04 0.000E+00

     total cpu time spent up to now is      850.0 secs

     total energy              =    -979.51518067 Ry
     estimated scf accuracy    <       0.00000016 Ry

     iteration # 17     ecut=   150.00 Ry     beta= 0.70
     Davidson diagonalization with overlap
     ethr =  3.16E-10,  avg # of iterations =  4.5

     negative rho (up, down):  2.041E-04 0.000E+00

     total cpu time spent up to now is      902.4 secs

     total energy              =    -979.51518071 Ry
     estimated scf accuracy    <       0.00000002 Ry

     iteration # 18     ecut=   150.00 Ry     beta= 0.70
     Davidson diagonalization with overlap
     ethr =  4.44E-11,  avg # of iterations =  2.7

     negative rho (up, down):  2.041E-04 0.000E+00

     total cpu time spent up to now is      946.4 secs

     total energy              =    -979.51518071 Ry
     estimated scf accuracy    <          3.5E-09 Ry

     iteration # 19     ecut=   150.00 Ry     beta= 0.70
     Davidson diagonalization with overlap
     ethr =  6.83E-12,  avg # of iterations =  7.7

     negative rho (up, down):  2.041E-04 0.000E+00

     total cpu time spent up to now is     1031.7 secs

     total energy              =    -979.51518071 Ry
     estimated scf accuracy    <       0.00000012 Ry

     iteration # 20     ecut=   150.00 Ry     beta= 0.70
     Davidson diagonalization with overlap
     ethr =  6.83E-12,  avg # of iterations =  5.5

     negative rho (up, down):  2.041E-04 0.000E+00

     total cpu time spent up to now is     1092.3 secs

     total energy              =    -979.51518071 Ry
     estimated scf accuracy    <       0.00000003 Ry

     iteration # 21     ecut=   150.00 Ry     beta= 0.70
     Davidson diagonalization with overlap
     ethr =  6.83E-12,  avg # of iterations =  5.7

     negative rho (up, down):  2.041E-04 0.000E+00

     total cpu time spent up to now is     1159.7 secs

     total energy              =    -979.51518071 Ry
     estimated scf accuracy    <          8.8E-10 Ry

     iteration # 22     ecut=   150.00 Ry     beta= 0.70
     Davidson diagonalization with overlap
     ethr =  1.68E-12,  avg # of iterations =  2.1

     negative rho (up, down):  2.041E-04 0.000E+00

     total cpu time spent up to now is     1199.4 secs

     total energy              =    -979.51518071 Ry
     estimated scf accuracy    <          2.4E-10 Ry

     iteration # 23     ecut=   150.00 Ry     beta= 0.70
     Davidson diagonalization with overlap
     ethr =  4.70E-13,  avg # of iterations =  2.9

     negative rho (up, down):  2.041E-04 0.000E+00

     total cpu time spent up to now is     1240.8 secs

     total energy              =    -979.51518071 Ry
     estimated scf accuracy    <          8.5E-11 Ry

     iteration # 24     ecut=   150.00 Ry     beta= 0.70
     Davidson diagonalization with overlap
     ethr =  1.63E-13,  avg # of iterations =  5.1

     negative rho (up, down):  2.041E-04 0.000E+00

     total cpu time spent up to now is     1298.2 secs

     total energy              =    -979.51518071 Ry
     estimated scf accuracy    <          4.4E-11 Ry

     iteration # 25     ecut=   150.00 Ry     beta= 0.70
     Davidson diagonalization with overlap
     ethr =  1.00E-13,  avg # of iterations =  1.0

     negative rho (up, down):  2.041E-04 0.000E+00

     total cpu time spent up to now is     1333.8 secs

     total energy              =    -979.51518071 Ry
     estimated scf accuracy    <          3.8E-11 Ry

     iteration # 26     ecut=   150.00 Ry     beta= 0.70
     Davidson diagonalization with overlap
     ethr =  1.00E-13,  avg # of iterations =  1.5

     negative rho (up, down):  2.041E-04 0.000E+00

     total cpu time spent up to now is     1370.6 secs

     total energy              =    -979.51518071 Ry
     estimated scf accuracy    <          1.2E-11 Ry

     iteration # 27     ecut=   150.00 Ry     beta= 0.70
     Davidson diagonalization with overlap
     ethr =  1.00E-13,  avg # of iterations =  1.0

     negative rho (up, down):  2.041E-04 0.000E+00

     total cpu time spent up to now is     1406.2 secs

     total energy              =    -979.51518071 Ry
     estimated scf accuracy    <          5.2E-12 Ry

     iteration # 28     ecut=   150.00 Ry     beta= 0.70
     Davidson diagonalization with overlap
     ethr =  1.00E-13,  avg # of iterations =  1.0

     negative rho (up, down):  2.041E-04 0.000E+00

     total cpu time spent up to now is     1441.9 secs

     total energy              =    -979.51518071 Ry
     estimated scf accuracy    <          4.0E-12 Ry

     iteration # 29     ecut=   150.00 Ry     beta= 0.70
     Davidson diagonalization with overlap
     ethr =  1.00E-13,  avg # of iterations =  1.0

     negative rho (up, down):  2.041E-04 0.000E+00

     total cpu time spent up to now is     1477.4 secs

     total energy              =    -979.51518071 Ry
     estimated scf accuracy    <          1.9E-12 Ry

     iteration # 30     ecut=   150.00 Ry     beta= 0.70
     Davidson diagonalization with overlap
     ethr =  1.00E-13,  avg # of iterations =  1.0

     negative rho (up, down):  2.041E-04 0.000E+00

     total cpu time spent up to now is     1513.0 secs

     End of self-consistent calculation

     Number of k-points >= 100: set verbosity='high' to print the bands.

     highest occupied level (ev):     2.3605

!    total energy              =    -979.51518071 Ry

     total all-electron energy =    -19376.430871 Ry
     estimated scf accuracy    <          4.0E-13 Ry

     The total energy is the sum of the following terms:
     one-electron contribution =   -2760.11516174 Ry
     hartree contribution      =    1391.01624981 Ry
     xc contribution           =     -59.16106990 Ry
     ewald contribution        =    1074.53270217 Ry
     one-center paw contrib.   =    -625.78790105 Ry

     convergence has been achieved in  30 iterations

     negative rho (up, down):  2.041E-04 0.000E+00

     Forces acting on atoms (cartesian axes, Ry/au):

     atom    1 type  1   force =     0.00001307   -0.00005828    0.00000032
     atom    2 type  2   force =    -0.00000564    0.00002526    0.01372217
     atom    3 type  2   force =    -0.00000764    0.00003364   -0.01395185
     atom    4 type  1   force =    -0.00001307    0.00005828   -0.00000032
     atom    5 type  2   force =     0.00000764   -0.00003364    0.01395185
     atom    6 type  2   force =     0.00000564   -0.00002526   -0.01372217

     Total force =     0.027675     Total SCF correction =     0.000003


     Computing stress (Cartesian axis) and pressure


     negative rho (up, down):  2.041E-04 0.000E+00
          total   stress  (Ry/bohr**3)                   (kbar)     P=       16.90
   0.00011544   0.00000009   0.00000001           16.98        0.01        0.00
   0.00000009   0.00011615  -0.00000004            0.01       17.09       -0.01
   0.00000001  -0.00000004   0.00011305            0.00       -0.01       16.63


     Writing output data file /scratch/as3359/Mos2_ct_lat/MoS2.save/
 
     init_run     :     51.05s CPU     27.43s WALL (       1 calls)
     electrons    :   2933.37s CPU   1485.51s WALL (       1 calls)
     forces       :     11.94s CPU      6.03s WALL (       1 calls)
     stress       :     46.58s CPU     23.61s WALL (       1 calls)

     Called by init_run:
     wfcinit      :     42.67s CPU     21.94s WALL (       1 calls)
     potinit      :      2.21s CPU      1.12s WALL (       1 calls)
     hinit0       :      5.13s CPU      3.76s WALL (       1 calls)

     Called by electrons:
     c_bands      :   2489.03s CPU   1257.58s WALL (      30 calls)
     sum_band     :    417.62s CPU    212.65s WALL (      30 calls)
     v_of_rho     :      6.01s CPU      3.26s WALL (      31 calls)
     newd         :     11.51s CPU      7.06s WALL (      31 calls)
     PAW_pot      :      7.03s CPU      3.65s WALL (      31 calls)
     mix_rho      :      2.52s CPU      1.46s WALL (      30 calls)

     Called by c_bands:
     init_us_2    :     49.60s CPU     24.83s WALL (    7119 calls)
     cegterg      :   2368.06s CPU   1196.58s WALL (    3390 calls)

     Called by *egterg:
     cdiaghg      :     17.77s CPU      9.10s WALL (   14991 calls)
     h_psi        :   2022.81s CPU   1023.54s WALL (   15104 calls)
     s_psi        :     81.23s CPU     40.70s WALL (   15104 calls)
     g_psi        :     13.86s CPU      6.95s WALL (   11601 calls)

     Called by h_psi:
     h_psi:calbec :     68.63s CPU     34.38s WALL (   15104 calls)
     vloc_psi     :   1858.01s CPU    940.81s WALL (   15104 calls)
     add_vuspsi   :     81.95s CPU     41.07s WALL (   15104 calls)

     General routines
     calbec       :     95.17s CPU     47.72s WALL (   19059 calls)
     fft          :      3.15s CPU      1.90s WALL (     366 calls)
     ffts         :      0.19s CPU      0.10s WALL (      30 calls)
     fftw         :   1953.35s CPU    989.78s WALL (  604122 calls)
 
     Parallel routines
 
     PWSCF        :  50m48.90s CPU  25m48.09s WALL

 
   This run was terminated on:  15: 6:59  17Apr2022            

=------------------------------------------------------------------------------=
   JOB DONE.
=------------------------------------------------------------------------------=
