
     Program PWSCF v.6.8 starts on 17Apr2022 at 19:46:55 

     This program is part of the open-source Quantum ESPRESSO suite
     for quantum simulation of materials; please cite
         "P. Giannozzi et al., J. Phys.:Condens. Matter 21 395502 (2009);
         "P. Giannozzi et al., J. Phys.:Condens. Matter 29 465901 (2017);
         "P. Giannozzi et al., J. Chem. Phys. 152 154105 (2020);
          URL http://www.quantum-espresso.org", 
     in publications or presentations arising from this work. More details at
     http://www.quantum-espresso.org/quote

     Parallel version (MPI & OpenMP), running on       4 processor cores
     Number of MPI processes:                 2
     Threads/MPI process:                     2

     MPI processes distributed on     1 nodes
     R & G space division:  proc/nbgrp/npool/nimage =       2
     124978 MiB available memory on the printing compute node when the environment starts
 
     Reading input from MoS2.scf.6.150.in
Warning: card  &CELL ignored
Warning: card     CELL_DYNAMICS='BFGS' ignored
Warning: card  / ignored

     Current dimensions of program PWSCF are:
     Max number of different atomic species (ntypx) = 10
     Max number of k-points (npk) =  40000
     Max angular momentum in pseudopotentials (lmaxx) =  4
     Message from routine iosys:
     restart disabled: needed files not found
     file Mo.pbesol-spn-kjpaw_psl.1.0.0.UPF: wavefunction(s)  4S 4D renormalized
     file S.pbesol-nl-kjpaw_psl.1.0.0.UPF: wavefunction(s)  3S renormalized
     Message from routine setup:
     using ibrav=0 with symmetry is DISCOURAGED, use correct ibrav instead

     Subspace diagonalization in iterative solution of the eigenvalue problem:
     a serial algorithm will be used

 
     Parallelization info
     --------------------
     sticks:   dense  smooth     PW     G-vecs:    dense   smooth      PW
     Min         747     747    216               191063   191063   30078
     Max         748     748    217               191070   191070   30093
     Sum        1495    1495    433               382133   382133   60171
 
     Using Slab Decomposition
 


     bravais-lattice index     =            0
     lattice parameter (alat)  =       6.1500  a.u.
     unit-cell volume          =    1539.0960 (a.u.)^3
     number of atoms/cell      =            6
     number of atomic types    =            2
     number of electrons       =        52.00
     number of Kohn-Sham states=           26
     kinetic-energy cutoff     =     150.0000  Ry
     charge density cutoff     =     600.0000  Ry
     scf convergence threshold =      1.0E-12
     mixing beta               =       0.7000
     number of iterations used =            8  plain     mixing
     Exchange-correlation= SLA  PW   PSX  PSC
                           (   1   4  10   8   0   0   0)

     celldm(1)=   6.150000  celldm(2)=   0.000000  celldm(3)=   0.000000
     celldm(4)=   0.000000  celldm(5)=   0.000000  celldm(6)=   0.000000

     crystal axes: (cart. coord. in units of alat)
               a(1) = (   0.977326  -0.000176   0.000000 )  
               a(2) = (  -0.488540   0.846362   0.000000 )  
               a(3) = (   0.000000   0.000000   8.000000 )  

     reciprocal axes: (cart. coord. in units 2 pi/alat)
               b(1) = (  1.023307  0.590676  0.000000 )  
               b(2) = (  0.000213  1.181651  0.000000 )  
               b(3) = (  0.000000  0.000000  0.125000 )  


     PseudoPot. # 1 for Mo read from file:
     /shared/home/as3359/pseudo/Mo.pbesol-spn-kjpaw_psl.1.0.0.UPF
     MD5 check sum: de57925cfc675213e43241dcc441eda8
     Pseudo is Projector augmented-wave + core cor, Zval = 14.0
     Generated using &quot;atomic&quot; code by A. Dal Corso  v.6.3
     Shape of augmentation charge: PSQ
     Using radial grid of 1229 points,  6 beta functions with: 
                l(1) =   0
                l(2) =   0
                l(3) =   1
                l(4) =   1
                l(5) =   2
                l(6) =   2
     Q(r) pseudized with 0 coefficients 


     PseudoPot. # 2 for S  read from file:
     /shared/home/as3359/pseudo/S.pbesol-nl-kjpaw_psl.1.0.0.UPF
     MD5 check sum: bf3db50ec3f960682bbc396f1aadd1dd
     Pseudo is Projector augmented-wave + core cor, Zval =  6.0
     Generated using &quot;atomic&quot; code by A. Dal Corso  v.6.3
     Shape of augmentation charge: PSQ
     Using radial grid of 1151 points,  4 beta functions with: 
                l(1) =   0
                l(2) =   0
                l(3) =   1
                l(4) =   1
     Q(r) pseudized with 0 coefficients 


     atomic species   valence    mass     pseudopotential
        Mo            14.00    95.94000     Mo( 1.00)
        S              6.00    32.06500     S ( 1.00)

      2 Sym. Ops., with inversion, found ( 1 have fractional translation)



   Cartesian axes

     site n.     atom                  positions (alat units)
         1           Mo  tau(   1) = (   0.0000000   0.0000000   0.9844997  )
         2           S   tau(   2) = (   0.4887119   0.2819702   1.4701535  )
         3           S   tau(   3) = (   0.4887135   0.2819635   0.4988906  )
         4           Mo  tau(   4) = (   0.0000000   0.0000000   3.0155003  )
         5           S   tau(   5) = (  -0.4887135  -0.2819635   3.5011094  )
         6           S   tau(   6) = (  -0.4887119  -0.2819702   2.5298465  )

     number of k points=   113

     Number of k-points >= 100: set verbosity='high' to print them.

     Dense  grid:   382133 G-vectors     FFT dimensions: (  48,  48, 384)

     Estimated max dynamical RAM per process >       1.77 GB

     Estimated total dynamical RAM >       3.54 GB
     Cannot read rho : file not found

     Initial potential from superposition of free atoms

     starting charge   51.99828, renormalised to   52.00000

     negative rho (up, down):  1.651E-04 0.000E+00
     Message from routine qexsd_readschema :
     xml data file /scratch/as3359/Mos2_ct_lat/MoS2.save/data-file-schema.xml not fou
     Cannot read wfcs: file not found
     Starting wfcs are   36 randomized atomic wfcs
     Checking if some PAW data can be deallocated... 

     total cpu time spent up to now is       27.0 secs

     Self-consistent Calculation

     iteration #  1     ecut=   150.00 Ry     beta= 0.70
     Davidson diagonalization with overlap
     ethr =  1.00E-05,  avg # of iterations = 10.4

     negative rho (up, down):  2.120E-04 0.000E+00

     total cpu time spent up to now is      139.6 secs

     total energy              =    -979.40335512 Ry
     estimated scf accuracy    <       0.25492295 Ry

     iteration #  2     ecut=   150.00 Ry     beta= 0.70
     Davidson diagonalization with overlap
     ethr =  4.90E-04,  avg # of iterations =  4.6

     negative rho (up, down):  2.045E-04 0.000E+00

     total cpu time spent up to now is      193.7 secs

     total energy              =    -979.35911425 Ry
     estimated scf accuracy    <       0.70959671 Ry

     iteration #  3     ecut=   150.00 Ry     beta= 0.70
     Davidson diagonalization with overlap
     ethr =  4.90E-04,  avg # of iterations =  5.2

     negative rho (up, down):  2.069E-04 0.000E+00

     total cpu time spent up to now is      248.2 secs

     total energy              =    -979.49604728 Ry
     estimated scf accuracy    <       0.11317983 Ry

     iteration #  4     ecut=   150.00 Ry     beta= 0.70
     Davidson diagonalization with overlap
     ethr =  2.18E-04,  avg # of iterations =  2.8

     negative rho (up, down):  2.078E-04 0.000E+00

     total cpu time spent up to now is      288.8 secs

     total energy              =    -979.50541254 Ry
     estimated scf accuracy    <       0.01729758 Ry

     iteration #  5     ecut=   150.00 Ry     beta= 0.70
     Davidson diagonalization with overlap
     ethr =  3.33E-05,  avg # of iterations =  4.8

     negative rho (up, down):  2.135E-04 0.000E+00

     total cpu time spent up to now is      339.9 secs

     total energy              =    -979.51022632 Ry
     estimated scf accuracy    <       0.02011675 Ry

     iteration #  6     ecut=   150.00 Ry     beta= 0.70
     Davidson diagonalization with overlap
     ethr =  3.33E-05,  avg # of iterations =  2.6

     negative rho (up, down):  2.156E-04 0.000E+00

     total cpu time spent up to now is      380.3 secs

     total energy              =    -979.51117081 Ry
     estimated scf accuracy    <       0.00530486 Ry

     iteration #  7     ecut=   150.00 Ry     beta= 0.70
     Davidson diagonalization with overlap
     ethr =  1.02E-05,  avg # of iterations =  3.0

     negative rho (up, down):  2.176E-04 0.000E+00

     total cpu time spent up to now is      421.9 secs

     total energy              =    -979.51163474 Ry
     estimated scf accuracy    <       0.00149276 Ry

     iteration #  8     ecut=   150.00 Ry     beta= 0.70
     Davidson diagonalization with overlap
     ethr =  2.87E-06,  avg # of iterations =  3.9

     negative rho (up, down):  2.192E-04 0.000E+00

     total cpu time spent up to now is      465.0 secs

     total energy              =    -979.51175667 Ry
     estimated scf accuracy    <       0.00051906 Ry

     iteration #  9     ecut=   150.00 Ry     beta= 0.70
     Davidson diagonalization with overlap
     ethr =  9.98E-07,  avg # of iterations =  3.4

     negative rho (up, down):  2.199E-04 0.000E+00

     total cpu time spent up to now is      506.5 secs

     total energy              =    -979.51181710 Ry
     estimated scf accuracy    <       0.00001919 Ry

     iteration # 10     ecut=   150.00 Ry     beta= 0.70
     Davidson diagonalization with overlap
     ethr =  3.69E-08,  avg # of iterations =  5.6

     negative rho (up, down):  2.199E-04 0.000E+00

     total cpu time spent up to now is      566.7 secs

     total energy              =    -979.51183011 Ry
     estimated scf accuracy    <       0.00005507 Ry

     iteration # 11     ecut=   150.00 Ry     beta= 0.70
     Davidson diagonalization with overlap
     ethr =  3.69E-08,  avg # of iterations =  2.6

     negative rho (up, down):  2.201E-04 0.000E+00

     total cpu time spent up to now is      606.8 secs

     total energy              =    -979.51182756 Ry
     estimated scf accuracy    <       0.00001263 Ry

     iteration # 12     ecut=   150.00 Ry     beta= 0.70
     Davidson diagonalization with overlap
     ethr =  2.43E-08,  avg # of iterations =  5.6

     negative rho (up, down):  2.201E-04 0.000E+00

     total cpu time spent up to now is      662.3 secs

     total energy              =    -979.51183125 Ry
     estimated scf accuracy    <       0.00004051 Ry

     iteration # 13     ecut=   150.00 Ry     beta= 0.70
     Davidson diagonalization with overlap
     ethr =  2.43E-08,  avg # of iterations =  2.8

     negative rho (up, down):  2.202E-04 0.000E+00

     total cpu time spent up to now is      702.3 secs

     total energy              =    -979.51183192 Ry
     estimated scf accuracy    <       0.00000998 Ry

     iteration # 14     ecut=   150.00 Ry     beta= 0.70
     Davidson diagonalization with overlap
     ethr =  1.92E-08,  avg # of iterations =  2.1

     negative rho (up, down):  2.202E-04 0.000E+00

     total cpu time spent up to now is      738.3 secs

     total energy              =    -979.51183224 Ry
     estimated scf accuracy    <       0.00000283 Ry

     iteration # 15     ecut=   150.00 Ry     beta= 0.70
     Davidson diagonalization with overlap
     ethr =  5.45E-09,  avg # of iterations =  4.4

     negative rho (up, down):  2.202E-04 0.000E+00

     total cpu time spent up to now is      782.4 secs

     total energy              =    -979.51183268 Ry
     estimated scf accuracy    <       0.00000008 Ry

     iteration # 16     ecut=   150.00 Ry     beta= 0.70
     Davidson diagonalization with overlap
     ethr =  1.59E-10,  avg # of iterations =  6.5

     negative rho (up, down):  2.202E-04 0.000E+00

     total cpu time spent up to now is      841.5 secs

     total energy              =    -979.51183276 Ry
     estimated scf accuracy    <       0.00000009 Ry

     iteration # 17     ecut=   150.00 Ry     beta= 0.70
     Davidson diagonalization with overlap
     ethr =  1.59E-10,  avg # of iterations =  2.4

     negative rho (up, down):  2.202E-04 0.000E+00

     total cpu time spent up to now is      879.4 secs

     total energy              =    -979.51183276 Ry
     estimated scf accuracy    <       0.00000001 Ry

     iteration # 18     ecut=   150.00 Ry     beta= 0.70
     Davidson diagonalization with overlap
     ethr =  2.60E-11,  avg # of iterations =  4.5

     negative rho (up, down):  2.202E-04 0.000E+00

     total cpu time spent up to now is      924.2 secs

     total energy              =    -979.51183276 Ry
     estimated scf accuracy    <          1.1E-10 Ry

     iteration # 19     ecut=   150.00 Ry     beta= 0.70
     Davidson diagonalization with overlap
     ethr =  2.19E-13,  avg # of iterations =  7.6

     negative rho (up, down):  2.202E-04 0.000E+00

     total cpu time spent up to now is      997.7 secs

     total energy              =    -979.51183276 Ry
     estimated scf accuracy    <          1.5E-09 Ry

     iteration # 20     ecut=   150.00 Ry     beta= 0.70
     Davidson diagonalization with overlap
     ethr =  2.19E-13,  avg # of iterations =  4.6

     negative rho (up, down):  2.202E-04 0.000E+00

     total cpu time spent up to now is     1045.0 secs

     total energy              =    -979.51183276 Ry
     estimated scf accuracy    <          4.8E-10 Ry

     iteration # 21     ecut=   150.00 Ry     beta= 0.70
     Davidson diagonalization with overlap
     ethr =  2.19E-13,  avg # of iterations =  4.4

     negative rho (up, down):  2.202E-04 0.000E+00

     total cpu time spent up to now is     1090.8 secs

     total energy              =    -979.51183276 Ry
     estimated scf accuracy    <          7.5E-11 Ry

     iteration # 22     ecut=   150.00 Ry     beta= 0.70
     Davidson diagonalization with overlap
     ethr =  1.45E-13,  avg # of iterations =  1.9

     negative rho (up, down):  2.202E-04 0.000E+00

     total cpu time spent up to now is     1126.0 secs

     total energy              =    -979.51183276 Ry
     estimated scf accuracy    <          4.3E-11 Ry

     iteration # 23     ecut=   150.00 Ry     beta= 0.70
     Davidson diagonalization with overlap
     ethr =  1.00E-13,  avg # of iterations =  4.3

     negative rho (up, down):  2.202E-04 0.000E+00

     total cpu time spent up to now is     1169.3 secs

     total energy              =    -979.51183276 Ry
     estimated scf accuracy    <          2.7E-12 Ry

     iteration # 24     ecut=   150.00 Ry     beta= 0.70
     Davidson diagonalization with overlap
     ethr =  1.00E-13,  avg # of iterations =  2.4

     negative rho (up, down):  2.202E-04 0.000E+00

     total cpu time spent up to now is     1207.6 secs

     total energy              =    -979.51183276 Ry
     estimated scf accuracy    <          2.1E-11 Ry

     iteration # 25     ecut=   150.00 Ry     beta= 0.70
     Davidson diagonalization with overlap
     ethr =  1.00E-13,  avg # of iterations =  1.1

     negative rho (up, down):  2.202E-04 0.000E+00

     total cpu time spent up to now is     1240.5 secs

     total energy              =    -979.51183276 Ry
     estimated scf accuracy    <          4.1E-12 Ry

     iteration # 26     ecut=   150.00 Ry     beta= 0.70
     Davidson diagonalization with overlap
     ethr =  1.00E-13,  avg # of iterations =  1.0

     negative rho (up, down):  2.202E-04 0.000E+00

     total cpu time spent up to now is     1273.3 secs

     total energy              =    -979.51183276 Ry
     estimated scf accuracy    <          2.0E-12 Ry

     iteration # 27     ecut=   150.00 Ry     beta= 0.70
     Davidson diagonalization with overlap
     ethr =  1.00E-13,  avg # of iterations =  1.0

     negative rho (up, down):  2.202E-04 0.000E+00

     total cpu time spent up to now is     1306.0 secs

     End of self-consistent calculation

     Number of k-points >= 100: set verbosity='high' to print the bands.

     highest occupied level (ev):     1.8786

!    total energy              =    -979.51183276 Ry

     total all-electron energy =    -19376.427523 Ry
     estimated scf accuracy    <          3.0E-13 Ry

     The total energy is the sum of the following terms:
     one-electron contribution =   -2717.01003029 Ry
     hartree contribution      =    1368.55656387 Ry
     xc contribution           =     -58.86245748 Ry
     ewald contribution        =    1053.56621042 Ry
     one-center paw contrib.   =    -625.76211929 Ry

     convergence has been achieved in  27 iterations

     negative rho (up, down):  2.202E-04 0.000E+00

     Forces acting on atoms (cartesian axes, Ry/au):

     atom    1 type  1   force =     0.00001367   -0.00005910   -0.00000325
     atom    2 type  2   force =    -0.00000598    0.00002616   -0.02439860
     atom    3 type  2   force =    -0.00000774    0.00003342    0.02471444
     atom    4 type  1   force =    -0.00001367    0.00005910    0.00000325
     atom    5 type  2   force =     0.00000774   -0.00003342   -0.02471444
     atom    6 type  2   force =     0.00000598   -0.00002616    0.02439860

     Total force =     0.049114     Total SCF correction =     0.000004


     Computing stress (Cartesian axis) and pressure


     negative rho (up, down):  2.202E-04 0.000E+00
          total   stress  (Ry/bohr**3)                   (kbar)     P=      -25.93
  -0.00016783   0.00000008   0.00000001          -24.69        0.01        0.00
   0.00000008  -0.00016719  -0.00000003            0.01      -24.59       -0.00
   0.00000001  -0.00000003  -0.00019374            0.00       -0.00      -28.50


     Writing output data file /scratch/as3359/Mos2_ct_lat/MoS2.save/
 
     init_run     :     49.30s CPU     26.82s WALL (       1 calls)
     electrons    :   2520.04s CPU   1279.07s WALL (       1 calls)
     forces       :     12.80s CPU      6.45s WALL (       1 calls)
     stress       :     47.51s CPU     24.04s WALL (       1 calls)

     Called by init_run:
     wfcinit      :     39.76s CPU     20.51s WALL (       1 calls)
     potinit      :      3.00s CPU      1.67s WALL (       1 calls)
     hinit0       :      5.43s CPU      3.99s WALL (       1 calls)

     Called by electrons:
     c_bands      :   2156.49s CPU   1091.73s WALL (      27 calls)
     sum_band     :    338.13s CPU    172.83s WALL (      27 calls)
     v_of_rho     :      6.06s CPU      3.28s WALL (      28 calls)
     newd         :     11.15s CPU      6.84s WALL (      28 calls)
     PAW_pot      :      6.30s CPU      3.24s WALL (      28 calls)
     mix_rho      :      2.34s CPU      1.38s WALL (      27 calls)

     Called by c_bands:
     init_us_2    :     47.14s CPU     23.60s WALL (    6441 calls)
     cegterg      :   2041.63s CPU   1033.81s WALL (    3051 calls)

     Called by *egterg:
     cdiaghg      :     17.70s CPU      9.06s WALL (   14974 calls)
     h_psi        :   1659.37s CPU    842.25s WALL (   15087 calls)
     s_psi        :     85.68s CPU     42.90s WALL (   15087 calls)
     g_psi        :     13.65s CPU      6.85s WALL (   11923 calls)

     Called by h_psi:
     h_psi:calbec :     68.04s CPU     34.11s WALL (   15087 calls)
     vloc_psi     :   1489.16s CPU    756.82s WALL (   15087 calls)
     add_vuspsi   :     88.19s CPU     44.16s WALL (   15087 calls)

     General routines
     calbec       :     90.56s CPU     45.40s WALL (   18703 calls)
     fft          :      3.08s CPU      1.89s WALL (     333 calls)
     ffts         :      0.18s CPU      0.10s WALL (      27 calls)
     fftw         :   1498.99s CPU    762.84s WALL (  555034 calls)
 
     Parallel routines
 
     PWSCF        :  43m55.81s CPU  22m22.05s WALL

 
   This run was terminated on:  20: 9:17  17Apr2022            

=------------------------------------------------------------------------------=
   JOB DONE.
=------------------------------------------------------------------------------=
