
     Program PWSCF v.6.8 starts on 17Apr2022 at 15:27:25 

     This program is part of the open-source Quantum ESPRESSO suite
     for quantum simulation of materials; please cite
         "P. Giannozzi et al., J. Phys.:Condens. Matter 21 395502 (2009);
         "P. Giannozzi et al., J. Phys.:Condens. Matter 29 465901 (2017);
         "P. Giannozzi et al., J. Chem. Phys. 152 154105 (2020);
          URL http://www.quantum-espresso.org", 
     in publications or presentations arising from this work. More details at
     http://www.quantum-espresso.org/quote

     Parallel version (MPI & OpenMP), running on       4 processor cores
     Number of MPI processes:                 2
     Threads/MPI process:                     2

     MPI processes distributed on     1 nodes
     R & G space division:  proc/nbgrp/npool/nimage =       2
     124996 MiB available memory on the printing compute node when the environment starts
 
     Reading input from MoS2.scf.6.050.in
Warning: card  &CELL ignored
Warning: card     CELL_DYNAMICS='BFGS' ignored
Warning: card  / ignored

     Current dimensions of program PWSCF are:
     Max number of different atomic species (ntypx) = 10
     Max number of k-points (npk) =  40000
     Max angular momentum in pseudopotentials (lmaxx) =  4
     Message from routine iosys:
     restart disabled: needed files not found
     file Mo.pbesol-spn-kjpaw_psl.1.0.0.UPF: wavefunction(s)  4S 4D renormalized
     file S.pbesol-nl-kjpaw_psl.1.0.0.UPF: wavefunction(s)  3S renormalized
     Message from routine setup:
     using ibrav=0 with symmetry is DISCOURAGED, use correct ibrav instead

     Subspace diagonalization in iterative solution of the eigenvalue problem:
     a serial algorithm will be used

 
     Parallelization info
     --------------------
     sticks:   dense  smooth     PW     G-vecs:    dense   smooth      PW
     Min         714     714    210               181473   181473   28714
     Max         715     715    211               181484   181484   28753
     Sum        1429    1429    421               362957   362957   57467
 
     Using Slab Decomposition
 


     bravais-lattice index     =            0
     lattice parameter (alat)  =       6.0500  a.u.
     unit-cell volume          =    1465.2323 (a.u.)^3
     number of atoms/cell      =            6
     number of atomic types    =            2
     number of electrons       =        52.00
     number of Kohn-Sham states=           26
     kinetic-energy cutoff     =     150.0000  Ry
     charge density cutoff     =     600.0000  Ry
     scf convergence threshold =      1.0E-12
     mixing beta               =       0.7000
     number of iterations used =            8  plain     mixing
     Exchange-correlation= SLA  PW   PSX  PSC
                           (   1   4  10   8   0   0   0)

     celldm(1)=   6.050000  celldm(2)=   0.000000  celldm(3)=   0.000000
     celldm(4)=   0.000000  celldm(5)=   0.000000  celldm(6)=   0.000000

     crystal axes: (cart. coord. in units of alat)
               a(1) = (   0.977326  -0.000176   0.000000 )  
               a(2) = (  -0.488540   0.846362   0.000000 )  
               a(3) = (   0.000000   0.000000   8.000000 )  

     reciprocal axes: (cart. coord. in units 2 pi/alat)
               b(1) = (  1.023307  0.590676  0.000000 )  
               b(2) = (  0.000213  1.181651  0.000000 )  
               b(3) = (  0.000000  0.000000  0.125000 )  


     PseudoPot. # 1 for Mo read from file:
     /shared/home/as3359/pseudo/Mo.pbesol-spn-kjpaw_psl.1.0.0.UPF
     MD5 check sum: de57925cfc675213e43241dcc441eda8
     Pseudo is Projector augmented-wave + core cor, Zval = 14.0
     Generated using &quot;atomic&quot; code by A. Dal Corso  v.6.3
     Shape of augmentation charge: PSQ
     Using radial grid of 1229 points,  6 beta functions with: 
                l(1) =   0
                l(2) =   0
                l(3) =   1
                l(4) =   1
                l(5) =   2
                l(6) =   2
     Q(r) pseudized with 0 coefficients 


     PseudoPot. # 2 for S  read from file:
     /shared/home/as3359/pseudo/S.pbesol-nl-kjpaw_psl.1.0.0.UPF
     MD5 check sum: bf3db50ec3f960682bbc396f1aadd1dd
     Pseudo is Projector augmented-wave + core cor, Zval =  6.0
     Generated using &quot;atomic&quot; code by A. Dal Corso  v.6.3
     Shape of augmentation charge: PSQ
     Using radial grid of 1151 points,  4 beta functions with: 
                l(1) =   0
                l(2) =   0
                l(3) =   1
                l(4) =   1
     Q(r) pseudized with 0 coefficients 


     atomic species   valence    mass     pseudopotential
        Mo            14.00    95.94000     Mo( 1.00)
        S              6.00    32.06500     S ( 1.00)

      2 Sym. Ops., with inversion, found ( 1 have fractional translation)



   Cartesian axes

     site n.     atom                  positions (alat units)
         1           Mo  tau(   1) = (   0.0000000   0.0000000   0.9844997  )
         2           S   tau(   2) = (   0.4887119   0.2819702   1.4701535  )
         3           S   tau(   3) = (   0.4887135   0.2819635   0.4988906  )
         4           Mo  tau(   4) = (   0.0000000   0.0000000   3.0155003  )
         5           S   tau(   5) = (  -0.4887135  -0.2819635   3.5011094  )
         6           S   tau(   6) = (  -0.4887119  -0.2819702   2.5298465  )

     number of k points=   113

     Number of k-points >= 100: set verbosity='high' to print them.

     Dense  grid:   362957 G-vectors     FFT dimensions: (  48,  48, 384)

     Estimated max dynamical RAM per process >       1.68 GB

     Estimated total dynamical RAM >       3.37 GB
     Cannot read rho : file not found

     Initial potential from superposition of free atoms

     starting charge   51.99828, renormalised to   52.00000

     negative rho (up, down):  1.586E-04 0.000E+00
     Message from routine qexsd_readschema :
     xml data file /scratch/as3359/Mos2_ct_lat/MoS2.save/data-file-schema.xml not fou
     Cannot read wfcs: file not found
     Starting wfcs are   36 randomized atomic wfcs
     Checking if some PAW data can be deallocated... 

     total cpu time spent up to now is       26.2 secs

     Self-consistent Calculation

     iteration #  1     ecut=   150.00 Ry     beta= 0.70
     Davidson diagonalization with overlap
     ethr =  1.00E-05,  avg # of iterations = 10.5

     negative rho (up, down):  2.047E-04 0.000E+00

     total cpu time spent up to now is      135.2 secs

     total energy              =    -979.37706246 Ry
     estimated scf accuracy    <       0.30460967 Ry

     iteration #  2     ecut=   150.00 Ry     beta= 0.70
     Davidson diagonalization with overlap
     ethr =  5.86E-04,  avg # of iterations =  5.1

     negative rho (up, down):  1.933E-04 0.000E+00

     total cpu time spent up to now is      189.9 secs

     total energy              =    -979.29130680 Ry
     estimated scf accuracy    <       1.15321146 Ry

     iteration #  3     ecut=   150.00 Ry     beta= 0.70
     Davidson diagonalization with overlap
     ethr =  5.86E-04,  avg # of iterations =  5.3

     negative rho (up, down):  1.944E-04 0.000E+00

     total cpu time spent up to now is      243.5 secs

     total energy              =    -979.50267068 Ry
     estimated scf accuracy    <       0.09011078 Ry

     iteration #  4     ecut=   150.00 Ry     beta= 0.70
     Davidson diagonalization with overlap
     ethr =  1.73E-04,  avg # of iterations =  2.9

     negative rho (up, down):  1.959E-04 0.000E+00

     total cpu time spent up to now is      284.3 secs

     total energy              =    -979.51013196 Ry
     estimated scf accuracy    <       0.02386977 Ry

     iteration #  5     ecut=   150.00 Ry     beta= 0.70
     Davidson diagonalization with overlap
     ethr =  4.59E-05,  avg # of iterations =  3.9

     negative rho (up, down):  2.041E-04 0.000E+00

     total cpu time spent up to now is      329.0 secs

     total energy              =    -979.51532253 Ry
     estimated scf accuracy    <       0.01002713 Ry

     iteration #  6     ecut=   150.00 Ry     beta= 0.70
     Davidson diagonalization with overlap
     ethr =  1.93E-05,  avg # of iterations =  2.6

     negative rho (up, down):  2.072E-04 0.000E+00

     total cpu time spent up to now is      368.3 secs

     total energy              =    -979.51609991 Ry
     estimated scf accuracy    <       0.00164923 Ry

     iteration #  7     ecut=   150.00 Ry     beta= 0.70
     Davidson diagonalization with overlap
     ethr =  3.17E-06,  avg # of iterations =  4.3

     negative rho (up, down):  2.091E-04 0.000E+00

     total cpu time spent up to now is      414.4 secs

     total energy              =    -979.51640000 Ry
     estimated scf accuracy    <       0.00104832 Ry

     iteration #  8     ecut=   150.00 Ry     beta= 0.70
     Davidson diagonalization with overlap
     ethr =  2.02E-06,  avg # of iterations =  2.0

     negative rho (up, down):  2.108E-04 0.000E+00

     total cpu time spent up to now is      449.6 secs

     total energy              =    -979.51636934 Ry
     estimated scf accuracy    <       0.00036090 Ry

     iteration #  9     ecut=   150.00 Ry     beta= 0.70
     Davidson diagonalization with overlap
     ethr =  6.94E-07,  avg # of iterations =  4.5

     negative rho (up, down):  2.109E-04 0.000E+00

     total cpu time spent up to now is      495.9 secs

     total energy              =    -979.51646207 Ry
     estimated scf accuracy    <       0.00017346 Ry

     iteration # 10     ecut=   150.00 Ry     beta= 0.70
     Davidson diagonalization with overlap
     ethr =  3.34E-07,  avg # of iterations =  1.1

     negative rho (up, down):  2.110E-04 0.000E+00

     total cpu time spent up to now is      528.0 secs

     total energy              =    -979.51642453 Ry
     estimated scf accuracy    <       0.00011324 Ry

     iteration # 11     ecut=   150.00 Ry     beta= 0.70
     Davidson diagonalization with overlap
     ethr =  2.18E-07,  avg # of iterations =  4.1

     negative rho (up, down):  2.110E-04 0.000E+00

     total cpu time spent up to now is      572.8 secs

     total energy              =    -979.51645501 Ry
     estimated scf accuracy    <       0.00002317 Ry

     iteration # 12     ecut=   150.00 Ry     beta= 0.70
     Davidson diagonalization with overlap
     ethr =  4.46E-08,  avg # of iterations =  2.3

     negative rho (up, down):  2.110E-04 0.000E+00

     total cpu time spent up to now is      608.2 secs

     total energy              =    -979.51645699 Ry
     estimated scf accuracy    <       0.00000777 Ry

     iteration # 13     ecut=   150.00 Ry     beta= 0.70
     Davidson diagonalization with overlap
     ethr =  1.49E-08,  avg # of iterations =  1.3

     negative rho (up, down):  2.110E-04 0.000E+00

     total cpu time spent up to now is      640.6 secs

     total energy              =    -979.51645706 Ry
     estimated scf accuracy    <       0.00000836 Ry

     iteration # 14     ecut=   150.00 Ry     beta= 0.70
     Davidson diagonalization with overlap
     ethr =  1.49E-08,  avg # of iterations =  1.0

     negative rho (up, down):  2.111E-04 0.000E+00

     total cpu time spent up to now is      672.7 secs

     total energy              =    -979.51645618 Ry
     estimated scf accuracy    <       0.00000806 Ry

     iteration # 15     ecut=   150.00 Ry     beta= 0.70
     Davidson diagonalization with overlap
     ethr =  1.49E-08,  avg # of iterations =  1.8

     negative rho (up, down):  2.111E-04 0.000E+00

     total cpu time spent up to now is      706.4 secs

     total energy              =    -979.51645551 Ry
     estimated scf accuracy    <       0.00000414 Ry

     iteration # 16     ecut=   150.00 Ry     beta= 0.70
     Davidson diagonalization with overlap
     ethr =  7.96E-09,  avg # of iterations =  4.5

     negative rho (up, down):  2.111E-04 0.000E+00

     total cpu time spent up to now is      751.3 secs

     total energy              =    -979.51645640 Ry
     estimated scf accuracy    <       0.00000057 Ry

     iteration # 17     ecut=   150.00 Ry     beta= 0.70
     Davidson diagonalization with overlap
     ethr =  1.10E-09,  avg # of iterations =  3.8

     negative rho (up, down):  2.111E-04 0.000E+00

     total cpu time spent up to now is      790.7 secs

     total energy              =    -979.51645619 Ry
     estimated scf accuracy    <       0.00000068 Ry

     iteration # 18     ecut=   150.00 Ry     beta= 0.70
     Davidson diagonalization with overlap
     ethr =  1.10E-09,  avg # of iterations =  4.0

     negative rho (up, down):  2.111E-04 0.000E+00

     total cpu time spent up to now is      834.6 secs

     total energy              =    -979.51645635 Ry
     estimated scf accuracy    <       0.00000004 Ry

     iteration # 19     ecut=   150.00 Ry     beta= 0.70
     Davidson diagonalization with overlap
     ethr =  7.61E-11,  avg # of iterations =  5.3

     negative rho (up, down):  2.111E-04 0.000E+00

     total cpu time spent up to now is      887.0 secs

     total energy              =    -979.51645635 Ry
     estimated scf accuracy    <       0.00000013 Ry

     iteration # 20     ecut=   150.00 Ry     beta= 0.70
     Davidson diagonalization with overlap
     ethr =  7.61E-11,  avg # of iterations =  2.7

     negative rho (up, down):  2.111E-04 0.000E+00

     total cpu time spent up to now is      926.2 secs

     total energy              =    -979.51645635 Ry
     estimated scf accuracy    <       0.00000004 Ry

     iteration # 21     ecut=   150.00 Ry     beta= 0.70
     Davidson diagonalization with overlap
     ethr =  7.49E-11,  avg # of iterations =  4.5

     negative rho (up, down):  2.111E-04 0.000E+00

     total cpu time spent up to now is      974.2 secs

     total energy              =    -979.51645636 Ry
     estimated scf accuracy    <       0.00000003 Ry

     iteration # 22     ecut=   150.00 Ry     beta= 0.70
     Davidson diagonalization with overlap
     ethr =  6.49E-11,  avg # of iterations =  1.5

     negative rho (up, down):  2.111E-04 0.000E+00

     total cpu time spent up to now is     1007.3 secs

     total energy              =    -979.51645636 Ry
     estimated scf accuracy    <       0.00000001 Ry

     iteration # 23     ecut=   150.00 Ry     beta= 0.70
     Davidson diagonalization with overlap
     ethr =  2.69E-11,  avg # of iterations =  1.7

     negative rho (up, down):  2.111E-04 0.000E+00

     total cpu time spent up to now is     1041.1 secs

     total energy              =    -979.51645636 Ry
     estimated scf accuracy    <          7.8E-09 Ry

     iteration # 24     ecut=   150.00 Ry     beta= 0.70
     Davidson diagonalization with overlap
     ethr =  1.50E-11,  avg # of iterations =  2.8

     negative rho (up, down):  2.111E-04 0.000E+00

     total cpu time spent up to now is     1078.3 secs

     total energy              =    -979.51645636 Ry
     estimated scf accuracy    <          1.7E-09 Ry

     iteration # 25     ecut=   150.00 Ry     beta= 0.70
     Davidson diagonalization with overlap
     ethr =  3.20E-12,  avg # of iterations =  4.5

     negative rho (up, down):  2.111E-04 0.000E+00

     total cpu time spent up to now is     1122.2 secs

     total energy              =    -979.51645636 Ry
     estimated scf accuracy    <          3.5E-10 Ry

     iteration # 26     ecut=   150.00 Ry     beta= 0.70
     Davidson diagonalization with overlap
     ethr =  6.73E-13,  avg # of iterations =  5.2

     negative rho (up, down):  2.111E-04 0.000E+00

     total cpu time spent up to now is     1173.5 secs

     total energy              =    -979.51645636 Ry
     estimated scf accuracy    <          1.7E-09 Ry

     iteration # 27     ecut=   150.00 Ry     beta= 0.70
     Davidson diagonalization with overlap
     ethr =  6.73E-13,  avg # of iterations =  4.3

     negative rho (up, down):  2.111E-04 0.000E+00

     total cpu time spent up to now is     1218.7 secs

     total energy              =    -979.51645636 Ry
     estimated scf accuracy    <          1.4E-10 Ry

     iteration # 28     ecut=   150.00 Ry     beta= 0.70
     Davidson diagonalization with overlap
     ethr =  2.62E-13,  avg # of iterations =  4.4

     negative rho (up, down):  2.111E-04 0.000E+00

     total cpu time spent up to now is     1264.4 secs

     total energy              =    -979.51645636 Ry
     estimated scf accuracy    <          6.3E-11 Ry

     iteration # 29     ecut=   150.00 Ry     beta= 0.70
     Davidson diagonalization with overlap
     ethr =  1.20E-13,  avg # of iterations =  1.1

     negative rho (up, down):  2.111E-04 0.000E+00

     total cpu time spent up to now is     1296.5 secs

     total energy              =    -979.51645636 Ry
     estimated scf accuracy    <          4.0E-11 Ry

     iteration # 30     ecut=   150.00 Ry     beta= 0.70
     Davidson diagonalization with overlap
     ethr =  1.00E-13,  avg # of iterations =  2.4

     negative rho (up, down):  2.111E-04 0.000E+00

     total cpu time spent up to now is     1334.4 secs

     total energy              =    -979.51645636 Ry
     estimated scf accuracy    <          1.3E-12 Ry

     iteration # 31     ecut=   150.00 Ry     beta= 0.70
     Davidson diagonalization with overlap
     ethr =  1.00E-13,  avg # of iterations =  1.0

     negative rho (up, down):  2.111E-04 0.000E+00

     total cpu time spent up to now is     1366.3 secs

     End of self-consistent calculation

     Number of k-points >= 100: set verbosity='high' to print the bands.

     highest occupied level (ev):     2.2780

!    total energy              =    -979.51645636 Ry

     total all-electron energy =    -19376.432147 Ry
     estimated scf accuracy    <          2.6E-13 Ry

     The total energy is the sum of the following terms:
     one-electron contribution =   -2752.81471892 Ry
     hartree contribution      =    1387.21050968 Ry
     xc contribution           =     -59.10945075 Ry
     ewald contribution        =    1070.98052795 Ry
     one-center paw contrib.   =    -625.78332432 Ry

     convergence has been achieved in  31 iterations

     negative rho (up, down):  2.111E-04 0.000E+00

     Forces acting on atoms (cartesian axes, Ry/au):

     atom    1 type  1   force =     0.00001328   -0.00005861   -0.00000307
     atom    2 type  2   force =    -0.00000571    0.00002543    0.00685249
     atom    3 type  2   force =    -0.00000765    0.00003360   -0.00697676
     atom    4 type  1   force =    -0.00001328    0.00005861    0.00000307
     atom    5 type  2   force =     0.00000765   -0.00003360    0.00697676
     atom    6 type  2   force =     0.00000571   -0.00002543   -0.00685249

     Total force =     0.013830     Total SCF correction =     0.000003


     Computing stress (Cartesian axis) and pressure


     negative rho (up, down):  2.111E-04 0.000E+00
          total   stress  (Ry/bohr**3)                   (kbar)     P=        8.90
   0.00006248   0.00000009   0.00000001            9.19        0.01        0.00
   0.00000009   0.00006318  -0.00000004            0.01        9.29       -0.01
   0.00000001  -0.00000004   0.00005588            0.00       -0.01        8.22


     Writing output data file /scratch/as3359/Mos2_ct_lat/MoS2.save/
 
     init_run     :     47.91s CPU     26.07s WALL (       1 calls)
     electrons    :   2639.81s CPU   1340.18s WALL (       1 calls)
     forces       :     12.09s CPU      6.11s WALL (       1 calls)
     stress       :     46.76s CPU     23.65s WALL (       1 calls)

     Called by init_run:
     wfcinit      :     38.66s CPU     19.94s WALL (       1 calls)
     potinit      :      3.00s CPU      1.70s WALL (       1 calls)
     hinit0       :      5.20s CPU      3.81s WALL (       1 calls)

     Called by electrons:
     c_bands      :   2227.19s CPU   1127.72s WALL (      31 calls)
     sum_band     :    384.26s CPU    196.28s WALL (      31 calls)
     v_of_rho     :      6.76s CPU      3.65s WALL (      32 calls)
     newd         :     12.13s CPU      7.40s WALL (      32 calls)
     PAW_pot      :      7.23s CPU      3.73s WALL (      32 calls)
     mix_rho      :      2.60s CPU      1.54s WALL (      31 calls)

     Called by c_bands:
     init_us_2    :     50.77s CPU     25.41s WALL (    7345 calls)
     cegterg      :   2101.39s CPU   1064.30s WALL (    3503 calls)

     Called by *egterg:
     cdiaghg      :     18.28s CPU      9.37s WALL (   15538 calls)
     h_psi        :   1751.03s CPU    888.68s WALL (   15651 calls)
     s_psi        :     79.92s CPU     40.04s WALL (   15651 calls)
     g_psi        :     14.50s CPU      7.28s WALL (   12035 calls)

     Called by h_psi:
     h_psi:calbec :     69.58s CPU     34.87s WALL (   15651 calls)
     vloc_psi     :   1587.40s CPU    806.53s WALL (   15651 calls)
     add_vuspsi   :     79.75s CPU     39.97s WALL (   15651 calls)

     General routines
     calbec       :     93.88s CPU     47.05s WALL (   19719 calls)
     fft          :      3.18s CPU      1.93s WALL (     377 calls)
     ffts         :      0.20s CPU      0.10s WALL (      31 calls)
     fftw         :   1615.84s CPU    822.03s WALL (  602592 calls)
 
     Parallel routines
 
     PWSCF        :  45m52.32s CPU  23m21.31s WALL

 
   This run was terminated on:  15:50:46  17Apr2022            

=------------------------------------------------------------------------------=
   JOB DONE.
=------------------------------------------------------------------------------=
