
     Program PWSCF v.6.8 starts on 17Apr2022 at 18:53:57 

     This program is part of the open-source Quantum ESPRESSO suite
     for quantum simulation of materials; please cite
         "P. Giannozzi et al., J. Phys.:Condens. Matter 21 395502 (2009);
         "P. Giannozzi et al., J. Phys.:Condens. Matter 29 465901 (2017);
         "P. Giannozzi et al., J. Chem. Phys. 152 154105 (2020);
          URL http://www.quantum-espresso.org", 
     in publications or presentations arising from this work. More details at
     http://www.quantum-espresso.org/quote

     Parallel version (MPI & OpenMP), running on       4 processor cores
     Number of MPI processes:                 2
     Threads/MPI process:                     2

     MPI processes distributed on     1 nodes
     R & G space division:  proc/nbgrp/npool/nimage =       2
     124978 MiB available memory on the printing compute node when the environment starts
 
     Reading input from MoS2.scf.6.130.in
Warning: card  &CELL ignored
Warning: card     CELL_DYNAMICS='BFGS' ignored
Warning: card  / ignored

     Current dimensions of program PWSCF are:
     Max number of different atomic species (ntypx) = 10
     Max number of k-points (npk) =  40000
     Max angular momentum in pseudopotentials (lmaxx) =  4
     Message from routine iosys:
     restart disabled: needed files not found
     file Mo.pbesol-spn-kjpaw_psl.1.0.0.UPF: wavefunction(s)  4S 4D renormalized
     file S.pbesol-nl-kjpaw_psl.1.0.0.UPF: wavefunction(s)  3S renormalized
     Message from routine setup:
     using ibrav=0 with symmetry is DISCOURAGED, use correct ibrav instead

     Subspace diagonalization in iterative solution of the eigenvalue problem:
     a serial algorithm will be used

 
     Parallelization info
     --------------------
     sticks:   dense  smooth     PW     G-vecs:    dense   smooth      PW
     Min         744     744    216               189243   189243   29854
     Max         751     751    217               189246   189246   29861
     Sum        1495    1495    433               378489   378489   59715
 
     Using Slab Decomposition
 


     bravais-lattice index     =            0
     lattice parameter (alat)  =       6.1300  a.u.
     unit-cell volume          =    1524.1292 (a.u.)^3
     number of atoms/cell      =            6
     number of atomic types    =            2
     number of electrons       =        52.00
     number of Kohn-Sham states=           26
     kinetic-energy cutoff     =     150.0000  Ry
     charge density cutoff     =     600.0000  Ry
     scf convergence threshold =      1.0E-12
     mixing beta               =       0.7000
     number of iterations used =            8  plain     mixing
     Exchange-correlation= SLA  PW   PSX  PSC
                           (   1   4  10   8   0   0   0)

     celldm(1)=   6.130000  celldm(2)=   0.000000  celldm(3)=   0.000000
     celldm(4)=   0.000000  celldm(5)=   0.000000  celldm(6)=   0.000000

     crystal axes: (cart. coord. in units of alat)
               a(1) = (   0.977326  -0.000176   0.000000 )  
               a(2) = (  -0.488540   0.846362   0.000000 )  
               a(3) = (   0.000000   0.000000   8.000000 )  

     reciprocal axes: (cart. coord. in units 2 pi/alat)
               b(1) = (  1.023307  0.590676  0.000000 )  
               b(2) = (  0.000213  1.181651  0.000000 )  
               b(3) = (  0.000000  0.000000  0.125000 )  


     PseudoPot. # 1 for Mo read from file:
     /shared/home/as3359/pseudo/Mo.pbesol-spn-kjpaw_psl.1.0.0.UPF
     MD5 check sum: de57925cfc675213e43241dcc441eda8
     Pseudo is Projector augmented-wave + core cor, Zval = 14.0
     Generated using &quot;atomic&quot; code by A. Dal Corso  v.6.3
     Shape of augmentation charge: PSQ
     Using radial grid of 1229 points,  6 beta functions with: 
                l(1) =   0
                l(2) =   0
                l(3) =   1
                l(4) =   1
                l(5) =   2
                l(6) =   2
     Q(r) pseudized with 0 coefficients 


     PseudoPot. # 2 for S  read from file:
     /shared/home/as3359/pseudo/S.pbesol-nl-kjpaw_psl.1.0.0.UPF
     MD5 check sum: bf3db50ec3f960682bbc396f1aadd1dd
     Pseudo is Projector augmented-wave + core cor, Zval =  6.0
     Generated using &quot;atomic&quot; code by A. Dal Corso  v.6.3
     Shape of augmentation charge: PSQ
     Using radial grid of 1151 points,  4 beta functions with: 
                l(1) =   0
                l(2) =   0
                l(3) =   1
                l(4) =   1
     Q(r) pseudized with 0 coefficients 


     atomic species   valence    mass     pseudopotential
        Mo            14.00    95.94000     Mo( 1.00)
        S              6.00    32.06500     S ( 1.00)

      2 Sym. Ops., with inversion, found ( 1 have fractional translation)



   Cartesian axes

     site n.     atom                  positions (alat units)
         1           Mo  tau(   1) = (   0.0000000   0.0000000   0.9844997  )
         2           S   tau(   2) = (   0.4887119   0.2819702   1.4701535  )
         3           S   tau(   3) = (   0.4887135   0.2819635   0.4988906  )
         4           Mo  tau(   4) = (   0.0000000   0.0000000   3.0155003  )
         5           S   tau(   5) = (  -0.4887135  -0.2819635   3.5011094  )
         6           S   tau(   6) = (  -0.4887119  -0.2819702   2.5298465  )

     number of k points=   113

     Number of k-points >= 100: set verbosity='high' to print them.

     Dense  grid:   378489 G-vectors     FFT dimensions: (  48,  48, 384)

     Estimated max dynamical RAM per process >       1.75 GB

     Estimated total dynamical RAM >       3.50 GB
     Cannot read rho : file not found

     Initial potential from superposition of free atoms

     starting charge   51.99828, renormalised to   52.00000

     negative rho (up, down):  1.621E-04 0.000E+00
     Message from routine qexsd_readschema :
     xml data file /scratch/as3359/Mos2_ct_lat/MoS2.save/data-file-schema.xml not fou
     Cannot read wfcs: file not found
     Starting wfcs are   36 randomized atomic wfcs
     Checking if some PAW data can be deallocated... 

     total cpu time spent up to now is       26.3 secs

     Self-consistent Calculation

     iteration #  1     ecut=   150.00 Ry     beta= 0.70
     Davidson diagonalization with overlap
     ethr =  1.00E-05,  avg # of iterations = 10.4

     negative rho (up, down):  2.085E-04 0.000E+00

     total cpu time spent up to now is      138.5 secs

     total energy              =    -979.40014035 Ry
     estimated scf accuracy    <       0.26389140 Ry

     iteration #  2     ecut=   150.00 Ry     beta= 0.70
     Davidson diagonalization with overlap
     ethr =  5.07E-04,  avg # of iterations =  4.8

     negative rho (up, down):  2.004E-04 0.000E+00

     total cpu time spent up to now is      193.0 secs

     total energy              =    -979.34705554 Ry
     estimated scf accuracy    <       0.79286262 Ry

     iteration #  3     ecut=   150.00 Ry     beta= 0.70
     Davidson diagonalization with overlap
     ethr =  5.07E-04,  avg # of iterations =  5.3

     negative rho (up, down):  2.027E-04 0.000E+00

     total cpu time spent up to now is      247.5 secs

     total energy              =    -979.49877925 Ry
     estimated scf accuracy    <       0.10992983 Ry

     iteration #  4     ecut=   150.00 Ry     beta= 0.70
     Davidson diagonalization with overlap
     ethr =  2.11E-04,  avg # of iterations =  2.9

     negative rho (up, down):  2.037E-04 0.000E+00

     total cpu time spent up to now is      288.0 secs

     total energy              =    -979.50768956 Ry
     estimated scf accuracy    <       0.01862444 Ry

     iteration #  5     ecut=   150.00 Ry     beta= 0.70
     Davidson diagonalization with overlap
     ethr =  3.58E-05,  avg # of iterations =  4.6

     negative rho (up, down):  2.095E-04 0.000E+00

     total cpu time spent up to now is      337.7 secs

     total energy              =    -979.51261530 Ry
     estimated scf accuracy    <       0.01738256 Ry

     iteration #  6     ecut=   150.00 Ry     beta= 0.70
     Davidson diagonalization with overlap
     ethr =  3.34E-05,  avg # of iterations =  2.6

     negative rho (up, down):  2.118E-04 0.000E+00

     total cpu time spent up to now is      377.6 secs

     total energy              =    -979.51359636 Ry
     estimated scf accuracy    <       0.00429810 Ry

     iteration #  7     ecut=   150.00 Ry     beta= 0.70
     Davidson diagonalization with overlap
     ethr =  8.27E-06,  avg # of iterations =  3.2

     negative rho (up, down):  2.136E-04 0.000E+00

     total cpu time spent up to now is      419.6 secs

     total energy              =    -979.51400424 Ry
     estimated scf accuracy    <       0.00139968 Ry

     iteration #  8     ecut=   150.00 Ry     beta= 0.70
     Davidson diagonalization with overlap
     ethr =  2.69E-06,  avg # of iterations =  2.9

     negative rho (up, down):  2.156E-04 0.000E+00

     total cpu time spent up to now is      459.4 secs

     total energy              =    -979.51404158 Ry
     estimated scf accuracy    <       0.00049944 Ry

     iteration #  9     ecut=   150.00 Ry     beta= 0.70
     Davidson diagonalization with overlap
     ethr =  9.60E-07,  avg # of iterations =  4.1

     negative rho (up, down):  2.158E-04 0.000E+00

     total cpu time spent up to now is      504.9 secs

     total energy              =    -979.51414166 Ry
     estimated scf accuracy    <       0.00010908 Ry

     iteration # 10     ecut=   150.00 Ry     beta= 0.70
     Davidson diagonalization with overlap
     ethr =  2.10E-07,  avg # of iterations =  2.1

     negative rho (up, down):  2.159E-04 0.000E+00

     total cpu time spent up to now is      540.7 secs

     total energy              =    -979.51412463 Ry
     estimated scf accuracy    <       0.00005752 Ry

     iteration # 11     ecut=   150.00 Ry     beta= 0.70
     Davidson diagonalization with overlap
     ethr =  1.11E-07,  avg # of iterations =  4.9

     negative rho (up, down):  2.161E-04 0.000E+00

     total cpu time spent up to now is      589.2 secs

     total energy              =    -979.51414425 Ry
     estimated scf accuracy    <       0.00002164 Ry

     iteration # 12     ecut=   150.00 Ry     beta= 0.70
     Davidson diagonalization with overlap
     ethr =  4.16E-08,  avg # of iterations =  1.6

     negative rho (up, down):  2.161E-04 0.000E+00

     total cpu time spent up to now is      623.2 secs

     total energy              =    -979.51414263 Ry
     estimated scf accuracy    <       0.00001249 Ry

     iteration # 13     ecut=   150.00 Ry     beta= 0.70
     Davidson diagonalization with overlap
     ethr =  2.40E-08,  avg # of iterations =  2.8

     negative rho (up, down):  2.162E-04 0.000E+00

     total cpu time spent up to now is      662.3 secs

     total energy              =    -979.51414346 Ry
     estimated scf accuracy    <       0.00000149 Ry

     iteration # 14     ecut=   150.00 Ry     beta= 0.70
     Davidson diagonalization with overlap
     ethr =  2.87E-09,  avg # of iterations =  5.1

     negative rho (up, down):  2.162E-04 0.000E+00

     total cpu time spent up to now is      716.3 secs

     total energy              =    -979.51414425 Ry
     estimated scf accuracy    <       0.00000077 Ry

     iteration # 15     ecut=   150.00 Ry     beta= 0.70
     Davidson diagonalization with overlap
     ethr =  1.48E-09,  avg # of iterations =  1.5

     negative rho (up, down):  2.162E-04 0.000E+00

     total cpu time spent up to now is      750.0 secs

     total energy              =    -979.51414409 Ry
     estimated scf accuracy    <       0.00000086 Ry

     iteration # 16     ecut=   150.00 Ry     beta= 0.70
     Davidson diagonalization with overlap
     ethr =  1.48E-09,  avg # of iterations =  2.0

     negative rho (up, down):  2.162E-04 0.000E+00

     total cpu time spent up to now is      786.0 secs

     total energy              =    -979.51414411 Ry
     estimated scf accuracy    <       0.00000022 Ry

     iteration # 17     ecut=   150.00 Ry     beta= 0.70
     Davidson diagonalization with overlap
     ethr =  4.24E-10,  avg # of iterations =  3.8

     negative rho (up, down):  2.162E-04 0.000E+00

     total cpu time spent up to now is      827.7 secs

     total energy              =    -979.51414414 Ry
     estimated scf accuracy    <       0.00000002 Ry

     iteration # 18     ecut=   150.00 Ry     beta= 0.70
     Davidson diagonalization with overlap
     ethr =  3.39E-11,  avg # of iterations =  5.5

     negative rho (up, down):  2.162E-04 0.000E+00

     total cpu time spent up to now is      881.9 secs

     total energy              =    -979.51414415 Ry
     estimated scf accuracy    <          8.5E-09 Ry

     iteration # 19     ecut=   150.00 Ry     beta= 0.70
     Davidson diagonalization with overlap
     ethr =  1.63E-11,  avg # of iterations =  1.8

     negative rho (up, down):  2.162E-04 0.000E+00

     total cpu time spent up to now is      916.2 secs

     total energy              =    -979.51414414 Ry
     estimated scf accuracy    <          8.1E-09 Ry

     iteration # 20     ecut=   150.00 Ry     beta= 0.70
     Davidson diagonalization with overlap
     ethr =  1.56E-11,  avg # of iterations =  5.3

     negative rho (up, down):  2.162E-04 0.000E+00

     total cpu time spent up to now is      975.3 secs

     total energy              =    -979.51414415 Ry
     estimated scf accuracy    <       0.00000005 Ry

     iteration # 21     ecut=   150.00 Ry     beta= 0.70
     Davidson diagonalization with overlap
     ethr =  1.56E-11,  avg # of iterations =  2.3

     negative rho (up, down):  2.162E-04 0.000E+00

     total cpu time spent up to now is     1013.9 secs

     total energy              =    -979.51414415 Ry
     estimated scf accuracy    <       0.00000002 Ry

     iteration # 22     ecut=   150.00 Ry     beta= 0.70
     Davidson diagonalization with overlap
     ethr =  1.56E-11,  avg # of iterations =  3.4

     negative rho (up, down):  2.162E-04 0.000E+00

     total cpu time spent up to now is     1055.7 secs

     total energy              =    -979.51414415 Ry
     estimated scf accuracy    <          5.6E-09 Ry

     iteration # 23     ecut=   150.00 Ry     beta= 0.70
     Davidson diagonalization with overlap
     ethr =  1.08E-11,  avg # of iterations =  2.7

     negative rho (up, down):  2.162E-04 0.000E+00

     total cpu time spent up to now is     1095.0 secs

     total energy              =    -979.51414415 Ry
     estimated scf accuracy    <          3.6E-10 Ry

     iteration # 24     ecut=   150.00 Ry     beta= 0.70
     Davidson diagonalization with overlap
     ethr =  6.86E-13,  avg # of iterations =  6.3

     negative rho (up, down):  2.162E-04 0.000E+00

     total cpu time spent up to now is     1157.0 secs

     total energy              =    -979.51414415 Ry
     estimated scf accuracy    <          1.2E-09 Ry

     iteration # 25     ecut=   150.00 Ry     beta= 0.70
     Davidson diagonalization with overlap
     ethr =  6.86E-13,  avg # of iterations =  2.6

     negative rho (up, down):  2.162E-04 0.000E+00

     total cpu time spent up to now is     1196.9 secs

     total energy              =    -979.51414415 Ry
     estimated scf accuracy    <          3.4E-10 Ry

     iteration # 26     ecut=   150.00 Ry     beta= 0.70
     Davidson diagonalization with overlap
     ethr =  6.45E-13,  avg # of iterations =  3.2

     negative rho (up, down):  2.162E-04 0.000E+00

     total cpu time spent up to now is     1238.5 secs

     total energy              =    -979.51414415 Ry
     estimated scf accuracy    <          8.1E-12 Ry

     iteration # 27     ecut=   150.00 Ry     beta= 0.70
     Davidson diagonalization with overlap
     ethr =  1.00E-13,  avg # of iterations =  6.3

     negative rho (up, down):  2.162E-04 0.000E+00

     total cpu time spent up to now is     1305.7 secs

     total energy              =    -979.51414415 Ry
     estimated scf accuracy    <          1.0E-09 Ry

     iteration # 28     ecut=   150.00 Ry     beta= 0.70
     Davidson diagonalization with overlap
     ethr =  1.00E-13,  avg # of iterations =  3.6

     negative rho (up, down):  2.162E-04 0.000E+00

     total cpu time spent up to now is     1349.3 secs

     total energy              =    -979.51414415 Ry
     estimated scf accuracy    <          4.8E-10 Ry

     iteration # 29     ecut=   150.00 Ry     beta= 0.70
     Davidson diagonalization with overlap
     ethr =  1.00E-13,  avg # of iterations =  5.9

     negative rho (up, down):  2.162E-04 0.000E+00

     total cpu time spent up to now is     1411.4 secs

     total energy              =    -979.51414415 Ry
     estimated scf accuracy    <          2.3E-11 Ry

     iteration # 30     ecut=   150.00 Ry     beta= 0.70
     Davidson diagonalization with overlap
     ethr =  1.00E-13,  avg # of iterations =  1.2

     negative rho (up, down):  2.162E-04 0.000E+00

     total cpu time spent up to now is     1444.5 secs

     total energy              =    -979.51414415 Ry
     estimated scf accuracy    <          3.3E-12 Ry

     iteration # 31     ecut=   150.00 Ry     beta= 0.70
     Davidson diagonalization with overlap
     ethr =  1.00E-13,  avg # of iterations =  2.0

     negative rho (up, down):  2.162E-04 0.000E+00

     total cpu time spent up to now is     1480.9 secs

     total energy              =    -979.51414415 Ry
     estimated scf accuracy    <          5.2E-12 Ry

     iteration # 32     ecut=   150.00 Ry     beta= 0.70
     Davidson diagonalization with overlap
     ethr =  1.00E-13,  avg # of iterations =  1.0

     negative rho (up, down):  2.162E-04 0.000E+00

     total cpu time spent up to now is     1513.4 secs

     total energy              =    -979.51414415 Ry
     estimated scf accuracy    <          5.4E-12 Ry

     iteration # 33     ecut=   150.00 Ry     beta= 0.70
     Davidson diagonalization with overlap
     ethr =  1.00E-13,  avg # of iterations =  1.0

     negative rho (up, down):  2.162E-04 0.000E+00

     total cpu time spent up to now is     1545.9 secs

     total energy              =    -979.51414415 Ry
     estimated scf accuracy    <          6.8E-12 Ry

     iteration # 34     ecut=   150.00 Ry     beta= 0.70
     Davidson diagonalization with overlap
     ethr =  1.00E-13,  avg # of iterations =  1.0

     negative rho (up, down):  2.162E-04 0.000E+00

     total cpu time spent up to now is     1578.5 secs

     total energy              =    -979.51414415 Ry
     estimated scf accuracy    <          7.0E-12 Ry

     iteration # 35     ecut=   150.00 Ry     beta= 0.70
     Davidson diagonalization with overlap
     ethr =  1.00E-13,  avg # of iterations =  1.0

     negative rho (up, down):  2.162E-04 0.000E+00

     total cpu time spent up to now is     1611.0 secs

     total energy              =    -979.51414415 Ry
     estimated scf accuracy    <          6.0E-12 Ry

     iteration # 36     ecut=   150.00 Ry     beta= 0.70
     Davidson diagonalization with overlap
     ethr =  1.00E-13,  avg # of iterations =  1.0

     negative rho (up, down):  2.162E-04 0.000E+00

     total cpu time spent up to now is     1643.5 secs

     total energy              =    -979.51414415 Ry
     estimated scf accuracy    <          6.5E-12 Ry

     iteration # 37     ecut=   150.00 Ry     beta= 0.70
     Davidson diagonalization with overlap
     ethr =  1.00E-13,  avg # of iterations =  1.0

     negative rho (up, down):  2.162E-04 0.000E+00

     total cpu time spent up to now is     1676.1 secs

     total energy              =    -979.51414415 Ry
     estimated scf accuracy    <          6.3E-12 Ry

     iteration # 38     ecut=   150.00 Ry     beta= 0.70
     Davidson diagonalization with overlap
     ethr =  1.00E-13,  avg # of iterations =  1.0

     negative rho (up, down):  2.162E-04 0.000E+00

     total cpu time spent up to now is     1708.6 secs

     End of self-consistent calculation

     Number of k-points >= 100: set verbosity='high' to print the bands.

     highest occupied level (ev):     1.9567

!    total energy              =    -979.51414415 Ry

     total all-electron energy =    -19376.429835 Ry
     estimated scf accuracy    <          7.0E-14 Ry

     The total energy is the sum of the following terms:
     one-electron contribution =   -2724.07940728 Ry
     hartree contribution      =    1372.23819516 Ry
     xc contribution           =     -58.91040884 Ry
     ewald contribution        =    1057.00362057 Ry
     one-center paw contrib.   =    -625.76614375 Ry

     convergence has been achieved in  38 iterations

     negative rho (up, down):  2.162E-04 0.000E+00

     Forces acting on atoms (cartesian axes, Ry/au):

     atom    1 type  1   force =     0.00001365   -0.00005923    0.00000147
     atom    2 type  2   force =    -0.00000594    0.00002607   -0.01854456
     atom    3 type  2   force =    -0.00000769    0.00003345    0.01878412
     atom    4 type  1   force =    -0.00001365    0.00005923   -0.00000147
     atom    5 type  2   force =     0.00000769   -0.00003345   -0.01878412
     atom    6 type  2   force =     0.00000594   -0.00002607    0.01854456

     Total force =     0.037330     Total SCF correction =     0.000002


     Computing stress (Cartesian axis) and pressure


     negative rho (up, down):  2.162E-04 0.000E+00
          total   stress  (Ry/bohr**3)                   (kbar)     P=      -19.61
  -0.00012609   0.00000008   0.00000001          -18.55        0.01        0.00
   0.00000008  -0.00012543  -0.00000003            0.01      -18.45       -0.00
   0.00000001  -0.00000003  -0.00014834            0.00       -0.00      -21.82


     Writing output data file /scratch/as3359/Mos2_ct_lat/MoS2.save/
 
     init_run     :     48.33s CPU     26.15s WALL (       1 calls)
     electrons    :   3313.07s CPU   1682.34s WALL (       1 calls)
     forces       :     12.62s CPU      6.37s WALL (       1 calls)
     stress       :     49.05s CPU     24.86s WALL (       1 calls)

     Called by init_run:
     wfcinit      :     39.43s CPU     20.32s WALL (       1 calls)
     potinit      :      2.40s CPU      1.22s WALL (       1 calls)
     hinit0       :      5.39s CPU      3.95s WALL (       1 calls)

     Called by electrons:
     c_bands      :   2805.33s CPU   1420.68s WALL (      38 calls)
     sum_band     :    472.23s CPU    241.33s WALL (      38 calls)
     v_of_rho     :      8.30s CPU      4.50s WALL (      39 calls)
     newd         :     15.34s CPU      9.42s WALL (      39 calls)
     PAW_pot      :      8.75s CPU      4.51s WALL (      39 calls)
     mix_rho      :      3.41s CPU      1.99s WALL (      38 calls)

     Called by c_bands:
     init_us_2    :     64.67s CPU     32.37s WALL (    8927 calls)
     cegterg      :   2641.88s CPU   1338.29s WALL (    4294 calls)

     Called by *egterg:
     cdiaghg      :     21.07s CPU     10.80s WALL (   18249 calls)
     h_psi        :   2159.21s CPU   1095.87s WALL (   18362 calls)
     s_psi        :    104.18s CPU     52.19s WALL (   18362 calls)
     g_psi        :     17.16s CPU      8.61s WALL (   13955 calls)

     Called by h_psi:
     h_psi:calbec :     86.32s CPU     43.25s WALL (   18362 calls)
     vloc_psi     :   1951.50s CPU    991.63s WALL (   18362 calls)
     add_vuspsi   :    103.32s CPU     51.79s WALL (   18362 calls)

     General routines
     calbec       :    120.22s CPU     60.28s WALL (   23221 calls)
     fft          :      3.80s CPU      2.27s WALL (     454 calls)
     ffts         :      0.24s CPU      0.13s WALL (      38 calls)
     fftw         :   1983.49s CPU   1009.26s WALL (  736792 calls)
 
     Parallel routines
 
     PWSCF        :  57m 8.93s CPU  29m 5.04s WALL

 
   This run was terminated on:  19:23: 2  17Apr2022            

=------------------------------------------------------------------------------=
   JOB DONE.
=------------------------------------------------------------------------------=
