
     Program PWSCF v.6.8 starts on  7Apr2022 at 19:43: 2 

     This program is part of the open-source Quantum ESPRESSO suite
     for quantum simulation of materials; please cite
         "P. Giannozzi et al., J. Phys.:Condens. Matter 21 395502 (2009);
         "P. Giannozzi et al., J. Phys.:Condens. Matter 29 465901 (2017);
         "P. Giannozzi et al., J. Chem. Phys. 152 154105 (2020);
          URL http://www.quantum-espresso.org", 
     in publications or presentations arising from this work. More details at
     http://www.quantum-espresso.org/quote

     Parallel version (MPI & OpenMP), running on       4 processor cores
     Number of MPI processes:                 2
     Threads/MPI process:                     2

     MPI processes distributed on     1 nodes
     R & G space division:  proc/nbgrp/npool/nimage =       2
     125087 MiB available memory on the printing compute node when the environment starts
 
     Reading input from Ta2CF2.scf.vcrelax1.in

     Current dimensions of program PWSCF are:
     Max number of different atomic species (ntypx) = 10
     Max number of k-points (npk) =  40000
     Max angular momentum in pseudopotentials (lmaxx) =  4
     file Ta.pbesol-spfn-rrkjus_psl.1.0.0.UPF: wavefunction(s)  5S 5P renormalized
     file F.pbesol-n-rrkjus_psl.1.0.0.UPF: wavefunction(s)  2S renormalized
     Message from routine setup:
     using ibrav=0 with symmetry is DISCOURAGED, use correct ibrav instead

     Subspace diagonalization in iterative solution of the eigenvalue problem:
     a serial algorithm will be used

 
     Parallelization info
     --------------------
     sticks:   dense  smooth     PW     G-vecs:    dense   smooth      PW
     Min         330     258     81                42917    30636    5070
     Max         331     259     82                42922    30643    5075
     Sum         661     517    163                85839    61279   10145
 
     Using Slab Decomposition
 


     bravais-lattice index     =            0
     lattice parameter (alat)  =       5.8997  a.u.
     unit-cell volume          =     978.1581 (a.u.)^3
     number of atoms/cell      =            5
     number of atomic types    =            3
     number of electrons       =        72.00
     number of Kohn-Sham states=           36
     kinetic-energy cutoff     =      60.0000  Ry
     charge density cutoff     =     300.0000  Ry
     scf convergence threshold =      1.0E-12
     mixing beta               =       0.7000
     number of iterations used =            8  plain     mixing
     energy convergence thresh.=      1.0E-04
     force convergence thresh. =      1.0E-03
     press convergence thresh. =      5.0E-01
     Exchange-correlation= PBESOL
                           (   1   4  10   8   0   0   0)
     nstep                     =           50


     celldm(1)=   5.899700  celldm(2)=   0.000000  celldm(3)=   0.000000
     celldm(4)=   0.000000  celldm(5)=   0.000000  celldm(6)=   0.000000

     crystal axes: (cart. coord. in units of alat)
               a(1) = (   0.957456   0.000000   0.000000 )  
               a(2) = (  -0.478728   0.829181   0.000000 )  
               a(3) = (   0.000000   0.000000   6.000000 )  

     reciprocal axes: (cart. coord. in units 2 pi/alat)
               b(1) = (  1.044435  0.603005  0.000000 )  
               b(2) = (  0.000000  1.206009  0.000000 )  
               b(3) = (  0.000000  0.000000  0.166667 )  


     PseudoPot. # 1 for Ta read from file:
     /shared/home/as3359/pseudo/Ta.pbesol-spfn-rrkjus_psl.1.0.0.UPF
     MD5 check sum: f099565ffaca9b150a52e9412a28e20b
     Pseudo is Ultrasoft + core correction, Zval = 27.0
     Generated using &quot;atomic&quot; code by A. Dal Corso  v.6.3
     Using radial grid of 1273 points,  8 beta functions with: 
                l(1) =   0
                l(2) =   0
                l(3) =   1
                l(4) =   1
                l(5) =   2
                l(6) =   2
                l(7) =   3
                l(8) =   3
     Q(r) pseudized with 0 coefficients 


     PseudoPot. # 2 for C  read from file:
     /shared/home/as3359/pseudo/C.pbesol-n-rrkjus_psl.1.0.0.UPF
     MD5 check sum: 05995be603a8a7c99da3dc4413f31573
     Pseudo is Ultrasoft + core correction, Zval =  4.0
     Generated using &quot;atomic&quot; code by A. Dal Corso  v.6.3MaX
     Using radial grid of 1073 points,  4 beta functions with: 
                l(1) =   0
                l(2) =   0
                l(3) =   1
                l(4) =   1
     Q(r) pseudized with 0 coefficients 


     PseudoPot. # 3 for F  read from file:
     /shared/home/as3359/pseudo/F.pbesol-n-rrkjus_psl.1.0.0.UPF
     MD5 check sum: 56b7518b93d9f54031eb04610776f7c7
     Pseudo is Ultrasoft + core correction, Zval =  7.0
     Generated using &quot;atomic&quot; code by A. Dal Corso  v.6.3MaX
     Using radial grid of 1105 points,  4 beta functions with: 
                l(1) =   0
                l(2) =   0
                l(3) =   1
                l(4) =   1
     Q(r) pseudized with 0 coefficients 


     atomic species   valence    mass     pseudopotential
        Ta            27.00   180.94788     Ta( 1.00)
        C              4.00    12.01070     C ( 1.00)
        F              7.00    18.99840     F ( 1.00)

      6 Sym. Ops. (no inversion) found



   Cartesian axes

     site n.     atom                  positions (alat units)
         1           Ta  tau(   1) = (   0.0000000   0.5527873   0.0709378  )
         2           C   tau(   2) = (   0.0000000   0.0000000   0.5007948  )
         3           Ta  tau(   3) = (   0.4787279   0.2763937   0.8898038  )
         4           F   tau(   4) = (   0.0000000   0.0000000   1.3627963  )
         5           F   tau(   5) = (   0.4787279   0.2763937  -0.3951262  )

     number of k points=    19
                       cart. coord. in units 2pi/alat
        k(    1) = (   0.0000000   0.0000000   0.0000000), wk =   0.0138889
        k(    2) = (   0.0000000   0.1005008   0.0000000), wk =   0.0833333
        k(    3) = (   0.0000000   0.2010016   0.0000000), wk =   0.0833333
        k(    4) = (   0.0000000   0.3015023   0.0000000), wk =   0.0833333
        k(    5) = (   0.0000000   0.4020031   0.0000000), wk =   0.0833333
        k(    6) = (   0.0000000   0.5025039   0.0000000), wk =   0.0833333
        k(    7) = (   0.0000000  -0.6030047   0.0000000), wk =   0.0416667
        k(    8) = (   0.0870362   0.1507512   0.0000000), wk =   0.0833333
        k(    9) = (   0.0870362   0.2512519   0.0000000), wk =   0.1666667
        k(   10) = (   0.0870362   0.3517527   0.0000000), wk =   0.1666667
        k(   11) = (   0.0870362   0.4522535   0.0000000), wk =   0.1666667
        k(   12) = (   0.0870362   0.5527543   0.0000000), wk =   0.1666667
        k(   13) = (   0.1740725   0.3015023   0.0000000), wk =   0.0833333
        k(   14) = (   0.1740725   0.4020031   0.0000000), wk =   0.1666667
        k(   15) = (   0.1740725   0.5025039   0.0000000), wk =   0.1666667
        k(   16) = (   0.1740725   0.6030047   0.0000000), wk =   0.0833333
        k(   17) = (   0.2611087   0.4522535   0.0000000), wk =   0.0833333
        k(   18) = (   0.2611087   0.5527543   0.0000000), wk =   0.1666667
        k(   19) = (   0.3481449   0.6030047   0.0000000), wk =   0.0277778

     Dense  grid:    85839 G-vectors     FFT dimensions: (  32,  32, 200)

     Smooth grid:    61279 G-vectors     FFT dimensions: (  27,  27, 180)

     Estimated max dynamical RAM per process >     475.88 MB

     Estimated total dynamical RAM >     951.75 MB

     Check: negative core charge=   -0.000002

     Initial potential from superposition of free atoms

     starting charge   71.99842, renormalised to   72.00000

     negative rho (up, down):  6.276E-04 0.000E+00
     Starting wfcs are   46 randomized atomic wfcs

     total cpu time spent up to now is        5.0 secs

     Self-consistent Calculation

     iteration #  1     ecut=    60.00 Ry     beta= 0.70
     Davidson diagonalization with overlap
     ethr =  1.00E-02,  avg # of iterations =  2.0

     negative rho (up, down):  5.522E-04 0.000E+00

     total cpu time spent up to now is        7.1 secs

     total energy              =   -1470.07990097 Ry
     estimated scf accuracy    <       1.22172804 Ry

     iteration #  2     ecut=    60.00 Ry     beta= 0.70
     Davidson diagonalization with overlap
     ethr =  1.70E-03,  avg # of iterations = 11.2

     negative rho (up, down):  5.512E-04 0.000E+00

     total cpu time spent up to now is       10.3 secs

     total energy              =   -1468.94001991 Ry
     estimated scf accuracy    <      10.19254429 Ry

     iteration #  3     ecut=    60.00 Ry     beta= 0.70
     Davidson diagonalization with overlap
     ethr =  1.70E-03,  avg # of iterations = 10.8

     negative rho (up, down):  5.067E-04 0.000E+00

     total cpu time spent up to now is       13.5 secs

     total energy              =   -1468.86570029 Ry
     estimated scf accuracy    <      34.08304646 Ry

     iteration #  4     ecut=    60.00 Ry     beta= 0.70
     Davidson diagonalization with overlap
     ethr =  1.70E-03,  avg # of iterations =  8.7

     negative rho (up, down):  4.891E-04 0.000E+00

     total cpu time spent up to now is       16.5 secs

     total energy              =   -1470.74014123 Ry
     estimated scf accuracy    <       0.26204081 Ry

     iteration #  5     ecut=    60.00 Ry     beta= 0.70
     Davidson diagonalization with overlap
     ethr =  3.64E-04,  avg # of iterations =  3.1

     negative rho (up, down):  5.563E-04 0.000E+00

     total cpu time spent up to now is       18.8 secs

     total energy              =   -1470.75597057 Ry
     estimated scf accuracy    <       0.08235457 Ry

     iteration #  6     ecut=    60.00 Ry     beta= 0.70
     Davidson diagonalization with overlap
     ethr =  1.14E-04,  avg # of iterations =  4.7

     negative rho (up, down):  6.585E-04 0.000E+00

     total cpu time spent up to now is       21.0 secs

     total energy              =   -1470.76026041 Ry
     estimated scf accuracy    <       0.01386062 Ry

     iteration #  7     ecut=    60.00 Ry     beta= 0.70
     Davidson diagonalization with overlap
     ethr =  1.93E-05,  avg # of iterations =  5.3

     negative rho (up, down):  7.383E-04 0.000E+00

     total cpu time spent up to now is       23.5 secs

     total energy              =   -1470.76307333 Ry
     estimated scf accuracy    <       0.00173711 Ry

     iteration #  8     ecut=    60.00 Ry     beta= 0.70
     Davidson diagonalization with overlap
     ethr =  2.41E-06,  avg # of iterations =  7.1

     negative rho (up, down):  7.273E-04 0.000E+00

     total cpu time spent up to now is       26.2 secs

     total energy              =   -1470.76353134 Ry
     estimated scf accuracy    <       0.00294661 Ry

     iteration #  9     ecut=    60.00 Ry     beta= 0.70
     Davidson diagonalization with overlap
     ethr =  2.41E-06,  avg # of iterations =  3.3

     negative rho (up, down):  7.269E-04 0.000E+00

     total cpu time spent up to now is       28.3 secs

     total energy              =   -1470.76350442 Ry
     estimated scf accuracy    <       0.00122968 Ry

     iteration # 10     ecut=    60.00 Ry     beta= 0.70
     Davidson diagonalization with overlap
     ethr =  1.71E-06,  avg # of iterations =  5.8

     negative rho (up, down):  7.274E-04 0.000E+00

     total cpu time spent up to now is       30.6 secs

     total energy              =   -1470.76359896 Ry
     estimated scf accuracy    <       0.00004746 Ry

     iteration # 11     ecut=    60.00 Ry     beta= 0.70
     Davidson diagonalization with overlap
     ethr =  6.59E-08,  avg # of iterations =  6.5

     negative rho (up, down):  7.276E-04 0.000E+00

     total cpu time spent up to now is       33.3 secs

     total energy              =   -1470.76360760 Ry
     estimated scf accuracy    <       0.00002488 Ry

     iteration # 12     ecut=    60.00 Ry     beta= 0.70
     Davidson diagonalization with overlap
     ethr =  3.46E-08,  avg # of iterations =  3.8

     negative rho (up, down):  7.288E-04 0.000E+00

     total cpu time spent up to now is       35.6 secs

     total energy              =   -1470.76361006 Ry
     estimated scf accuracy    <       0.00000156 Ry

     iteration # 13     ecut=    60.00 Ry     beta= 0.70
     Davidson diagonalization with overlap
     ethr =  2.16E-09,  avg # of iterations =  9.3

     negative rho (up, down):  7.288E-04 0.000E+00

     total cpu time spent up to now is       38.6 secs

     total energy              =   -1470.76361120 Ry
     estimated scf accuracy    <       0.00000443 Ry

     iteration # 14     ecut=    60.00 Ry     beta= 0.70
     Davidson diagonalization with overlap
     ethr =  2.16E-09,  avg # of iterations =  1.6

     negative rho (up, down):  7.290E-04 0.000E+00

     total cpu time spent up to now is       40.6 secs

     total energy              =   -1470.76361076 Ry
     estimated scf accuracy    <       0.00000339 Ry

     iteration # 15     ecut=    60.00 Ry     beta= 0.70
     Davidson diagonalization with overlap
     ethr =  2.16E-09,  avg # of iterations =  6.7

     negative rho (up, down):  7.289E-04 0.000E+00

     total cpu time spent up to now is       43.0 secs

     total energy              =   -1470.76361102 Ry
     estimated scf accuracy    <       0.00000012 Ry

     iteration # 16     ecut=    60.00 Ry     beta= 0.70
     Davidson diagonalization with overlap
     ethr =  1.70E-10,  avg # of iterations =  7.5

     negative rho (up, down):  7.289E-04 0.000E+00

     total cpu time spent up to now is       45.9 secs

     total energy              =   -1470.76361104 Ry
     estimated scf accuracy    <       0.00000067 Ry

     iteration # 17     ecut=    60.00 Ry     beta= 0.70
     Davidson diagonalization with overlap
     ethr =  1.70E-10,  avg # of iterations =  5.5

     negative rho (up, down):  7.289E-04 0.000E+00

     total cpu time spent up to now is       48.2 secs

     total energy              =   -1470.76361104 Ry
     estimated scf accuracy    <       0.00000018 Ry

     iteration # 18     ecut=    60.00 Ry     beta= 0.70
     Davidson diagonalization with overlap
     ethr =  1.70E-10,  avg # of iterations =  4.4

     negative rho (up, down):  7.289E-04 0.000E+00

     total cpu time spent up to now is       50.4 secs

     total energy              =   -1470.76361104 Ry
     estimated scf accuracy    <       0.00000005 Ry

     iteration # 19     ecut=    60.00 Ry     beta= 0.70
     Davidson diagonalization with overlap
     ethr =  7.08E-11,  avg # of iterations =  4.8

     negative rho (up, down):  7.289E-04 0.000E+00

     total cpu time spent up to now is       52.6 secs

     total energy              =   -1470.76361105 Ry
     estimated scf accuracy    <          1.1E-09 Ry

     iteration # 20     ecut=    60.00 Ry     beta= 0.70
     Davidson diagonalization with overlap
     ethr =  1.59E-12,  avg # of iterations = 10.7

     negative rho (up, down):  7.289E-04 0.000E+00

     total cpu time spent up to now is       55.7 secs

     total energy              =   -1470.76361105 Ry
     estimated scf accuracy    <          6.0E-09 Ry

     iteration # 21     ecut=    60.00 Ry     beta= 0.70
     Davidson diagonalization with overlap
     ethr =  1.59E-12,  avg # of iterations =  5.5

     negative rho (up, down):  7.289E-04 0.000E+00

     total cpu time spent up to now is       58.0 secs

     total energy              =   -1470.76361105 Ry
     estimated scf accuracy    <          2.2E-09 Ry

     iteration # 22     ecut=    60.00 Ry     beta= 0.70
     Davidson diagonalization with overlap
     ethr =  1.59E-12,  avg # of iterations =  6.8

     negative rho (up, down):  7.289E-04 0.000E+00

     total cpu time spent up to now is       60.4 secs

     total energy              =   -1470.76361105 Ry
     estimated scf accuracy    <          5.4E-12 Ry

     iteration # 23     ecut=    60.00 Ry     beta= 0.70
     Davidson diagonalization with overlap

 %%%%%%%%%%%%%%%%%%%%%%%%%%%%%%%%%%%%%%%%%%%%%%%%%%%%%%%%%%%%%%%%%%%%%%%%%%%%%%
     Error in routine cdiaghg (102):
     S matrix not positive definite
 %%%%%%%%%%%%%%%%%%%%%%%%%%%%%%%%%%%%%%%%%%%%%%%%%%%%%%%%%%%%%%%%%%%%%%%%%%%%%%

     stopping ...
Abort(102) on node 0 (rank 0 in comm 0): application called MPI_Abort(MPI_COMM_WORLD, 102) - process 0
