
     Program PWSCF v.6.8 starts on  7Apr2022 at 19:11:44 

     This program is part of the open-source Quantum ESPRESSO suite
     for quantum simulation of materials; please cite
         "P. Giannozzi et al., J. Phys.:Condens. Matter 21 395502 (2009);
         "P. Giannozzi et al., J. Phys.:Condens. Matter 29 465901 (2017);
         "P. Giannozzi et al., J. Chem. Phys. 152 154105 (2020);
          URL http://www.quantum-espresso.org", 
     in publications or presentations arising from this work. More details at
     http://www.quantum-espresso.org/quote

     Parallel version (MPI & OpenMP), running on       4 processor cores
     Number of MPI processes:                 2
     Threads/MPI process:                     2

     MPI processes distributed on     1 nodes
     R & G space division:  proc/nbgrp/npool/nimage =       2
     125238 MiB available memory on the printing compute node when the environment starts
 
     Reading input from Ta2CF2.vcrelax.in

     Current dimensions of program PWSCF are:
     Max number of different atomic species (ntypx) = 10
     Max number of k-points (npk) =  40000
     Max angular momentum in pseudopotentials (lmaxx) =  4
     file Ta.pbesol-spfn-rrkjus_psl.1.0.0.UPF: wavefunction(s)  5S 5P renormalized
     file F.pbesol-n-rrkjus_psl.1.0.0.UPF: wavefunction(s)  2S renormalized
     Message from routine setup:
     using ibrav=0 with symmetry is DISCOURAGED, use correct ibrav instead

     Subspace diagonalization in iterative solution of the eigenvalue problem:
     a serial algorithm will be used

 
     Parallelization info
     --------------------
     sticks:   dense  smooth     PW     G-vecs:    dense   smooth      PW
     Min         324     255     75                42000    30037    4933
     Max         325     256     76                42015    30048    4960
     Sum         649     511    151                84015    60085    9893
 
     Using Slab Decomposition
 


     bravais-lattice index     =            0
     lattice parameter (alat)  =       5.8997  a.u.
     unit-cell volume          =     955.0940 (a.u.)^3
     number of atoms/cell      =            5
     number of atomic types    =            3
     number of electrons       =        72.00
     number of Kohn-Sham states=           43
     kinetic-energy cutoff     =      60.0000  Ry
     charge density cutoff     =     300.0000  Ry
     scf convergence threshold =      1.0E-12
     mixing beta               =       0.7000
     number of iterations used =            8  plain     mixing
     energy convergence thresh.=      1.0E-04
     force convergence thresh. =      1.0E-03
     press convergence thresh. =      5.0E-01
     Exchange-correlation= PBESOL
                           (   1   4  10   8   0   0   0)
     nstep                     =           50


     celldm(1)=   5.899700  celldm(2)=   0.000000  celldm(3)=   0.000000
     celldm(4)=   0.000000  celldm(5)=   0.000000  celldm(6)=   0.000000

     crystal axes: (cart. coord. in units of alat)
               a(1) = (   0.946100   0.000000   0.000000 )  
               a(2) = (  -0.473050   0.819347   0.000000 )  
               a(3) = (   0.000000   0.000000   6.000000 )  

     reciprocal axes: (cart. coord. in units 2 pi/alat)
               b(1) = (  1.056970  0.610242  0.000000 )  
               b(2) = (  0.000000  1.220484  0.000000 )  
               b(3) = (  0.000000  0.000000  0.166667 )  


     PseudoPot. # 1 for Ta read from file:
     /shared/home/as3359/pseudo/Ta.pbesol-spfn-rrkjus_psl.1.0.0.UPF
     MD5 check sum: f099565ffaca9b150a52e9412a28e20b
     Pseudo is Ultrasoft + core correction, Zval = 27.0
     Generated using &quot;atomic&quot; code by A. Dal Corso  v.6.3
     Using radial grid of 1273 points,  8 beta functions with: 
                l(1) =   0
                l(2) =   0
                l(3) =   1
                l(4) =   1
                l(5) =   2
                l(6) =   2
                l(7) =   3
                l(8) =   3
     Q(r) pseudized with 0 coefficients 


     PseudoPot. # 2 for C  read from file:
     /shared/home/as3359/pseudo/C.pbesol-n-rrkjus_psl.1.0.0.UPF
     MD5 check sum: 05995be603a8a7c99da3dc4413f31573
     Pseudo is Ultrasoft + core correction, Zval =  4.0
     Generated using &quot;atomic&quot; code by A. Dal Corso  v.6.3MaX
     Using radial grid of 1073 points,  4 beta functions with: 
                l(1) =   0
                l(2) =   0
                l(3) =   1
                l(4) =   1
     Q(r) pseudized with 0 coefficients 


     PseudoPot. # 3 for F  read from file:
     /shared/home/as3359/pseudo/F.pbesol-n-rrkjus_psl.1.0.0.UPF
     MD5 check sum: 56b7518b93d9f54031eb04610776f7c7
     Pseudo is Ultrasoft + core correction, Zval =  7.0
     Generated using &quot;atomic&quot; code by A. Dal Corso  v.6.3MaX
     Using radial grid of 1105 points,  4 beta functions with: 
                l(1) =   0
                l(2) =   0
                l(3) =   1
                l(4) =   1
     Q(r) pseudized with 0 coefficients 


     atomic species   valence    mass     pseudopotential
        Ta            27.00   180.94788     Ta( 1.00)
        C              4.00    12.01070     C ( 1.00)
        F              7.00    18.99840     F ( 1.00)

      6 Sym. Ops. (no inversion) found



   Cartesian axes

     site n.     atom                  positions (alat units)
         1           Ta  tau(   1) = (   0.0000000   0.5462313   0.0508667  )
         2           C   tau(   2) = (   0.0000000   0.0000000   0.4857922  )
         3           Ta  tau(   3) = (   0.4730502   0.2731157   0.9208108  )
         4           F   tau(   4) = (   0.0000000   0.0000000   1.3760875  )
         5           F   tau(   5) = (   0.4730502   0.2731157  -0.4043509  )

     number of k points=    19  Marzari-Vanderbilt smearing, width (Ry)=  0.0050
                       cart. coord. in units 2pi/alat
        k(    1) = (   0.0000000   0.0000000   0.0000000), wk =   0.0138889
        k(    2) = (   0.0000000   0.1017070   0.0000000), wk =   0.0833333
        k(    3) = (   0.0000000   0.2034140   0.0000000), wk =   0.0833333
        k(    4) = (   0.0000000   0.3051210   0.0000000), wk =   0.0833333
        k(    5) = (   0.0000000   0.4068281   0.0000000), wk =   0.0833333
        k(    6) = (   0.0000000   0.5085351   0.0000000), wk =   0.0833333
        k(    7) = (   0.0000000  -0.6102421   0.0000000), wk =   0.0416667
        k(    8) = (   0.0880809   0.1525605   0.0000000), wk =   0.0833333
        k(    9) = (   0.0880809   0.2542675   0.0000000), wk =   0.1666667
        k(   10) = (   0.0880809   0.3559746   0.0000000), wk =   0.1666667
        k(   11) = (   0.0880809   0.4576816   0.0000000), wk =   0.1666667
        k(   12) = (   0.0880809   0.5593886   0.0000000), wk =   0.1666667
        k(   13) = (   0.1761617   0.3051210   0.0000000), wk =   0.0833333
        k(   14) = (   0.1761617   0.4068281   0.0000000), wk =   0.1666667
        k(   15) = (   0.1761617   0.5085351   0.0000000), wk =   0.1666667
        k(   16) = (   0.1761617   0.6102421   0.0000000), wk =   0.0833333
        k(   17) = (   0.2642426   0.4576816   0.0000000), wk =   0.0833333
        k(   18) = (   0.2642426   0.5593886   0.0000000), wk =   0.1666667
        k(   19) = (   0.3523234   0.6102421   0.0000000), wk =   0.0277778

     Dense  grid:    84015 G-vectors     FFT dimensions: (  32,  32, 200)

     Smooth grid:    60085 G-vectors     FFT dimensions: (  27,  27, 180)

     Estimated max dynamical RAM per process >     474.34 MB

     Estimated total dynamical RAM >     948.67 MB

     Check: negative core charge=   -0.000002

     Initial potential from superposition of free atoms

     starting charge   71.99842, renormalised to   72.00000

     negative rho (up, down):  6.221E-04 0.000E+00
     Starting wfcs are   46 randomized atomic wfcs

     total cpu time spent up to now is        5.2 secs

     Self-consistent Calculation

     iteration #  1     ecut=    60.00 Ry     beta= 0.70
     CG style diagonalization
     ethr =  1.00E-02,  avg # of iterations =  2.2

     negative rho (up, down):  1.790E-04 0.000E+00

     total cpu time spent up to now is        8.6 secs

     total energy              =   -1470.02555522 Ry
     estimated scf accuracy    <       1.23408889 Ry

     iteration #  2     ecut=    60.00 Ry     beta= 0.70
     CG style diagonalization
     ethr =  1.71E-03,  avg # of iterations =  3.7

     negative rho (up, down):  1.993E-04 0.000E+00

     total cpu time spent up to now is       13.1 secs

     total energy              =   -1469.33458435 Ry
     estimated scf accuracy    <       6.33570941 Ry

     iteration #  3     ecut=    60.00 Ry     beta= 0.70
     CG style diagonalization
     ethr =  1.71E-03,  avg # of iterations =  3.7

     negative rho (up, down):  2.103E-04 0.000E+00

     total cpu time spent up to now is       17.6 secs

     total energy              =   -1470.05558468 Ry
     estimated scf accuracy    <      11.21708508 Ry

     iteration #  4     ecut=    60.00 Ry     beta= 0.70
     CG style diagonalization
     ethr =  1.71E-03,  avg # of iterations =  3.2

     negative rho (up, down):  2.710E-04 0.000E+00

     total cpu time spent up to now is       21.6 secs

     total energy              =   -1470.71528362 Ry
     estimated scf accuracy    <       0.32239616 Ry

     iteration #  5     ecut=    60.00 Ry     beta= 0.70
     CG style diagonalization
     ethr =  4.48E-04,  avg # of iterations =  3.4

     negative rho (up, down):  4.297E-04 0.000E+00

     total cpu time spent up to now is       25.7 secs

     total energy              =   -1470.75906690 Ry
     estimated scf accuracy    <       0.03291375 Ry

     iteration #  6     ecut=    60.00 Ry     beta= 0.70
     CG style diagonalization
     ethr =  4.57E-05,  avg # of iterations =  3.7

     negative rho (up, down):  6.708E-04 0.000E+00

     total cpu time spent up to now is       30.3 secs

     total energy              =   -1470.76414831 Ry
     estimated scf accuracy    <       0.00484588 Ry

     iteration #  7     ecut=    60.00 Ry     beta= 0.70
     CG style diagonalization
     ethr =  6.73E-06,  avg # of iterations =  4.1

     negative rho (up, down):  7.184E-04 0.000E+00

     total cpu time spent up to now is       35.2 secs

     total energy              =   -1470.76535688 Ry
     estimated scf accuracy    <       0.00110564 Ry

     iteration #  8     ecut=    60.00 Ry     beta= 0.70
     CG style diagonalization
     ethr =  1.54E-06,  avg # of iterations =  3.9

     negative rho (up, down):  7.222E-04 0.000E+00

     total cpu time spent up to now is       40.0 secs

     total energy              =   -1470.76578742 Ry
     estimated scf accuracy    <       0.00023923 Ry

     iteration #  9     ecut=    60.00 Ry     beta= 0.70
     CG style diagonalization
     ethr =  3.32E-07,  avg # of iterations =  3.9

     negative rho (up, down):  7.247E-04 0.000E+00

     total cpu time spent up to now is       44.7 secs

     total energy              =   -1470.76582926 Ry
     estimated scf accuracy    <       0.00005656 Ry

     iteration # 10     ecut=    60.00 Ry     beta= 0.70
     CG style diagonalization
     ethr =  7.86E-08,  avg # of iterations =  3.9

     negative rho (up, down):  7.280E-04 0.000E+00

     total cpu time spent up to now is       49.4 secs

     total energy              =   -1470.76584951 Ry
     estimated scf accuracy    <       0.00000389 Ry

     iteration # 11     ecut=    60.00 Ry     beta= 0.70
     CG style diagonalization
     ethr =  5.40E-09,  avg # of iterations =  4.8

     negative rho (up, down):  7.278E-04 0.000E+00

     total cpu time spent up to now is       55.2 secs

     total energy              =   -1470.76585501 Ry
     estimated scf accuracy    <       0.00000255 Ry

     iteration # 12     ecut=    60.00 Ry     beta= 0.70
     CG style diagonalization
     ethr =  3.54E-09,  avg # of iterations =  3.7

     negative rho (up, down):  7.277E-04 0.000E+00

     total cpu time spent up to now is       59.6 secs

     total energy              =   -1470.76585565 Ry
     estimated scf accuracy    <       0.00000070 Ry

     iteration # 13     ecut=    60.00 Ry     beta= 0.70
     CG style diagonalization
     ethr =  9.68E-10,  avg # of iterations =  3.9

     negative rho (up, down):  7.279E-04 0.000E+00

     total cpu time spent up to now is       64.3 secs

     total energy              =   -1470.76585586 Ry
     estimated scf accuracy    <       0.00000169 Ry

     iteration # 14     ecut=    60.00 Ry     beta= 0.70
     CG style diagonalization
     ethr =  9.68E-10,  avg # of iterations =  3.4

     negative rho (up, down):  7.280E-04 0.000E+00

     total cpu time spent up to now is       68.4 secs

     total energy              =   -1470.76585616 Ry
     estimated scf accuracy    <       0.00000038 Ry

     iteration # 15     ecut=    60.00 Ry     beta= 0.70
     CG style diagonalization
     ethr =  5.24E-10,  avg # of iterations =  3.4

     negative rho (up, down):  7.280E-04 0.000E+00

     total cpu time spent up to now is       72.5 secs

     total energy              =   -1470.76585625 Ry
     estimated scf accuracy    <       0.00000008 Ry

     iteration # 16     ecut=    60.00 Ry     beta= 0.70
     CG style diagonalization
     ethr =  1.12E-10,  avg # of iterations =  3.9

     negative rho (up, down):  7.280E-04 0.000E+00

     total cpu time spent up to now is       77.1 secs

     total energy              =   -1470.76585634 Ry
     estimated scf accuracy    <       0.00000002 Ry

     iteration # 17     ecut=    60.00 Ry     beta= 0.70
     CG style diagonalization
     ethr =  3.33E-11,  avg # of iterations =  4.3

     negative rho (up, down):  7.279E-04 0.000E+00

     total cpu time spent up to now is       82.2 secs

     total energy              =   -1470.76585639 Ry
     estimated scf accuracy    <          1.7E-09 Ry

     iteration # 18     ecut=    60.00 Ry     beta= 0.70
     CG style diagonalization
     c_bands:  2 eigenvalues not converged
     c_bands:  1 eigenvalues not converged
     c_bands:  1 eigenvalues not converged
     c_bands:  1 eigenvalues not converged
     c_bands:  1 eigenvalues not converged
     ethr =  2.38E-12,  avg # of iterations =  5.8

     negative rho (up, down):  7.279E-04 0.000E+00

     total cpu time spent up to now is       89.0 secs

     total energy              =   -1470.76585644 Ry
     estimated scf accuracy    <          3.5E-09 Ry

     iteration # 19     ecut=    60.00 Ry     beta= 0.70
     CG style diagonalization
     ethr =  2.38E-12,  avg # of iterations =  4.0

     negative rho (up, down):  7.279E-04 0.000E+00

     total cpu time spent up to now is       93.8 secs

     total energy              =   -1470.76585644 Ry
     estimated scf accuracy    <          3.0E-10 Ry

     iteration # 20     ecut=    60.00 Ry     beta= 0.70
     CG style diagonalization
     ethr =  4.16E-13,  avg # of iterations =  4.8

     negative rho (up, down):  7.279E-04 0.000E+00

     total cpu time spent up to now is       99.5 secs

     total energy              =   -1470.76585644 Ry
     estimated scf accuracy    <          1.8E-10 Ry

     iteration # 21     ecut=    60.00 Ry     beta= 0.70
     CG style diagonalization
     ethr =  2.45E-13,  avg # of iterations =  4.2

     negative rho (up, down):  7.279E-04 0.000E+00

     total cpu time spent up to now is      104.5 secs

     total energy              =   -1470.76585644 Ry
     estimated scf accuracy    <          9.8E-12 Ry

     iteration # 22     ecut=    60.00 Ry     beta= 0.70
     CG style diagonalization
     c_bands:  1 eigenvalues not converged
     ethr =  1.00E-13,  avg # of iterations =  4.1

     negative rho (up, down):  7.279E-04 0.000E+00

     total cpu time spent up to now is      109.3 secs

     total energy              =   -1470.76585644 Ry
     estimated scf accuracy    <          1.4E-11 Ry

     iteration # 23     ecut=    60.00 Ry     beta= 0.70
     CG style diagonalization
     ethr =  1.00E-13,  avg # of iterations =  3.4

     negative rho (up, down):  7.279E-04 0.000E+00

     total cpu time spent up to now is      113.4 secs

     total energy              =   -1470.76585644 Ry
     estimated scf accuracy    <          2.1E-12 Ry

     iteration # 24     ecut=    60.00 Ry     beta= 0.70
     CG style diagonalization
     ethr =  1.00E-13,  avg # of iterations =  3.3

     negative rho (up, down):  7.279E-04 0.000E+00

     total cpu time spent up to now is      117.3 secs

     End of self-consistent calculation

          k = 0.0000 0.0000 0.0000 (  7419 PWs)   bands (ev):

   -63.9844 -63.9320 -30.9461 -30.6017 -30.0823 -30.0823 -29.9435 -29.9435
   -21.3549 -21.3099 -15.6653 -15.6505 -15.6505 -15.6312 -15.6164 -15.6164
   -15.6145 -15.6001 -15.6001 -15.5851 -15.5851 -15.5760 -15.5489 -15.4738
    -8.4667  -4.5725  -3.1712  -2.5215  -2.5215  -2.4872  -2.4872  -0.7644
     1.6242   1.6242   2.5642   4.6216   4.6216   6.1947   6.6011   6.6011
     6.8062   7.1665   7.1666

          k = 0.0000 0.1017 0.0000 (  7432 PWs)   bands (ev):

   -63.9795 -63.9274 -30.9262 -30.5935 -30.1531 -30.0978 -30.0137 -29.9579
   -21.3350 -21.2933 -15.6635 -15.6493 -15.6490 -15.6294 -15.6182 -15.6165
   -15.6130 -15.6003 -15.5990 -15.5872 -15.5855 -15.5797 -15.5458 -15.4776
    -8.3576  -4.4172  -3.2380  -2.6864  -2.5281  -2.5260  -2.5001  -0.6916
     1.2574   1.6174   2.6763   4.2797   4.8263   5.9831   6.4383   6.5370
     6.7935   7.3774   7.5407

          k = 0.0000 0.2034 0.0000 (  7462 PWs)   bands (ev):

   -63.9662 -63.9148 -30.8710 -30.5775 -30.3381 -30.1988 -30.1400 -29.9971
   -21.2852 -21.2504 -15.6596 -15.6449 -15.6445 -15.6246 -15.6223 -15.6176
   -15.6100 -15.5998 -15.5962 -15.5922 -15.5906 -15.5853 -15.5369 -15.4878
    -8.0640  -4.0402  -3.3711  -3.0572  -2.6847  -2.5518  -2.5402  -0.5707
     0.4737   1.5967   2.7130   3.9394   5.4279   5.4308   6.5280   6.6359
     7.0742   7.7253   8.2627

          k = 0.0000 0.3051 0.0000 (  7518 PWs)   bands (ev):

   -63.9479 -63.8976 -30.7964 -30.6394 -30.5215 -30.4160 -30.1970 -30.0501
   -21.2269 -21.1972 -15.6562 -15.6392 -15.6390 -15.6278 -15.6208 -15.6160
   -15.6077 -15.6023 -15.6005 -15.5943 -15.5933 -15.5847 -15.5245 -15.5009
    -7.6711  -3.7606  -3.4636  -3.3891  -2.9705  -2.6252  -2.5935  -0.5556
    -0.2211   1.5585   2.2326   4.3067   5.4253   6.3864   6.6269   7.0833
     7.5129   8.0409   8.9539

          k = 0.0000 0.4068 0.0000 (  7506 PWs)   bands (ev):

   -63.9295 -63.8804 -30.8706 -30.7447 -30.6601 -30.4644 -30.2534 -30.1027
   -21.1776 -21.1505 -15.6534 -15.6391 -15.6364 -15.6261 -15.6256 -15.6107
   -15.6088 -15.6057 -15.6026 -15.5940 -15.5895 -15.5806 -15.5129 -15.5119
    -7.2762  -3.9807  -3.6438  -3.4210  -3.1259  -2.7210  -2.6561  -0.9803
    -0.2831   1.5068   1.7260   4.7000   6.2874   6.9603   7.5146   7.7291
     7.9004   8.4877   9.4011

          k = 0.0000 0.5085 0.0000 (  7502 PWs)   bands (ev):

   -63.9160 -63.8677 -31.0370 -30.8834 -30.6163 -30.4590 -30.2943 -30.1409
   -21.1457 -21.1208 -15.6511 -15.6427 -15.6406 -15.6255 -15.6218 -15.6126
   -15.6108 -15.6048 -15.5969 -15.5957 -15.5853 -15.5767 -15.5210 -15.5025
    -6.9653  -4.3158  -3.9072  -3.3804  -3.1051  -2.8008  -2.7074  -1.3583
    -0.2181   1.4107   1.4609   4.9396   7.4479   7.6287   7.9105   8.2660
     8.7079   9.3248   9.6019

          k = 0.0000-0.6102 0.0000 (  7546 PWs)   bands (ev):

   -63.9111 -63.8631 -31.0982 -30.9416 -30.5886 -30.4586 -30.3092 -30.1548
   -21.1348 -21.1110 -15.6503 -15.6444 -15.6434 -15.6249 -15.6202 -15.6139
   -15.6112 -15.6046 -15.5966 -15.5943 -15.5837 -15.5753 -15.5239 -15.4992
    -6.8386  -4.4792  -4.0015  -3.3684  -3.0710  -2.8317  -2.7272  -1.5094
    -0.1959   1.3074   1.4426   5.0180   7.7645   7.9664   8.1209   8.8256
     9.2362   9.5146   9.7951

          k = 0.0881 0.1526 0.0000 (  7453 PWs)   bands (ev):

   -63.9704 -63.9188 -30.8886 -30.5809 -30.2774 -30.1467 -30.1212 -29.9889
   -21.3002 -21.2636 -15.6606 -15.6463 -15.6460 -15.6259 -15.6215 -15.6170
   -15.6108 -15.6004 -15.5968 -15.5908 -15.5879 -15.5848 -15.5397 -15.4846
    -8.1558  -4.1461  -3.3351  -2.9421  -2.6569  -2.5540  -2.4996  -0.5968
     0.7277   1.5378   2.8106   3.9062   5.1875   5.7155   6.2247   6.8349
     6.9810   7.3644   8.2949

          k = 0.0881 0.2543 0.0000 (  7467 PWs)   bands (ev):

   -63.9546 -63.9039 -30.8227 -30.5855 -30.4660 -30.3366 -30.1867 -30.0447
   -21.2467 -21.2155 -15.6570 -15.6413 -15.6405 -15.6271 -15.6190 -15.6181
   -15.6077 -15.6003 -15.5981 -15.5957 -15.5936 -15.5853 -15.5290 -15.4964
    -7.8097  -3.7690  -3.4402  -3.2902  -2.9063  -2.6353  -2.5342  -0.5026
     0.0125   1.3740   2.6837   3.9428   5.1789   6.2132   6.5743   6.9482
     7.3003   7.7302   9.0741

          k = 0.0881 0.3560 0.0000 (  7501 PWs)   bands (ev):

   -63.9363 -63.8867 -30.7814 -30.7179 -30.6065 -30.4591 -30.2554 -30.1083
   -21.1937 -21.1656 -15.6540 -15.6372 -15.6365 -15.6300 -15.6215 -15.6114
   -15.6087 -15.6058 -15.6020 -15.5938 -15.5930 -15.5822 -15.5166 -15.5091
    -7.4099  -3.7620  -3.5555  -3.4028  -3.1426  -2.7392  -2.6214  -0.7297
    -0.3054   1.1556   2.3460   4.4352   5.3646   6.7783   7.4187   7.4967
     7.7016   8.2715   9.5959

          k = 0.0881 0.4577 0.0000 (  7519 PWs)   bands (ev):

   -63.9203 -63.8717 -30.9526 -30.8054 -30.6377 -30.4614 -30.3137 -30.1625
   -21.1538 -21.1277 -15.6516 -15.6406 -15.6372 -15.6271 -15.6230 -15.6125
   -15.6107 -15.6043 -15.5992 -15.5955 -15.5878 -15.5784 -15.5195 -15.5056
    -7.0488  -4.0790  -3.8032  -3.3771  -3.1510  -2.8218  -2.7198  -1.1653
    -0.2237   0.9095   2.1495   4.7563   6.3767   7.1066   7.7927   8.1213
     8.7254   9.1146   9.7854

          k = 0.0881 0.5594 0.0000 (  7519 PWs)   bands (ev):

   -63.9111 -63.8631 -31.0623 -30.9074 -30.5898 -30.4607 -30.3469 -30.1935
   -21.1327 -21.1082 -15.6502 -15.6435 -15.6413 -15.6253 -15.6208 -15.6133
   -15.6128 -15.6036 -15.5969 -15.5944 -15.5844 -15.5761 -15.5251 -15.4992
    -6.8190  -4.3392  -3.9803  -3.3413  -3.1086  -2.8851  -2.7857  -1.4117
    -0.1700   0.7519   2.0645   4.9506   7.4458   7.5978   8.0117   8.2736
     9.3711   9.5758  10.2683

          k = 0.1762 0.3051 0.0000 (  7491 PWs)   bands (ev):

   -63.9387 -63.8890 -30.7668 -30.6814 -30.5761 -30.4450 -30.2709 -30.1285
   -21.1994 -21.1708 -15.6539 -15.6370 -15.6354 -15.6323 -15.6183 -15.6122
   -15.6101 -15.6052 -15.6002 -15.5960 -15.5941 -15.5827 -15.5183 -15.5080
    -7.4514  -3.5820  -3.5478  -3.4180  -3.1575  -2.8075  -2.5838  -0.5633
    -0.3335   0.9487   2.7827   4.1118   4.9156   6.9096   7.1074   7.5343
     7.6837   8.1941   9.9878

          k = 0.1762 0.4068 0.0000 (  7508 PWs)   bands (ev):

   -63.9228 -63.8740 -30.8627 -30.7264 -30.6504 -30.4618 -30.3638 -30.2184
   -21.1570 -21.1299 -15.6513 -15.6378 -15.6340 -15.6300 -15.6217 -15.6165
   -15.6091 -15.6029 -15.5992 -15.5961 -15.5915 -15.5793 -15.5197 -15.5073
    -7.0743  -3.8181  -3.7411  -3.3081  -3.2002  -2.9451  -2.7267  -0.9802
    -0.2312   0.5527   2.8614   4.4576   5.1533   6.9859   7.4676   8.1848
     8.8743   9.1242  10.3378

          k = 0.1762 0.5085 0.0000 (  7502 PWs)   bands (ev):

   -63.9111 -63.8631 -30.9738 -30.8252 -30.5952 -30.4772 -30.4249 -30.2839
   -21.1284 -21.1026 -15.6501 -15.6404 -15.6371 -15.6264 -15.6232 -15.6169
   -15.6111 -15.6014 -15.5976 -15.5946 -15.5865 -15.5775 -15.5276 -15.4994
    -6.7768  -4.0369  -3.9262  -3.2949  -3.1695  -3.0406  -2.8472  -1.2347
    -0.1350   0.2496   2.8676   4.7333   6.1508   7.1617   7.7964   8.2601
     9.4894   9.7143  10.7662

          k = 0.1762 0.6102 0.0000 (  7507 PWs)   bands (ev):

   -63.9068 -63.8590 -31.0146 -30.8624 -30.5697 -30.4921 -30.4414 -30.3070
   -21.1184 -21.0932 -15.6499 -15.6405 -15.6402 -15.6257 -15.6210 -15.6177
   -15.6120 -15.6019 -15.5973 -15.5926 -15.5842 -15.5771 -15.5305 -15.4966
    -6.6601  -4.1324  -3.9946  -3.2865  -3.1395  -3.1169  -2.8819  -1.3127
    -0.0919   0.1228   2.8511   4.8874   6.9192   7.3464   8.0015   8.0911
     9.0970   9.7595  11.1273

          k = 0.2642 0.4577 0.0000 (  7497 PWs)   bands (ev):

   -63.9111 -63.8631 -30.9130 -30.7721 -30.6057 -30.5063 -30.4538 -30.3388
   -21.1263 -21.0998 -15.6500 -15.6390 -15.6317 -15.6286 -15.6265 -15.6183
   -15.6103 -15.5998 -15.5978 -15.5944 -15.5884 -15.5780 -15.5290 -15.4995
    -6.7540  -3.8947  -3.8816  -3.2609  -3.1761  -3.0738  -2.9467  -1.1427
    -0.1765   0.0891   3.4779   4.5116   5.3567   7.0600   7.6518   8.2884
     9.5890   9.8495  10.7643

          k = 0.2642 0.5594 0.0000 (  7508 PWs)   bands (ev):

   -63.9043 -63.8567 -30.9206 -30.7787 -30.6271 -30.5442 -30.4955 -30.3997
   -21.1090 -21.0828 -15.6498 -15.6400 -15.6347 -15.6282 -15.6232 -15.6199
   -15.6108 -15.6023 -15.5950 -15.5919 -15.5848 -15.5786 -15.5343 -15.4951
    -6.5580  -3.9680  -3.8510  -3.4043  -3.2022  -3.1090  -3.0185  -1.1580
    -0.3724   0.0066   3.7367   4.7953   6.0170   7.2207   7.7738   7.9747
     9.0460   9.5864  11.0479

          k = 0.3523 0.6102 0.0000 (  7521 PWs)   bands (ev):

   -63.9019 -63.8544 -30.8238 -30.7817 -30.6691 -30.6166 -30.5197 -30.4240
   -21.1018 -21.0753 -15.6495 -15.6407 -15.6322 -15.6299 -15.6234 -15.6207
   -15.6103 -15.6037 -15.5929 -15.5913 -15.5834 -15.5803 -15.5369 -15.4937
    -6.4764  -3.9369  -3.6997  -3.4863  -3.3906  -3.0616  -3.0572  -1.0063
    -0.6937   0.0380   4.1965   4.9737   5.9287   7.3764   7.4125   7.7259
     8.9273   9.2510  11.1720

     the Fermi energy is     4.9588 ev

!    total energy              =   -1470.76585644 Ry
     estimated scf accuracy    <          3.8E-13 Ry
     smearing contrib. (-TS)   =      -0.00010962 Ry
     internal energy E=F+TS    =   -1470.76574682 Ry

     The total energy is F=E-TS. E is the sum of the following terms:
     one-electron contribution =   -7499.39845920 Ry
     hartree contribution      =    3795.05318134 Ry
     xc contribution           =    -157.90561760 Ry
     ewald contribution        =    2391.48514864 Ry

     convergence has been achieved in  24 iterations

     negative rho (up, down):  7.279E-04 0.000E+00

     Forces acting on atoms (cartesian axes, Ry/au):

     atom    1 type  1   force =     0.00000000    0.00000000    0.02994293
     atom    2 type  2   force =     0.00000000   -0.00000000    0.04680778
     atom    3 type  1   force =     0.00000000    0.00000000   -0.06233109
     atom    4 type  3   force =     0.00000000    0.00000000    0.01465526
     atom    5 type  3   force =     0.00000000    0.00000000   -0.02907489

     Total force =     0.089626     Total SCF correction =     0.000005


     Computing stress (Cartesian axis) and pressure


     negative rho (up, down):  7.279E-04 0.000E+00
          total   stress  (Ry/bohr**3)                   (kbar)     P=       -0.95
   0.00002018  -0.00000000   0.00000000            2.97       -0.00        0.00
  -0.00000000   0.00002018  -0.00000000           -0.00        2.97       -0.00
   0.00000000   0.00000000  -0.00005975            0.00        0.00       -8.79


     BFGS Geometry Optimization
     Energy error            =      0.0E+00 Ry
     Gradient error          =      6.2E-02 Ry/Bohr
     Cell gradient error     =      3.0E+00 kbar

     number of scf cycles    =   1
     number of bfgs steps    =   0

     enthalpy           new  =   -1470.7658564449 Ry

     new trust radius        =       0.0623310880 bohr
     new conv_thr            =            1.0E-12 Ry

     new unit-cell volume =    956.05785 a.u.^3 (   141.67316 Ang^3 )
     density =      4.82788 g/cm^3

CELL_PARAMETERS (alat=  5.89970000)
   0.946577666  -0.000000000   0.000000000
  -0.473288832   0.819760306   0.000000000
   0.000000000   0.000000000   6.000000000

ATOMIC_POSITIONS (crystal)
Ta            0.3333333330        0.6666666670        0.0093236789
C            -0.0000000000       -0.0000000000        0.0822876894
Ta            0.6666666670        0.3333333330        0.1517076173
F             0.0000000000        0.0000000000        0.2297619321
F             0.6666666670        0.3333333330       -0.0682131770



     Writing output data file /scratch/as3359/Ta2CF2_loop/Ta.save/
     NEW-OLD atomic charge density approx. for the potential

     Check: negative core charge=   -0.000002

     negative rho (up, down):  7.162E-04 0.000E+00
     extrapolated charge   72.07259, renormalised to   72.00000

     total cpu time spent up to now is      127.7 secs

     Self-consistent Calculation

     iteration #  1     ecut=    60.00 Ry     beta= 0.70
     CG style diagonalization
     c_bands:  1 eigenvalues not converged
     c_bands:  1 eigenvalues not converged
     c_bands:  2 eigenvalues not converged
     c_bands:  1 eigenvalues not converged
     c_bands:  3 eigenvalues not converged
     c_bands:  1 eigenvalues not converged
     c_bands:  3 eigenvalues not converged
     c_bands:  2 eigenvalues not converged
     c_bands:  2 eigenvalues not converged
     c_bands:  1 eigenvalues not converged
     c_bands:  1 eigenvalues not converged
     ethr =  1.00E-06,  avg # of iterations =  9.8

     negative rho (up, down):  6.620E-04 0.000E+00

     total cpu time spent up to now is      139.6 secs

     total energy              =   -1470.75355086 Ry
     estimated scf accuracy    <       0.01542168 Ry

     iteration #  2     ecut=    60.00 Ry     beta= 0.70
     CG style diagonalization
     c_bands:  1 eigenvalues not converged
     c_bands:  1 eigenvalues not converged
     c_bands:  1 eigenvalues not converged
     ethr =  2.14E-05,  avg # of iterations =  4.1

     negative rho (up, down):  6.900E-04 0.000E+00

     total cpu time spent up to now is      144.6 secs

     total energy              =   -1470.75624212 Ry
     estimated scf accuracy    <       0.11940384 Ry

     iteration #  3     ecut=    60.00 Ry     beta= 0.70
     CG style diagonalization
     c_bands:  1 eigenvalues not converged
     c_bands:  1 eigenvalues not converged
     ethr =  2.14E-05,  avg # of iterations =  4.3

     negative rho (up, down):  6.902E-04 0.000E+00

     total cpu time spent up to now is      149.7 secs

     total energy              =   -1470.76635867 Ry
     estimated scf accuracy    <       0.08618686 Ry

     iteration #  4     ecut=    60.00 Ry     beta= 0.70
     CG style diagonalization
     ethr =  2.14E-05,  avg # of iterations =  3.2

     negative rho (up, down):  7.013E-04 0.000E+00

     total cpu time spent up to now is      153.6 secs

     total energy              =   -1470.77126714 Ry
     estimated scf accuracy    <       0.00531839 Ry

     iteration #  5     ecut=    60.00 Ry     beta= 0.70
     CG style diagonalization
     ethr =  7.39E-06,  avg # of iterations =  3.5

     negative rho (up, down):  7.085E-04 0.000E+00

     total cpu time spent up to now is      157.8 secs

     total energy              =   -1470.77143055 Ry
     estimated scf accuracy    <       0.00171018 Ry

     iteration #  6     ecut=    60.00 Ry     beta= 0.70
     CG style diagonalization
     ethr =  2.38E-06,  avg # of iterations =  3.3

     negative rho (up, down):  7.199E-04 0.000E+00

     total cpu time spent up to now is      161.7 secs

     total energy              =   -1470.77147280 Ry
     estimated scf accuracy    <       0.00035491 Ry

     iteration #  7     ecut=    60.00 Ry     beta= 0.70
     CG style diagonalization
     ethr =  4.93E-07,  avg # of iterations =  3.6

     negative rho (up, down):  7.231E-04 0.000E+00

     total cpu time spent up to now is      166.1 secs

     total energy              =   -1470.77155293 Ry
     estimated scf accuracy    <       0.00001465 Ry

     iteration #  8     ecut=    60.00 Ry     beta= 0.70
     CG style diagonalization
     ethr =  2.04E-08,  avg # of iterations =  4.4

     negative rho (up, down):  7.235E-04 0.000E+00

     total cpu time spent up to now is      171.4 secs

     total energy              =   -1470.77156943 Ry
     estimated scf accuracy    <       0.00000458 Ry

     iteration #  9     ecut=    60.00 Ry     beta= 0.70
     CG style diagonalization
     ethr =  6.36E-09,  avg # of iterations =  4.1

     negative rho (up, down):  7.231E-04 0.000E+00

     total cpu time spent up to now is      176.3 secs

     total energy              =   -1470.77157230 Ry
     estimated scf accuracy    <       0.00000119 Ry

     iteration # 10     ecut=    60.00 Ry     beta= 0.70
     CG style diagonalization
     ethr =  1.65E-09,  avg # of iterations =  3.8

     negative rho (up, down):  7.235E-04 0.000E+00

     total cpu time spent up to now is      180.9 secs

     total energy              =   -1470.77157300 Ry
     estimated scf accuracy    <       0.00000012 Ry

     iteration # 11     ecut=    60.00 Ry     beta= 0.70
     CG style diagonalization
     ethr =  1.69E-10,  avg # of iterations =  4.3

     negative rho (up, down):  7.235E-04 0.000E+00

     total cpu time spent up to now is      186.0 secs

     total energy              =   -1470.77157321 Ry
     estimated scf accuracy    <       0.00000002 Ry

     iteration # 12     ecut=    60.00 Ry     beta= 0.70
     CG style diagonalization
     ethr =  2.46E-11,  avg # of iterations =  4.9

     negative rho (up, down):  7.236E-04 0.000E+00

     total cpu time spent up to now is      191.8 secs

     total energy              =   -1470.77157327 Ry
     estimated scf accuracy    <          2.3E-09 Ry

     iteration # 13     ecut=    60.00 Ry     beta= 0.70
     CG style diagonalization
     ethr =  3.24E-12,  avg # of iterations =  4.7

     negative rho (up, down):  7.236E-04 0.000E+00

     total cpu time spent up to now is      197.4 secs

     total energy              =   -1470.77157328 Ry
     estimated scf accuracy    <          7.2E-09 Ry

     iteration # 14     ecut=    60.00 Ry     beta= 0.70
     CG style diagonalization
     ethr =  3.24E-12,  avg # of iterations =  3.7

     negative rho (up, down):  7.236E-04 0.000E+00

     total cpu time spent up to now is      201.9 secs

     total energy              =   -1470.77157328 Ry
     estimated scf accuracy    <          6.1E-09 Ry

     iteration # 15     ecut=    60.00 Ry     beta= 0.70
     CG style diagonalization
     ethr =  3.24E-12,  avg # of iterations =  3.3

     negative rho (up, down):  7.236E-04 0.000E+00

     total cpu time spent up to now is      205.9 secs

     total energy              =   -1470.77157328 Ry
     estimated scf accuracy    <          3.4E-11 Ry

     iteration # 16     ecut=    60.00 Ry     beta= 0.70
     CG style diagonalization
     ethr =  1.00E-13,  avg # of iterations =  5.1

     negative rho (up, down):  7.236E-04 0.000E+00

     total cpu time spent up to now is      211.9 secs

     total energy              =   -1470.77157328 Ry
     estimated scf accuracy    <          7.1E-12 Ry

     iteration # 17     ecut=    60.00 Ry     beta= 0.70
     CG style diagonalization
     ethr =  1.00E-13,  avg # of iterations =  3.8

     negative rho (up, down):  7.236E-04 0.000E+00

     total cpu time spent up to now is      216.5 secs

     End of self-consistent calculation

          k = 0.0000 0.0000 0.0000 (  7419 PWs)   bands (ev):

   -64.2322 -64.1378 -31.1835 -30.8006 -30.3209 -30.3209 -30.1613 -30.1613
   -21.3092 -21.2278 -15.9176 -15.9035 -15.9035 -15.8831 -15.8695 -15.8695
   -15.8271 -15.8199 -15.8029 -15.8029 -15.7876 -15.7876 -15.7548 -15.6772
    -8.7918  -4.6736  -3.1161  -2.4546  -2.4546  -2.3151  -2.3151  -0.9817
     1.1454   1.1454   2.3393   4.3291   4.3291   6.1064   6.3810   6.3810
     6.6833   6.9059   6.9059

          k = 0.0000 0.1017 0.0000 (  7432 PWs)   bands (ev):

   -64.2274 -64.1332 -31.1638 -30.7940 -30.3899 -30.3364 -30.2308 -30.1757
   -21.2904 -21.2102 -15.9158 -15.9024 -15.9020 -15.8812 -15.8716 -15.8699
   -15.8310 -15.8184 -15.8030 -15.8015 -15.7897 -15.7879 -15.7515 -15.6809
    -8.6812  -4.5078  -3.1842  -2.5802  -2.4601  -2.4098  -2.3276  -0.9169
     0.7919   1.1406   2.4544   3.9786   4.5358   5.7660   6.2888   6.3595
     6.6161   7.1422   7.3519

          k = 0.0000 0.2033 0.0000 (  7462 PWs)   bands (ev):

   -64.2143 -64.1206 -31.1093 -30.7835 -30.5687 -30.4142 -30.3783 -30.2147
   -21.2430 -21.1642 -15.9122 -15.8983 -15.8978 -15.8769 -15.8753 -15.8713
   -15.8411 -15.8151 -15.8024 -15.7979 -15.7949 -15.7887 -15.7423 -15.6912
    -8.3849  -4.1024  -3.3236  -2.9282  -2.6242  -2.4876  -2.3703  -0.8165
     0.0396   1.1271   2.4828   3.6326   5.1457   5.1914   6.3581   6.3611
     6.9771   7.5083   8.1424

          k = 0.0000 0.3050 0.0000 (  7518 PWs)   bands (ev):

   -64.1963 -64.1033 -31.0369 -30.8648 -30.7300 -30.6305 -30.4351 -30.2675
   -21.1865 -21.1063 -15.9092 -15.8928 -15.8926 -15.8819 -15.8744 -15.8669
   -15.8526 -15.8126 -15.8034 -15.7973 -15.7957 -15.7874 -15.7295 -15.7044
    -7.9918  -3.7807  -3.4177  -3.2864  -2.9495  -2.5506  -2.4437  -0.8613
    -0.5596   1.1014   1.9491   4.0655   5.1541   6.1059   6.3907   6.8024
     7.4482   7.8213   8.8562

          k = 0.0000 0.4066 0.0000 (  7506 PWs)   bands (ev):

   -64.1782 -64.0860 -31.0998 -30.9804 -30.8665 -30.6816 -30.4912 -30.3199
   -21.1376 -21.0543 -15.9067 -15.8931 -15.8901 -15.8801 -15.8783 -15.8598
   -15.8571 -15.8127 -15.8075 -15.7972 -15.7923 -15.7825 -15.7165 -15.7164
    -7.6043  -3.9655  -3.5947  -3.4098  -3.0952  -2.6399  -2.5254  -1.2963
    -0.5452   1.0630   1.4114   4.5462   5.9837   6.6495   7.2208   7.4992
     7.8341   8.2326   9.2500

          k = 0.0000 0.5083 0.0000 (  7502 PWs)   bands (ev):

   -64.1650 -64.0733 -31.2620 -31.1016 -30.8386 -30.6823 -30.5319 -30.3579
   -21.1058 -21.0199 -15.9047 -15.8968 -15.8936 -15.8784 -15.8757 -15.8622
   -15.8495 -15.8155 -15.8081 -15.7994 -15.7879 -15.7783 -15.7244 -15.7067
    -7.3095  -4.3357  -3.8368  -3.3740  -3.0961  -2.7199  -2.5864  -1.6218
    -0.4700   1.0265   1.0839   4.8561   7.1248   7.3106   7.6716   8.1516
     8.4501   9.0577   9.3635

          k =-0.0000-0.6099 0.0000 (  7546 PWs)   bands (ev):

   -64.1601 -64.0686 -31.3221 -31.1578 -30.8107 -30.6855 -30.5468 -30.3718
   -21.0949 -21.0081 -15.9039 -15.8985 -15.8961 -15.8779 -15.8741 -15.8626
   -15.8468 -15.8170 -15.8081 -15.8004 -15.7862 -15.7768 -15.7273 -15.7033
    -7.1937  -4.5072  -3.9204  -3.3581  -3.0828  -2.7518  -2.6089  -1.7489
    -0.4469   0.9787   1.0115   4.9578   7.4653   7.7341   7.9059   8.5582
     8.9780   9.2396   9.5369

          k = 0.0880 0.1525 0.0000 (  7453 PWs)   bands (ev):

   -64.2184 -64.1246 -31.1267 -30.7846 -30.5104 -30.3764 -30.3457 -30.2066
   -21.2574 -21.1784 -15.9131 -15.8997 -15.8991 -15.8775 -15.8753 -15.8706
   -15.8380 -15.8159 -15.8030 -15.7988 -15.7934 -15.7885 -15.7452 -15.6880
    -8.4773  -4.2170  -3.2853  -2.8162  -2.5834  -2.4609  -2.3563  -0.8358
     0.2792   1.0733   2.5961   3.5815   4.9065   5.4959   5.9674   6.6898
     6.8537   7.1410   8.1523

          k = 0.0880 0.2541 0.0000 (  7467 PWs)   bands (ev):

   -64.2029 -64.1096 -31.0620 -30.8021 -30.6853 -30.5520 -30.4234 -30.2622
   -21.2058 -21.1265 -15.9098 -15.8949 -15.8939 -15.8811 -15.8721 -15.8701
   -15.8493 -15.8125 -15.8023 -15.7984 -15.7958 -15.7881 -15.7341 -15.6998
    -8.1300  -3.8062  -3.3998  -3.1567  -2.8726  -2.5265  -2.4244  -0.7578
    -0.4004   0.9355   2.4209   3.6388   4.9352   5.9447   6.2856   6.7479
     7.2000   7.5415   8.9983

          k = 0.0880 0.3558 0.0000 (  7501 PWs)   bands (ev):

   -64.1849 -64.0923 -31.0197 -30.9498 -30.8103 -30.6749 -30.4920 -30.3254
   -21.1536 -21.0719 -15.9071 -15.8911 -15.8901 -15.8839 -15.8748 -15.8609
   -15.8595 -15.8111 -15.8056 -15.7966 -15.7959 -15.7843 -15.7213 -15.7126
    -7.7347  -3.7314  -3.4853  -3.3875  -3.1177  -2.6272  -2.5313  -1.0666
    -0.5834   0.7482   2.0165   4.2040   5.0880   6.5077   7.1529   7.2551
     7.5975   8.0511   9.4833

          k = 0.0880 0.4575 0.0000 (  7519 PWs)   bands (ev):

   -64.1692 -64.0773 -31.1793 -31.0282 -30.8570 -30.6830 -30.5497 -30.3793
   -21.1136 -21.0291 -15.9050 -15.8947 -15.8906 -15.8804 -15.8765 -15.8639
   -15.8521 -15.8135 -15.8071 -15.7987 -15.7906 -15.7801 -15.7230 -15.7099
    -7.3866  -4.0726  -3.7359  -3.3795  -3.1215  -2.7153  -2.6410  -1.4517
    -0.4792   0.5220   1.7869   4.6025   6.0794   6.8050   7.5785   8.0055
     8.4633   8.8473   9.5872

          k = 0.0880 0.5591 0.0000 (  7519 PWs)   bands (ev):

   -64.1601 -64.0686 -31.2868 -31.1243 -30.8117 -30.6888 -30.5823 -30.4100
   -21.0924 -21.0063 -15.9037 -15.8975 -15.8942 -15.8784 -15.8747 -15.8649
   -15.8469 -15.8159 -15.8071 -15.8002 -15.7869 -15.7777 -15.7285 -15.7033
    -7.1731  -4.3598  -3.8946  -3.3357  -3.1071  -2.7675  -2.7288  -1.6504
    -0.4198   0.3701   1.6942   4.8487   7.1390   7.3071   7.7857   8.1242
     9.1172   9.3088  10.0120

          k = 0.1761 0.3050 0.0000 (  7491 PWs)   bands (ev):

   -64.1873 -64.0947 -31.0086 -30.9092 -30.7827 -30.6605 -30.5057 -30.3456
   -21.1591 -21.0782 -15.9069 -15.8907 -15.8891 -15.8866 -15.8721 -15.8622
   -15.8607 -15.8098 -15.8038 -15.7993 -15.7963 -15.7848 -15.7230 -15.7114
    -7.7757  -3.5321  -3.4814  -3.3846  -3.1439  -2.6855  -2.5148  -0.9055
    -0.6311   0.5543   2.4776   3.8000   4.6794   6.5897   6.9620   7.3999
     7.4083   7.9922   9.9651

          k = 0.1761 0.4066 0.0000 (  7508 PWs)   bands (ev):

   -64.1716 -64.0796 -31.0919 -30.9586 -30.8620 -30.6831 -30.5959 -30.4346
   -21.1165 -21.0334 -15.9047 -15.8916 -15.8877 -15.8842 -15.8740 -15.8688
   -15.8537 -15.8113 -15.8039 -15.7990 -15.7946 -15.7811 -15.7232 -15.7117
    -7.4104  -3.7693  -3.6579  -3.3279  -3.1648  -2.8287  -2.6837  -1.2970
    -0.4989   0.1834   2.5219   4.1817   4.8973   6.7250   7.2958   8.0764
     8.6000   8.8288  10.1854

          k = 0.1761 0.5083 0.0000 (  7502 PWs)   bands (ev):

   -64.1601 -64.0686 -31.1999 -31.0443 -30.8173 -30.7107 -30.6509 -30.4993
   -21.0875 -21.0028 -15.9035 -15.8941 -15.8901 -15.8800 -15.8765 -15.8699
   -15.8472 -15.8136 -15.8045 -15.8000 -15.7894 -15.7793 -15.7311 -15.7035
    -7.1296  -4.0337  -3.8265  -3.2994  -3.1380  -2.9438  -2.8116  -1.4980
    -0.3938  -0.1146   2.5180   4.5236   5.8657   6.8866   7.5952   8.1231
     9.2383   9.4575  10.5661

          k = 0.1761 0.6099 0.0000 (  7507 PWs)   bands (ev):

   -64.1559 -64.0646 -31.2401 -31.0796 -30.7895 -30.7325 -30.6653 -30.5223
   -21.0773 -20.9921 -15.9032 -15.8947 -15.8925 -15.8792 -15.8750 -15.8706
   -15.8449 -15.8144 -15.8053 -15.8001 -15.7868 -15.7791 -15.7340 -15.7006
    -7.0219  -4.1444  -3.8892  -3.2757  -3.1437  -3.0037  -2.8507  -1.5498
    -0.3334  -0.2583   2.5011   4.7109   6.6149   7.0747   7.7883   7.9026
     8.8718   9.5005  11.0291

          k = 0.2641 0.4575 0.0000 (  7497 PWs)   bands (ev):

   -64.1601 -64.0686 -31.1404 -30.9931 -30.8320 -30.7352 -30.6772 -30.5538
   -21.0850 -21.0011 -15.9034 -15.8921 -15.8858 -15.8811 -15.8799 -15.8722
   -15.8474 -15.8125 -15.8026 -15.7994 -15.7918 -15.7799 -15.7325 -15.7037
    -7.1066  -3.8702  -3.7739  -3.2384  -3.1452  -3.0035  -2.9269  -1.4304
    -0.4814  -0.2159   3.1561   4.1940   5.1133   6.8014   7.4649   8.1535
     9.3219   9.5829  10.7210

          k = 0.2641 0.5591 0.0000 (  7508 PWs)   bands (ev):

   -64.1535 -64.0623 -31.1478 -30.9980 -30.8590 -30.7730 -30.7101 -30.6196
   -21.0672 -20.9829 -15.9032 -15.8919 -15.8882 -15.8820 -15.8776 -15.8739
   -15.8438 -15.8128 -15.8052 -15.7975 -15.7877 -15.7811 -15.7379 -15.6991
    -6.9227  -3.9170  -3.7781  -3.3652  -3.1471  -3.1022  -2.9834  -1.4211
    -0.7250  -0.2452   3.4234   4.5203   5.7194   6.9707   7.5316   7.7884
     8.8494   9.3153  10.9863

          k = 0.3521 0.6099 0.0000 (  7521 PWs)   bands (ev):

   -64.1511 -64.0599 -31.0499 -31.0151 -30.8768 -30.8575 -30.7230 -30.6538
   -21.0595 -20.9755 -15.9030 -15.8910 -15.8871 -15.8840 -15.8776 -15.8754
   -15.8427 -15.8119 -15.8066 -15.7955 -15.7853 -15.7841 -15.7405 -15.6976
    -6.8446  -3.8456  -3.6768  -3.4054  -3.3723  -3.0775  -2.9909  -1.2560
    -1.0629  -0.2083   3.9213   4.6850   5.5570   7.2241   7.2325   7.3516
     8.8694   8.8891  11.1321

     the Fermi energy is     4.8467 ev

!    total energy              =   -1470.77157328 Ry
     estimated scf accuracy    <          9.6E-13 Ry
     smearing contrib. (-TS)   =      -0.00024365 Ry
     internal energy E=F+TS    =   -1470.77132963 Ry

     The total energy is F=E-TS. E is the sum of the following terms:
     one-electron contribution =   -7528.53898811 Ry
     hartree contribution      =    3809.14942932 Ry
     xc contribution           =    -157.90289410 Ry
     ewald contribution        =    2406.52112326 Ry

     convergence has been achieved in  17 iterations

     negative rho (up, down):  7.236E-04 0.000E+00

     Forces acting on atoms (cartesian axes, Ry/au):

     atom    1 type  1   force =     0.00000000    0.00000000    0.01504298
     atom    2 type  2   force =     0.00000000    0.00000000    0.02261516
     atom    3 type  1   force =     0.00000000    0.00000000   -0.02207327
     atom    4 type  3   force =     0.00000000    0.00000000   -0.00279913
     atom    5 type  3   force =    -0.00000000   -0.00000000   -0.01278574

     Total force =     0.037367     Total SCF correction =     0.000008


     Computing stress (Cartesian axis) and pressure


     negative rho (up, down):  7.236E-04 0.000E+00
          total   stress  (Ry/bohr**3)                   (kbar)     P=       -1.34
   0.00003313  -0.00000000  -0.00000000            4.87       -0.00       -0.00
  -0.00000000   0.00003313  -0.00000000           -0.00        4.87       -0.00
   0.00000000   0.00000000  -0.00009352            0.00        0.00      -13.76

     Energy error            =      5.7E-03 Ry
     Gradient error          =      2.3E-02 Ry/Bohr
     Cell gradient error     =      4.9E+00 kbar

     number of scf cycles    =   2
     number of bfgs steps    =   1

     enthalpy           old  =   -1470.7658564449 Ry
     enthalpy           new  =   -1470.7715732788 Ry

     CASE: enthalpy          _new < enthalpy          _old

     new trust radius        =       0.0401701763 bohr
     new conv_thr            =            2.3E-13 Ry

     new unit-cell volume =    958.76065 a.u.^3 (   142.07367 Ang^3 )
     density =      4.81427 g/cm^3

CELL_PARAMETERS (alat=  5.89970000)
   0.947914721  -0.000000000   0.000000000
  -0.473957359   0.820918229   0.000000000
   0.000000000   0.000000000   6.000000000

ATOMIC_POSITIONS (crystal)
Ta            0.3333333330        0.6666666670        0.0100768891
C            -0.0000000000       -0.0000000000        0.0834224978
Ta            0.6666666670        0.3333333330        0.1505772007
F             0.0000000000        0.0000000000        0.2296494845
F             0.6666666670        0.3333333330       -0.0688583315



     Writing output data file /scratch/as3359/Ta2CF2_loop/Ta.save/
     NEW-OLD atomic charge density approx. for the potential

     Check: negative core charge=   -0.000002

     negative rho (up, down):  7.115E-04 0.000E+00
     extrapolated charge   72.20297, renormalised to   72.00000

     total cpu time spent up to now is      226.8 secs

     Self-consistent Calculation

     iteration #  1     ecut=    60.00 Ry     beta= 0.70
     CG style diagonalization
     c_bands:  2 eigenvalues not converged
     c_bands:  2 eigenvalues not converged
     c_bands:  5 eigenvalues not converged
     c_bands:  4 eigenvalues not converged
     c_bands:  4 eigenvalues not converged
     c_bands:  3 eigenvalues not converged
     c_bands:  2 eigenvalues not converged
     c_bands:  5 eigenvalues not converged
     c_bands:  2 eigenvalues not converged
     c_bands:  4 eigenvalues not converged
     c_bands:  5 eigenvalues not converged
     c_bands:  4 eigenvalues not converged
     c_bands:  1 eigenvalues not converged
     c_bands:  3 eigenvalues not converged
     ethr =  1.00E-06,  avg # of iterations = 11.3

     total cpu time spent up to now is      240.4 secs

     total energy              =   -1468.17516463 Ry
     estimated scf accuracy    <       2.62219833 Ry

     iteration #  2     ecut=    60.00 Ry     beta= 0.70
     CG style diagonalization
     ethr =  3.64E-03,  avg # of iterations =  4.6

     total cpu time spent up to now is      246.0 secs

     total energy              =   -1465.14696541 Ry
     estimated scf accuracy    <      51.18102836 Ry

     iteration #  3     ecut=    60.00 Ry     beta= 0.70
     CG style diagonalization
     ethr =  3.64E-03,  avg # of iterations =  3.7

     total cpu time spent up to now is      250.5 secs

     total energy              =   -1470.36702858 Ry
     estimated scf accuracy    <       2.35034957 Ry

     iteration #  4     ecut=    60.00 Ry     beta= 0.70
     CG style diagonalization
     ethr =  3.26E-03,  avg # of iterations =  3.6

     total cpu time spent up to now is      254.9 secs

     total energy              =   -1470.33598085 Ry
     estimated scf accuracy    <      13.06314437 Ry

     iteration #  5     ecut=    60.00 Ry     beta= 0.70
     CG style diagonalization
     ethr =  3.26E-03,  avg # of iterations =  3.1

     total cpu time spent up to now is      258.7 secs

     total energy              =   -1470.89497011 Ry
     estimated scf accuracy    <       0.35724133 Ry

     iteration #  6     ecut=    60.00 Ry     beta= 0.70
     CG style diagonalization
     ethr =  4.96E-04,  avg # of iterations =  3.4

     total cpu time spent up to now is      262.8 secs

     total energy              =   -1470.86606243 Ry
     estimated scf accuracy    <       0.21039249 Ry

     iteration #  7     ecut=    60.00 Ry     beta= 0.70
     CG style diagonalization
     ethr =  2.92E-04,  avg # of iterations =  3.2

     total cpu time spent up to now is      266.6 secs

     total energy              =   -1470.84528066 Ry
     estimated scf accuracy    <       0.14165604 Ry

     iteration #  8     ecut=    60.00 Ry     beta= 0.70
     CG style diagonalization
     ethr =  1.97E-04,  avg # of iterations =  3.0

     total cpu time spent up to now is      270.3 secs

     total energy              =   -1470.82721376 Ry
     estimated scf accuracy    <       0.10925937 Ry

     iteration #  9     ecut=    60.00 Ry     beta= 0.70
     CG style diagonalization
     ethr =  1.52E-04,  avg # of iterations =  3.0

     total cpu time spent up to now is      274.0 secs

     total energy              =   -1470.79989847 Ry
     estimated scf accuracy    <       0.08450711 Ry

     iteration # 10     ecut=    60.00 Ry     beta= 0.70
     CG style diagonalization
     ethr =  1.17E-04,  avg # of iterations =  3.0

     negative rho (up, down):  3.174E-04 0.000E+00

     total cpu time spent up to now is      277.7 secs

     total energy              =   -1470.77120129 Ry
     estimated scf accuracy    <       0.04845803 Ry

     iteration # 11     ecut=    60.00 Ry     beta= 0.70
     CG style diagonalization
     ethr =  6.73E-05,  avg # of iterations =  3.3

     negative rho (up, down):  2.283E-04 0.000E+00

     total cpu time spent up to now is      281.7 secs

     total energy              =   -1470.77161318 Ry
     estimated scf accuracy    <       0.00948585 Ry

     iteration # 12     ecut=    60.00 Ry     beta= 0.70
     CG style diagonalization
     ethr =  1.32E-05,  avg # of iterations =  3.7

     negative rho (up, down):  8.091E-04 0.000E+00

     total cpu time spent up to now is      286.1 secs

     total energy              =   -1470.77291395 Ry
     estimated scf accuracy    <       0.00133734 Ry

     iteration # 13     ecut=    60.00 Ry     beta= 0.70
     CG style diagonalization
     ethr =  1.86E-06,  avg # of iterations =  3.9

     negative rho (up, down):  7.325E-04 0.000E+00

     total cpu time spent up to now is      290.8 secs

     total energy              =   -1470.77316479 Ry
     estimated scf accuracy    <       0.00033376 Ry

     iteration # 14     ecut=    60.00 Ry     beta= 0.70
     CG style diagonalization
     ethr =  4.64E-07,  avg # of iterations =  3.6

     negative rho (up, down):  7.473E-04 0.000E+00

     total cpu time spent up to now is      295.2 secs

     total energy              =   -1470.77322420 Ry
     estimated scf accuracy    <       0.00002293 Ry

     iteration # 15     ecut=    60.00 Ry     beta= 0.70
     CG style diagonalization
     ethr =  3.18E-08,  avg # of iterations =  3.9

     negative rho (up, down):  7.302E-04 0.000E+00

     total cpu time spent up to now is      299.9 secs

     total energy              =   -1470.77323357 Ry
     estimated scf accuracy    <       0.00000599 Ry

     iteration # 16     ecut=    60.00 Ry     beta= 0.70
     CG style diagonalization
     ethr =  8.31E-09,  avg # of iterations =  4.2

     negative rho (up, down):  7.373E-04 0.000E+00

     total cpu time spent up to now is      304.8 secs

     total energy              =   -1470.77323693 Ry
     estimated scf accuracy    <       0.00000411 Ry

     iteration # 17     ecut=    60.00 Ry     beta= 0.70
     CG style diagonalization
     ethr =  5.70E-09,  avg # of iterations =  3.6

     negative rho (up, down):  7.172E-04 0.000E+00

     total cpu time spent up to now is      309.1 secs

     total energy              =   -1470.77323769 Ry
     estimated scf accuracy    <       0.00000222 Ry

     iteration # 18     ecut=    60.00 Ry     beta= 0.70
     CG style diagonalization
     ethr =  3.08E-09,  avg # of iterations =  3.3

     negative rho (up, down):  7.197E-04 0.000E+00

     total cpu time spent up to now is      313.1 secs

     total energy              =   -1470.77323805 Ry
     estimated scf accuracy    <       0.00000011 Ry

     iteration # 19     ecut=    60.00 Ry     beta= 0.70
     CG style diagonalization
     ethr =  1.49E-10,  avg # of iterations =  4.5

     negative rho (up, down):  7.166E-04 0.000E+00

     total cpu time spent up to now is      318.4 secs

     total energy              =   -1470.77323821 Ry
     estimated scf accuracy    <       0.00000005 Ry

     iteration # 20     ecut=    60.00 Ry     beta= 0.70
     CG style diagonalization
     ethr =  7.58E-11,  avg # of iterations =  3.8

     negative rho (up, down):  7.155E-04 0.000E+00

     total cpu time spent up to now is      323.0 secs

     total energy              =   -1470.77323823 Ry
     estimated scf accuracy    <       0.00000002 Ry

     iteration # 21     ecut=    60.00 Ry     beta= 0.70
     CG style diagonalization
     ethr =  2.50E-11,  avg # of iterations =  3.9

     negative rho (up, down):  7.158E-04 0.000E+00

     total cpu time spent up to now is      327.7 secs

     total energy              =   -1470.77323824 Ry
     estimated scf accuracy    <          1.9E-09 Ry

     iteration # 22     ecut=    60.00 Ry     beta= 0.70
     CG style diagonalization
     ethr =  2.64E-12,  avg # of iterations =  4.9

     negative rho (up, down):  7.156E-04 0.000E+00

     total cpu time spent up to now is      333.5 secs

     total energy              =   -1470.77323825 Ry
     estimated scf accuracy    <          4.7E-10 Ry

     iteration # 23     ecut=    60.00 Ry     beta= 0.70
     CG style diagonalization
     ethr =  6.50E-13,  avg # of iterations =  4.5

     negative rho (up, down):  7.156E-04 0.000E+00

     total cpu time spent up to now is      338.8 secs

     total energy              =   -1470.77323825 Ry
     estimated scf accuracy    <          1.5E-10 Ry

     iteration # 24     ecut=    60.00 Ry     beta= 0.70
     CG style diagonalization
     c_bands:  1 eigenvalues not converged
     ethr =  2.04E-13,  avg # of iterations =  4.4

     negative rho (up, down):  7.156E-04 0.000E+00

     total cpu time spent up to now is      344.1 secs

     total energy              =   -1470.77323825 Ry
     estimated scf accuracy    <          5.5E-12 Ry

     iteration # 25     ecut=    60.00 Ry     beta= 0.70
     CG style diagonalization
     ethr =  1.00E-13,  avg # of iterations =  3.7

     negative rho (up, down):  7.156E-04 0.000E+00

     total cpu time spent up to now is      348.5 secs

     total energy              =   -1470.77323825 Ry
     estimated scf accuracy    <          3.4E-13 Ry

     iteration # 26     ecut=    60.00 Ry     beta= 0.70
     CG style diagonalization
     ethr =  1.00E-13,  avg # of iterations =  3.3

     negative rho (up, down):  7.156E-04 0.000E+00

     total cpu time spent up to now is      352.4 secs

     End of self-consistent calculation

          k = 0.0000 0.0000 0.0000 (  7419 PWs)   bands (ev):

   -64.3859 -64.2992 -31.3577 -30.9420 -30.4668 -30.4668 -30.3375 -30.3375
   -21.2640 -21.2069 -16.0754 -16.0633 -16.0633 -16.0421 -16.0323 -16.0323
   -15.9831 -15.9818 -15.9631 -15.9631 -15.9492 -15.9492 -15.9173 -15.8384
    -9.0171  -4.7583  -3.0847  -2.3793  -2.3793  -2.2750  -2.2750  -1.1211
     0.7872   0.7872   2.2053   4.1353   4.1353   6.0384   6.1967   6.1967
     6.5509   6.7487   6.7487

          k = 0.0000 0.1015 0.0000 (  7432 PWs)   bands (ev):

   -64.3812 -64.2947 -31.3383 -30.9364 -30.5339 -30.4823 -30.4061 -30.3515
   -21.2450 -21.1896 -16.0740 -16.0622 -16.0619 -16.0399 -16.0343 -16.0327
   -15.9855 -15.9814 -15.9632 -15.9617 -15.9514 -15.9496 -15.9139 -15.8421
    -8.9058  -4.5866  -3.1507  -2.5212  -2.3840  -2.3644  -2.2879  -1.0621
     0.4470   0.7838   2.3206   3.7794   4.3416   5.5994   6.0980   6.2884
     6.4920   6.9901   7.1957

          k = 0.0000 0.2030 0.0000 (  7462 PWs)   bands (ev):

   -64.3682 -64.2823 -31.2849 -30.9291 -30.7078 -30.5869 -30.5243 -30.3896
   -21.1971 -21.1441 -16.0712 -16.0582 -16.0578 -16.0394 -16.0339 -16.0336
   -15.9955 -15.9779 -15.9630 -15.9580 -15.9565 -15.9503 -15.9046 -15.8523
    -8.6085  -4.1645  -3.2855  -2.8825  -2.5940  -2.4111  -2.3317  -0.9784
    -0.2711   0.7766   2.3366   3.4304   4.9497   5.0222   6.1593   6.2226
     6.9212   7.3623   8.0201

          k = 0.0000 0.3045 0.0000 (  7518 PWs)   bands (ev):

   -64.3505 -64.2654 -31.2147 -31.0065 -30.8774 -30.7931 -30.5811 -30.4412
   -21.1395 -21.0859 -16.0691 -16.0533 -16.0532 -16.0440 -16.0360 -16.0241
   -16.0076 -15.9748 -15.9648 -15.9586 -15.9564 -15.9485 -15.8917 -15.8655
    -8.2171  -3.8209  -3.3733  -3.2537  -2.9485  -2.4784  -2.4059  -1.0937
    -0.7625   0.7636   1.7634   3.8965   4.9670   5.9018   6.2326   6.5994
     7.4009   7.6729   8.7532

          k = 0.0000 0.4060 0.0000 (  7506 PWs)   bands (ev):

   -64.3328 -64.2484 -31.2415 -31.1558 -31.0231 -30.8345 -30.6372 -30.4924
   -21.0890 -21.0328 -16.0674 -16.0549 -16.0508 -16.0414 -16.0377 -16.0166
   -16.0137 -15.9743 -15.9695 -15.9582 -15.9538 -15.9432 -15.8785 -15.8774
    -7.8375  -3.9873  -3.5663  -3.4060  -3.0902  -2.5785  -2.4844  -1.5092
    -0.7102   0.7400   1.2052   4.4267   5.7728   6.4497   6.9830   7.3497
     7.7733   8.0530   9.1151

          k = 0.0000 0.5076 0.0000 (  7502 PWs)   bands (ev):

   -64.3197 -64.2359 -31.3943 -31.2732 -31.0040 -30.8381 -30.6779 -30.5296
   -21.0555 -20.9973 -16.0659 -16.0587 -16.0532 -16.0372 -16.0370 -16.0206
   -16.0057 -15.9768 -15.9703 -15.9605 -15.9494 -15.9389 -15.8855 -15.8686
    -7.5569  -4.3565  -3.8095  -3.3976  -3.0831  -2.6679  -2.5423  -1.7905
    -0.6288   0.7142   0.8708   4.7970   6.8915   7.0852   7.4883   8.0528
     8.2690   8.8515   9.1669

          k =-0.0000-0.6091 0.0000 (  7546 PWs)   bands (ev):

   -64.3150 -64.2314 -31.4528 -31.3276 -30.9776 -30.8426 -30.6928 -30.5432
   -21.0439 -20.9850 -16.0652 -16.0605 -16.0551 -16.0367 -16.0354 -16.0216
   -16.0029 -15.9783 -15.9703 -15.9615 -15.9477 -15.9373 -15.8884 -15.8651
    -7.4499  -4.5234  -3.8925  -3.3933  -3.0697  -2.7031  -2.5639  -1.8988
    -0.6056   0.7030   0.7651   4.9232   7.2376   7.5639   7.7350   8.3587
     8.7861   9.0147   9.3303

          k = 0.0879 0.1523 0.0000 (  7453 PWs)   bands (ev):

   -64.3723 -64.2862 -31.3019 -30.9292 -30.6506 -30.5388 -30.5028 -30.3822
   -21.2116 -21.1582 -16.0719 -16.0599 -16.0589 -16.0380 -16.0358 -16.0332
   -15.9925 -15.9788 -15.9634 -15.9589 -15.9550 -15.9502 -15.9075 -15.8491
    -8.7011  -4.2842  -3.2486  -2.7677  -2.5404  -2.3928  -2.3155  -0.9912
    -0.0467   0.7266   2.4637   3.3664   4.7131   5.3416   5.7663   6.5538
     6.7868   7.0000   8.0136

          k = 0.0879 0.2538 0.0000 (  7467 PWs)   bands (ev):

   -64.3570 -64.2716 -31.2389 -30.9481 -30.8243 -30.7217 -30.5680 -30.4369
   -21.1592 -21.1064 -16.0694 -16.0555 -16.0539 -16.0434 -16.0345 -16.0276
   -16.0038 -15.9750 -15.9633 -15.9598 -15.9562 -15.9495 -15.8963 -15.8609
    -8.3543  -3.8539  -3.3560  -3.1182  -2.8548  -2.4651  -2.3823  -0.9342
    -0.6818   0.6126   2.2445   3.4392   4.7675   5.7458   6.0779   6.6001
     7.1308   7.4204   8.8998

          k = 0.0879 0.3553 0.0000 (  7501 PWs)   bands (ev):

   -64.3393 -64.2546 -31.1887 -31.0977 -30.9688 -30.8283 -30.6364 -30.4986
   -21.1058 -21.0510 -16.0676 -16.0527 -16.0508 -16.0453 -16.0358 -16.0176
   -16.0150 -15.9729 -15.9674 -15.9577 -15.9571 -15.9452 -15.8834 -15.8736
    -7.9640  -3.7474  -3.4476  -3.3697  -3.1206  -2.5752  -2.4892  -1.3026
    -0.7567   0.4557   1.7910   4.0358   4.9056   6.3191   6.9340   7.0999
     7.5110   7.9090   9.3707

          k = 0.0879 0.4568 0.0000 (  7519 PWs)   bands (ev):

   -64.3239 -64.2399 -31.3144 -31.2027 -31.0193 -30.8382 -30.6941 -30.5511
   -21.0642 -21.0070 -16.0660 -16.0564 -16.0510 -16.0408 -16.0362 -16.0217
   -16.0084 -15.9748 -15.9692 -15.9599 -15.9520 -15.9408 -15.8840 -15.8718
    -7.6280  -4.0851  -3.7083  -3.3910  -3.1119  -2.6694  -2.6009  -1.6381
    -0.6414   0.2517   1.5370   4.4827   5.8773   6.6047   7.4133   7.9033
     8.2753   8.6451   9.4211

          k = 0.0879 0.5583 0.0000 (  7519 PWs)   bands (ev):

   -64.3150 -64.2314 -31.4184 -31.2949 -30.9783 -30.8465 -30.7265 -30.5810
   -21.0418 -20.9834 -16.0650 -16.0592 -16.0535 -16.0375 -16.0357 -16.0239
   -16.0029 -15.9771 -15.9692 -15.9615 -15.9484 -15.9383 -15.8895 -15.8652
    -7.4279  -4.3702  -3.8685  -3.3684  -3.0897  -2.7389  -2.6796  -1.7984
    -0.5784   0.1075   1.4396   4.7750   6.9189   7.0992   7.6167   8.0139
     8.8944   9.1017   9.8110

          k = 0.1758 0.3045 0.0000 (  7491 PWs)   bands (ev):

   -64.3417 -64.2569 -31.1855 -31.0476 -30.9424 -30.8162 -30.6478 -30.5197
   -21.1116 -21.0574 -16.0672 -16.0516 -16.0498 -16.0485 -16.0343 -16.0190
   -16.0151 -15.9716 -15.9659 -15.9601 -15.9573 -15.9458 -15.8851 -15.8725
    -8.0042  -3.5479  -3.4329  -3.3608  -3.1487  -2.6422  -2.4736  -1.1591
    -0.8085   0.2755   2.2573   3.5950   4.5232   6.3603   6.8528   7.1966
     7.2970   7.8665   9.8853

          k = 0.1758 0.4060 0.0000 (  7508 PWs)   bands (ev):

   -64.3263 -64.2422 -31.2325 -31.1336 -31.0219 -30.8377 -30.7372 -30.6066
   -21.0677 -21.0117 -16.0656 -16.0529 -16.0488 -16.0455 -16.0341 -16.0252
   -16.0100 -15.9726 -15.9661 -15.9602 -15.9559 -15.9419 -15.8842 -15.8736
    -7.6490  -3.7489  -3.6296  -3.3297  -3.1716  -2.7921  -2.6514  -1.5079
    -0.6729  -0.0661   2.2728   3.9850   4.7339   6.5508   7.1740   7.9776
     8.3930   8.6088  10.0339

          k = 0.1758 0.5076 0.0000 (  7502 PWs)   bands (ev):

   -64.3150 -64.2314 -31.3336 -31.2168 -30.9832 -30.8659 -30.7948 -30.6689
   -21.0375 -20.9803 -16.0648 -16.0553 -16.0501 -16.0405 -16.0356 -16.0293
   -16.0032 -15.9749 -15.9662 -15.9617 -15.9507 -15.9400 -15.8921 -15.8654
    -7.3819  -4.0196  -3.8074  -3.3202  -3.1264  -2.9187  -2.7749  -1.6647
    -0.5709  -0.3488   2.2676   4.3638   5.6751   6.6990   7.4523   8.0193
     9.0113   9.2627  10.3796

          k = 0.1758 0.6091 0.0000 (  7507 PWs)   bands (ev):

   -64.3108 -64.2274 -31.3728 -31.2506 -30.9555 -30.8891 -30.8104 -30.6911
   -21.0268 -20.9692 -16.0646 -16.0562 -16.0514 -16.0384 -16.0362 -16.0302
   -16.0007 -15.9757 -15.9668 -15.9619 -15.9482 -15.9398 -15.8949 -15.8624
    -7.2813  -4.1322  -3.8730  -3.3102  -3.1127  -2.9927  -2.8091  -1.6965
    -0.5182  -0.4845   2.2536   4.5769   6.4006   6.8827   7.6025   7.8002
     8.6638   9.3148  10.9041

          k = 0.2637 0.4568 0.0000 (  7497 PWs)   bands (ev):

   -64.3150 -64.2314 -31.2757 -31.1663 -30.9987 -30.8778 -30.8326 -30.7210
   -21.0353 -20.9787 -16.0647 -16.0525 -16.0475 -16.0430 -16.0351 -16.0334
   -16.0033 -15.9738 -15.9639 -15.9616 -15.9530 -15.9407 -15.8935 -15.8655
    -7.3580  -3.8290  -3.7637  -3.2394  -3.1512  -2.9811  -2.9010  -1.6161
    -0.6979  -0.3984   2.9034   3.9800   4.9519   6.6250   7.3373   8.0500
     9.0854   9.3833  10.6517

          k = 0.2637 0.5583 0.0000 (  7508 PWs)   bands (ev):

   -64.3084 -64.2251 -31.2829 -31.1695 -31.0083 -30.9374 -30.8673 -30.7810
   -21.0169 -20.9601 -16.0645 -16.0521 -16.0477 -16.0407 -16.0388 -16.0348
   -15.9995 -15.9741 -15.9665 -15.9597 -15.9489 -15.9419 -15.8988 -15.8608
    -7.1833  -3.8943  -3.7571  -3.3710  -3.1226  -3.0861  -2.9737  -1.5894
    -0.9602  -0.4030   3.1845   4.3228   5.5149   6.7827   7.3575   7.6649
     8.6479   9.1674  10.8920

          k = 0.3516 0.6091 0.0000 (  7521 PWs)   bands (ev):

   -64.3060 -64.2228 -31.1865 -31.1639 -31.0376 -31.0329 -30.8817 -30.8118
   -21.0092 -20.9526 -16.0645 -16.0497 -16.0452 -16.0445 -16.0395 -16.0364
   -15.9983 -15.9731 -15.9680 -15.9578 -15.9457 -15.9456 -15.9014 -15.8593
    -7.1077  -3.8534  -3.6186  -3.4157  -3.3332  -3.0502  -3.0044  -1.4105
    -1.3112  -0.3646   3.6975   4.4896   5.2923   7.0850   7.0960   7.1178
     8.6266   8.8383  11.0510

     the Fermi energy is     4.7198 ev

!    total energy              =   -1470.77323825 Ry
     estimated scf accuracy    <          1.1E-13 Ry
     smearing contrib. (-TS)   =      -0.00028989 Ry
     internal energy E=F+TS    =   -1470.77294836 Ry

     The total energy is F=E-TS. E is the sum of the following terms:
     one-electron contribution =   -7540.34427198 Ry
     hartree contribution      =    3814.70966100 Ry
     xc contribution           =    -157.89935414 Ry
     ewald contribution        =    2412.76101675 Ry

     convergence has been achieved in  26 iterations

     negative rho (up, down):  7.156E-04 0.000E+00

     Forces acting on atoms (cartesian axes, Ry/au):

     atom    1 type  1   force =     0.00000000    0.00000000    0.01033269
     atom    2 type  2   force =     0.00000000    0.00000000    0.00240987
     atom    3 type  1   force =     0.00000000    0.00000000   -0.00496342
     atom    4 type  3   force =     0.00000000    0.00000000   -0.00777210
     atom    5 type  3   force =     0.00000000    0.00000000   -0.00000704

     Total force =     0.014057     Total SCF correction =     0.000003


     Computing stress (Cartesian axis) and pressure


     negative rho (up, down):  7.156E-04 0.000E+00
          total   stress  (Ry/bohr**3)                   (kbar)     P=       -2.13
   0.00004551  -0.00000000   0.00000000            6.69       -0.00        0.00
  -0.00000000   0.00004551   0.00000000           -0.00        6.69        0.00
   0.00000000   0.00000000  -0.00013448            0.00        0.00      -19.78

     Energy error            =      1.7E-03 Ry
     Gradient error          =      1.0E-02 Ry/Bohr
     Cell gradient error     =      6.7E+00 kbar

     number of scf cycles    =   3
     number of bfgs steps    =   2

     enthalpy           old  =   -1470.7715732788 Ry
     enthalpy           new  =   -1470.7732382517 Ry

     CASE: enthalpy          _new < enthalpy          _old

     new trust radius        =       0.0221277830 bohr
     new conv_thr            =            1.0E-13 Ry

     new unit-cell volume =    962.49643 a.u.^3 (   142.62726 Ang^3 )
     density =      4.79559 g/cm^3

CELL_PARAMETERS (alat=  5.89970000)
   0.949759684  -0.000000000   0.000000000
  -0.474879841   0.822516014   0.000000000
   0.000000000   0.000000000   6.000000000

ATOMIC_POSITIONS (crystal)
Ta            0.3333333330        0.6666666670        0.0107019995
C             0.0000000000        0.0000000000        0.0838497537
Ta            0.6666666670        0.3333333330        0.1500321639
F             0.0000000000        0.0000000000        0.2293344947
F             0.6666666670        0.3333333330       -0.0690506712



     Writing output data file /scratch/as3359/Ta2CF2_loop/Ta.save/
     NEW-OLD atomic charge density approx. for the potential

     Check: negative core charge=   -0.000002

     negative rho (up, down):  7.022E-04 0.000E+00
     extrapolated charge   72.27945, renormalised to   72.00000

     total cpu time spent up to now is      362.6 secs

     Self-consistent Calculation

     iteration #  1     ecut=    60.00 Ry     beta= 0.70
     CG style diagonalization
     c_bands:  1 eigenvalues not converged
     c_bands:  1 eigenvalues not converged
     c_bands:  4 eigenvalues not converged
     c_bands:  1 eigenvalues not converged
     c_bands:  4 eigenvalues not converged
     c_bands:  3 eigenvalues not converged
     c_bands:  3 eigenvalues not converged
     c_bands:  2 eigenvalues not converged
     c_bands:  2 eigenvalues not converged
     c_bands:  2 eigenvalues not converged
     c_bands:  1 eigenvalues not converged
     c_bands:  1 eigenvalues not converged
     c_bands:  1 eigenvalues not converged
     c_bands:  1 eigenvalues not converged
     c_bands:  5 eigenvalues not converged
     c_bands:  2 eigenvalues not converged
     c_bands:  3 eigenvalues not converged
     c_bands:  1 eigenvalues not converged
     ethr =  1.00E-06,  avg # of iterations = 13.6

     total cpu time spent up to now is      378.7 secs

     total energy              =   -1460.23850053 Ry
     estimated scf accuracy    <      11.00688881 Ry

     iteration #  2     ecut=    60.00 Ry     beta= 0.70
     CG style diagonalization
     c_bands:  2 eigenvalues not converged
     c_bands:  1 eigenvalues not converged
     c_bands:  1 eigenvalues not converged
     c_bands:  1 eigenvalues not converged
     ethr =  1.00E-02,  avg # of iterations =  6.0

     total cpu time spent up to now is      385.9 secs

     total energy              =   -1458.56830971 Ry
     estimated scf accuracy    <     127.51401961 Ry

     iteration #  3     ecut=    60.00 Ry     beta= 0.70
     CG style diagonalization
     c_bands:  1 eigenvalues not converged
     ethr =  1.00E-02,  avg # of iterations =  4.9

     total cpu time spent up to now is      391.8 secs

     total energy              =   -1468.96411996 Ry
     estimated scf accuracy    <       7.36823645 Ry

     iteration #  4     ecut=    60.00 Ry     beta= 0.70
     CG style diagonalization
     ethr =  1.00E-02,  avg # of iterations =  4.0

     total cpu time spent up to now is      396.7 secs

     total energy              =   -1469.94384646 Ry
     estimated scf accuracy    <      20.73454440 Ry

     iteration #  5     ecut=    60.00 Ry     beta= 0.70
     CG style diagonalization
     ethr =  1.00E-02,  avg # of iterations =  3.4

     total cpu time spent up to now is      400.8 secs

     total energy              =   -1471.27889313 Ry
     estimated scf accuracy    <       1.86364451 Ry

     iteration #  6     ecut=    60.00 Ry     beta= 0.70
     CG style diagonalization
     ethr =  2.59E-03,  avg # of iterations =  3.5

     total cpu time spent up to now is      405.0 secs

     total energy              =   -1471.18430245 Ry
     estimated scf accuracy    <       1.13457752 Ry

     iteration #  7     ecut=    60.00 Ry     beta= 0.70
     CG style diagonalization
     ethr =  1.58E-03,  avg # of iterations =  3.2

     total cpu time spent up to now is      409.0 secs

     total energy              =   -1471.06616304 Ry
     estimated scf accuracy    <       0.70121616 Ry

     iteration #  8     ecut=    60.00 Ry     beta= 0.70
     CG style diagonalization
     ethr =  9.74E-04,  avg # of iterations =  3.2

     total cpu time spent up to now is      412.8 secs

     total energy              =   -1470.97947085 Ry
     estimated scf accuracy    <       0.48836181 Ry

     iteration #  9     ecut=    60.00 Ry     beta= 0.70
     CG style diagonalization
     ethr =  6.78E-04,  avg # of iterations =  3.0

     total cpu time spent up to now is      416.5 secs

     total energy              =   -1470.94543868 Ry
     estimated scf accuracy    <       0.33959665 Ry

     iteration # 10     ecut=    60.00 Ry     beta= 0.70
     CG style diagonalization
     ethr =  4.72E-04,  avg # of iterations =  3.0

     negative rho (up, down):  5.134E-05 0.000E+00

     total cpu time spent up to now is      420.2 secs

     total energy              =   -1470.75551776 Ry
     estimated scf accuracy    <       0.27561368 Ry

     iteration # 11     ecut=    60.00 Ry     beta= 0.70
     CG style diagonalization
     ethr =  3.83E-04,  avg # of iterations =  3.3

     negative rho (up, down):  2.609E-05 0.000E+00

     total cpu time spent up to now is      424.2 secs

     total energy              =   -1470.76697821 Ry
     estimated scf accuracy    <       0.03062328 Ry

     iteration # 12     ecut=    60.00 Ry     beta= 0.70
     CG style diagonalization
     c_bands:  1 eigenvalues not converged
     c_bands:  1 eigenvalues not converged
     ethr =  4.25E-05,  avg # of iterations =  4.1

     negative rho (up, down):  8.481E-04 0.000E+00

     total cpu time spent up to now is      429.2 secs

     total energy              =   -1470.76792069 Ry
     estimated scf accuracy    <       0.05312219 Ry

     iteration # 13     ecut=    60.00 Ry     beta= 0.70
     CG style diagonalization
     ethr =  4.25E-05,  avg # of iterations =  3.4

     negative rho (up, down):  1.104E-03 0.000E+00

     total cpu time spent up to now is      433.4 secs

     total energy              =   -1470.77280626 Ry
     estimated scf accuracy    <       0.00135113 Ry

     iteration # 14     ecut=    60.00 Ry     beta= 0.70
     CG style diagonalization
     c_bands:  1 eigenvalues not converged
     ethr =  1.88E-06,  avg # of iterations =  4.7

     negative rho (up, down):  6.273E-04 0.000E+00

     total cpu time spent up to now is      439.0 secs

     total energy              =   -1470.77326888 Ry
     estimated scf accuracy    <       0.00127282 Ry

     iteration # 15     ecut=    60.00 Ry     beta= 0.70
     CG style diagonalization
     ethr =  1.77E-06,  avg # of iterations =  3.6

     negative rho (up, down):  6.852E-04 0.000E+00

     total cpu time spent up to now is      443.4 secs

     total energy              =   -1470.77353202 Ry
     estimated scf accuracy    <       0.00005085 Ry

     iteration # 16     ecut=    60.00 Ry     beta= 0.70
     CG style diagonalization
     ethr =  7.06E-08,  avg # of iterations =  4.3

     negative rho (up, down):  6.980E-04 0.000E+00

     total cpu time spent up to now is      448.5 secs

     total energy              =   -1470.77356679 Ry
     estimated scf accuracy    <       0.00001142 Ry

     iteration # 17     ecut=    60.00 Ry     beta= 0.70
     CG style diagonalization
     ethr =  1.59E-08,  avg # of iterations =  4.1

     negative rho (up, down):  6.727E-04 0.000E+00

     total cpu time spent up to now is      453.5 secs

     total energy              =   -1470.77357180 Ry
     estimated scf accuracy    <       0.00000549 Ry

     iteration # 18     ecut=    60.00 Ry     beta= 0.70
     CG style diagonalization
     ethr =  7.62E-09,  avg # of iterations =  3.8

     negative rho (up, down):  6.905E-04 0.000E+00

     total cpu time spent up to now is      458.1 secs

     total energy              =   -1470.77357326 Ry
     estimated scf accuracy    <       0.00000585 Ry

     iteration # 19     ecut=    60.00 Ry     beta= 0.70
     CG style diagonalization
     ethr =  7.62E-09,  avg # of iterations =  3.2

     negative rho (up, down):  7.021E-04 0.000E+00

     total cpu time spent up to now is      462.0 secs

     total energy              =   -1470.77357407 Ry
     estimated scf accuracy    <       0.00000009 Ry

     iteration # 20     ecut=    60.00 Ry     beta= 0.70
     CG style diagonalization
     ethr =  1.24E-10,  avg # of iterations =  5.4

     negative rho (up, down):  7.029E-04 0.000E+00

     total cpu time spent up to now is      468.3 secs

     total energy              =   -1470.77357454 Ry
     estimated scf accuracy    <       0.00000005 Ry

     iteration # 21     ecut=    60.00 Ry     beta= 0.70
     CG style diagonalization
     ethr =  6.73E-11,  avg # of iterations =  4.4

     negative rho (up, down):  7.039E-04 0.000E+00

     total cpu time spent up to now is      473.6 secs

     total energy              =   -1470.77357460 Ry
     estimated scf accuracy    <       0.00000002 Ry

     iteration # 22     ecut=    60.00 Ry     beta= 0.70
     CG style diagonalization
     ethr =  2.24E-11,  avg # of iterations =  4.1

     negative rho (up, down):  7.047E-04 0.000E+00

     total cpu time spent up to now is      478.5 secs

     total energy              =   -1470.77357462 Ry
     estimated scf accuracy    <          1.0E-09 Ry

     iteration # 23     ecut=    60.00 Ry     beta= 0.70
     CG style diagonalization
     c_bands:  1 eigenvalues not converged
     ethr =  1.41E-12,  avg # of iterations =  5.4

     negative rho (up, down):  7.050E-04 0.000E+00

     total cpu time spent up to now is      484.8 secs

     total energy              =   -1470.77357463 Ry
     estimated scf accuracy    <          4.7E-10 Ry

     iteration # 24     ecut=    60.00 Ry     beta= 0.70
     CG style diagonalization
     ethr =  6.47E-13,  avg # of iterations =  4.2

     negative rho (up, down):  7.051E-04 0.000E+00

     total cpu time spent up to now is      489.8 secs

     total energy              =   -1470.77357463 Ry
     estimated scf accuracy    <          6.5E-11 Ry

     iteration # 25     ecut=    60.00 Ry     beta= 0.70
     CG style diagonalization
     ethr =  1.00E-13,  avg # of iterations =  5.1

     negative rho (up, down):  7.050E-04 0.000E+00

     total cpu time spent up to now is      495.6 secs

     total energy              =   -1470.77357463 Ry
     estimated scf accuracy    <          8.6E-12 Ry

     iteration # 26     ecut=    60.00 Ry     beta= 0.70
     CG style diagonalization
     ethr =  1.00E-13,  avg # of iterations =  3.6

     negative rho (up, down):  7.050E-04 0.000E+00

     total cpu time spent up to now is      499.9 secs

     total energy              =   -1470.77357463 Ry
     estimated scf accuracy    <          2.9E-12 Ry

     iteration # 27     ecut=    60.00 Ry     beta= 0.70
     CG style diagonalization
     ethr =  1.00E-13,  avg # of iterations =  3.3

     negative rho (up, down):  7.050E-04 0.000E+00

     total cpu time spent up to now is      503.8 secs

     End of self-consistent calculation

          k = 0.0000 0.0000 0.0000 (  7419 PWs)   bands (ev):

   -64.4924 -64.3921 -31.4610 -31.0275 -30.5776 -30.5776 -30.4414 -30.4414
   -21.2508 -21.2187 -16.1868 -16.1745 -16.1745 -16.1529 -16.1443 -16.1443
   -16.0936 -16.0782 -16.0578 -16.0578 -16.0443 -16.0443 -16.0123 -15.9339
    -9.1362  -4.8153  -3.0798  -2.3572  -2.3572  -2.2915  -2.2915  -1.1974
     0.5842   0.5842   2.1525   4.0138   4.0138   5.9854   6.0596   6.0596
     6.4519   6.6712   6.6712

          k = 0.0000 0.1013 0.0000 (  7432 PWs)   bands (ev):

   -64.4878 -64.3877 -31.4419 -31.0228 -30.6429 -30.5929 -30.5088 -30.4551
   -21.2308 -21.2029 -16.1853 -16.1735 -16.1732 -16.1508 -16.1462 -16.1446
   -16.0973 -16.0765 -16.0580 -16.0564 -16.0464 -16.0447 -16.0090 -15.9376
    -9.0250  -4.6419  -3.1454  -2.5188  -2.3640  -2.3593  -2.3060  -1.1412
     0.2532   0.5806   2.2654   3.6577   4.2188   5.4828   5.9688   6.2314
     6.4208   6.9049   7.0942

          k = 0.0000 0.2026 0.0000 (  7462 PWs)   bands (ev):

   -64.4752 -64.3757 -31.3894 -31.0188 -30.8112 -30.6861 -30.6344 -30.4925
   -21.1801 -21.1609 -16.1825 -16.1698 -16.1692 -16.1512 -16.1458 -16.1446
   -16.1071 -16.0729 -16.0577 -16.0527 -16.0515 -16.0454 -15.9997 -15.9477
[...]

     negative rho (up, down):  7.242E-04 0.000E+00

     total cpu time spent up to now is     1607.0 secs

     total energy              =   -1470.77587588 Ry
     estimated scf accuracy    <          3.0E-09 Ry

     iteration # 18     ecut=    60.00 Ry     beta= 0.70
     CG style diagonalization
     ethr =  2.02E-12,  avg # of iterations =  4.4

     negative rho (up, down):  7.242E-04 0.000E+00

     total cpu time spent up to now is     1612.3 secs

     total energy              =   -1470.77587588 Ry
     estimated scf accuracy    <          1.1E-10 Ry

     iteration # 19     ecut=    60.00 Ry     beta= 0.70
     CG style diagonalization
     c_bands:  1 eigenvalues not converged
     c_bands:  1 eigenvalues not converged
     ethr =  1.57E-13,  avg # of iterations =  5.8

     negative rho (up, down):  7.242E-04 0.000E+00

     total cpu time spent up to now is     1619.2 secs

     total energy              =   -1470.77587589 Ry
     estimated scf accuracy    <          7.7E-10 Ry

     iteration # 20     ecut=    60.00 Ry     beta= 0.70
     CG style diagonalization
     c_bands:  1 eigenvalues not converged
     ethr =  1.57E-13,  avg # of iterations =  4.2

     negative rho (up, down):  7.242E-04 0.000E+00

     total cpu time spent up to now is     1624.2 secs

     total energy              =   -1470.77587589 Ry
     estimated scf accuracy    <          9.2E-11 Ry

     iteration # 21     ecut=    60.00 Ry     beta= 0.70
     CG style diagonalization
     ethr =  1.28E-13,  avg # of iterations =  4.0

     negative rho (up, down):  7.242E-04 0.000E+00

     total cpu time spent up to now is     1629.0 secs

     total energy              =   -1470.77587589 Ry
     estimated scf accuracy    <          2.0E-12 Ry

     iteration # 22     ecut=    60.00 Ry     beta= 0.70
     CG style diagonalization
     c_bands:  1 eigenvalues not converged
     ethr =  1.00E-13,  avg # of iterations =  3.4

     negative rho (up, down):  7.242E-04 0.000E+00

     total cpu time spent up to now is     1633.2 secs

     total energy              =   -1470.77587589 Ry
     estimated scf accuracy    <          3.9E-12 Ry

     iteration # 23     ecut=    60.00 Ry     beta= 0.70
     CG style diagonalization
     ethr =  1.00E-13,  avg # of iterations =  3.2

     negative rho (up, down):  7.242E-04 0.000E+00

     total cpu time spent up to now is     1637.1 secs

     total energy              =   -1470.77587589 Ry
     estimated scf accuracy    <          1.5E-12 Ry

     iteration # 24     ecut=    60.00 Ry     beta= 0.70
     CG style diagonalization
     ethr =  1.00E-13,  avg # of iterations =  3.1

     negative rho (up, down):  7.242E-04 0.000E+00

     total cpu time spent up to now is     1640.9 secs

     total energy              =   -1470.77587589 Ry
     estimated scf accuracy    <          8.9E-14 Ry

     iteration # 25     ecut=    60.00 Ry     beta= 0.70
     CG style diagonalization
     ethr =  1.00E-13,  avg # of iterations =  3.1

     negative rho (up, down):  7.242E-04 0.000E+00

     total cpu time spent up to now is     1644.8 secs

     total energy              =   -1470.77587589 Ry
     estimated scf accuracy    <          1.0E-14 Ry

     iteration # 26     ecut=    60.00 Ry     beta= 0.70
     CG style diagonalization
     ethr =  1.00E-13,  avg # of iterations =  3.1

     negative rho (up, down):  7.242E-04 0.000E+00

     total cpu time spent up to now is     1648.7 secs

     total energy              =   -1470.77587589 Ry
     estimated scf accuracy    <          3.0E-14 Ry

     iteration # 27     ecut=    60.00 Ry     beta= 0.70
     CG style diagonalization
     ethr =  1.00E-13,  avg # of iterations =  3.1

     negative rho (up, down):  7.242E-04 0.000E+00

     total cpu time spent up to now is     1652.5 secs

     total energy              =   -1470.77587589 Ry
     estimated scf accuracy    <          4.0E-14 Ry

     iteration # 28     ecut=    60.00 Ry     beta= 0.70
     CG style diagonalization
     ethr =  1.00E-13,  avg # of iterations =  3.1

     negative rho (up, down):  7.242E-04 0.000E+00

     total cpu time spent up to now is     1656.2 secs

     total energy              =   -1470.77587589 Ry
     estimated scf accuracy    <          5.1E-14 Ry

     iteration # 29     ecut=    60.00 Ry     beta= 0.70
     CG style diagonalization
     ethr =  1.00E-13,  avg # of iterations =  3.1

     negative rho (up, down):  7.242E-04 0.000E+00

     total cpu time spent up to now is     1660.0 secs

     total energy              =   -1470.77587589 Ry
     estimated scf accuracy    <          3.9E-14 Ry

     iteration # 30     ecut=    60.00 Ry     beta= 0.70
     CG style diagonalization
     ethr =  1.00E-13,  avg # of iterations =  3.1

     negative rho (up, down):  7.242E-04 0.000E+00

     total cpu time spent up to now is     1663.8 secs

     total energy              =   -1470.77587589 Ry
     estimated scf accuracy    <          5.7E-14 Ry

     iteration # 31     ecut=    60.00 Ry     beta= 0.70
     CG style diagonalization
     ethr =  1.00E-13,  avg # of iterations =  3.1

     negative rho (up, down):  7.242E-04 0.000E+00

     total cpu time spent up to now is     1667.5 secs

     total energy              =   -1470.77587589 Ry
     estimated scf accuracy    <          4.1E-14 Ry

     iteration # 32     ecut=    60.00 Ry     beta= 0.70
     CG style diagonalization
     ethr =  1.00E-13,  avg # of iterations =  3.0

     negative rho (up, down):  7.242E-04 0.000E+00

     total cpu time spent up to now is     1671.3 secs

     total energy              =   -1470.77587589 Ry
     estimated scf accuracy    <          5.4E-14 Ry

     iteration # 33     ecut=    60.00 Ry     beta= 0.70
     CG style diagonalization
     ethr =  1.00E-13,  avg # of iterations =  3.0

     negative rho (up, down):  7.242E-04 0.000E+00

     total cpu time spent up to now is     1675.0 secs

     total energy              =   -1470.77587589 Ry
     estimated scf accuracy    <          5.2E-14 Ry

     iteration # 34     ecut=    60.00 Ry     beta= 0.70
     CG style diagonalization
     ethr =  1.00E-13,  avg # of iterations =  3.0

     negative rho (up, down):  7.242E-04 0.000E+00

     total cpu time spent up to now is     1678.8 secs

     total energy              =   -1470.77587589 Ry
     estimated scf accuracy    <          4.2E-14 Ry

     iteration # 35     ecut=    60.00 Ry     beta= 0.70
     CG style diagonalization
     ethr =  1.00E-13,  avg # of iterations =  3.0

     negative rho (up, down):  7.242E-04 0.000E+00

     total cpu time spent up to now is     1682.5 secs

     total energy              =   -1470.77587589 Ry
     estimated scf accuracy    <          1.7E-14 Ry

     iteration # 36     ecut=    60.00 Ry     beta= 0.70
     CG style diagonalization
     ethr =  1.00E-13,  avg # of iterations =  3.0

     negative rho (up, down):  7.242E-04 0.000E+00

     total cpu time spent up to now is     1686.2 secs

     End of self-consistent calculation

          k = 0.0000 0.0000 0.0000 (  7569 PWs)   bands (ev):

   -64.5563 -64.4223 -31.5211 -31.0511 -30.6847 -30.6847 -30.5022 -30.5022
   -21.5221 -21.1775 -16.2503 -16.2364 -16.2364 -16.2120 -16.2052 -16.2052
   -16.1605 -16.1110 -16.0914 -16.0914 -16.0789 -16.0789 -16.0446 -15.9702
    -9.1739  -4.8974  -3.1490  -2.7264  -2.7264  -2.3143  -2.3143  -1.2061
     0.3453   0.3453   2.3691   3.9187   3.9187   5.9062   5.9062   5.9090
     6.2990   6.6789   6.6790

          k = 0.0000 0.1005 0.0000 (  7594 PWs)   bands (ev):

   -64.5521 -64.4184 -31.5025 -31.0492 -30.7448 -30.6991 -30.5646 -30.5149
   -21.5053 -21.1603 -16.2488 -16.2353 -16.2350 -16.2100 -16.2071 -16.2056
   -16.1642 -16.1095 -16.0916 -16.0899 -16.0809 -16.0793 -16.0412 -15.9740
    -9.0666  -4.7318  -3.2617  -2.7708  -2.7300  -2.4375  -2.3231  -1.1538
     0.0327   0.3382   2.4553   3.5896   4.1150   5.3770   5.8580   6.2042
     6.3425   6.8809   6.9924

          k = 0.0000 0.2010 0.0000 (  7626 PWs)   bands (ev):

   -64.5406 -64.4075 -31.4512 -31.0594 -30.8931 -30.7382 -30.7286 -30.5497
   -21.4623 -21.1156 -16.2457 -16.2316 -16.2314 -16.2116 -16.2067 -16.2044
   -16.1735 -16.1060 -16.0912 -16.0865 -16.0857 -16.0801 -16.0325 -15.9835
    -8.7803  -4.3241  -3.4664  -2.9819  -2.7525  -2.7183  -2.3592  -1.0816
    -0.6135   0.3296   2.3055   3.3829   4.6914   4.8579   5.9525   6.1236
     6.8696   7.2439   7.7886

          k = 0.0000 0.3015 0.0000 (  7656 PWs)   bands (ev):

   -64.5249 -64.3925 -31.3855 -31.1817 -31.0066 -30.9126 -30.7911 -30.5969
   -21.4098 -21.0596 -16.2429 -16.2269 -16.2269 -16.2163 -16.2085 -16.1961
   -16.1845 -16.1029 -16.0931 -16.0874 -16.0849 -16.0781 -16.0206 -15.9956
    -8.4058  -3.9971  -3.6106  -3.2737  -3.0608  -2.8084  -2.4322  -1.3208
    -0.8946   0.3324   1.6456   3.8885   4.8279   5.5886   6.1608   6.3922
     7.3752   7.5718   8.5404

          k = 0.0000 0.4020 0.0000 (  7706 PWs)   bands (ev):

   -64.5091 -64.3776 -31.4133 -31.3138 -31.1368 -30.9596 -30.8433 -30.6437
   -21.3635 -21.0089 -16.2405 -16.2272 -16.2246 -16.2155 -16.2109 -16.1924
   -16.1871 -16.1022 -16.0978 -16.0869 -16.0829 -16.0731 -16.0086 -16.0068
    -8.0475  -4.1702  -3.7465  -3.4673  -3.1694  -2.8883  -2.5227  -1.6950
    -0.7988   0.3379   1.0737   4.4301   5.5966   6.3722   6.6292   7.1358
     7.7385   7.9211   8.9281

          k = 0.0000 0.5025 0.0000 (  7680 PWs)   bands (ev):

   -64.4976 -64.3666 -31.5526 -31.3923 -31.1431 -30.9720 -30.8813 -30.6778
   -21.3331 -20.9749 -16.2382 -16.2303 -16.2263 -16.2121 -16.2114 -16.1955
   -16.1800 -16.1044 -16.0985 -16.0889 -16.0787 -16.0689 -16.0144 -15.9996
    -7.7881  -4.5505  -3.8853  -3.4768  -3.1972  -2.9597  -2.5940  -1.9199
    -0.7010   0.3380   0.7369   4.8860   6.7147   6.8820   7.3227   7.8998
     7.9749   8.5838   8.9156

          k =-0.0000-0.6030 0.0000 (  7678 PWs)   bands (ev):

   -64.4933 -64.3626 -31.6065 -31.4370 -31.1208 -30.9805 -30.8951 -30.6902
   -21.3226 -20.9631 -16.2371 -16.2319 -16.2278 -16.2111 -16.2106 -16.1962
   -16.1773 -16.1057 -16.0984 -16.0897 -16.0771 -16.0674 -16.0170 -15.9961
    -7.6909  -4.7172  -3.9414  -3.4523  -3.2177  -2.9883  -2.6205  -2.0037
    -0.6699   0.3367   0.6315   5.0634   7.0558   7.4563   7.5714   8.2109
     8.3488   8.6323   9.0090

          k = 0.0870 0.1508 0.0000 (  7629 PWs)   bands (ev):

   -64.5443 -64.4109 -31.4674 -31.0516 -30.8469 -30.7333 -30.6700 -30.5430
   -21.4755 -21.1294 -16.2466 -16.2329 -16.2324 -16.2104 -16.2066 -16.2059
   -16.1708 -16.1069 -16.0916 -16.0874 -16.0843 -16.0800 -16.0353 -15.9806
    -8.8694  -4.4397  -3.4115  -2.9103  -2.7654  -2.6093  -2.3529  -1.0884
    -0.4184   0.2853   2.5097   3.2439   4.4773   5.1470   5.6044   6.3717
     6.7120   6.9366   7.7638

          k = 0.0870 0.2513 0.0000 (  7636 PWs)   bands (ev):

   -64.5307 -64.3980 -31.4077 -31.1101 -30.9742 -30.8526 -30.7740 -30.5929
   -21.4280 -21.0792 -16.2436 -16.2287 -16.2280 -16.2154 -16.2071 -16.1992
   -16.1812 -16.1032 -16.0915 -16.0886 -16.0848 -16.0793 -16.0249 -15.9914
    -8.5367  -4.0247  -3.5729  -3.1638  -3.0172  -2.7345  -2.4323  -1.0881
    -0.9282   0.1975   2.1308   3.4146   4.6281   5.4882   5.8963   6.4539
     7.1242   7.3044   8.6668

          k = 0.0870 0.3518 0.0000 (  7696 PWs)   bands (ev):

   -64.5149 -64.3831 -31.3642 -31.2677 -31.0856 -30.9497 -30.8398 -30.6493
   -21.3789 -21.0263 -16.2410 -16.2255 -16.2247 -16.2183 -16.2088 -16.1914
   -16.1905 -16.1010 -16.0958 -16.0864 -16.0858 -16.0750 -16.0131 -16.0033
    -8.1662  -3.9311  -3.6782  -3.4147  -3.2155  -2.8366  -2.5520  -1.5185
    -0.8575   0.0937   1.6246   3.9881   4.7908   6.1849   6.6917   6.8726
     7.4573   7.7992   9.1908

          k = 0.0870 0.4523 0.0000 (  7688 PWs)   bands (ev):

   -64.5012 -64.3701 -31.4792 -31.3377 -31.1506 -30.9723 -30.8914 -30.6970
   -21.3408 -20.9844 -16.2387 -16.2282 -16.2242 -16.2150 -16.2104 -16.1968
   -16.1824 -16.1025 -16.0975 -16.0884 -16.0811 -16.0706 -16.0130 -16.0024
    -7.8530  -4.2834  -3.8053  -3.5041  -3.2121  -2.9245  -2.6662  -1.7906
    -0.7256  -0.0507   1.3334   4.4801   5.6855   6.5153   7.2762   7.7465
     8.0220   8.3881   9.2274

          k = 0.0870 0.5528 0.0000 (  7688 PWs)   bands (ev):

   -64.4933 -64.3626 -31.5746 -31.4082 -31.1208 -30.9912 -30.9188 -30.7242
   -21.3205 -20.9617 -16.2372 -16.2307 -16.2263 -16.2120 -16.2108 -16.1984
   -16.1775 -16.1046 -16.0974 -16.0899 -16.0777 -16.0683 -16.0182 -15.9963
    -7.6703  -4.5717  -3.9128  -3.4568  -3.2471  -2.9724  -2.7518  -1.9097
    -0.6466  -0.1656   1.2232   4.8520   6.7056   6.9092   7.5127   7.9029
     8.5077   8.8482   9.4936

          k = 0.1741 0.3015 0.0000 (  7689 PWs)   bands (ev):

   -64.5170 -64.3851 -31.3595 -31.2229 -31.0679 -30.9360 -30.8464 -30.6683
   -21.3843 -21.0325 -16.2409 -16.2249 -16.2242 -16.2202 -16.2071 -16.1919
   -16.1916 -16.0998 -16.0944 -16.0887 -16.0860 -16.0755 -16.0148 -16.0023
    -8.2040  -3.7350  -3.6876  -3.3869  -3.2715  -2.8249  -2.5889  -1.3997
    -0.9135  -0.0684   2.0855   3.5079   4.4736   6.1658   6.7267   6.9218
     7.2282   7.7573   9.6732

          k = 0.1741 0.4020 0.0000 (  7701 PWs)   bands (ev):

   -64.5034 -64.3721 -31.4047 -31.2863 -31.1490 -30.9736 -30.9205 -30.7468
   -21.3439 -20.9889 -16.2387 -16.2248 -16.2226 -16.2190 -16.2077 -16.2007
   -16.1838 -16.1004 -16.0947 -16.0889 -16.0846 -16.0717 -16.0133 -16.0040
    -7.8720  -3.9790  -3.6837  -3.5244  -3.2532  -2.9479  -2.7849  -1.6859
    -0.7861  -0.3335   2.0648   3.8563   4.6841   6.4965   7.0863   7.8542
     8.0975   8.3157   9.8785

          k = 0.1741 0.5025 0.0000 (  7710 PWs)   bands (ev):

   -64.4933 -64.3626 -31.4964 -31.3409 -31.1288 -31.0320 -30.9526 -30.8027
   -21.3164 -20.9590 -16.2373 -16.2272 -16.2232 -16.2147 -16.2106 -16.2035
   -16.1779 -16.1026 -16.0946 -16.0904 -16.0799 -16.0699 -16.0206 -15.9966
    -7.6278  -4.2475  -3.8252  -3.4820  -3.2801  -3.0164  -2.9238  -1.7978
    -0.7282  -0.5211   2.0501   4.3071   5.5007   6.6211   7.3537   7.9173
     8.6525   9.0538  10.1100

          k = 0.1741 0.6030 0.0000 (  7699 PWs)   bands (ev):

   -64.4897 -64.3591 -31.5322 -31.3676 -31.0987 -31.0682 -30.9626 -30.8227
   -21.3067 -20.9484 -16.2368 -16.2281 -16.2242 -16.2131 -16.2112 -16.2040
   -16.1756 -16.1033 -16.0951 -16.0906 -16.0775 -16.0696 -16.0232 -15.9937
    -7.5375  -4.3582  -3.8802  -3.4216  -3.3532  -3.0097  -2.9963  -1.8123
    -0.7611  -0.5534   2.0386   4.5721   6.1582   6.7518   7.4275   7.6814
     8.4028   9.1539  10.7860

          k = 0.2611 0.4523 0.0000 (  7711 PWs)   bands (ev):

   -64.4933 -64.3626 -31.4433 -31.2974 -31.1579 -31.0402 -30.9734 -30.8489
   -21.3143 -20.9576 -16.2374 -16.2244 -16.2214 -16.2167 -16.2100 -16.2072
   -16.1781 -16.1015 -16.0925 -16.0906 -16.0818 -16.0705 -16.0217 -15.9967
    -7.6057  -4.0796  -3.7514  -3.4521  -3.3015  -3.0630  -3.0318  -1.7663
    -0.9059  -0.5084   2.6746   3.8214   4.8864   6.5775   7.2436   7.9376
     8.7298   9.1810  10.4395

          k = 0.2611 0.5528 0.0000 (  7693 PWs)   bands (ev):

   -64.4875 -64.3571 -31.4490 -31.2993 -31.1836 -31.0868 -30.9973 -30.9062
   -21.2975 -20.9399 -16.2369 -16.2241 -16.2207 -16.2155 -16.2132 -16.2083
   -16.1747 -16.1015 -16.0948 -16.0888 -16.0780 -16.0716 -16.0266 -15.9923
    -7.4494  -4.1029  -3.7771  -3.5449  -3.3364  -3.1989  -3.0269  -1.7292
    -1.1698  -0.4740   2.9683   4.2041   5.3380   6.6513   7.1641   7.5095
     8.4804   9.0956  10.8205

          k = 0.3481 0.6030 0.0000 (  7665 PWs)   bands (ev):

   -64.4854 -64.3551 -31.3636 -31.3277 -31.1985 -31.1458 -31.0066 -30.9426
   -21.2904 -20.9328 -16.2367 -16.2216 -16.2190 -16.2173 -16.2151 -16.2095
   -16.1734 -16.1003 -16.0963 -16.0870 -16.0750 -16.0748 -16.0290 -15.9907
    -7.3825  -3.9127  -3.8753  -3.5224  -3.4377  -3.2911  -3.0039  -1.5756
    -1.4862  -0.4329   3.5114   4.3467   5.0382   6.7902   6.9179   7.0392
     8.5339   8.8566  11.0077

     the Fermi energy is     4.6004 ev

!    total energy              =   -1470.77587589 Ry
     estimated scf accuracy    <          2.9E-15 Ry
     smearing contrib. (-TS)   =       0.00005937 Ry
     internal energy E=F+TS    =   -1470.77593526 Ry

     The total energy is F=E-TS. E is the sum of the following terms:
     one-electron contribution =   -7544.80867658 Ry
     hartree contribution      =    3816.53954911 Ry
     xc contribution           =    -157.90530816 Ry
     ewald contribution        =    2415.39850038 Ry

     convergence has been achieved in  36 iterations

     negative rho (up, down):  7.242E-04 0.000E+00

     Forces acting on atoms (cartesian axes, Ry/au):

     atom    1 type  1   force =    -0.00000000   -0.00000000   -0.00030795
     atom    2 type  2   force =     0.00000000    0.00000000    0.00016064
     atom    3 type  1   force =    -0.00000000   -0.00000000   -0.00029773
     atom    4 type  3   force =     0.00000000    0.00000000    0.00040544
     atom    5 type  3   force =     0.00000000    0.00000000    0.00003961

     Total force =     0.000613     Total SCF correction =     0.000000


     Computing stress (Cartesian axis) and pressure


     negative rho (up, down):  7.242E-04 0.000E+00
          total   stress  (Ry/bohr**3)                   (kbar)     P=       -1.75
   0.00000658  -0.00000000   0.00000000            0.97       -0.00        0.00
  -0.00000000   0.00000658   0.00000000           -0.00        0.97        0.00
   0.00000000   0.00000000  -0.00004875            0.00        0.00       -7.17


     Writing output data file /scratch/as3359/Ta2CF2_loop/Ta.save/
 
     init_run     :     14.90s CPU      9.62s WALL (       2 calls)
     electrons    :   3013.13s CPU   1568.16s WALL (      12 calls)
     update_pot   :     54.19s CPU     32.48s WALL (      10 calls)
     forces       :     42.53s CPU     21.88s WALL (      12 calls)
     stress       :    112.43s CPU     57.94s WALL (      12 calls)

     Called by init_run:
     wfcinit      :      3.10s CPU      1.62s WALL (       2 calls)
     potinit      :      2.76s CPU      1.39s WALL (       2 calls)
     hinit0       :      8.27s CPU      6.10s WALL (       2 calls)

     Called by electrons:
     c_bands      :   2555.90s CPU   1303.33s WALL (     333 calls)
     sum_band     :    319.82s CPU    180.68s WALL (     333 calls)
     v_of_rho     :     17.79s CPU      9.08s WALL (     345 calls)
     newd         :    115.49s CPU     72.99s WALL (     345 calls)
     mix_rho      :      5.58s CPU      2.86s WALL (     333 calls)

     Called by c_bands:
     init_us_2    :     23.61s CPU     11.91s WALL (   13148 calls)
     ccgdiagg     :   2172.55s CPU   1107.92s WALL (    6395 calls)
     wfcrot       :    362.29s CPU    184.31s WALL (    6205 calls)

     Called by *cgdiagg:
     h_psi        :   1609.76s CPU    820.84s WALL (  818048 calls)
     s_psi        :    383.86s CPU    196.17s WALL ( 1629891 calls)

     Called by h_psi:
     h_psi:calbec :    196.52s CPU     99.95s WALL (  818048 calls)
     vloc_psi     :   1186.55s CPU    605.52s WALL (  818048 calls)
     add_vuspsi   :    200.73s CPU    102.50s WALL (  818048 calls)
     hs_1psi      :   1500.70s CPU    764.76s WALL (  811843 calls)
     s_1psi       :    386.59s CPU    196.44s WALL (  811843 calls)

     General routines
     calbec       :    386.42s CPU    197.57s WALL ( 1637358 calls)
     fft          :      9.32s CPU      4.78s WALL (    4771 calls)
     ffts         :      0.90s CPU      0.47s WALL (     678 calls)
     fftw         :   1176.68s CPU    600.65s WALL ( 2429605 calls)
     interpolate  :      1.37s CPU      0.72s WALL (     345 calls)
 
     Parallel routines
 
     PWSCF        :  54m 2.04s CPU  28m13.68s WALL

 
   This run was terminated on:  19:39:58   7Apr2022            

=------------------------------------------------------------------------------=
   JOB DONE.
=------------------------------------------------------------------------------=
