
     Program PWSCF v.6.8 starts on 15Apr2022 at  3:42:18 

     This program is part of the open-source Quantum ESPRESSO suite
     for quantum simulation of materials; please cite
         "P. Giannozzi et al., J. Phys.:Condens. Matter 21 395502 (2009);
         "P. Giannozzi et al., J. Phys.:Condens. Matter 29 465901 (2017);
         "P. Giannozzi et al., J. Chem. Phys. 152 154105 (2020);
          URL http://www.quantum-espresso.org", 
     in publications or presentations arising from this work. More details at
     http://www.quantum-espresso.org/quote

     Parallel version (MPI & OpenMP), running on       4 processor cores
     Number of MPI processes:                 2
     Threads/MPI process:                     2

     MPI processes distributed on     1 nodes
     R & G space division:  proc/nbgrp/npool/nimage =       2
     123819 MiB available memory on the printing compute node when the environment starts
 
     Reading input from Ta3C2.scf.vcrelax1.in

     Current dimensions of program PWSCF are:
     Max number of different atomic species (ntypx) = 10
     Max number of k-points (npk) =  40000
     Max angular momentum in pseudopotentials (lmaxx) =  4
     file Ta.pbesol-spfn-rrkjus_psl.1.0.0.UPF: wavefunction(s)  5S 5P renormalized

     Subspace diagonalization in iterative solution of the eigenvalue problem:
     a serial algorithm will be used

 
     Parallelization info
     --------------------
     sticks:   dense  smooth     PW     G-vecs:    dense   smooth      PW
     Min         341     279     84                69975    50158    8965
     Max         344     280     85                69982    50169    8974
     Sum         685     559    169               139957   100327   17939
 
     Using Slab Decomposition
 


     bravais-lattice index     =            0
     lattice parameter (alat)  =       5.5500  a.u.
     unit-cell volume          =    1596.6788 (a.u.)^3
     number of atoms/cell      =            6
     number of atomic types    =            3
     number of electrons       =        90.00
     number of Kohn-Sham states=           54
     kinetic-energy cutoff     =      60.0000  Ry
     charge density cutoff     =     300.0000  Ry
     scf convergence threshold =      1.0E-12
     mixing beta               =       0.7000
     number of iterations used =            8  plain     mixing
     energy convergence thresh.=      1.0E-04
     force convergence thresh. =      1.0E-03
     press convergence thresh. =      5.0E-01
     Exchange-correlation= PBESOL
                           (   1   4  10   8   0   0   0)
     nstep                     =           50


     celldm(1)=   5.550000  celldm(2)=   0.000000  celldm(3)=   0.000000
     celldm(4)=   0.000000  celldm(5)=   0.000000  celldm(6)=   0.000000

     crystal axes: (cart. coord. in units of alat)
               a(1) = (   1.038323  -0.000115   0.000000 )  
               a(2) = (  -0.519199   0.899568   0.000000 )  
               a(3) = (   0.000000   0.000000  10.000000 )  

     reciprocal axes: (cart. coord. in units 2 pi/alat)
               b(1) = (  0.963153  0.555898  0.000000 )  
               b(2) = (  0.000123  1.111716  0.000000 )  
               b(3) = (  0.000000  0.000000  0.100000 )  


     PseudoPot. # 1 for Ta read from file:
     /shared/home/as3359/pseudo/Ta.pbesol-spfn-rrkjus_psl.1.0.0.UPF
     MD5 check sum: f099565ffaca9b150a52e9412a28e20b
     Pseudo is Ultrasoft + core correction, Zval = 27.0
     Generated using &quot;atomic&quot; code by A. Dal Corso  v.6.3
     Using radial grid of 1273 points,  8 beta functions with: 
                l(1) =   0
                l(2) =   0
                l(3) =   1
                l(4) =   1
                l(5) =   2
                l(6) =   2
                l(7) =   3
                l(8) =   3
     Q(r) pseudized with 0 coefficients 


     PseudoPot. # 2 for C  read from file:
     /shared/home/as3359/pseudo/C.pbesol-n-rrkjus_psl.1.0.0.UPF
     MD5 check sum: 05995be603a8a7c99da3dc4413f31573
     Pseudo is Ultrasoft + core correction, Zval =  4.0
     Generated using &quot;atomic&quot; code by A. Dal Corso  v.6.3MaX
     Using radial grid of 1073 points,  4 beta functions with: 
                l(1) =   0
                l(2) =   0
                l(3) =   1
                l(4) =   1
     Q(r) pseudized with 0 coefficients 


     PseudoPot. # 3 for H  read from file:
     /shared/home/as3359/pseudo/H.pbesol-rrkjus_psl.0.1.UPF
     MD5 check sum: 1dbb1a5c48b1283557b8117eb856a7ca
     Pseudo is Ultrasoft, Zval =  1.0
     Generated using "atomic" code by A. Dal Corso  v.5.0.2 svn rev. 9415
     Using radial grid of  929 points,  2 beta functions with: 
                l(1) =   0
                l(2) =   0
     Q(r) pseudized with 0 coefficients 


     atomic species   valence    mass     pseudopotential
        Ta            27.00   180.94788     Ta( 1.00)
        C              4.00    12.01070     C ( 1.00)
        H              1.00     1.00000     H ( 1.00)

     No symmetry found



   Cartesian axes

     site n.     atom                  positions (alat units)
         1           Ta  tau(   1) = (  -0.0318903   0.6043570   0.5998417  )
         2           C   tau(   2) = (  -0.0318451   0.0046950   1.0123183  )
         3           Ta  tau(   3) = (   0.4873834   0.3045793   1.4551225  )
         4           C   tau(   4) = (  -0.0315990   0.6046742   1.9088526  )
         5           Ta  tau(   5) = (  -0.0314813   0.0050388   2.3418107  )
         6           H   tau(   6) = (   0.4875612   0.3049076   2.6744449  )

     number of k points=   113  Marzari-Vanderbilt smearing, width (Ry)=  0.0010

     Number of k-points >= 100: set verbosity='high' to print them.

     Dense  grid:   139957 G-vectors     FFT dimensions: (  32,  32, 320)

     Smooth grid:   100327 G-vectors     FFT dimensions: (  30,  30, 288)

     Estimated max dynamical RAM per process >       1.26 GB

     Estimated total dynamical RAM >       2.51 GB

     Check: negative core charge=   -0.000002

     Initial potential from superposition of free atoms

     starting charge   89.99759, renormalised to   90.00000

     negative rho (up, down):  8.248E-04 0.000E+00
     Starting wfcs are   60 randomized atomic wfcs

     total cpu time spent up to now is       16.5 secs

     Self-consistent Calculation

     iteration #  1     ecut=    60.00 Ry     beta= 0.70
     Davidson diagonalization with overlap
     ethr =  1.00E-02,  avg # of iterations =  2.2

     negative rho (up, down):  7.003E-04 0.000E+00

     total cpu time spent up to now is       41.4 secs

     total energy              =   -2066.00461417 Ry
     estimated scf accuracy    <       2.24706856 Ry

     iteration #  2     ecut=    60.00 Ry     beta= 0.70
     Davidson diagonalization with overlap
     ethr =  2.50E-03,  avg # of iterations = 11.3

     negative rho (up, down):  6.113E-05 0.000E+00

     total cpu time spent up to now is       90.2 secs

     total energy              =   -2052.96032600 Ry
     estimated scf accuracy    <     365.85721625 Ry

     iteration #  3     ecut=    60.00 Ry     beta= 0.70
     Davidson diagonalization with overlap
     ethr =  2.50E-03,  avg # of iterations =  9.1

     negative rho (up, down):  9.611E-06 0.000E+00

     total cpu time spent up to now is      134.1 secs

     total energy              =   -2061.81050031 Ry
     estimated scf accuracy    <     128.99079141 Ry

     iteration #  4     ecut=    60.00 Ry     beta= 0.70
     Davidson diagonalization with overlap
     ethr =  2.50E-03,  avg # of iterations =  7.6

     negative rho (up, down):  1.120E-05 0.000E+00

     total cpu time spent up to now is      169.9 secs

     total energy              =   -2066.82350570 Ry
     estimated scf accuracy    <      19.81235453 Ry

     iteration #  5     ecut=    60.00 Ry     beta= 0.70
     Davidson diagonalization with overlap
     ethr =  2.50E-03,  avg # of iterations =  2.3

     negative rho (up, down):  7.411E-06 0.000E+00

     total cpu time spent up to now is      195.0 secs

     total energy              =   -2067.45223575 Ry
     estimated scf accuracy    <       0.43579201 Ry

     iteration #  6     ecut=    60.00 Ry     beta= 0.70
     Davidson diagonalization with overlap
     ethr =  4.84E-04,  avg # of iterations =  4.3

     negative rho (up, down):  9.836E-06 0.000E+00

     total cpu time spent up to now is      220.1 secs

     total energy              =   -2067.46645334 Ry
     estimated scf accuracy    <       0.24619262 Ry

     iteration #  7     ecut=    60.00 Ry     beta= 0.70
     Davidson diagonalization with overlap
     c_bands:  1 eigenvalues not converged
     ethr =  2.74E-04,  avg # of iterations =  3.5

     negative rho (up, down):  1.470E-05 0.000E+00

     total cpu time spent up to now is      243.8 secs

     total energy              =   -2067.45590498 Ry
     estimated scf accuracy    <       0.17321152 Ry

     iteration #  8     ecut=    60.00 Ry     beta= 0.70
     Davidson diagonalization with overlap
     ethr =  1.92E-04,  avg # of iterations =  3.7

     negative rho (up, down):  3.043E-05 0.000E+00

     total cpu time spent up to now is      267.9 secs

     total energy              =   -2067.45026546 Ry
     estimated scf accuracy    <       0.07545427 Ry

     iteration #  9     ecut=    60.00 Ry     beta= 0.70
     Davidson diagonalization with overlap
     ethr =  8.38E-05,  avg # of iterations =  3.7

     negative rho (up, down):  5.988E-05 0.000E+00

     total cpu time spent up to now is      292.3 secs

     total energy              =   -2067.44648884 Ry
     estimated scf accuracy    <       0.04192143 Ry

     iteration # 10     ecut=    60.00 Ry     beta= 0.70
     Davidson diagonalization with overlap
     ethr =  4.66E-05,  avg # of iterations =  3.6

     negative rho (up, down):  1.692E-04 0.000E+00

     total cpu time spent up to now is      316.3 secs

     total energy              =   -2067.44185824 Ry
     estimated scf accuracy    <       0.03178610 Ry

     iteration # 11     ecut=    60.00 Ry     beta= 0.70
     Davidson diagonalization with overlap
     ethr =  3.53E-05,  avg # of iterations =  2.3

     negative rho (up, down):  2.987E-03 0.000E+00

     total cpu time spent up to now is      339.3 secs

     total energy              =   -2067.43045407 Ry
     estimated scf accuracy    <       0.02842070 Ry

     iteration # 12     ecut=    60.00 Ry     beta= 0.70
     Davidson diagonalization with overlap
     ethr =  3.16E-05,  avg # of iterations =  7.2

     negative rho (up, down):  3.945E-04 0.000E+00

     total cpu time spent up to now is      367.1 secs

     total energy              =   -2067.43206641 Ry
     estimated scf accuracy    <       0.01099178 Ry

     iteration # 13     ecut=    60.00 Ry     beta= 0.70
     Davidson diagonalization with overlap
     ethr =  1.22E-05,  avg # of iterations =  7.6

     negative rho (up, down):  8.431E-04 0.000E+00

     total cpu time spent up to now is      393.7 secs

     total energy              =   -2067.43249946 Ry
     estimated scf accuracy    <       0.00062904 Ry

     iteration # 14     ecut=    60.00 Ry     beta= 0.70
     Davidson diagonalization with overlap
     ethr =  6.99E-07,  avg # of iterations =  7.8

     negative rho (up, down):  7.400E-04 0.000E+00

     total cpu time spent up to now is      425.0 secs

     total energy              =   -2067.43254220 Ry
     estimated scf accuracy    <       0.00120918 Ry

     iteration # 15     ecut=    60.00 Ry     beta= 0.70
     Davidson diagonalization with overlap
     ethr =  6.99E-07,  avg # of iterations =  1.8

     negative rho (up, down):  8.164E-04 0.000E+00

     total cpu time spent up to now is      447.8 secs

     total energy              =   -2067.43260371 Ry
     estimated scf accuracy    <       0.00005450 Ry

     iteration # 16     ecut=    60.00 Ry     beta= 0.70
     Davidson diagonalization with overlap
     ethr =  6.06E-08,  avg # of iterations =  2.1

     negative rho (up, down):  8.184E-04 0.000E+00

     total cpu time spent up to now is      472.0 secs

     total energy              =   -2067.43260806 Ry
     estimated scf accuracy    <       0.00000176 Ry

     iteration # 17     ecut=    60.00 Ry     beta= 0.70
     Davidson diagonalization with overlap
     ethr =  1.96E-09,  avg # of iterations =  4.1

     negative rho (up, down):  8.353E-04 0.000E+00

     total cpu time spent up to now is      501.5 secs

     total energy              =   -2067.43260837 Ry
     estimated scf accuracy    <       0.00000248 Ry

     iteration # 18     ecut=    60.00 Ry     beta= 0.70
     Davidson diagonalization with overlap
     ethr =  1.96E-09,  avg # of iterations =  2.1

     negative rho (up, down):  8.334E-04 0.000E+00

     total cpu time spent up to now is      525.7 secs

     total energy              =   -2067.43260858 Ry
     estimated scf accuracy    <       0.00000088 Ry

     iteration # 19     ecut=    60.00 Ry     beta= 0.70
     Davidson diagonalization with overlap
     ethr =  9.82E-10,  avg # of iterations =  2.0

     negative rho (up, down):  8.327E-04 0.000E+00

     total cpu time spent up to now is      550.4 secs

     total energy              =   -2067.43260865 Ry
     estimated scf accuracy    <       0.00000009 Ry

     iteration # 20     ecut=    60.00 Ry     beta= 0.70
     Davidson diagonalization with overlap
     ethr =  1.01E-10,  avg # of iterations =  2.6

     negative rho (up, down):  8.349E-04 0.000E+00

     total cpu time spent up to now is      576.4 secs

     total energy              =   -2067.43260866 Ry
     estimated scf accuracy    <       0.00000011 Ry

     iteration # 21     ecut=    60.00 Ry     beta= 0.70
     Davidson diagonalization with overlap
     ethr =  1.01E-10,  avg # of iterations =  1.0

     negative rho (up, down):  8.347E-04 0.000E+00

     total cpu time spent up to now is      598.0 secs

     total energy              =   -2067.43260866 Ry
     estimated scf accuracy    <          7.3E-09 Ry

     iteration # 22     ecut=    60.00 Ry     beta= 0.70
     Davidson diagonalization with overlap
     ethr =  8.14E-12,  avg # of iterations =  1.7

     negative rho (up, down):  8.346E-04 0.000E+00

     total cpu time spent up to now is      620.6 secs

     total energy              =   -2067.43260866 Ry
     estimated scf accuracy    <          1.2E-09 Ry

     iteration # 23     ecut=    60.00 Ry     beta= 0.70
     Davidson diagonalization with overlap
     ethr =  1.30E-12,  avg # of iterations =  2.0

     negative rho (up, down):  8.345E-04 0.000E+00

     total cpu time spent up to now is      644.8 secs

     total energy              =   -2067.43260866 Ry
     estimated scf accuracy    <          2.1E-10 Ry

     iteration # 24     ecut=    60.00 Ry     beta= 0.70
     Davidson diagonalization with overlap
     ethr =  2.31E-13,  avg # of iterations =  2.8

     negative rho (up, down):  8.345E-04 0.000E+00

     total cpu time spent up to now is      669.9 secs

     total energy              =   -2067.43260866 Ry
     estimated scf accuracy    <          6.4E-11 Ry

     iteration # 25     ecut=    60.00 Ry     beta= 0.70
     Davidson diagonalization with overlap
     ethr =  1.00E-13,  avg # of iterations =  2.0

     negative rho (up, down):  8.345E-04 0.000E+00

     total cpu time spent up to now is      693.6 secs

     total energy              =   -2067.43260866 Ry
     estimated scf accuracy    <          2.0E-11 Ry

     iteration # 26     ecut=    60.00 Ry     beta= 0.70
     Davidson diagonalization with overlap
     ethr =  1.00E-13,  avg # of iterations =  1.0

     negative rho (up, down):  8.345E-04 0.000E+00

     total cpu time spent up to now is      715.1 secs

     total energy              =   -2067.43260866 Ry
     estimated scf accuracy    <          1.3E-12 Ry

     iteration # 27     ecut=    60.00 Ry     beta= 0.70
     Davidson diagonalization with overlap
     ethr =  1.00E-13,  avg # of iterations =  1.0

     negative rho (up, down):  8.345E-04 0.000E+00

     total cpu time spent up to now is      736.7 secs

     End of self-consistent calculation

     Number of k-points >= 100: set verbosity='high' to print the bands.

     the Fermi energy is     2.5976 ev

!    total energy              =   -2067.43260866 Ry
     estimated scf accuracy    <          5.3E-13 Ry
     smearing contrib. (-TS)   =      -0.00000469 Ry
     internal energy E=F+TS    =   -2067.43260397 Ry

     The total energy is F=E-TS. E is the sum of the following terms:
     one-electron contribution =  -19968.66177309 Ry
     hartree contribution      =   10036.17895452 Ry
     xc contribution           =    -211.37443436 Ry
     ewald contribution        =    8076.42464895 Ry

     convergence has been achieved in  27 iterations

     negative rho (up, down):  8.345E-04 0.000E+00

     Forces acting on atoms (cartesian axes, Ry/au):

     atom    1 type  1   force =     0.00002102   -0.00002059    0.00021059
     atom    2 type  2   force =     0.00009551    0.00020585    0.00004215
     atom    3 type  1   force =     0.00007653    0.00005865   -0.00002306
     atom    4 type  2   force =    -0.00011988   -0.00022172   -0.00006369
     atom    5 type  1   force =    -0.00014484   -0.00001611    0.00006128
     atom    6 type  3   force =     0.00007166   -0.00000608   -0.00022727

     Total force =     0.000508     Total SCF correction =     0.000010


     Computing stress (Cartesian axis) and pressure


     negative rho (up, down):  8.345E-04 0.000E+00
          total   stress  (Ry/bohr**3)                   (kbar)     P=       -2.61
  -0.00000578   0.00000053  -0.00000051           -0.85        0.08       -0.07
   0.00000053  -0.00000809  -0.00000042            0.08       -1.19       -0.06
  -0.00000051  -0.00000042  -0.00003940           -0.07       -0.06       -5.80


     BFGS Geometry Optimization
     Energy error            =      0.0E+00 Ry
     Gradient error          =      2.3E-04 Ry/Bohr
     Cell gradient error     =      1.2E+00 kbar

     number of scf cycles    =   1
     number of bfgs steps    =   0

     enthalpy           new  =   -2067.4326086642 Ry

     new trust radius        =       0.0016204981 bohr
     new conv_thr            =            1.0E-12 Ry

     new unit-cell volume =   1596.12494 a.u.^3 (   236.52131 Ang^3 )
     density =      3.98680 g/cm^3

CELL_PARAMETERS (alat=  5.55000000)
   1.038172699  -0.000101196   0.000000000
  -0.519112272   0.899379048   0.000000000
   0.000000000   0.000000000  10.000000000

ATOMIC_POSITIONS (alat)
Ta           -0.0318738987        0.6042305837        0.5998796448
C            -0.0318232274        0.0047307108        1.0123258943
Ta            0.4873307521        0.3045346914        1.4551183449
C            -0.0316080217        0.6045114896        1.9088411238
Ta           -0.0315027745        0.0050344617        2.3418217417
H             0.4875076542        0.3048512658        2.6744039506



     Writing output data file /scratch/as3359/Ta3C2H_loop/Ta.save/
     NEW-OLD atomic charge density approx. for the potential

     Check: negative core charge=   -0.000002

     negative rho (up, down):  8.369E-04 0.000E+00
     extrapolated charge   89.96877, renormalised to   90.00000

     total cpu time spent up to now is      762.9 secs

     Self-consistent Calculation

     iteration #  1     ecut=    60.00 Ry     beta= 0.70
     Davidson diagonalization with overlap
     c_bands:  1 eigenvalues not converged
     c_bands:  1 eigenvalues not converged
     c_bands:  1 eigenvalues not converged
     c_bands:  1 eigenvalues not converged
     c_bands:  1 eigenvalues not converged
     c_bands:  1 eigenvalues not converged
     ethr =  1.00E-06,  avg # of iterations =  9.5

     negative rho (up, down):  8.657E-04 0.000E+00

     total cpu time spent up to now is      802.4 secs

     total energy              =   -2067.40695120 Ry
     estimated scf accuracy    <       0.02586164 Ry

     iteration #  2     ecut=    60.00 Ry     beta= 0.70
     Davidson diagonalization with overlap
     c_bands:  1 eigenvalues not converged
     c_bands:  1 eigenvalues not converged
     c_bands:  1 eigenvalues not converged
     ethr =  2.87E-05,  avg # of iterations = 15.3

     negative rho (up, down):  8.493E-04 0.000E+00

     total cpu time spent up to now is      850.8 secs

     total energy              =   -2067.32035932 Ry
     estimated scf accuracy    <       2.46170812 Ry

     iteration #  3     ecut=    60.00 Ry     beta= 0.70
     Davidson diagonalization with overlap
     c_bands:  1 eigenvalues not converged
     c_bands:  1 eigenvalues not converged
     c_bands:  1 eigenvalues not converged
     c_bands:  1 eigenvalues not converged
     ethr =  2.87E-05,  avg # of iterations = 14.4

     negative rho (up, down):  8.410E-04 0.000E+00

     total cpu time spent up to now is      895.1 secs

     total energy              =   -2067.36811659 Ry
     estimated scf accuracy    <       2.34729084 Ry

     iteration #  4     ecut=    60.00 Ry     beta= 0.70
     Davidson diagonalization with overlap
     c_bands:  1 eigenvalues not converged
     c_bands:  1 eigenvalues not converged
     c_bands:  1 eigenvalues not converged
     ethr =  2.87E-05,  avg # of iterations = 11.7

     negative rho (up, down):  8.389E-04 0.000E+00

     total cpu time spent up to now is      930.2 secs

     total energy              =   -2067.43318198 Ry
     estimated scf accuracy    <       0.05677897 Ry

     iteration #  5     ecut=    60.00 Ry     beta= 0.70
     Davidson diagonalization with overlap
     ethr =  2.87E-05,  avg # of iterations =  1.5

     negative rho (up, down):  8.385E-04 0.000E+00

     total cpu time spent up to now is      952.5 secs

     total energy              =   -2067.43327008 Ry
     estimated scf accuracy    <       0.02124662 Ry

     iteration #  6     ecut=    60.00 Ry     beta= 0.70
     Davidson diagonalization with overlap
     ethr =  2.36E-05,  avg # of iterations =  1.1

     negative rho (up, down):  8.386E-04 0.000E+00

     total cpu time spent up to now is      974.1 secs

     total energy              =   -2067.43289356 Ry
     estimated scf accuracy    <       0.01323685 Ry

     iteration #  7     ecut=    60.00 Ry     beta= 0.70
     Davidson diagonalization with overlap
     ethr =  1.47E-05,  avg # of iterations =  3.9

     negative rho (up, down):  8.388E-04 0.000E+00

     total cpu time spent up to now is      997.6 secs

     total energy              =   -2067.43275808 Ry
     estimated scf accuracy    <       0.00712171 Ry

     iteration #  8     ecut=    60.00 Ry     beta= 0.70
     Davidson diagonalization with overlap
     ethr =  7.91E-06,  avg # of iterations =  2.0

     negative rho (up, down):  8.383E-04 0.000E+00

     total cpu time spent up to now is     1020.1 secs

     total energy              =   -2067.43277541 Ry
     estimated scf accuracy    <       0.00279993 Ry

     iteration #  9     ecut=    60.00 Ry     beta= 0.70
     Davidson diagonalization with overlap
     ethr =  3.11E-06,  avg # of iterations =  2.9

     negative rho (up, down):  8.382E-04 0.000E+00

     total cpu time spent up to now is     1043.4 secs

     total energy              =   -2067.43268269 Ry
     estimated scf accuracy    <       0.00331928 Ry

     iteration # 10     ecut=    60.00 Ry     beta= 0.70
     Davidson diagonalization with overlap
     ethr =  3.11E-06,  avg # of iterations =  2.5

     negative rho (up, down):  8.367E-04 0.000E+00

     total cpu time spent up to now is     1066.2 secs

     total energy              =   -2067.43251849 Ry
     estimated scf accuracy    <       0.00122268 Ry

     iteration # 11     ecut=    60.00 Ry     beta= 0.70
     Davidson diagonalization with overlap
     ethr =  1.36E-06,  avg # of iterations =  5.5

     negative rho (up, down):  8.363E-04 0.000E+00

     total cpu time spent up to now is     1091.6 secs

     total energy              =   -2067.43260895 Ry
     estimated scf accuracy    <       0.00003498 Ry

     iteration # 12     ecut=    60.00 Ry     beta= 0.70
     Davidson diagonalization with overlap
     ethr =  3.89E-08,  avg # of iterations =  2.7

     negative rho (up, down):  8.362E-04 0.000E+00

     total cpu time spent up to now is     1115.8 secs

     total energy              =   -2067.43261187 Ry
     estimated scf accuracy    <       0.00000247 Ry

     iteration # 13     ecut=    60.00 Ry     beta= 0.70
     Davidson diagonalization with overlap
     ethr =  2.74E-09,  avg # of iterations =  4.5

     negative rho (up, down):  8.362E-04 0.000E+00

     total cpu time spent up to now is     1145.0 secs

     total energy              =   -2067.43261267 Ry
     estimated scf accuracy    <       0.00000919 Ry

     iteration # 14     ecut=    60.00 Ry     beta= 0.70
     Davidson diagonalization with overlap
     ethr =  2.74E-09,  avg # of iterations =  1.0

     negative rho (up, down):  8.361E-04 0.000E+00

     total cpu time spent up to now is     1166.6 secs

     total energy              =   -2067.43261253 Ry
     estimated scf accuracy    <       0.00001121 Ry

     iteration # 15     ecut=    60.00 Ry     beta= 0.70
     Davidson diagonalization with overlap
     ethr =  2.74E-09,  avg # of iterations =  1.0

     negative rho (up, down):  8.361E-04 0.000E+00

     total cpu time spent up to now is     1188.1 secs

     total energy              =   -2067.43261245 Ry
     estimated scf accuracy    <       0.00000886 Ry

     iteration # 16     ecut=    60.00 Ry     beta= 0.70
     Davidson diagonalization with overlap
     ethr =  2.74E-09,  avg # of iterations =  1.0

     negative rho (up, down):  8.361E-04 0.000E+00

     total cpu time spent up to now is     1209.7 secs

     total energy              =   -2067.43261227 Ry
     estimated scf accuracy    <       0.00000712 Ry

     iteration # 17     ecut=    60.00 Ry     beta= 0.70
     Davidson diagonalization with overlap
     ethr =  2.74E-09,  avg # of iterations =  1.0

     negative rho (up, down):  8.361E-04 0.000E+00

     total cpu time spent up to now is     1231.3 secs

     total energy              =   -2067.43261224 Ry
     estimated scf accuracy    <       0.00000372 Ry

     iteration # 18     ecut=    60.00 Ry     beta= 0.70
     Davidson diagonalization with overlap
     ethr =  2.74E-09,  avg # of iterations =  1.0

     negative rho (up, down):  8.361E-04 0.000E+00

     total cpu time spent up to now is     1253.0 secs

     total energy              =   -2067.43261198 Ry
     estimated scf accuracy    <       0.00000285 Ry

     iteration # 19     ecut=    60.00 Ry     beta= 0.70
     Davidson diagonalization with overlap
     ethr =  2.74E-09,  avg # of iterations =  1.7

     negative rho (up, down):  8.361E-04 0.000E+00

     total cpu time spent up to now is     1275.7 secs

     total energy              =   -2067.43261211 Ry
     estimated scf accuracy    <       0.00000001 Ry

     iteration # 20     ecut=    60.00 Ry     beta= 0.70
     Davidson diagonalization with overlap
     ethr =  1.22E-11,  avg # of iterations =  4.9

     negative rho (up, down):  8.360E-04 0.000E+00

     total cpu time spent up to now is     1304.2 secs

     total energy              =   -2067.43261211 Ry
     estimated scf accuracy    <          9.4E-09 Ry

     iteration # 21     ecut=    60.00 Ry     beta= 0.70
     Davidson diagonalization with overlap
     ethr =  1.04E-11,  avg # of iterations =  1.0

     negative rho (up, down):  8.360E-04 0.000E+00

     total cpu time spent up to now is     1325.8 secs

     total energy              =   -2067.43261211 Ry
     estimated scf accuracy    <          1.2E-09 Ry

     iteration # 22     ecut=    60.00 Ry     beta= 0.70
     Davidson diagonalization with overlap
     ethr =  1.30E-12,  avg # of iterations =  2.0

     negative rho (up, down):  8.360E-04 0.000E+00

     total cpu time spent up to now is     1349.0 secs

     total energy              =   -2067.43261211 Ry
     estimated scf accuracy    <          6.3E-11 Ry

     iteration # 23     ecut=    60.00 Ry     beta= 0.70
     Davidson diagonalization with overlap
     ethr =  1.00E-13,  avg # of iterations =  3.0

     negative rho (up, down):  8.360E-04 0.000E+00

     total cpu time spent up to now is     1374.3 secs

     total energy              =   -2067.43261211 Ry
     estimated scf accuracy    <          4.3E-11 Ry

     iteration # 24     ecut=    60.00 Ry     beta= 0.70
     Davidson diagonalization with overlap
     ethr =  1.00E-13,  avg # of iterations =  1.0

     negative rho (up, down):  8.360E-04 0.000E+00

     total cpu time spent up to now is     1395.8 secs

     total energy              =   -2067.43261211 Ry
     estimated scf accuracy    <          4.0E-12 Ry

     iteration # 25     ecut=    60.00 Ry     beta= 0.70
     Davidson diagonalization with overlap
     ethr =  1.00E-13,  avg # of iterations =  1.0

     negative rho (up, down):  8.360E-04 0.000E+00

     total cpu time spent up to now is     1417.3 secs

     total energy              =   -2067.43261211 Ry
     estimated scf accuracy    <          1.3E-12 Ry

     iteration # 26     ecut=    60.00 Ry     beta= 0.70
     Davidson diagonalization with overlap
     ethr =  1.00E-13,  avg # of iterations =  1.0

     negative rho (up, down):  8.360E-04 0.000E+00

     total cpu time spent up to now is     1438.8 secs

     total energy              =   -2067.43261211 Ry
     estimated scf accuracy    <          1.8E-12 Ry

     iteration # 27     ecut=    60.00 Ry     beta= 0.70
     Davidson diagonalization with overlap
     ethr =  1.00E-13,  avg # of iterations =  1.0

     negative rho (up, down):  8.360E-04 0.000E+00

     total cpu time spent up to now is     1460.3 secs

     End of self-consistent calculation

     Number of k-points >= 100: set verbosity='high' to print the bands.

     the Fermi energy is     2.5993 ev

!    total energy              =   -2067.43261211 Ry
     estimated scf accuracy    <          1.3E-13 Ry
     smearing contrib. (-TS)   =      -0.00000338 Ry
     internal energy E=F+TS    =   -2067.43260873 Ry

     The total energy is F=E-TS. E is the sum of the following terms:
     one-electron contribution =  -19975.07111774 Ry
     hartree contribution      =   10039.39499032 Ry
     xc contribution           =    -211.37671993 Ry
     ewald contribution        =    8079.62023862 Ry

     convergence has been achieved in  27 iterations

     negative rho (up, down):  8.360E-04 0.000E+00

     Forces acting on atoms (cartesian axes, Ry/au):

     atom    1 type  1   force =     0.00003534    0.00002924   -0.00004893
     atom    2 type  2   force =     0.00007238    0.00012405    0.00009853
     atom    3 type  1   force =     0.00005479    0.00004864    0.00003940
     atom    4 type  2   force =    -0.00008601   -0.00013364   -0.00007384
     atom    5 type  1   force =    -0.00012306   -0.00004757    0.00014420
     atom    6 type  3   force =     0.00004655   -0.00002072   -0.00015936

     Total force =     0.000372     Total SCF correction =     0.000004


     Computing stress (Cartesian axis) and pressure


     negative rho (up, down):  8.360E-04 0.000E+00
          total   stress  (Ry/bohr**3)                   (kbar)     P=       -2.30
  -0.00000352   0.00000040  -0.00000050           -0.52        0.06       -0.07
   0.00000040  -0.00000527  -0.00000046            0.06       -0.78       -0.07
  -0.00000050  -0.00000046  -0.00003815           -0.07       -0.07       -5.61

     Energy error            =      3.5E-06 Ry
     Gradient error          =      1.6E-04 Ry/Bohr
     Cell gradient error     =      7.8E-01 kbar

     number of scf cycles    =   2
     number of bfgs steps    =   1

     enthalpy           old  =   -2067.4326086642 Ry
     enthalpy           new  =   -2067.4326121144 Ry

     CASE: enthalpy          _new < enthalpy          _old

     new trust radius        =       0.0017826020 bohr
     new conv_thr            =            1.0E-14 Ry

     new unit-cell volume =   1595.53226 a.u.^3 (   236.43349 Ang^3 )
     density =      3.98828 g/cm^3

CELL_PARAMETERS (alat=  5.55000000)
   1.038018132  -0.000083954   0.000000000
  -0.519020068   0.899170346   0.000000000
   0.000000000   0.000000000  10.000000000

ATOMIC_POSITIONS (alat)
Ta           -0.0318487665        0.6041037721        0.5998679959
C            -0.0317965894        0.0047669961        1.0123546171
Ta            0.4872798121        0.3044896188        1.4551293792
C            -0.0316192899        0.6043356834        1.9088192358
Ta           -0.0315348986        0.0050190069        2.3418637730
H             0.4874542766        0.3047855248        2.6743556990



     Writing output data file /scratch/as3359/Ta3C2H_loop/Ta.save/
     NEW-OLD atomic charge density approx. for the potential

     Check: negative core charge=   -0.000002

     negative rho (up, down):  8.387E-04 0.000E+00
     extrapolated charge   89.96657, renormalised to   90.00000

     total cpu time spent up to now is     1486.6 secs

     Self-consistent Calculation

     iteration #  1     ecut=    60.00 Ry     beta= 0.70
     Davidson diagonalization with overlap
     c_bands:  1 eigenvalues not converged
     c_bands:  1 eigenvalues not converged
     c_bands:  1 eigenvalues not converged
     c_bands:  1 eigenvalues not converged
     c_bands:  1 eigenvalues not converged
     c_bands:  1 eigenvalues not converged
     ethr =  1.00E-06,  avg # of iterations = 10.0

     negative rho (up, down):  8.691E-04 0.000E+00

     total cpu time spent up to now is     1526.9 secs

     total energy              =   -2067.40329280 Ry
     estimated scf accuracy    <       0.02953887 Ry

     iteration #  2     ecut=    60.00 Ry     beta= 0.70
     Davidson diagonalization with overlap
     c_bands:  1 eigenvalues not converged
     c_bands:  1 eigenvalues not converged
     c_bands:  1 eigenvalues not converged
     c_bands:  1 eigenvalues not converged
     c_bands:  1 eigenvalues not converged
     c_bands:  1 eigenvalues not converged
     c_bands:  1 eigenvalues not converged
     c_bands:  1 eigenvalues not converged
     c_bands:  1 eigenvalues not converged
     ethr =  3.28E-05,  avg # of iterations = 15.8

     negative rho (up, down):  8.506E-04 0.000E+00

     total cpu time spent up to now is     1575.9 secs

     total energy              =   -2067.30630703 Ry
     estimated scf accuracy    <       2.73027440 Ry

     iteration #  3     ecut=    60.00 Ry     beta= 0.70
     Davidson diagonalization with overlap
     c_bands:  1 eigenvalues not converged
     c_bands:  1 eigenvalues not converged
     c_bands:  1 eigenvalues not converged
     c_bands:  1 eigenvalues not converged
     ethr =  3.28E-05,  avg # of iterations = 14.3

     negative rho (up, down):  8.420E-04 0.000E+00

     total cpu time spent up to now is     1620.5 secs

     total energy              =   -2067.35881156 Ry
     estimated scf accuracy    <       2.74250717 Ry

     iteration #  4     ecut=    60.00 Ry     beta= 0.70
     Davidson diagonalization with overlap
     c_bands:  1 eigenvalues not converged
     c_bands:  1 eigenvalues not converged
     c_bands:  1 eigenvalues not converged
     c_bands:  1 eigenvalues not converged
     ethr =  3.28E-05,  avg # of iterations = 11.5

     negative rho (up, down):  8.400E-04 0.000E+00

     total cpu time spent up to now is     1655.6 secs

     total energy              =   -2067.43329549 Ry
     estimated scf accuracy    <       0.06329220 Ry

     iteration #  5     ecut=    60.00 Ry     beta= 0.70
     Davidson diagonalization with overlap
     ethr =  3.28E-05,  avg # of iterations =  1.6

     negative rho (up, down):  8.396E-04 0.000E+00

     total cpu time spent up to now is     1677.9 secs

     total energy              =   -2067.43338581 Ry
     estimated scf accuracy    <       0.02439466 Ry

     iteration #  6     ecut=    60.00 Ry     beta= 0.70
     Davidson diagonalization with overlap
     ethr =  2.71E-05,  avg # of iterations =  1.1

     negative rho (up, down):  8.399E-04 0.000E+00

     total cpu time spent up to now is     1699.6 secs

     total energy              =   -2067.43294933 Ry
     estimated scf accuracy    <       0.01498299 Ry

     iteration #  7     ecut=    60.00 Ry     beta= 0.70
     Davidson diagonalization with overlap
     ethr =  1.66E-05,  avg # of iterations =  3.9

     negative rho (up, down):  8.402E-04 0.000E+00

     total cpu time spent up to now is     1723.2 secs

     total energy              =   -2067.43279697 Ry
     estimated scf accuracy    <       0.00819591 Ry

     iteration #  8     ecut=    60.00 Ry     beta= 0.70
     Davidson diagonalization with overlap
     ethr =  9.11E-06,  avg # of iterations =  1.7

     negative rho (up, down):  8.397E-04 0.000E+00

     total cpu time spent up to now is     1745.5 secs

     total energy              =   -2067.43277620 Ry
     estimated scf accuracy    <       0.00370213 Ry

     iteration #  9     ecut=    60.00 Ry     beta= 0.70
     Davidson diagonalization with overlap
     ethr =  4.11E-06,  avg # of iterations =  3.0

     negative rho (up, down):  8.396E-04 0.000E+00

     total cpu time spent up to now is     1768.8 secs

     total energy              =   -2067.43268577 Ry
     estimated scf accuracy    <       0.00315438 Ry

     iteration # 10     ecut=    60.00 Ry     beta= 0.70
     Davidson diagonalization with overlap
     ethr =  3.50E-06,  avg # of iterations =  2.4

     negative rho (up, down):  8.387E-04 0.000E+00

     total cpu time spent up to now is     1791.6 secs

     total energy              =   -2067.43250597 Ry
     estimated scf accuracy    <       0.00119965 Ry

     iteration # 11     ecut=    60.00 Ry     beta= 0.70
     Davidson diagonalization with overlap
     ethr =  1.33E-06,  avg # of iterations =  6.8

     negative rho (up, down):  8.381E-04 0.000E+00

     total cpu time spent up to now is     1818.0 secs

     total energy              =   -2067.43261063 Ry
     estimated scf accuracy    <       0.00012371 Ry

     iteration # 12     ecut=    60.00 Ry     beta= 0.70
     Davidson diagonalization with overlap
     ethr =  1.37E-07,  avg # of iterations =  1.9

     negative rho (up, down):  8.379E-04 0.000E+00

     total cpu time spent up to now is     1840.9 secs

     total energy              =   -2067.43261536 Ry
     estimated scf accuracy    <       0.00002080 Ry

     iteration # 13     ecut=    60.00 Ry     beta= 0.70
     Davidson diagonalization with overlap
     ethr =  2.31E-08,  avg # of iterations =  2.2

     negative rho (up, down):  8.378E-04 0.000E+00

     total cpu time spent up to now is     1864.7 secs

     total energy              =   -2067.43261624 Ry
     estimated scf accuracy    <       0.00003913 Ry

     iteration # 14     ecut=    60.00 Ry     beta= 0.70
     Davidson diagonalization with overlap
     ethr =  2.31E-08,  avg # of iterations =  1.0

     negative rho (up, down):  8.377E-04 0.000E+00

     total cpu time spent up to now is     1886.2 secs

     total energy              =   -2067.43261580 Ry
     estimated scf accuracy    <       0.00003908 Ry

     iteration # 15     ecut=    60.00 Ry     beta= 0.70
     Davidson diagonalization with overlap
     ethr =  2.31E-08,  avg # of iterations =  1.0

     negative rho (up, down):  8.377E-04 0.000E+00

     total cpu time spent up to now is     1907.7 secs

     total energy              =   -2067.43261577 Ry
     estimated scf accuracy    <       0.00003198 Ry

     iteration # 16     ecut=    60.00 Ry     beta= 0.70
     Davidson diagonalization with overlap
     ethr =  2.31E-08,  avg # of iterations =  1.0

     negative rho (up, down):  8.377E-04 0.000E+00

     total cpu time spent up to now is     1929.3 secs

     total energy              =   -2067.43261559 Ry
     estimated scf accuracy    <       0.00002996 Ry

     iteration # 17     ecut=    60.00 Ry     beta= 0.70
     Davidson diagonalization with overlap
     ethr =  2.31E-08,  avg # of iterations =  1.0

     negative rho (up, down):  8.377E-04 0.000E+00

     total cpu time spent up to now is     1950.9 secs

     total energy              =   -2067.43261494 Ry
     estimated scf accuracy    <       0.00002563 Ry

     iteration # 18     ecut=    60.00 Ry     beta= 0.70
     Davidson diagonalization with overlap
     ethr =  2.31E-08,  avg # of iterations =  1.0

     negative rho (up, down):  8.376E-04 0.000E+00

     total cpu time spent up to now is     1972.4 secs

     total energy              =   -2067.43261357 Ry
     estimated scf accuracy    <       0.00001518 Ry

     iteration # 19     ecut=    60.00 Ry     beta= 0.70
     Davidson diagonalization with overlap
     ethr =  1.69E-08,  avg # of iterations =  1.7

     negative rho (up, down):  8.377E-04 0.000E+00

     total cpu time spent up to now is     1994.9 secs

     total energy              =   -2067.43261418 Ry
     estimated scf accuracy    <       0.00000043 Ry

     iteration # 20     ecut=    60.00 Ry     beta= 0.70
     Davidson diagonalization with overlap
     ethr =  4.80E-10,  avg # of iterations =  2.2

     negative rho (up, down):  8.377E-04 0.000E+00

     total cpu time spent up to now is     2019.4 secs

     total energy              =   -2067.43261424 Ry
     estimated scf accuracy    <       0.00000024 Ry

     iteration # 21     ecut=    60.00 Ry     beta= 0.70
     Davidson diagonalization with overlap
     ethr =  2.70E-10,  avg # of iterations =  1.0

     negative rho (up, down):  8.376E-04 0.000E+00

     total cpu time spent up to now is     2040.9 secs

     total energy              =   -2067.43261425 Ry
     estimated scf accuracy    <          1.6E-09 Ry

     iteration # 22     ecut=    60.00 Ry     beta= 0.70
     Davidson diagonalization with overlap
     ethr =  1.81E-12,  avg # of iterations =  4.9

     negative rho (up, down):  8.376E-04 0.000E+00

     total cpu time spent up to now is     2072.6 secs

     total energy              =   -2067.43261425 Ry
     estimated scf accuracy    <          1.2E-09 Ry

     iteration # 23     ecut=    60.00 Ry     beta= 0.70
     Davidson diagonalization with overlap
     ethr =  1.30E-12,  avg # of iterations =  2.0

     negative rho (up, down):  8.376E-04 0.000E+00

     total cpu time spent up to now is     2095.8 secs

     total energy              =   -2067.43261425 Ry
     estimated scf accuracy    <          1.6E-10 Ry

     iteration # 24     ecut=    60.00 Ry     beta= 0.70
     Davidson diagonalization with overlap
     ethr =  1.80E-13,  avg # of iterations =  2.1

     negative rho (up, down):  8.376E-04 0.000E+00

     total cpu time spent up to now is     2121.0 secs

     total energy              =   -2067.43261425 Ry
     estimated scf accuracy    <          1.2E-10 Ry

     iteration # 25     ecut=    60.00 Ry     beta= 0.70
     Davidson diagonalization with overlap
     ethr =  1.37E-13,  avg # of iterations =  1.0

     negative rho (up, down):  8.376E-04 0.000E+00

     total cpu time spent up to now is     2142.5 secs

     total energy              =   -2067.43261425 Ry
     estimated scf accuracy    <          2.5E-11 Ry

     iteration # 26     ecut=    60.00 Ry     beta= 0.70
     Davidson diagonalization with overlap
     ethr =  1.00E-13,  avg # of iterations =  1.0

     negative rho (up, down):  8.376E-04 0.000E+00

     total cpu time spent up to now is     2164.1 secs

     total energy              =   -2067.43261425 Ry
     estimated scf accuracy    <          3.2E-12 Ry

     iteration # 27     ecut=    60.00 Ry     beta= 0.70
     Davidson diagonalization with overlap
     ethr =  1.00E-13,  avg # of iterations =  1.0

     negative rho (up, down):  8.376E-04 0.000E+00

     total cpu time spent up to now is     2185.7 secs

     total energy              =   -2067.43261425 Ry
     estimated scf accuracy    <          2.9E-13 Ry

     iteration # 28     ecut=    60.00 Ry     beta= 0.70
     Davidson diagonalization with overlap
     ethr =  1.00E-13,  avg # of iterations =  1.0

     negative rho (up, down):  8.376E-04 0.000E+00

     total cpu time spent up to now is     2207.4 secs

     total energy              =   -2067.43261425 Ry
     estimated scf accuracy    <          2.4E-14 Ry

     iteration # 29     ecut=    60.00 Ry     beta= 0.70
     Davidson diagonalization with overlap
     ethr =  1.00E-13,  avg # of iterations =  1.0

     negative rho (up, down):  8.376E-04 0.000E+00

     total cpu time spent up to now is     2228.9 secs

     End of self-consistent calculation

     Number of k-points >= 100: set verbosity='high' to print the bands.

     the Fermi energy is     2.6011 ev

!    total energy              =   -2067.43261425 Ry
     estimated scf accuracy    <          1.0E-15 Ry
     smearing contrib. (-TS)   =      -0.00000211 Ry
     internal energy E=F+TS    =   -2067.43261214 Ry

     The total energy is F=E-TS. E is the sum of the following terms:
     one-electron contribution =  -19981.45399975 Ry
     hartree contribution      =   10042.59788275 Ry
     xc contribution           =    -211.37894025 Ry
     ewald contribution        =    8082.80244511 Ry

     convergence has been achieved in  29 iterations

     negative rho (up, down):  8.376E-04 0.000E+00

     Forces acting on atoms (cartesian axes, Ry/au):

     atom    1 type  1   force =     0.00004718    0.00006808   -0.00019955
     atom    2 type  2   force =     0.00004886    0.00005840    0.00006921
     atom    3 type  1   force =     0.00002888    0.00003066    0.00004326
     atom    4 type  2   force =    -0.00004973   -0.00005046   -0.00001271
     atom    5 type  1   force =    -0.00008950   -0.00006659    0.00017144
     atom    6 type  3   force =     0.00001431   -0.00004010   -0.00007166

     Total force =     0.000339     Total SCF correction =     0.000000


     Computing stress (Cartesian axis) and pressure


     negative rho (up, down):  8.376E-04 0.000E+00
          total   stress  (Ry/bohr**3)                   (kbar)     P=       -2.00
  -0.00000128   0.00000023  -0.00000048           -0.19        0.03       -0.07
   0.00000023  -0.00000237  -0.00000048            0.03       -0.35       -0.07
  -0.00000048  -0.00000048  -0.00003708           -0.07       -0.07       -5.45

     Energy error            =      2.1E-06 Ry
     Gradient error          =      2.0E-04 Ry/Bohr
     Cell gradient error     =      3.5E-01 kbar

     bfgs converged in   3 scf cycles and   2 bfgs steps
     (criteria: energy <  1.0E-04 Ry, force <  1.0E-03Ry/Bohr, cell <  5.0E-01kbar)

     End of BFGS Geometry Optimization

     Final enthalpy           =   -2067.4326142503 Ry

     File /scratch/as3359/Ta3C2H_loop/Ta.bfgs deleted, as requested
Begin final coordinates
     new unit-cell volume =   1595.53226 a.u.^3 (   236.43349 Ang^3 )
     density =      3.98828 g/cm^3

CELL_PARAMETERS (alat=  5.55000000)
   1.038018132  -0.000083954   0.000000000
  -0.519020068   0.899170346   0.000000000
   0.000000000   0.000000000  10.000000000

ATOMIC_POSITIONS (alat)
Ta           -0.0318487665        0.6041037721        0.5998679959
C            -0.0317965894        0.0047669961        1.0123546171
Ta            0.4872798121        0.3044896188        1.4551293792
C            -0.0316192899        0.6043356834        1.9088192358
Ta           -0.0315348986        0.0050190069        2.3418637730
H             0.4874542766        0.3047855248        2.6743556990
End final coordinates



     Writing output data file /scratch/as3359/Ta3C2H_loop/Ta.save/

     Final scf calculation at the relaxed structure.
     The G-vectors are recalculated for the final unit cell
     Results may differ from those at the preceding step.
 
     Parallelization info
     --------------------
     sticks:   dense  smooth     PW     G-vecs:    dense   smooth      PW
     Min         341     279     84                69910    50120    8961
     Max         344     280     85                69919    50131    8966
     Sum         685     559    169               139829   100251   17927
 
     Using Slab Decomposition
 


     bravais-lattice index     =            0
     lattice parameter (alat)  =       5.5500  a.u.
     unit-cell volume          =    1595.5323 (a.u.)^3
     number of atoms/cell      =            6
     number of atomic types    =            3
     number of electrons       =        90.00
     number of Kohn-Sham states=           54
     kinetic-energy cutoff     =      60.0000  Ry
     charge density cutoff     =     300.0000  Ry
     scf convergence threshold =      1.0E-14
     mixing beta               =       0.7000
     number of iterations used =            8  plain     mixing
     press convergence thresh. =      5.0E-01
     Exchange-correlation= PBESOL
                           (   1   4  10   8   0   0   0)

     celldm(1)=   5.550000  celldm(2)=   0.000000  celldm(3)=   0.000000
     celldm(4)=   0.000000  celldm(5)=   0.000000  celldm(6)=   0.000000

     crystal axes: (cart. coord. in units of alat)
               a(1) = (   1.038018  -0.000084   0.000000 )  
               a(2) = (  -0.519020   0.899170   0.000000 )  
               a(3) = (   0.000000   0.000000  10.000000 )  

     reciprocal axes: (cart. coord. in units 2 pi/alat)
               b(1) = (  0.963419  0.556106  0.000000 )  
               b(2) = (  0.000090  1.112188  0.000000 )  
               b(3) = (  0.000000  0.000000  0.100000 )  


     PseudoPot. # 1 for Ta read from file:
     /shared/home/as3359/pseudo/Ta.pbesol-spfn-rrkjus_psl.1.0.0.UPF
     MD5 check sum: f099565ffaca9b150a52e9412a28e20b
     Pseudo is Ultrasoft + core correction, Zval = 27.0
     Generated using &quot;atomic&quot; code by A. Dal Corso  v.6.3
     Using radial grid of 1273 points,  8 beta functions with: 
                l(1) =   0
                l(2) =   0
                l(3) =   1
                l(4) =   1
                l(5) =   2
                l(6) =   2
                l(7) =   3
                l(8) =   3
     Q(r) pseudized with 0 coefficients 


     PseudoPot. # 2 for C  read from file:
     /shared/home/as3359/pseudo/C.pbesol-n-rrkjus_psl.1.0.0.UPF
     MD5 check sum: 05995be603a8a7c99da3dc4413f31573
     Pseudo is Ultrasoft + core correction, Zval =  4.0
     Generated using &quot;atomic&quot; code by A. Dal Corso  v.6.3MaX
     Using radial grid of 1073 points,  4 beta functions with: 
                l(1) =   0
                l(2) =   0
                l(3) =   1
                l(4) =   1
     Q(r) pseudized with 0 coefficients 


     PseudoPot. # 3 for H  read from file:
     /shared/home/as3359/pseudo/H.pbesol-rrkjus_psl.0.1.UPF
     MD5 check sum: 1dbb1a5c48b1283557b8117eb856a7ca
     Pseudo is Ultrasoft, Zval =  1.0
     Generated using "atomic" code by A. Dal Corso  v.5.0.2 svn rev. 9415
     Using radial grid of  929 points,  2 beta functions with: 
                l(1) =   0
                l(2) =   0
     Q(r) pseudized with 0 coefficients 


     atomic species   valence    mass     pseudopotential
        Ta            27.00   180.94788     Ta( 1.00)
        C              4.00    12.01070     C ( 1.00)
        H              1.00     1.00000     H ( 1.00)

     No symmetry found



   Cartesian axes

     site n.     atom                  positions (alat units)
         1           Ta  tau(   1) = (  -0.0318488   0.6041038   0.5998680  )
         2           C   tau(   2) = (  -0.0317966   0.0047670   1.0123546  )
         3           Ta  tau(   3) = (   0.4872798   0.3044896   1.4551294  )
         4           C   tau(   4) = (  -0.0316193   0.6043357   1.9088192  )
         5           Ta  tau(   5) = (  -0.0315349   0.0050190   2.3418638  )
         6           H   tau(   6) = (   0.4874543   0.3047855   2.6743557  )

     number of k points=   113  Marzari-Vanderbilt smearing, width (Ry)=  0.0010

     Number of k-points >= 100: set verbosity='high' to print them.

     Dense  grid:   139829 G-vectors     FFT dimensions: (  32,  32, 320)

     Smooth grid:   100251 G-vectors     FFT dimensions: (  30,  30, 288)

     Estimated max dynamical RAM per process >       1.26 GB

     Estimated total dynamical RAM >       2.51 GB

     Check: negative core charge=   -0.000002

     Initial potential from superposition of free atoms

     starting charge   89.99759, renormalised to   90.00000

     negative rho (up, down):  8.328E-04 0.000E+00
     Starting wfcs are   60 randomized atomic wfcs

     total cpu time spent up to now is     2265.5 secs

     Self-consistent Calculation

     iteration #  1     ecut=    60.00 Ry     beta= 0.70
     Davidson diagonalization with overlap
     c_bands:  1 eigenvalues not converged
     c_bands:  1 eigenvalues not converged
     c_bands:  1 eigenvalues not converged
     c_bands:  1 eigenvalues not converged
     c_bands:  1 eigenvalues not converged
     c_bands:  1 eigenvalues not converged
     c_bands:  1 eigenvalues not converged
     c_bands:  1 eigenvalues not converged
     c_bands:  1 eigenvalues not converged
     c_bands:  1 eigenvalues not converged
     c_bands:  1 eigenvalues not converged
     c_bands:  1 eigenvalues not converged
     c_bands:  1 eigenvalues not converged
     c_bands:  1 eigenvalues not converged
     c_bands:  1 eigenvalues not converged
     c_bands:  1 eigenvalues not converged
     c_bands:  1 eigenvalues not converged
     c_bands:  1 eigenvalues not converged
     c_bands:  1 eigenvalues not converged
     c_bands:  1 eigenvalues not converged
     c_bands:  3 eigenvalues not converged
     c_bands:  2 eigenvalues not converged
     c_bands:  1 eigenvalues not converged
     c_bands:  2 eigenvalues not converged
     c_bands:  1 eigenvalues not converged
     c_bands:  2 eigenvalues not converged
     c_bands:  2 eigenvalues not converged
     c_bands:  1 eigenvalues not converged
     c_bands:  1 eigenvalues not converged
     c_bands:  1 eigenvalues not converged
     c_bands:  1 eigenvalues not converged
     c_bands:  1 eigenvalues not converged
     c_bands:  2 eigenvalues not converged
     c_bands:  1 eigenvalues not converged
     c_bands:  1 eigenvalues not converged
     c_bands:  1 eigenvalues not converged
     c_bands:  2 eigenvalues not converged
     c_bands:  2 eigenvalues not converged
     c_bands:  1 eigenvalues not converged
     c_bands:  1 eigenvalues not converged
     c_bands:  1 eigenvalues not converged
     c_bands:  1 eigenvalues not converged
     c_bands:  1 eigenvalues not converged
     c_bands:  1 eigenvalues not converged
     c_bands:  1 eigenvalues not converged
     c_bands:  1 eigenvalues not converged
     c_bands:  1 eigenvalues not converged
     c_bands:  1 eigenvalues not converged
     c_bands:  2 eigenvalues not converged
     c_bands:  1 eigenvalues not converged
     c_bands:  1 eigenvalues not converged
     c_bands:  1 eigenvalues not converged
     c_bands:  1 eigenvalues not converged
     c_bands:  1 eigenvalues not converged
     c_bands:  1 eigenvalues not converged
     c_bands:  1 eigenvalues not converged
     c_bands:  1 eigenvalues not converged
     c_bands:  1 eigenvalues not converged
     c_bands:  1 eigenvalues not converged
     c_bands:  1 eigenvalues not converged
     c_bands:  1 eigenvalues not converged
     c_bands:  1 eigenvalues not converged
     c_bands:  1 eigenvalues not converged
     c_bands:  1 eigenvalues not converged
     c_bands:  3 eigenvalues not converged
     c_bands:  1 eigenvalues not converged
     c_bands:  1 eigenvalues not converged
     c_bands:  1 eigenvalues not converged
     c_bands:  1 eigenvalues not converged
     c_bands:  1 eigenvalues not converged
     c_bands:  1 eigenvalues not converged
     c_bands:  1 eigenvalues not converged
     c_bands:  1 eigenvalues not converged
     c_bands:  2 eigenvalues not converged
     c_bands:  2 eigenvalues not converged
     c_bands:  1 eigenvalues not converged
     c_bands:  1 eigenvalues not converged
     ethr =  1.00E-06,  avg # of iterations = 18.8

     negative rho (up, down):  8.722E-04 0.000E+00

     total cpu time spent up to now is     2348.5 secs

     total energy              =   -2065.96518528 Ry
     estimated scf accuracy    <       2.31692404 Ry

     iteration #  2     ecut=    60.00 Ry     beta= 0.70
     Davidson diagonalization with overlap
     ethr =  2.57E-03,  avg # of iterations = 13.9

     negative rho (up, down):  2.722E-05 0.000E+00

     total cpu time spent up to now is     2401.5 secs

     total energy              =   -2052.50975740 Ry
     estimated scf accuracy    <     377.50961114 Ry

     iteration #  3     ecut=    60.00 Ry     beta= 0.70
     Davidson diagonalization with overlap
     ethr =  2.57E-03,  avg # of iterations =  9.4

     negative rho (up, down):  1.263E-06 0.000E+00

     total cpu time spent up to now is     2445.4 secs

     total energy              =   -2061.65069643 Ry
     estimated scf accuracy    <     132.79487354 Ry

     iteration #  4     ecut=    60.00 Ry     beta= 0.70
     Davidson diagonalization with overlap
     ethr =  2.57E-03,  avg # of iterations =  7.5

     negative rho (up, down):  2.932E-06 0.000E+00

     total cpu time spent up to now is     2481.0 secs

     total energy              =   -2066.75765580 Ry
     estimated scf accuracy    <      21.71160397 Ry

     iteration #  5     ecut=    60.00 Ry     beta= 0.70
     Davidson diagonalization with overlap
     ethr =  2.57E-03,  avg # of iterations =  2.5

     negative rho (up, down):  1.302E-06 0.000E+00

     total cpu time spent up to now is     2506.2 secs

     total energy              =   -2067.43855721 Ry
     estimated scf accuracy    <       0.55309827 Ry

     iteration #  6     ecut=    60.00 Ry     beta= 0.70
     Davidson diagonalization with overlap
     ethr =  6.15E-04,  avg # of iterations =  3.9
     Minimization algorithm failed to find Fermi energy: reverting to bisection
     Possible cause: smearing is larger than the electronic band-gap.

     negative rho (up, down):  2.029E-06 0.000E+00

     total cpu time spent up to now is     2530.7 secs

     total energy              =   -2067.46418056 Ry
     estimated scf accuracy    <       0.29881734 Ry

     iteration #  7     ecut=    60.00 Ry     beta= 0.70
     Davidson diagonalization with overlap
     ethr =  3.32E-04,  avg # of iterations =  3.6

     negative rho (up, down):  3.267E-06 0.000E+00

     total cpu time spent up to now is     2554.6 secs

     total energy              =   -2067.45696873 Ry
     estimated scf accuracy    <       0.16754224 Ry

     iteration #  8     ecut=    60.00 Ry     beta= 0.70
     Davidson diagonalization with overlap
     ethr =  1.86E-04,  avg # of iterations =  4.5

     negative rho (up, down):  9.336E-06 0.000E+00

     total cpu time spent up to now is     2579.1 secs

     total energy              =   -2067.45093146 Ry
     estimated scf accuracy    <       0.07843772 Ry

     iteration #  9     ecut=    60.00 Ry     beta= 0.70
     Davidson diagonalization with overlap
     ethr =  8.72E-05,  avg # of iterations =  2.8

     negative rho (up, down):  2.675E-05 0.000E+00

     total cpu time spent up to now is     2602.7 secs

     total energy              =   -2067.44714127 Ry
     estimated scf accuracy    <       0.04009963 Ry

     iteration # 10     ecut=    60.00 Ry     beta= 0.70
     Davidson diagonalization with overlap
     ethr =  4.46E-05,  avg # of iterations =  3.6

     negative rho (up, down):  1.194E-04 0.000E+00

     total cpu time spent up to now is     2626.7 secs

     total energy              =   -2067.44211951 Ry
     estimated scf accuracy    <       0.02968477 Ry

     iteration # 11     ecut=    60.00 Ry     beta= 0.70
     Davidson diagonalization with overlap
     ethr =  3.30E-05,  avg # of iterations =  2.8

     negative rho (up, down):  2.314E-03 0.000E+00

     total cpu time spent up to now is     2649.9 secs

     total energy              =   -2067.43081821 Ry
     estimated scf accuracy    <       0.02291970 Ry

     iteration # 12     ecut=    60.00 Ry     beta= 0.70
     Davidson diagonalization with overlap
     ethr =  2.55E-05,  avg # of iterations =  7.4

     negative rho (up, down):  4.744E-04 0.000E+00

     total cpu time spent up to now is     2677.8 secs

     total energy              =   -2067.43220477 Ry
     estimated scf accuracy    <       0.01331928 Ry

     iteration # 13     ecut=    60.00 Ry     beta= 0.70
     Davidson diagonalization with overlap
     ethr =  1.48E-05,  avg # of iterations =  5.6

     negative rho (up, down):  7.988E-04 0.000E+00

     total cpu time spent up to now is     2702.7 secs

     total energy              =   -2067.43242157 Ry
     estimated scf accuracy    <       0.00082839 Ry

     iteration # 14     ecut=    60.00 Ry     beta= 0.70
     Davidson diagonalization with overlap
     ethr =  9.20E-07,  avg # of iterations =  8.1

     negative rho (up, down):  7.356E-04 0.000E+00

     total cpu time spent up to now is     2734.0 secs

     total energy              =   -2067.43250393 Ry
     estimated scf accuracy    <       0.00176927 Ry

     iteration # 15     ecut=    60.00 Ry     beta= 0.70
     Davidson diagonalization with overlap
     ethr =  9.20E-07,  avg # of iterations =  1.2

     negative rho (up, down):  8.156E-04 0.000E+00

     total cpu time spent up to now is     2755.7 secs

     total energy              =   -2067.43256937 Ry
     estimated scf accuracy    <       0.00004975 Ry

     iteration # 16     ecut=    60.00 Ry     beta= 0.70
     Davidson diagonalization with overlap
     ethr =  5.53E-08,  avg # of iterations =  2.1

     negative rho (up, down):  8.348E-04 0.000E+00

     total cpu time spent up to now is     2780.1 secs

     total energy              =   -2067.43257293 Ry
     estimated scf accuracy    <       0.00000361 Ry

     iteration # 17     ecut=    60.00 Ry     beta= 0.70
     Davidson diagonalization with overlap
     ethr =  4.01E-09,  avg # of iterations =  3.5

     negative rho (up, down):  8.430E-04 0.000E+00

     total cpu time spent up to now is     2807.8 secs

     total energy              =   -2067.43257338 Ry
     estimated scf accuracy    <       0.00000346 Ry

     iteration # 18     ecut=    60.00 Ry     beta= 0.70
     Davidson diagonalization with overlap
     ethr =  3.85E-09,  avg # of iterations =  1.0

     negative rho (up, down):  8.434E-04 0.000E+00

     total cpu time spent up to now is     2829.3 secs

     total energy              =   -2067.43257352 Ry
     estimated scf accuracy    <       0.00000048 Ry

     iteration # 19     ecut=    60.00 Ry     beta= 0.70
     Davidson diagonalization with overlap
     ethr =  5.30E-10,  avg # of iterations =  2.0

     negative rho (up, down):  8.426E-04 0.000E+00

     total cpu time spent up to now is     2853.0 secs

     total energy              =   -2067.43257357 Ry
     estimated scf accuracy    <       0.00000027 Ry

     iteration # 20     ecut=    60.00 Ry     beta= 0.70
     Davidson diagonalization with overlap
     ethr =  3.05E-10,  avg # of iterations =  1.4

     negative rho (up, down):  8.418E-04 0.000E+00

     total cpu time spent up to now is     2875.1 secs

     total energy              =   -2067.43257358 Ry
     estimated scf accuracy    <       0.00000002 Ry

     iteration # 21     ecut=    60.00 Ry     beta= 0.70
     Davidson diagonalization with overlap
     ethr =  1.68E-11,  avg # of iterations =  2.1

     negative rho (up, down):  8.416E-04 0.000E+00

     total cpu time spent up to now is     2901.1 secs

     total energy              =   -2067.43257358 Ry
     estimated scf accuracy    <          1.0E-09 Ry

     iteration # 22     ecut=    60.00 Ry     beta= 0.70
     Davidson diagonalization with overlap
     ethr =  1.12E-12,  avg # of iterations =  3.7

     negative rho (up, down):  8.417E-04 0.000E+00

     total cpu time spent up to now is     2929.8 secs

     total energy              =   -2067.43257358 Ry
     estimated scf accuracy    <          3.0E-10 Ry

     iteration # 23     ecut=    60.00 Ry     beta= 0.70
     Davidson diagonalization with overlap
     ethr =  3.35E-13,  avg # of iterations =  2.0

     negative rho (up, down):  8.416E-04 0.000E+00

     total cpu time spent up to now is     2954.1 secs

     total energy              =   -2067.43257358 Ry
     estimated scf accuracy    <          6.9E-11 Ry

     iteration # 24     ecut=    60.00 Ry     beta= 0.70
     Davidson diagonalization with overlap
     ethr =  1.00E-13,  avg # of iterations =  2.6

     negative rho (up, down):  8.416E-04 0.000E+00

     total cpu time spent up to now is     2980.1 secs

     total energy              =   -2067.43257359 Ry
     estimated scf accuracy    <          4.1E-11 Ry

     iteration # 25     ecut=    60.00 Ry     beta= 0.70
     Davidson diagonalization with overlap
     ethr =  1.00E-13,  avg # of iterations =  1.0

     negative rho (up, down):  8.416E-04 0.000E+00

     total cpu time spent up to now is     3001.6 secs

     total energy              =   -2067.43257358 Ry
     estimated scf accuracy    <          1.3E-11 Ry

     iteration # 26     ecut=    60.00 Ry     beta= 0.70
     Davidson diagonalization with overlap
     ethr =  1.00E-13,  avg # of iterations =  1.0

     negative rho (up, down):  8.416E-04 0.000E+00

     total cpu time spent up to now is     3023.1 secs

     total energy              =   -2067.43257358 Ry
     estimated scf accuracy    <          5.3E-13 Ry

     iteration # 27     ecut=    60.00 Ry     beta= 0.70
     Davidson diagonalization with overlap
     ethr =  1.00E-13,  avg # of iterations =  1.0

     negative rho (up, down):  8.416E-04 0.000E+00

     total cpu time spent up to now is     3044.6 secs

     total energy              =   -2067.43257358 Ry
     estimated scf accuracy    <          1.6E-13 Ry

     iteration # 28     ecut=    60.00 Ry     beta= 0.70
     Davidson diagonalization with overlap
     ethr =  1.00E-13,  avg # of iterations =  1.0

     negative rho (up, down):  8.416E-04 0.000E+00

     total cpu time spent up to now is     3066.1 secs

     total energy              =   -2067.43257358 Ry
     estimated scf accuracy    <          1.9E-13 Ry

     iteration # 29     ecut=    60.00 Ry     beta= 0.70
     Davidson diagonalization with overlap
     ethr =  1.00E-13,  avg # of iterations =  1.0

     negative rho (up, down):  8.416E-04 0.000E+00

     total cpu time spent up to now is     3087.6 secs

     total energy              =   -2067.43257358 Ry
     estimated scf accuracy    <          2.9E-14 Ry

     iteration # 30     ecut=    60.00 Ry     beta= 0.70
     Davidson diagonalization with overlap
     ethr =  1.00E-13,  avg # of iterations =  1.0

     negative rho (up, down):  8.416E-04 0.000E+00

     total cpu time spent up to now is     3109.1 secs

     End of self-consistent calculation

     Number of k-points >= 100: set verbosity='high' to print the bands.

     the Fermi energy is     2.6011 ev

!    total energy              =   -2067.43257358 Ry
     estimated scf accuracy    <          1.0E-14 Ry
     smearing contrib. (-TS)   =      -0.00000211 Ry
     internal energy E=F+TS    =   -2067.43257148 Ry

     The total energy is F=E-TS. E is the sum of the following terms:
     one-electron contribution =  -19981.45310045 Ry
     hartree contribution      =   10042.59692038 Ry
     xc contribution           =    -211.37883652 Ry
     ewald contribution        =    8082.80244511 Ry

     convergence has been achieved in  30 iterations

     negative rho (up, down):  8.416E-04 0.000E+00

     Forces acting on atoms (cartesian axes, Ry/au):

     atom    1 type  1   force =     0.00004616    0.00006998   -0.00020458
     atom    2 type  2   force =     0.00004904    0.00005860    0.00006732
     atom    3 type  1   force =     0.00002884    0.00003090    0.00004414
     atom    4 type  2   force =    -0.00004923   -0.00005087   -0.00001015
     atom    5 type  1   force =    -0.00008944   -0.00006824    0.00017444
     atom    6 type  3   force =     0.00001463   -0.00004036   -0.00007117

     Total force =     0.000344     Total SCF correction =     0.000001


     Computing stress (Cartesian axis) and pressure


     negative rho (up, down):  8.416E-04 0.000E+00
          total   stress  (Ry/bohr**3)                   (kbar)     P=       -2.02
  -0.00000142   0.00000023  -0.00000048           -0.21        0.03       -0.07
   0.00000023  -0.00000254  -0.00000048            0.03       -0.37       -0.07
  -0.00000048  -0.00000048  -0.00003715           -0.07       -0.07       -5.47


     Writing output data file /scratch/as3359/Ta3C2H_loop/Ta.save/
 
     init_run     :     56.47s CPU     31.65s WALL (       2 calls)
     electrons    :   5916.31s CPU   3003.75s WALL (       4 calls)
     update_pot   :     15.55s CPU      9.53s WALL (       2 calls)
     forces       :     36.46s CPU     18.44s WALL (       4 calls)
     stress       :    132.15s CPU     66.84s WALL (       4 calls)

     Called by init_run:
     wfcinit      :     40.22s CPU     20.54s WALL (       2 calls)
     potinit      :      4.78s CPU      2.46s WALL (       2 calls)
     hinit0       :     10.33s CPU      7.93s WALL (       2 calls)

     Called by electrons:
     c_bands      :   5001.04s CPU   2530.64s WALL (     113 calls)
     sum_band     :    853.76s CPU    437.36s WALL (     113 calls)
     v_of_rho     :      9.22s CPU      4.72s WALL (     117 calls)
     newd         :     50.36s CPU     30.03s WALL (     117 calls)
     mix_rho      :      2.57s CPU      1.33s WALL (     113 calls)

     Called by c_bands:
     init_us_2    :     81.95s CPU     41.11s WALL (   26668 calls)
     cegterg      :   4627.67s CPU   2342.50s WALL (   12769 calls)

     Called by *egterg:
     cdiaghg      :    271.30s CPU    138.41s WALL (   60449 calls)
     h_psi        :   3467.40s CPU   1758.18s WALL (   60901 calls)
     s_psi        :    170.57s CPU     85.49s WALL (   60901 calls)
     g_psi        :     20.93s CPU     10.51s WALL (   47906 calls)

     Called by h_psi:
     h_psi:calbec :    178.14s CPU     89.47s WALL (   60901 calls)
     vloc_psi     :   3084.08s CPU   1565.82s WALL (   60901 calls)
     add_vuspsi   :    181.05s CPU     90.71s WALL (   60901 calls)

     General routines
     calbec       :    256.53s CPU    128.82s WALL (   75930 calls)
     fft          :      6.25s CPU      3.39s WALL (    1615 calls)
     ffts         :      0.44s CPU      0.22s WALL (     230 calls)
     fftw         :   3308.92s CPU   1679.69s WALL ( 3980336 calls)
     interpolate  :      0.71s CPU      0.36s WALL (     117 calls)
 
     Parallel routines
 
     PWSCF        :      1h42m CPU  52m15.00s WALL

 
   This run was terminated on:   4:34:33  15Apr2022            

=------------------------------------------------------------------------------=
   JOB DONE.
=------------------------------------------------------------------------------=
