
     Program PWSCF v.6.8 starts on 14Apr2022 at 23: 1:12 

     This program is part of the open-source Quantum ESPRESSO suite
     for quantum simulation of materials; please cite
         "P. Giannozzi et al., J. Phys.:Condens. Matter 21 395502 (2009);
         "P. Giannozzi et al., J. Phys.:Condens. Matter 29 465901 (2017);
         "P. Giannozzi et al., J. Chem. Phys. 152 154105 (2020);
          URL http://www.quantum-espresso.org", 
     in publications or presentations arising from this work. More details at
     http://www.quantum-espresso.org/quote

     Parallel version (MPI & OpenMP), running on       4 processor cores
     Number of MPI processes:                 2
     Threads/MPI process:                     2

     MPI processes distributed on     1 nodes
     R & G space division:  proc/nbgrp/npool/nimage =       2
     125265 MiB available memory on the printing compute node when the environment starts
 
     Reading input from Ta3C2.vcrelax.in

     Current dimensions of program PWSCF are:
     Max number of different atomic species (ntypx) = 10
     Max number of k-points (npk) =  40000
     Max angular momentum in pseudopotentials (lmaxx) =  4
     file Ta.pbesol-spfn-rrkjus_psl.1.0.0.UPF: wavefunction(s)  5S 5P renormalized

     Subspace diagonalization in iterative solution of the eigenvalue problem:
     a serial algorithm will be used

 
     Parallelization info
     --------------------
     sticks:   dense  smooth     PW     G-vecs:    dense   smooth      PW
     Min         351     279     93                71711    51363    9237
     Max         352     280     94                71732    51396    9248
     Sum         703     559    187               143443   102759   18485
 
     Using Slab Decomposition
 


     bravais-lattice index     =            0
     lattice parameter (alat)  =       5.5500  a.u.
     unit-cell volume          =    1637.9727 (a.u.)^3
     number of atoms/cell      =            6
     number of atomic types    =            3
     number of electrons       =        90.00
     number of Kohn-Sham states=           54
     kinetic-energy cutoff     =      60.0000  Ry
     charge density cutoff     =     300.0000  Ry
     scf convergence threshold =      1.0E-12
     mixing beta               =       0.7000
     number of iterations used =            8  plain     mixing
     energy convergence thresh.=      1.0E-04
     force convergence thresh. =      1.0E-03
     press convergence thresh. =      5.0E-01
     Exchange-correlation= PBESOL
                           (   1   4  10   8   0   0   0)
     nstep                     =           50


     celldm(1)=   5.550000  celldm(2)=   0.000000  celldm(3)=   0.000000
     celldm(4)=   0.000000  celldm(5)=   0.000000  celldm(6)=   0.000000

     crystal axes: (cart. coord. in units of alat)
               a(1) = (   1.051851   0.000006   0.000000 )  
               a(2) = (  -0.525920   0.910903   0.000000 )  
               a(3) = (   0.000000   0.000000  10.000000 )  

     reciprocal axes: (cart. coord. in units 2 pi/alat)
               b(1) = (  0.950702  0.548899  0.000000 )  
               b(2) = ( -0.000006  1.097808  0.000000 )  
               b(3) = (  0.000000  0.000000  0.100000 )  


     PseudoPot. # 1 for Ta read from file:
     /shared/home/as3359/pseudo/Ta.pbesol-spfn-rrkjus_psl.1.0.0.UPF
     MD5 check sum: f099565ffaca9b150a52e9412a28e20b
     Pseudo is Ultrasoft + core correction, Zval = 27.0
     Generated using &quot;atomic&quot; code by A. Dal Corso  v.6.3
     Using radial grid of 1273 points,  8 beta functions with: 
                l(1) =   0
                l(2) =   0
                l(3) =   1
                l(4) =   1
                l(5) =   2
                l(6) =   2
                l(7) =   3
                l(8) =   3
     Q(r) pseudized with 0 coefficients 


     PseudoPot. # 2 for C  read from file:
     /shared/home/as3359/pseudo/C.pbesol-n-rrkjus_psl.1.0.0.UPF
     MD5 check sum: 05995be603a8a7c99da3dc4413f31573
     Pseudo is Ultrasoft + core correction, Zval =  4.0
     Generated using &quot;atomic&quot; code by A. Dal Corso  v.6.3MaX
     Using radial grid of 1073 points,  4 beta functions with: 
                l(1) =   0
                l(2) =   0
                l(3) =   1
                l(4) =   1
     Q(r) pseudized with 0 coefficients 


     PseudoPot. # 3 for H  read from file:
     /shared/home/as3359/pseudo/H.pbesol-rrkjus_psl.0.1.UPF
     MD5 check sum: 1dbb1a5c48b1283557b8117eb856a7ca
     Pseudo is Ultrasoft, Zval =  1.0
     Generated using "atomic" code by A. Dal Corso  v.5.0.2 svn rev. 9415
     Using radial grid of  929 points,  2 beta functions with: 
                l(1) =   0
                l(2) =   0
     Q(r) pseudized with 0 coefficients 


     atomic species   valence    mass     pseudopotential
        Ta            27.00   180.94788     Ta( 1.00)
        C              4.00    12.01070     C ( 1.00)
        H              1.00     1.00000     H ( 1.00)

     No symmetry found



   Cartesian axes

     site n.     atom                  positions (alat units)
         1           Ta  tau(   1) = (   0.0000231   0.6073201   0.6349311  )
         2           C   tau(   2) = (   0.0000093   0.0000234   1.0244802  )
         3           Ta  tau(   3) = (   0.5259269   0.3036382   1.4781889  )
         4           C   tau(   4) = (  -0.0000061   0.6072475   1.9318977  )
         5           Ta  tau(   5) = (  -0.0000199  -0.0000492   2.3214464  )
         6           H   tau(   6) = (   0.3333333   0.3333333   2.6014464  )

     number of k points=   113  Marzari-Vanderbilt smearing, width (Ry)=  0.0010

     Number of k-points >= 100: set verbosity='high' to print them.

     Dense  grid:   143443 G-vectors     FFT dimensions: (  36,  36, 320)

     Smooth grid:   102759 G-vectors     FFT dimensions: (  30,  30, 288)

     Estimated max dynamical RAM per process >       1.29 GB

     Estimated total dynamical RAM >       2.58 GB

     Check: negative core charge=   -0.000002

     Initial potential from superposition of free atoms

     starting charge   89.99759, renormalised to   90.00000

     negative rho (up, down):  8.039E-04 0.000E+00
     Starting wfcs are   60 randomized atomic wfcs

     total cpu time spent up to now is       17.1 secs

     Self-consistent Calculation

     iteration #  1     ecut=    60.00 Ry     beta= 0.70
     Davidson diagonalization with overlap
     ethr =  1.00E-02,  avg # of iterations =  2.1

     negative rho (up, down):  6.967E-04 0.000E+00

     total cpu time spent up to now is       42.3 secs

     total energy              =   -2065.74845622 Ry
     estimated scf accuracy    <       2.48758363 Ry

     iteration #  2     ecut=    60.00 Ry     beta= 0.70
     Davidson diagonalization with overlap
     ethr =  2.76E-03,  avg # of iterations = 11.0

     negative rho (up, down):  3.082E-04 0.000E+00

     total cpu time spent up to now is       91.7 secs

     total energy              =   -2047.82704429 Ry
     estimated scf accuracy    <     597.01651679 Ry

     iteration #  3     ecut=    60.00 Ry     beta= 0.70
     Davidson diagonalization with overlap
     ethr =  2.76E-03,  avg # of iterations = 10.4

     negative rho (up, down):  1.615E-04 0.000E+00

     total cpu time spent up to now is      141.8 secs

     total energy              =   -2063.25616176 Ry
     estimated scf accuracy    <      72.04476571 Ry

     iteration #  4     ecut=    60.00 Ry     beta= 0.70
     Davidson diagonalization with overlap
     ethr =  2.76E-03,  avg # of iterations =  6.8

     negative rho (up, down):  1.343E-04 0.000E+00

     total cpu time spent up to now is      176.0 secs

     total energy              =   -2066.71246527 Ry
     estimated scf accuracy    <      19.86532910 Ry

     iteration #  5     ecut=    60.00 Ry     beta= 0.70
     Davidson diagonalization with overlap
     ethr =  2.76E-03,  avg # of iterations =  2.5

     negative rho (up, down):  1.180E-04 0.000E+00

     total cpu time spent up to now is      201.5 secs

     total energy              =   -2067.38096233 Ry
     estimated scf accuracy    <       0.40939978 Ry

     iteration #  6     ecut=    60.00 Ry     beta= 0.70
     Davidson diagonalization with overlap
     ethr =  4.55E-04,  avg # of iterations =  7.1

     negative rho (up, down):  1.301E-04 0.000E+00

     total cpu time spent up to now is      230.2 secs

     total energy              =   -2067.38899489 Ry
     estimated scf accuracy    <       0.23758250 Ry

     iteration #  7     ecut=    60.00 Ry     beta= 0.70
     Davidson diagonalization with overlap
     ethr =  2.64E-04,  avg # of iterations =  2.6

     negative rho (up, down):  1.438E-04 0.000E+00

     total cpu time spent up to now is      253.4 secs

     total energy              =   -2067.37720918 Ry
     estimated scf accuracy    <       0.20259239 Ry

     iteration #  8     ecut=    60.00 Ry     beta= 0.70
     Davidson diagonalization with overlap
     ethr =  2.25E-04,  avg # of iterations =  1.5

     negative rho (up, down):  1.856E-04 0.000E+00

     total cpu time spent up to now is      275.9 secs

     total energy              =   -2067.37488041 Ry
     estimated scf accuracy    <       0.10010580 Ry

     iteration #  9     ecut=    60.00 Ry     beta= 0.70
     Davidson diagonalization with overlap
     ethr =  1.11E-04,  avg # of iterations =  2.2

     negative rho (up, down):  2.222E-04 0.000E+00

     total cpu time spent up to now is      299.2 secs

     total energy              =   -2067.37213952 Ry
     estimated scf accuracy    <       0.03223904 Ry

     iteration # 10     ecut=    60.00 Ry     beta= 0.70
     Davidson diagonalization with overlap
     ethr =  3.58E-05,  avg # of iterations =  4.2

     negative rho (up, down):  3.251E-04 0.000E+00

     total cpu time spent up to now is      324.3 secs

     total energy              =   -2067.36777606 Ry
     estimated scf accuracy    <       0.02248770 Ry

     iteration # 11     ecut=    60.00 Ry     beta= 0.70
     Davidson diagonalization with overlap
     ethr =  2.50E-05,  avg # of iterations =  3.8

     negative rho (up, down):  1.897E-03 0.000E+00

     total cpu time spent up to now is      348.7 secs

     total energy              =   -2067.35901567 Ry
     estimated scf accuracy    <       0.01469649 Ry

     iteration # 12     ecut=    60.00 Ry     beta= 0.70
     Davidson diagonalization with overlap
     c_bands:  1 eigenvalues not converged
     ethr =  1.63E-05,  avg # of iterations =  7.5

     negative rho (up, down):  6.206E-04 0.000E+00

     total cpu time spent up to now is      377.3 secs

     total energy              =   -2067.36057481 Ry
     estimated scf accuracy    <       0.00101321 Ry

     iteration # 13     ecut=    60.00 Ry     beta= 0.70
     Davidson diagonalization with overlap
     c_bands:  1 eigenvalues not converged
     c_bands:  1 eigenvalues not converged
     c_bands:  1 eigenvalues not converged
     c_bands:  1 eigenvalues not converged
     ethr =  1.13E-06,  avg # of iterations =  9.2

     negative rho (up, down):  7.813E-04 0.000E+00

     total cpu time spent up to now is      407.1 secs

     total energy              =   -2067.36066182 Ry
     estimated scf accuracy    <       0.00005971 Ry

     iteration # 14     ecut=    60.00 Ry     beta= 0.70
     Davidson diagonalization with overlap
     ethr =  6.63E-08,  avg # of iterations =  4.3

     negative rho (up, down):  7.590E-04 0.000E+00

     total cpu time spent up to now is      437.9 secs

     total energy              =   -2067.36066154 Ry
     estimated scf accuracy    <       0.00014632 Ry

     iteration # 15     ecut=    60.00 Ry     beta= 0.70
     Davidson diagonalization with overlap
     ethr =  6.63E-08,  avg # of iterations =  2.1

     negative rho (up, down):  8.109E-04 0.000E+00

     total cpu time spent up to now is      462.8 secs

     total energy              =   -2067.36067563 Ry
     estimated scf accuracy    <       0.00006016 Ry

     iteration # 16     ecut=    60.00 Ry     beta= 0.70
     Davidson diagonalization with overlap
     ethr =  6.63E-08,  avg # of iterations =  1.0

     negative rho (up, down):  8.109E-04 0.000E+00

     total cpu time spent up to now is      484.7 secs

     total energy              =   -2067.36067751 Ry
     estimated scf accuracy    <       0.00000069 Ry

     iteration # 17     ecut=    60.00 Ry     beta= 0.70
     Davidson diagonalization with overlap
     ethr =  7.64E-10,  avg # of iterations =  3.1

     negative rho (up, down):  8.133E-04 0.000E+00

     total cpu time spent up to now is      513.8 secs

     total energy              =   -2067.36067757 Ry
     estimated scf accuracy    <       0.00000131 Ry

     iteration # 18     ecut=    60.00 Ry     beta= 0.70
     Davidson diagonalization with overlap
     ethr =  7.64E-10,  avg # of iterations =  2.0

     negative rho (up, down):  8.163E-04 0.000E+00

     total cpu time spent up to now is      537.9 secs

     total energy              =   -2067.36067772 Ry
     estimated scf accuracy    <       0.00000029 Ry

     iteration # 19     ecut=    60.00 Ry     beta= 0.70
     Davidson diagonalization with overlap
     ethr =  3.21E-10,  avg # of iterations =  1.0

     negative rho (up, down):  8.164E-04 0.000E+00

     total cpu time spent up to now is      559.9 secs

     total energy              =   -2067.36067773 Ry
     estimated scf accuracy    <          1.5E-09 Ry

     iteration # 20     ecut=    60.00 Ry     beta= 0.70
     Davidson diagonalization with overlap
     ethr =  1.71E-12,  avg # of iterations =  4.1

     negative rho (up, down):  8.167E-04 0.000E+00

     total cpu time spent up to now is      591.7 secs

     total energy              =   -2067.36067773 Ry
     estimated scf accuracy    <          1.0E-09 Ry

     iteration # 21     ecut=    60.00 Ry     beta= 0.70
     Davidson diagonalization with overlap
     ethr =  1.14E-12,  avg # of iterations =  2.3

     negative rho (up, down):  8.167E-04 0.000E+00

     total cpu time spent up to now is      616.7 secs

     total energy              =   -2067.36067773 Ry
     estimated scf accuracy    <          3.4E-10 Ry

     iteration # 22     ecut=    60.00 Ry     beta= 0.70
     Davidson diagonalization with overlap
     ethr =  3.77E-13,  avg # of iterations =  2.0

     negative rho (up, down):  8.167E-04 0.000E+00

     total cpu time spent up to now is      641.5 secs

     total energy              =   -2067.36067773 Ry
     estimated scf accuracy    <          4.2E-10 Ry

     iteration # 23     ecut=    60.00 Ry     beta= 0.70
     Davidson diagonalization with overlap
     ethr =  3.77E-13,  avg # of iterations =  1.0

     negative rho (up, down):  8.167E-04 0.000E+00

     total cpu time spent up to now is      663.4 secs

     total energy              =   -2067.36067773 Ry
     estimated scf accuracy    <          2.1E-11 Ry

     iteration # 24     ecut=    60.00 Ry     beta= 0.70
     Davidson diagonalization with overlap
     ethr =  1.00E-13,  avg # of iterations =  1.0

     negative rho (up, down):  8.167E-04 0.000E+00

     total cpu time spent up to now is      685.2 secs

     total energy              =   -2067.36067773 Ry
     estimated scf accuracy    <          1.2E-12 Ry

     iteration # 25     ecut=    60.00 Ry     beta= 0.70
     Davidson diagonalization with overlap
     ethr =  1.00E-13,  avg # of iterations =  1.0

     negative rho (up, down):  8.167E-04 0.000E+00

     total cpu time spent up to now is      707.0 secs

     total energy              =   -2067.36067773 Ry
     estimated scf accuracy    <          2.1E-12 Ry

     iteration # 26     ecut=    60.00 Ry     beta= 0.70
     Davidson diagonalization with overlap
     ethr =  1.00E-13,  avg # of iterations =  1.0

     negative rho (up, down):  8.167E-04 0.000E+00

     total cpu time spent up to now is      728.8 secs

     total energy              =   -2067.36067773 Ry
     estimated scf accuracy    <          1.0E-12 Ry

     iteration # 27     ecut=    60.00 Ry     beta= 0.70
     Davidson diagonalization with overlap
     ethr =  1.00E-13,  avg # of iterations =  1.0

     negative rho (up, down):  8.167E-04 0.000E+00

     total cpu time spent up to now is      750.6 secs

     End of self-consistent calculation

     Number of k-points >= 100: set verbosity='high' to print the bands.

     the Fermi energy is     2.4540 ev

!    total energy              =   -2067.36067773 Ry
     estimated scf accuracy    <          1.0E-13 Ry
     smearing contrib. (-TS)   =       0.00000234 Ry
     internal energy E=F+TS    =   -2067.36068007 Ry

     The total energy is F=E-TS. E is the sum of the following terms:
     one-electron contribution =  -19862.58945144 Ry
     hartree contribution      =    9982.37430220 Ry
     xc contribution           =    -211.45739171 Ry
     ewald contribution        =    8024.31186087 Ry

     convergence has been achieved in  27 iterations

     negative rho (up, down):  8.167E-04 0.000E+00

     Forces acting on atoms (cartesian axes, Ry/au):

     atom    1 type  1   force =     0.00155609   -0.00182922   -0.01060907
     atom    2 type  2   force =    -0.00153812    0.00080473    0.01582318
     atom    3 type  1   force =     0.00275473   -0.00022700   -0.01722776
     atom    4 type  2   force =    -0.03367443   -0.00070384   -0.04942090
     atom    5 type  1   force =    -0.08554841   -0.08887423   -0.03494011
     atom    6 type  3   force =     0.11645013    0.09082956    0.09637465

     Total force =     0.227574     Total SCF correction =     0.000004


     Computing stress (Cartesian axis) and pressure


     negative rho (up, down):  8.167E-04 0.000E+00
          total   stress  (Ry/bohr**3)                   (kbar)     P=       14.91
   0.00008538   0.00011330   0.00014487           12.56       16.67       21.31
   0.00011330   0.00005858   0.00009459           16.67        8.62       13.91
   0.00014487   0.00009459   0.00016021           21.31       13.91       23.57


     BFGS Geometry Optimization
     Energy error            =      0.0E+00 Ry
     Gradient error          =      1.2E-01 Ry/Bohr
     Cell gradient error     =      1.7E+01 kbar

     number of scf cycles    =   1
     number of bfgs steps    =   0

     enthalpy           new  =   -2067.3606777335 Ry

     new trust radius        =       0.1763482744 bohr
     new conv_thr            =            1.0E-12 Ry

     new unit-cell volume =   1643.85973 a.u.^3 (   243.59488 Ang^3 )
     density =      3.87103 g/cm^3

CELL_PARAMETERS (alat=  5.55000000)
   1.054095737   0.002985037   0.000000000
  -0.524462813   0.910747740   0.000000000
   0.000000000   0.000000000  10.000000000

ATOMIC_POSITIONS (alat)
Ta            0.0020234605        0.6078802988        0.6330195553
C            -0.0002679326        0.0001678835        1.0273312243
Ta            0.5284068490        0.3055330385        1.4750847998
C            -0.0043668236        0.6079925982        1.9229930341
Ta           -0.0155124695       -0.0161298160        2.3151508854
H             0.3560621638        0.3512147669        2.6188112011



     Writing output data file /scratch/as3359/Ta3C2H_loop/Ta.save/
     NEW-OLD atomic charge density approx. for the potential

     Check: negative core charge=   -0.000002

     negative rho (up, down):  7.849E-04 0.000E+00
     extrapolated charge   90.32230, renormalised to   90.00000

     total cpu time spent up to now is      777.7 secs

     Self-consistent Calculation

     iteration #  1     ecut=    60.00 Ry     beta= 0.70
     Davidson diagonalization with overlap
     c_bands:  3 eigenvalues not converged
     c_bands:  3 eigenvalues not converged
     c_bands:  3 eigenvalues not converged
     c_bands:  1 eigenvalues not converged
     c_bands:  2 eigenvalues not converged
     c_bands:  3 eigenvalues not converged
     c_bands:  3 eigenvalues not converged
     c_bands:  5 eigenvalues not converged
     c_bands:  3 eigenvalues not converged
     c_bands:  3 eigenvalues not converged
     c_bands:  3 eigenvalues not converged
     c_bands:  2 eigenvalues not converged
     c_bands:  3 eigenvalues not converged
     c_bands:  5 eigenvalues not converged
     c_bands:  4 eigenvalues not converged
     c_bands:  5 eigenvalues not converged
     c_bands:  3 eigenvalues not converged
     c_bands:  3 eigenvalues not converged
     c_bands:  3 eigenvalues not converged
     c_bands:  3 eigenvalues not converged
     c_bands:  2 eigenvalues not converged
     c_bands:  3 eigenvalues not converged
     c_bands:  3 eigenvalues not converged
     c_bands:  3 eigenvalues not converged
     c_bands:  3 eigenvalues not converged
     c_bands:  3 eigenvalues not converged
     c_bands:  3 eigenvalues not converged
     c_bands:  3 eigenvalues not converged
     c_bands:  3 eigenvalues not converged
     c_bands:  4 eigenvalues not converged
     c_bands:  3 eigenvalues not converged
     c_bands:  3 eigenvalues not converged
     c_bands:  2 eigenvalues not converged
     c_bands:  3 eigenvalues not converged
     c_bands:  3 eigenvalues not converged
     c_bands:  3 eigenvalues not converged
     c_bands:  3 eigenvalues not converged
     c_bands:  3 eigenvalues not converged
     c_bands:  3 eigenvalues not converged
     c_bands:  2 eigenvalues not converged
     c_bands:  4 eigenvalues not converged
     c_bands:  3 eigenvalues not converged
     c_bands:  2 eigenvalues not converged
     c_bands:  3 eigenvalues not converged
     c_bands:  3 eigenvalues not converged
     c_bands:  4 eigenvalues not converged
     c_bands:  3 eigenvalues not converged
     c_bands:  3 eigenvalues not converged
     c_bands:  3 eigenvalues not converged
     c_bands:  3 eigenvalues not converged
     c_bands:  4 eigenvalues not converged
     c_bands:  3 eigenvalues not converged
     c_bands:  3 eigenvalues not converged
     c_bands:  3 eigenvalues not converged
     c_bands:  1 eigenvalues not converged
     c_bands:  4 eigenvalues not converged
     c_bands:  3 eigenvalues not converged
     c_bands:  3 eigenvalues not converged
     c_bands:  3 eigenvalues not converged
     c_bands:  3 eigenvalues not converged
     c_bands:  3 eigenvalues not converged
     c_bands:  4 eigenvalues not converged
     c_bands:  5 eigenvalues not converged
     c_bands:  4 eigenvalues not converged
     c_bands:  3 eigenvalues not converged
     c_bands:  3 eigenvalues not converged
     c_bands:  3 eigenvalues not converged
     c_bands:  4 eigenvalues not converged
     c_bands:  2 eigenvalues not converged
     c_bands:  5 eigenvalues not converged
     ethr =  1.00E-06,  avg # of iterations = 24.1

     total cpu time spent up to now is      899.5 secs

     total energy              =   -1642.11712436 Ry
     estimated scf accuracy    <     461.81328457 Ry

     iteration #  2     ecut=    60.00 Ry     beta= 0.70
     Davidson diagonalization with overlap
     c_bands:  3 eigenvalues not converged
     c_bands:  1 eigenvalues not converged
     c_bands:  3 eigenvalues not converged
     c_bands:  4 eigenvalues not converged
     c_bands:  2 eigenvalues not converged
     c_bands:  4 eigenvalues not converged
     c_bands:  1 eigenvalues not converged
     c_bands:  2 eigenvalues not converged
     c_bands:  5 eigenvalues not converged
     c_bands:  4 eigenvalues not converged
     c_bands:  1 eigenvalues not converged
     c_bands:  2 eigenvalues not converged
     c_bands:  3 eigenvalues not converged
     c_bands:  3 eigenvalues not converged
     c_bands:  3 eigenvalues not converged
     c_bands:  1 eigenvalues not converged
     c_bands:  4 eigenvalues not converged
     c_bands:  5 eigenvalues not converged
     c_bands:  4 eigenvalues not converged
     c_bands:  4 eigenvalues not converged
     c_bands:  3 eigenvalues not converged
     c_bands:  1 eigenvalues not converged
     c_bands:  2 eigenvalues not converged
     c_bands:  3 eigenvalues not converged
     c_bands:  2 eigenvalues not converged
     c_bands:  2 eigenvalues not converged
     c_bands:  1 eigenvalues not converged
     c_bands:  5 eigenvalues not converged
     c_bands:  5 eigenvalues not converged
     c_bands:  2 eigenvalues not converged
     c_bands:  3 eigenvalues not converged
     c_bands:  4 eigenvalues not converged
     c_bands:  2 eigenvalues not converged
     c_bands:  2 eigenvalues not converged
     c_bands:  2 eigenvalues not converged
     c_bands:  4 eigenvalues not converged
     c_bands:  4 eigenvalues not converged
     c_bands:  3 eigenvalues not converged
     c_bands:  4 eigenvalues not converged
     c_bands:  1 eigenvalues not converged
     c_bands:  5 eigenvalues not converged
     c_bands:  5 eigenvalues not converged
     c_bands:  2 eigenvalues not converged
     c_bands:  4 eigenvalues not converged
     c_bands:  4 eigenvalues not converged
     c_bands:  1 eigenvalues not converged
     c_bands:  4 eigenvalues not converged
     c_bands:  3 eigenvalues not converged
     c_bands:  2 eigenvalues not converged
     c_bands:  2 eigenvalues not converged
     c_bands:  3 eigenvalues not converged
     c_bands:  1 eigenvalues not converged
     c_bands:  3 eigenvalues not converged
     c_bands:  4 eigenvalues not converged
     c_bands:  4 eigenvalues not converged
     c_bands:  3 eigenvalues not converged
     c_bands:  2 eigenvalues not converged
     c_bands:  2 eigenvalues not converged
     c_bands:  3 eigenvalues not converged
     c_bands:  4 eigenvalues not converged
     c_bands:  2 eigenvalues not converged
     c_bands:  1 eigenvalues not converged
     c_bands:  5 eigenvalues not converged
     c_bands:  5 eigenvalues not converged
     ethr =  1.00E-02,  avg # of iterations = 21.2

     total cpu time spent up to now is     1026.3 secs

     total energy              =   -1757.10776050 Ry
     estimated scf accuracy    <    1971.17053293 Ry

     iteration #  3     ecut=    60.00 Ry     beta= 0.70
     Davidson diagonalization with overlap
     c_bands:  1 eigenvalues not converged
     c_bands:  1 eigenvalues not converged
     c_bands:  5 eigenvalues not converged
     c_bands:  3 eigenvalues not converged
     c_bands:  2 eigenvalues not converged
     c_bands:  4 eigenvalues not converged
     c_bands:  1 eigenvalues not converged
     c_bands:  3 eigenvalues not converged
     c_bands:  5 eigenvalues not converged
     c_bands:  4 eigenvalues not converged
     ethr =  1.00E-02,  avg # of iterations = 28.9

     total cpu time spent up to now is     1180.5 secs

     total energy              =   -1902.66065696 Ry
     estimated scf accuracy    <    2199.19328692 Ry

     iteration #  4     ecut=    60.00 Ry     beta= 0.70
     Davidson diagonalization with overlap
     c_bands:  1 eigenvalues not converged
     c_bands:  1 eigenvalues not converged
     c_bands:  2 eigenvalues not converged
     c_bands:  3 eigenvalues not converged
     c_bands:  2 eigenvalues not converged
     c_bands:  1 eigenvalues not converged
     c_bands:  2 eigenvalues not converged
     c_bands:  1 eigenvalues not converged
     c_bands:  1 eigenvalues not converged
     c_bands:  4 eigenvalues not converged
     c_bands:  1 eigenvalues not converged
     c_bands:  2 eigenvalues not converged
     c_bands:  2 eigenvalues not converged
     c_bands:  2 eigenvalues not converged
     c_bands:  1 eigenvalues not converged
     c_bands:  1 eigenvalues not converged
     c_bands:  1 eigenvalues not converged
     c_bands:  2 eigenvalues not converged
     c_bands:  2 eigenvalues not converged
     c_bands:  2 eigenvalues not converged
     c_bands:  3 eigenvalues not converged
     c_bands:  4 eigenvalues not converged
     c_bands:  2 eigenvalues not converged
     c_bands:  1 eigenvalues not converged
     c_bands:  1 eigenvalues not converged
     c_bands:  1 eigenvalues not converged
     c_bands:  1 eigenvalues not converged
     c_bands:  2 eigenvalues not converged
     c_bands:  2 eigenvalues not converged
     c_bands:  1 eigenvalues not converged
     c_bands:  2 eigenvalues not converged
     c_bands:  1 eigenvalues not converged
     c_bands:  1 eigenvalues not converged
     c_bands:  1 eigenvalues not converged
     c_bands:  1 eigenvalues not converged
     c_bands:  1 eigenvalues not converged
     c_bands:  1 eigenvalues not converged
     c_bands:  1 eigenvalues not converged
     c_bands:  3 eigenvalues not converged
     c_bands:  2 eigenvalues not converged
     c_bands:  3 eigenvalues not converged
     c_bands:  1 eigenvalues not converged
     c_bands:  4 eigenvalues not converged
     c_bands:  1 eigenvalues not converged
     c_bands:  1 eigenvalues not converged
     c_bands:  1 eigenvalues not converged
     c_bands:  1 eigenvalues not converged
     c_bands:  1 eigenvalues not converged
     c_bands:  1 eigenvalues not converged
     c_bands:  1 eigenvalues not converged
     c_bands:  1 eigenvalues not converged
     c_bands:  2 eigenvalues not converged
     c_bands:  3 eigenvalues not converged
     c_bands:  1 eigenvalues not converged
     c_bands:  1 eigenvalues not converged
     c_bands:  1 eigenvalues not converged
     c_bands:  4 eigenvalues not converged
     c_bands:  1 eigenvalues not converged
     c_bands:  1 eigenvalues not converged
     c_bands:  1 eigenvalues not converged
     c_bands:  1 eigenvalues not converged
     c_bands:  4 eigenvalues not converged
     c_bands:  2 eigenvalues not converged
     c_bands:  2 eigenvalues not converged
     c_bands:  1 eigenvalues not converged
     c_bands:  2 eigenvalues not converged
     c_bands:  3 eigenvalues not converged
     c_bands:  1 eigenvalues not converged
     c_bands:  3 eigenvalues not converged
     c_bands:  1 eigenvalues not converged
     c_bands:  1 eigenvalues not converged
     c_bands:  1 eigenvalues not converged
     c_bands:  4 eigenvalues not converged
     c_bands:  2 eigenvalues not converged
     c_bands:  1 eigenvalues not converged
     c_bands:  1 eigenvalues not converged
     c_bands:  2 eigenvalues not converged
     c_bands:  4 eigenvalues not converged
     c_bands:  3 eigenvalues not converged
     c_bands:  1 eigenvalues not converged
     c_bands:  1 eigenvalues not converged
     c_bands:  1 eigenvalues not converged
     c_bands:  3 eigenvalues not converged
     c_bands:  2 eigenvalues not converged
     ethr =  1.00E-02,  avg # of iterations = 19.9

     total cpu time spent up to now is     1271.8 secs

     total energy              =   -1954.61798287 Ry
     estimated scf accuracy    <    3658.50450545 Ry

     iteration #  5     ecut=    60.00 Ry     beta= 0.70
     Davidson diagonalization with overlap
     c_bands:  2 eigenvalues not converged
     c_bands:  4 eigenvalues not converged
     c_bands:  4 eigenvalues not converged
     c_bands:  5 eigenvalues not converged
     c_bands:  2 eigenvalues not converged
     c_bands:  1 eigenvalues not converged
     c_bands:  3 eigenvalues not converged
     c_bands:  5 eigenvalues not converged
     c_bands:  5 eigenvalues not converged
     c_bands:  5 eigenvalues not converged
     c_bands:  3 eigenvalues not converged
     c_bands:  4 eigenvalues not converged
     c_bands:  5 eigenvalues not converged
     c_bands:  4 eigenvalues not converged
     c_bands:  4 eigenvalues not converged
     c_bands:  5 eigenvalues not converged
     c_bands:  4 eigenvalues not converged
     c_bands:  2 eigenvalues not converged
     c_bands:  5 eigenvalues not converged
     c_bands:  3 eigenvalues not converged
     c_bands:  5 eigenvalues not converged
     c_bands:  4 eigenvalues not converged
     c_bands:  5 eigenvalues not converged
     c_bands:  4 eigenvalues not converged
     c_bands:  4 eigenvalues not converged
     c_bands:  2 eigenvalues not converged
     c_bands:  2 eigenvalues not converged
     c_bands:  5 eigenvalues not converged
     c_bands:  4 eigenvalues not converged
     c_bands:  3 eigenvalues not converged
     c_bands:  3 eigenvalues not converged
     c_bands:  2 eigenvalues not converged
     c_bands:  4 eigenvalues not converged
     c_bands:  4 eigenvalues not converged
     c_bands:  4 eigenvalues not converged
     c_bands:  5 eigenvalues not converged
     c_bands:  2 eigenvalues not converged
     c_bands:  4 eigenvalues not converged
     c_bands:  3 eigenvalues not converged
     c_bands:  4 eigenvalues not converged
     c_bands:  4 eigenvalues not converged
     c_bands:  5 eigenvalues not converged
     c_bands:  5 eigenvalues not converged
     c_bands:  3 eigenvalues not converged
     c_bands:  3 eigenvalues not converged
     c_bands:  4 eigenvalues not converged
     c_bands:  4 eigenvalues not converged
     c_bands:  4 eigenvalues not converged
     c_bands:  4 eigenvalues not converged
     c_bands:  4 eigenvalues not converged
     c_bands:  3 eigenvalues not converged
     c_bands:  4 eigenvalues not converged
     c_bands:  3 eigenvalues not converged
     c_bands:  5 eigenvalues not converged
     c_bands:  4 eigenvalues not converged
     c_bands:  2 eigenvalues not converged
     c_bands:  5 eigenvalues not converged
     c_bands:  4 eigenvalues not converged
     c_bands:  4 eigenvalues not converged
     c_bands:  2 eigenvalues not converged
     c_bands:  3 eigenvalues not converged
     c_bands:  2 eigenvalues not converged
     c_bands:  5 eigenvalues not converged
     c_bands:  5 eigenvalues not converged
     c_bands:  4 eigenvalues not converged
     c_bands:  5 eigenvalues not converged
     c_bands:  4 eigenvalues not converged
     c_bands:  4 eigenvalues not converged
     c_bands:  5 eigenvalues not converged
     c_bands:  5 eigenvalues not converged
     c_bands:  3 eigenvalues not converged
     c_bands:  2 eigenvalues not converged
     c_bands:  2 eigenvalues not converged
     c_bands:  3 eigenvalues not converged
     c_bands:  5 eigenvalues not converged
     c_bands:  5 eigenvalues not converged
     c_bands:  5 eigenvalues not converged
     ethr =  1.00E-02,  avg # of iterations = 22.5

     total cpu time spent up to now is     1367.0 secs

     total energy              =   -2122.01347838 Ry
     estimated scf accuracy    <     211.08654845 Ry

     iteration #  6     ecut=    60.00 Ry     beta= 0.70
     Davidson diagonalization with overlap
     ethr =  1.00E-02,  avg # of iterations =  4.8

     total cpu time spent up to now is     1400.7 secs

     total energy              =   -2119.55843986 Ry
     estimated scf accuracy    <      99.14665896 Ry

     iteration #  7     ecut=    60.00 Ry     beta= 0.70
     Davidson diagonalization with overlap
     ethr =  1.00E-02,  avg # of iterations =  1.9

     total cpu time spent up to now is     1423.4 secs

     total energy              =   -2096.88751346 Ry
     estimated scf accuracy    <      81.80722170 Ry

     iteration #  8     ecut=    60.00 Ry     beta= 0.70
     Davidson diagonalization with overlap
     ethr =  1.00E-02,  avg # of iterations =  7.9

     total cpu time spent up to now is     1456.1 secs

     total energy              =   -2089.40495578 Ry
     estimated scf accuracy    <      42.23344028 Ry

     iteration #  9     ecut=    60.00 Ry     beta= 0.70
     Davidson diagonalization with overlap
     ethr =  1.00E-02,  avg # of iterations =  2.0

     total cpu time spent up to now is     1479.6 secs

     total energy              =   -2078.31377767 Ry
     estimated scf accuracy    <      30.78326067 Ry

     iteration # 10     ecut=    60.00 Ry     beta= 0.70
     Davidson diagonalization with overlap
     ethr =  1.00E-02,  avg # of iterations =  5.1

     negative rho (up, down):  2.252E-02 0.000E+00

     total cpu time spent up to now is     1508.1 secs

     total energy              =   -2069.70890218 Ry
     estimated scf accuracy    <      14.99650118 Ry

     iteration # 11     ecut=    60.00 Ry     beta= 0.70
     Davidson diagonalization with overlap
     ethr =  1.00E-02,  avg # of iterations = 13.0

     total cpu time spent up to now is     1593.7 secs

     total energy              =   -1518.08706786 Ry
     estimated scf accuracy    <    6126.04690116 Ry

     iteration # 12     ecut=    60.00 Ry     beta= 0.70
     Davidson diagonalization with overlap
     ethr =  1.00E-02,  avg # of iterations =  9.8

     total cpu time spent up to now is     1651.7 secs

     total energy              =   -2081.14266613 Ry
     estimated scf accuracy    <      21.21051198 Ry

     iteration # 13     ecut=    60.00 Ry     beta= 0.70
     Davidson diagonalization with overlap
     ethr =  1.00E-02,  avg # of iterations =  4.0

     total cpu time spent up to now is     1677.6 secs

     total energy              =   -2079.92521803 Ry
     estimated scf accuracy    <      28.00759343 Ry

     iteration # 14     ecut=    60.00 Ry     beta= 0.70
     Davidson diagonalization with overlap
     ethr =  1.00E-02,  avg # of iterations =  1.1

     total cpu time spent up to now is     1699.5 secs

     total energy              =   -2080.60336823 Ry
     estimated scf accuracy    <      18.83408261 Ry

     iteration # 15     ecut=    60.00 Ry     beta= 0.70
     Davidson diagonalization with overlap
     ethr =  1.00E-02,  avg # of iterations =  1.0

     total cpu time spent up to now is     1721.3 secs

     total energy              =   -2081.24902332 Ry
     estimated scf accuracy    <      18.58573439 Ry

     iteration # 16     ecut=    60.00 Ry     beta= 0.70
     Davidson diagonalization with overlap
     ethr =  1.00E-02,  avg # of iterations =  1.0

     total cpu time spent up to now is     1743.0 secs

     total energy              =   -2082.27045225 Ry
     estimated scf accuracy    <      19.24901262 Ry

     iteration # 17     ecut=    60.00 Ry     beta= 0.70
     Davidson diagonalization with overlap
     ethr =  1.00E-02,  avg # of iterations =  1.0

     total cpu time spent up to now is     1764.8 secs

     total energy              =   -2081.99398236 Ry
     estimated scf accuracy    <      20.17673216 Ry

     iteration # 18     ecut=    60.00 Ry     beta= 0.70
     Davidson diagonalization with overlap
     ethr =  1.00E-02,  avg # of iterations =  1.0

     total cpu time spent up to now is     1786.6 secs

     total energy              =   -2081.21476581 Ry
     estimated scf accuracy    <      19.75770858 Ry

     iteration # 19     ecut=    60.00 Ry     beta= 0.70
     Davidson diagonalization with overlap
     ethr =  1.00E-02,  avg # of iterations =  1.0

     total cpu time spent up to now is     1808.4 secs

     total energy              =   -2078.93587177 Ry
     estimated scf accuracy    <      19.52495954 Ry

     iteration # 20     ecut=    60.00 Ry     beta= 0.70
     Davidson diagonalization with overlap
     ethr =  1.00E-02,  avg # of iterations =  1.0

     negative rho (up, down):  6.041E-02 0.000E+00

     total cpu time spent up to now is     1830.2 secs

     total energy              =   -2065.11176013 Ry
     estimated scf accuracy    <      16.28341068 Ry

     iteration # 21     ecut=    60.00 Ry     beta= 0.70
     Davidson diagonalization with overlap
     ethr =  1.00E-02,  avg # of iterations = 10.8

     total cpu time spent up to now is     1877.4 secs

     total energy              =   -2013.14458489 Ry
     estimated scf accuracy    <     594.88386668 Ry

     iteration # 22     ecut=    60.00 Ry     beta= 0.70
     Davidson diagonalization with overlap
     ethr =  1.00E-02,  avg # of iterations =  7.4

     total cpu time spent up to now is     1913.6 secs

     total energy              =   -2067.46204423 Ry
     estimated scf accuracy    <       3.26614859 Ry

     iteration # 23     ecut=    60.00 Ry     beta= 0.70
     Davidson diagonalization with overlap
     ethr =  3.63E-03,  avg # of iterations =  4.3

     total cpu time spent up to now is     1940.0 secs

     total energy              =   -2067.73907426 Ry
     estimated scf accuracy    <       0.84843173 Ry

     iteration # 24     ecut=    60.00 Ry     beta= 0.70
     Davidson diagonalization with overlap
     ethr =  9.43E-04,  avg # of iterations =  7.0

     total cpu time spent up to now is     1968.0 secs

     total energy              =   -2067.76151029 Ry
     estimated scf accuracy    <       0.86882437 Ry

     iteration # 25     ecut=    60.00 Ry     beta= 0.70
     Davidson diagonalization with overlap
     ethr =  9.43E-04,  avg # of iterations =  1.1

     total cpu time spent up to now is     1989.9 secs

     total energy              =   -2067.78020527 Ry
     estimated scf accuracy    <       0.86368282 Ry

     iteration # 26     ecut=    60.00 Ry     beta= 0.70
     Davidson diagonalization with overlap
     ethr =  9.43E-04,  avg # of iterations =  1.4

     total cpu time spent up to now is     2012.2 secs

     total energy              =   -2068.09443989 Ry
     estimated scf accuracy    <       0.98538401 Ry

     iteration # 27     ecut=    60.00 Ry     beta= 0.70
     Davidson diagonalization with overlap
     ethr =  9.43E-04,  avg # of iterations =  2.7

     total cpu time spent up to now is     2037.2 secs

     total energy              =   -2067.47429709 Ry
     estimated scf accuracy    <       1.57664316 Ry

     iteration # 28     ecut=    60.00 Ry     beta= 0.70
     Davidson diagonalization with overlap
     ethr =  9.43E-04,  avg # of iterations =  5.5

     total cpu time spent up to now is     2066.8 secs

     total energy              =   -2067.35076023 Ry
     estimated scf accuracy    <       3.92150334 Ry

     iteration # 29     ecut=    60.00 Ry     beta= 0.70
     Davidson diagonalization with overlap
     ethr =  9.43E-04,  avg # of iterations =  2.3

     total cpu time spent up to now is     2090.8 secs

     total energy              =   -2067.43403535 Ry
     estimated scf accuracy    <       0.46356141 Ry

     iteration # 30     ecut=    60.00 Ry     beta= 0.70
     Davidson diagonalization with overlap
     ethr =  5.15E-04,  avg # of iterations =  1.4

     negative rho (up, down):  4.834E-04 0.000E+00

     total cpu time spent up to now is     2113.2 secs

     total energy              =   -2067.39540832 Ry
     estimated scf accuracy    <       0.18462657 Ry

     iteration # 31     ecut=    60.00 Ry     beta= 0.70
     Davidson diagonalization with overlap
     ethr =  2.05E-04,  avg # of iterations =  6.5

     negative rho (up, down):  1.243E-03 0.000E+00

     total cpu time spent up to now is     2140.3 secs

     total energy              =   -2067.39636687 Ry
     estimated scf accuracy    <       0.15285056 Ry

     iteration # 32     ecut=    60.00 Ry     beta= 0.70
     Davidson diagonalization with overlap
     ethr =  1.70E-04,  avg # of iterations =  1.1

     negative rho (up, down):  1.287E-03 0.000E+00

     total cpu time spent up to now is     2162.2 secs

     total energy              =   -2067.39119185 Ry
     estimated scf accuracy    <       0.02772660 Ry

     iteration # 33     ecut=    60.00 Ry     beta= 0.70
     Davidson diagonalization with overlap
     c_bands:  1 eigenvalues not converged
     c_bands:  1 eigenvalues not converged
     ethr =  3.08E-05,  avg # of iterations =  7.8

     negative rho (up, down):  7.353E-04 0.000E+00

     total cpu time spent up to now is     2193.3 secs

     total energy              =   -2067.39368957 Ry
     estimated scf accuracy    <       0.00601226 Ry

     iteration # 34     ecut=    60.00 Ry     beta= 0.70
     Davidson diagonalization with overlap
     c_bands:  1 eigenvalues not converged
     ethr =  6.68E-06,  avg # of iterations =  6.2

     negative rho (up, down):  8.651E-04 0.000E+00

     total cpu time spent up to now is     2222.7 secs

     total energy              =   -2067.39422312 Ry
     estimated scf accuracy    <       0.01325038 Ry

     iteration # 35     ecut=    60.00 Ry     beta= 0.70
     Davidson diagonalization with overlap
     ethr =  6.68E-06,  avg # of iterations =  2.3

     negative rho (up, down):  8.643E-04 0.000E+00

     total cpu time spent up to now is     2246.8 secs

     total energy              =   -2067.39476901 Ry
     estimated scf accuracy    <       0.00072709 Ry

     iteration # 36     ecut=    60.00 Ry     beta= 0.70
     Davidson diagonalization with overlap
     c_bands:  1 eigenvalues not converged
     ethr =  8.08E-07,  avg # of iterations =  4.0

     negative rho (up, down):  8.318E-04 0.000E+00

     total cpu time spent up to now is     2271.7 secs

     total energy              =   -2067.39479903 Ry
     estimated scf accuracy    <       0.00012684 Ry

     iteration # 37     ecut=    60.00 Ry     beta= 0.70
     Davidson diagonalization with overlap
     ethr =  1.41E-07,  avg # of iterations =  2.1

     negative rho (up, down):  7.923E-04 0.000E+00

     total cpu time spent up to now is     2295.6 secs

     total energy              =   -2067.39480569 Ry
     estimated scf accuracy    <       0.00001322 Ry

     iteration # 38     ecut=    60.00 Ry     beta= 0.70
     Davidson diagonalization with overlap
     ethr =  1.47E-08,  avg # of iterations =  2.1

     negative rho (up, down):  7.890E-04 0.000E+00

     total cpu time spent up to now is     2322.3 secs

     total energy              =   -2067.39480791 Ry
     estimated scf accuracy    <       0.00000268 Ry

     iteration # 39     ecut=    60.00 Ry     beta= 0.70
     Davidson diagonalization with overlap
     ethr =  2.98E-09,  avg # of iterations =  2.1

     negative rho (up, down):  8.051E-04 0.000E+00

     total cpu time spent up to now is     2347.5 secs

     total energy              =   -2067.39480791 Ry
     estimated scf accuracy    <       0.00000439 Ry

     iteration # 40     ecut=    60.00 Ry     beta= 0.70
     Davidson diagonalization with overlap
     ethr =  2.98E-09,  avg # of iterations =  1.6

     negative rho (up, down):  8.036E-04 0.000E+00

     total cpu time spent up to now is     2370.2 secs

     total energy              =   -2067.39480819 Ry
     estimated scf accuracy    <       0.00000051 Ry

     iteration # 41     ecut=    60.00 Ry     beta= 0.70
     Davidson diagonalization with overlap
     ethr =  5.69E-10,  avg # of iterations =  1.9

     negative rho (up, down):  8.047E-04 0.000E+00

     total cpu time spent up to now is     2393.7 secs

     total energy              =   -2067.39480821 Ry
     estimated scf accuracy    <       0.00000002 Ry

     iteration # 42     ecut=    60.00 Ry     beta= 0.70
     Davidson diagonalization with overlap
     ethr =  2.49E-11,  avg # of iterations =  3.1

     negative rho (up, down):  8.049E-04 0.000E+00

     total cpu time spent up to now is     2421.2 secs

     total energy              =   -2067.39480822 Ry
     estimated scf accuracy    <       0.00000001 Ry

     iteration # 43     ecut=    60.00 Ry     beta= 0.70
     Davidson diagonalization with overlap
     ethr =  1.11E-11,  avg # of iterations =  2.0

     negative rho (up, down):  8.052E-04 0.000E+00

     total cpu time spent up to now is     2445.8 secs

     total energy              =   -2067.39480821 Ry
     estimated scf accuracy    <          1.1E-09 Ry

     iteration # 44     ecut=    60.00 Ry     beta= 0.70
     Davidson diagonalization with overlap
     ethr =  1.25E-12,  avg # of iterations =  3.0

     negative rho (up, down):  8.054E-04 0.000E+00

     total cpu time spent up to now is     2471.5 secs

     total energy              =   -2067.39480821 Ry
     estimated scf accuracy    <          1.4E-10 Ry

     iteration # 45     ecut=    60.00 Ry     beta= 0.70
     Davidson diagonalization with overlap
     ethr =  1.52E-13,  avg # of iterations =  3.0

     negative rho (up, down):  8.054E-04 0.000E+00

     total cpu time spent up to now is     2500.1 secs

     total energy              =   -2067.39480821 Ry
     estimated scf accuracy    <          5.2E-11 Ry

     iteration # 46     ecut=    60.00 Ry     beta= 0.70
     Davidson diagonalization with overlap
     ethr =  1.00E-13,  avg # of iterations =  2.0

     negative rho (up, down):  8.054E-04 0.000E+00

     total cpu time spent up to now is     2524.6 secs

     total energy              =   -2067.39480821 Ry
     estimated scf accuracy    <          4.0E-12 Ry

     iteration # 47     ecut=    60.00 Ry     beta= 0.70
     Davidson diagonalization with overlap
     ethr =  1.00E-13,  avg # of iterations =  1.0

     negative rho (up, down):  8.055E-04 0.000E+00

     total cpu time spent up to now is     2546.5 secs

     End of self-consistent calculation

     Number of k-points >= 100: set verbosity='high' to print the bands.

     the Fermi energy is     2.4341 ev

!    total energy              =   -2067.39480821 Ry
     estimated scf accuracy    <          4.3E-13 Ry
     smearing contrib. (-TS)   =       0.00000284 Ry
     internal energy E=F+TS    =   -2067.39481105 Ry

     The total energy is F=E-TS. E is the sum of the following terms:
     one-electron contribution =  -19823.19876583 Ry
     hartree contribution      =    9962.54012655 Ry
     xc contribution           =    -211.41009430 Ry
     ewald contribution        =    8004.67392252 Ry

     convergence has been achieved in  47 iterations

     negative rho (up, down):  8.055E-04 0.000E+00

     Forces acting on atoms (cartesian axes, Ry/au):

     atom    1 type  1   force =     0.00271107    0.00036481   -0.00566031
     atom    2 type  2   force =    -0.00255101   -0.00180033    0.00443470
     atom    3 type  1   force =    -0.00363665   -0.00051084   -0.01978915
     atom    4 type  2   force =    -0.02804733   -0.00762502   -0.03676100
     atom    5 type  1   force =    -0.02124052   -0.00564438    0.00878613
     atom    6 type  3   force =     0.05276444    0.01521576    0.04898964

     Total force =     0.092984     Total SCF correction =     0.000004


     Computing stress (Cartesian axis) and pressure


     negative rho (up, down):  8.055E-04 0.000E+00
          total   stress  (Ry/bohr**3)                   (kbar)     P=        6.19
  -0.00000134   0.00004431   0.00009720           -0.20        6.52       14.30
   0.00004431  -0.00000349   0.00003290            6.52       -0.51        4.84
   0.00009720   0.00003290   0.00013105           14.30        4.84       19.28

     Energy error            =      3.4E-02 Ry
     Gradient error          =      5.3E-02 Ry/Bohr
     Cell gradient error     =      6.5E+00 kbar

     number of scf cycles    =   2
     number of bfgs steps    =   1

     enthalpy           old  =   -2067.3606777335 Ry
     enthalpy           new  =   -2067.3948082145 Ry

     CASE: enthalpy          _new < enthalpy          _old

     new trust radius        =       0.1315331787 bohr
     new conv_thr            =            5.3E-13 Ry

     new unit-cell volume =   1644.22482 a.u.^3 (   243.64898 Ang^3 )
     density =      3.87017 g/cm^3

CELL_PARAMETERS (alat=  5.55000000)
   1.054305689   0.005100414   0.000000000
  -0.522735054   0.909725008   0.000000000
   0.000000000   0.000000000  10.000000000

ATOMIC_POSITIONS (alat)
Ta            0.0040186556        0.6079700018        0.6312537199
C            -0.0010005674       -0.0003113022        1.0288763120
Ta            0.5281887681        0.3064519932        1.4693385726
C            -0.0115417467        0.6058489485        1.9119438970
Ta           -0.0232095143       -0.0196675962        2.3167858324
H             0.3737863799        0.3581658289        2.6341923660



     Writing output data file /scratch/as3359/Ta3C2H_loop/Ta.save/
     NEW-OLD atomic charge density approx. for the potential

     Check: negative core charge=   -0.000002

     negative rho (up, down):  8.014E-04 0.000E+00
     extrapolated charge   90.01998, renormalised to   90.00000

     total cpu time spent up to now is     2573.6 secs

     Self-consistent Calculation

     iteration #  1     ecut=    60.00 Ry     beta= 0.70
     Davidson diagonalization with overlap
     c_bands:  1 eigenvalues not converged
     c_bands:  1 eigenvalues not converged
     c_bands:  1 eigenvalues not converged
     c_bands:  1 eigenvalues not converged
     c_bands:  1 eigenvalues not converged
     c_bands:  1 eigenvalues not converged
     c_bands:  1 eigenvalues not converged
     c_bands:  1 eigenvalues not converged
     c_bands:  1 eigenvalues not converged
     c_bands:  1 eigenvalues not converged
     c_bands:  1 eigenvalues not converged
     c_bands:  1 eigenvalues not converged
     c_bands:  1 eigenvalues not converged
     c_bands:  1 eigenvalues not converged
     c_bands:  1 eigenvalues not converged
     c_bands:  1 eigenvalues not converged
     c_bands:  1 eigenvalues not converged
     c_bands:  1 eigenvalues not converged
     c_bands:  1 eigenvalues not converged
     c_bands:  1 eigenvalues not converged
     c_bands:  1 eigenvalues not converged
     c_bands:  1 eigenvalues not converged
     c_bands:  1 eigenvalues not converged
     c_bands:  1 eigenvalues not converged
     c_bands:  1 eigenvalues not converged
     c_bands:  1 eigenvalues not converged
     c_bands:  1 eigenvalues not converged
     c_bands:  1 eigenvalues not converged
     c_bands:  1 eigenvalues not converged
     c_bands:  1 eigenvalues not converged
     c_bands:  1 eigenvalues not converged
     c_bands:  1 eigenvalues not converged
     c_bands:  1 eigenvalues not converged
     c_bands:  1 eigenvalues not converged
     c_bands:  1 eigenvalues not converged
     c_bands:  1 eigenvalues not converged
     c_bands:  1 eigenvalues not converged
     c_bands:  1 eigenvalues not converged
     c_bands:  1 eigenvalues not converged
     c_bands:  1 eigenvalues not converged
     c_bands:  1 eigenvalues not converged
     c_bands:  1 eigenvalues not converged
     c_bands:  1 eigenvalues not converged
     c_bands:  1 eigenvalues not converged
     c_bands:  1 eigenvalues not converged
     c_bands:  1 eigenvalues not converged
     ethr =  1.00E-06,  avg # of iterations = 15.7

     negative rho (up, down):  7.769E-04 0.000E+00

     total cpu time spent up to now is     2646.0 secs

     total energy              =   -2067.38806384 Ry
     estimated scf accuracy    <       0.02038809 Ry

     iteration #  2     ecut=    60.00 Ry     beta= 0.70
     Davidson diagonalization with overlap
     ethr =  2.27E-05,  avg # of iterations = 12.7

     negative rho (up, down):  7.879E-04 0.000E+00

     total cpu time spent up to now is     2689.1 secs

     total energy              =   -2067.14996395 Ry
     estimated scf accuracy    <      12.71540490 Ry

     iteration #  3     ecut=    60.00 Ry     beta= 0.70
     Davidson diagonalization with overlap
     c_bands:  1 eigenvalues not converged
     ethr =  2.27E-05,  avg # of iterations = 14.1

     negative rho (up, down):  7.921E-04 0.000E+00

     total cpu time spent up to now is     2732.8 secs

     total energy              =   -2067.39178742 Ry
     estimated scf accuracy    <       0.23428226 Ry

     iteration #  4     ecut=    60.00 Ry     beta= 0.70
     Davidson diagonalization with overlap
     ethr =  2.27E-05,  avg # of iterations =  7.8

     negative rho (up, down):  7.955E-04 0.000E+00

     total cpu time spent up to now is     2763.8 secs

     total energy              =   -2067.40567930 Ry
     estimated scf accuracy    <       0.00888908 Ry

     iteration #  5     ecut=    60.00 Ry     beta= 0.70
     Davidson diagonalization with overlap
     ethr =  9.88E-06,  avg # of iterations =  4.1

     negative rho (up, down):  8.000E-04 0.000E+00

     total cpu time spent up to now is     2789.6 secs

     total energy              =   -2067.40588235 Ry
     estimated scf accuracy    <       0.00470194 Ry

     iteration #  6     ecut=    60.00 Ry     beta= 0.70
     Davidson diagonalization with overlap
     c_bands:  1 eigenvalues not converged
     c_bands:  1 eigenvalues not converged
     ethr =  5.22E-06,  avg # of iterations =  4.5

     negative rho (up, down):  8.009E-04 0.000E+00

     total cpu time spent up to now is     2814.5 secs

     total energy              =   -2067.40612270 Ry
     estimated scf accuracy    <       0.00021769 Ry

     iteration #  7     ecut=    60.00 Ry     beta= 0.70
     Davidson diagonalization with overlap
     ethr =  2.42E-07,  avg # of iterations =  5.0

     negative rho (up, down):  8.006E-04 0.000E+00

     total cpu time spent up to now is     2842.2 secs

     total energy              =   -2067.40615720 Ry
     estimated scf accuracy    <       0.00003941 Ry

     iteration #  8     ecut=    60.00 Ry     beta= 0.70
     Davidson diagonalization with overlap
     ethr =  4.38E-08,  avg # of iterations =  2.2

     negative rho (up, down):  8.006E-04 0.000E+00

     total cpu time spent up to now is     2866.5 secs

     total energy              =   -2067.40616061 Ry
     estimated scf accuracy    <       0.00001132 Ry

     iteration #  9     ecut=    60.00 Ry     beta= 0.70
     Davidson diagonalization with overlap
     ethr =  1.26E-08,  avg # of iterations =  2.0

     negative rho (up, down):  8.007E-04 0.000E+00

     total cpu time spent up to now is     2890.2 secs

     total energy              =   -2067.40616138 Ry
     estimated scf accuracy    <       0.00000105 Ry

     iteration # 10     ecut=    60.00 Ry     beta= 0.70
     Davidson diagonalization with overlap
     ethr =  1.17E-09,  avg # of iterations =  2.2

     negative rho (up, down):  8.007E-04 0.000E+00

     total cpu time spent up to now is     2915.8 secs

     total energy              =   -2067.40616155 Ry
     estimated scf accuracy    <       0.00000015 Ry

     iteration # 11     ecut=    60.00 Ry     beta= 0.70
     Davidson diagonalization with overlap
     ethr =  1.69E-10,  avg # of iterations =  2.1

     negative rho (up, down):  8.008E-04 0.000E+00

     total cpu time spent up to now is     2941.0 secs

     total energy              =   -2067.40616156 Ry
     estimated scf accuracy    <       0.00000001 Ry

     iteration # 12     ecut=    60.00 Ry     beta= 0.70
     Davidson diagonalization with overlap
     ethr =  1.48E-11,  avg # of iterations =  3.1

     negative rho (up, down):  8.008E-04 0.000E+00

     total cpu time spent up to now is     2967.6 secs

     total energy              =   -2067.40616157 Ry
     estimated scf accuracy    <          6.5E-09 Ry

     iteration # 13     ecut=    60.00 Ry     beta= 0.70
     Davidson diagonalization with overlap
     ethr =  7.20E-12,  avg # of iterations =  1.5

     negative rho (up, down):  8.008E-04 0.000E+00

     total cpu time spent up to now is     2990.0 secs

     total energy              =   -2067.40616157 Ry
     estimated scf accuracy    <          2.2E-10 Ry

     iteration # 14     ecut=    60.00 Ry     beta= 0.70
     Davidson diagonalization with overlap
     ethr =  2.48E-13,  avg # of iterations =  4.1

     negative rho (up, down):  8.008E-04 0.000E+00

     total cpu time spent up to now is     3019.3 secs

     total energy              =   -2067.40616157 Ry
     estimated scf accuracy    <          1.0E-09 Ry

     iteration # 15     ecut=    60.00 Ry     beta= 0.70
     Davidson diagonalization with overlap
     ethr =  2.48E-13,  avg # of iterations =  2.0

     negative rho (up, down):  8.008E-04 0.000E+00

     total cpu time spent up to now is     3043.1 secs

     total energy              =   -2067.40616157 Ry
     estimated scf accuracy    <          1.2E-10 Ry

     iteration # 16     ecut=    60.00 Ry     beta= 0.70
     Davidson diagonalization with overlap
     ethr =  1.28E-13,  avg # of iterations =  1.6

     negative rho (up, down):  8.008E-04 0.000E+00

     total cpu time spent up to now is     3065.8 secs

     total energy              =   -2067.40616157 Ry
     estimated scf accuracy    <          2.0E-12 Ry

     iteration # 17     ecut=    60.00 Ry     beta= 0.70
     Davidson diagonalization with overlap
     ethr =  1.00E-13,  avg # of iterations =  1.0

     negative rho (up, down):  8.008E-04 0.000E+00

     total cpu time spent up to now is     3087.6 secs

     total energy              =   -2067.40616157 Ry
     estimated scf accuracy    <          5.6E-13 Ry

     iteration # 18     ecut=    60.00 Ry     beta= 0.70
     Davidson diagonalization with overlap
     ethr =  1.00E-13,  avg # of iterations =  1.0

     negative rho (up, down):  8.008E-04 0.000E+00

     total cpu time spent up to now is     3109.4 secs

     End of self-consistent calculation

     Number of k-points >= 100: set verbosity='high' to print the bands.

     the Fermi energy is     2.4273 ev

!    total energy              =   -2067.40616157 Ry
     estimated scf accuracy    <          6.5E-14 Ry
     smearing contrib. (-TS)   =      -0.00001047 Ry
     internal energy E=F+TS    =   -2067.40615109 Ry

     The total energy is F=E-TS. E is the sum of the following terms:
     one-electron contribution =  -19799.84961749 Ry
     hartree contribution      =    9950.90166691 Ry
     xc contribution           =    -211.38214305 Ry
     ewald contribution        =    7992.92394253 Ry

     convergence has been achieved in  18 iterations

     negative rho (up, down):  8.008E-04 0.000E+00

     Forces acting on atoms (cartesian axes, Ry/au):

     atom    1 type  1   force =     0.00131047    0.00006057   -0.00832880
     atom    2 type  2   force =    -0.00237717   -0.00146410   -0.00365642
     atom    3 type  1   force =    -0.00996423   -0.00252422   -0.01371668
     atom    4 type  2   force =    -0.01240716   -0.00374961   -0.01162102
     atom    5 type  1   force =    -0.00953611    0.01829370    0.00568770
     atom    6 type  3   force =     0.03297420   -0.01061634    0.03163523

     Total force =     0.057861     Total SCF correction =     0.000003


     Computing stress (Cartesian axis) and pressure


     negative rho (up, down):  8.008E-04 0.000E+00
          total   stress  (Ry/bohr**3)                   (kbar)     P=        1.54
  -0.00005173   0.00001875   0.00008366           -7.61        2.76       12.31
   0.00001875  -0.00003241   0.00000701            2.76       -4.77        1.03
   0.00008366   0.00000701   0.00011558           12.31        1.03       17.00

     Energy error            =      1.1E-02 Ry
     Gradient error          =      3.3E-02 Ry/Bohr
     Cell gradient error     =      7.6E+00 kbar

     number of scf cycles    =   3
     number of bfgs steps    =   2

     enthalpy           old  =   -2067.3948082145 Ry
     enthalpy           new  =   -2067.4061615654 Ry

     CASE: enthalpy          _new < enthalpy          _old

     new trust radius        =       0.1741245800 bohr
     new conv_thr            =            3.3E-13 Ry

     new unit-cell volume =   1638.42587 a.u.^3 (   242.78966 Ang^3 )
     density =      3.88386 g/cm^3

CELL_PARAMETERS (alat=  5.55000000)
   1.052055463   0.007543591   0.000000000
  -0.519488889   0.907255864   0.000000000
   0.000000000   0.000000000  10.000000000

ATOMIC_POSITIONS (alat)
Ta            0.0063190101        0.6071573000        0.6271758477
C            -0.0022497413       -0.0010609211        1.0287582755
Ta            0.5238470138        0.3062437561        1.4611988206
C            -0.0195410117        0.6024969786        1.9010781081
Ta           -0.0324625629       -0.0172655278        2.3187504243
H             0.3968023097        0.3603463377        2.6554292238



     Writing output data file /scratch/as3359/Ta3C2H_loop/Ta.save/
     NEW-OLD atomic charge density approx. for the potential

     Check: negative core charge=   -0.000002

     negative rho (up, down):  8.335E-04 0.000E+00
     extrapolated charge   89.68147, renormalised to   90.00000

     total cpu time spent up to now is     3136.7 secs

     Self-consistent Calculation

     iteration #  1     ecut=    60.00 Ry     beta= 0.70
     Davidson diagonalization with overlap
     c_bands:  1 eigenvalues not converged
     c_bands:  1 eigenvalues not converged
     c_bands:  1 eigenvalues not converged
     c_bands:  1 eigenvalues not converged
     c_bands:  1 eigenvalues not converged
     c_bands:  1 eigenvalues not converged
     c_bands:  1 eigenvalues not converged
     c_bands:  1 eigenvalues not converged
     c_bands:  1 eigenvalues not converged
     c_bands:  1 eigenvalues not converged
     c_bands:  1 eigenvalues not converged
     c_bands:  1 eigenvalues not converged
     c_bands:  1 eigenvalues not converged
     c_bands:  1 eigenvalues not converged
     c_bands:  2 eigenvalues not converged
     c_bands:  1 eigenvalues not converged
     c_bands:  1 eigenvalues not converged
     c_bands:  1 eigenvalues not converged
     c_bands:  1 eigenvalues not converged
     c_bands:  1 eigenvalues not converged
     c_bands:  1 eigenvalues not converged
     c_bands:  1 eigenvalues not converged
     c_bands:  1 eigenvalues not converged
     c_bands:  1 eigenvalues not converged
     c_bands:  1 eigenvalues not converged
     c_bands:  1 eigenvalues not converged
     c_bands:  1 eigenvalues not converged
     c_bands:  1 eigenvalues not converged
     c_bands:  1 eigenvalues not converged
     c_bands:  1 eigenvalues not converged
     c_bands:  1 eigenvalues not converged
     c_bands:  1 eigenvalues not converged
     c_bands:  1 eigenvalues not converged
     c_bands:  1 eigenvalues not converged
     c_bands:  1 eigenvalues not converged
     c_bands:  1 eigenvalues not converged
     c_bands:  1 eigenvalues not converged
     c_bands:  1 eigenvalues not converged
     c_bands:  1 eigenvalues not converged
     c_bands:  1 eigenvalues not converged
     c_bands:  1 eigenvalues not converged
     ethr =  1.00E-06,  avg # of iterations = 17.3

     negative rho (up, down):  9.319E-04 0.000E+00

     total cpu time spent up to now is     3228.3 secs

     total energy              =   -2064.26103810 Ry
     estimated scf accuracy    <       3.27674116 Ry

     iteration #  2     ecut=    60.00 Ry     beta= 0.70
     Davidson diagonalization with overlap
     ethr =  3.64E-03,  avg # of iterations = 14.6

     negative rho (up, down):  1.184E-04 0.000E+00

     total cpu time spent up to now is     3305.3 secs

     total energy              =   -2017.41705465 Ry
     estimated scf accuracy    <    2473.95153206 Ry

     iteration #  3     ecut=    60.00 Ry     beta= 0.70
     Davidson diagonalization with overlap
     ethr =  3.64E-03,  avg # of iterations = 10.0

     negative rho (up, down):  1.773E-05 0.000E+00

     total cpu time spent up to now is     3356.2 secs

     total energy              =   -2064.08958427 Ry
     estimated scf accuracy    <      53.83474315 Ry

     iteration #  4     ecut=    60.00 Ry     beta= 0.70
     Davidson diagonalization with overlap
     ethr =  3.64E-03,  avg # of iterations =  6.0

     negative rho (up, down):  3.622E-05 0.000E+00

     total cpu time spent up to now is     3388.7 secs

     total energy              =   -2065.40535956 Ry
     estimated scf accuracy    <      87.40357886 Ry

     iteration #  5     ecut=    60.00 Ry     beta= 0.70
     Davidson diagonalization with overlap
     ethr =  3.64E-03,  avg # of iterations =  5.6

     negative rho (up, down):  5.419E-05 0.000E+00

     total cpu time spent up to now is     3416.6 secs

     total energy              =   -2067.45648401 Ry
     estimated scf accuracy    <       1.56692777 Ry

     iteration #  6     ecut=    60.00 Ry     beta= 0.70
     Davidson diagonalization with overlap
     ethr =  1.74E-03,  avg # of iterations =  4.2

     negative rho (up, down):  5.808E-05 0.000E+00

     total cpu time spent up to now is     3441.7 secs

     total energy              =   -2067.46203574 Ry
     estimated scf accuracy    <       0.96494722 Ry

     iteration #  7     ecut=    60.00 Ry     beta= 0.70
     Davidson diagonalization with overlap
     ethr =  1.07E-03,  avg # of iterations =  1.9

     negative rho (up, down):  7.652E-05 0.000E+00

     total cpu time spent up to now is     3464.4 secs

     total energy              =   -2067.44810889 Ry
     estimated scf accuracy    <       0.67261990 Ry

     iteration #  8     ecut=    60.00 Ry     beta= 0.70
     Davidson diagonalization with overlap
     ethr =  7.47E-04,  avg # of iterations =  2.1

     negative rho (up, down):  1.047E-04 0.000E+00

     total cpu time spent up to now is     3487.4 secs

     total energy              =   -2067.43348995 Ry
     estimated scf accuracy    <       0.47595798 Ry

     iteration #  9     ecut=    60.00 Ry     beta= 0.70
     Davidson diagonalization with overlap
     ethr =  5.29E-04,  avg # of iterations =  3.6

     negative rho (up, down):  1.577E-04 0.000E+00

     total cpu time spent up to now is     3511.7 secs

     total energy              =   -2067.42003103 Ry
     estimated scf accuracy    <       0.29628053 Ry

     iteration # 10     ecut=    60.00 Ry     beta= 0.70
     Davidson diagonalization with overlap
     ethr =  3.29E-04,  avg # of iterations =  5.8

     negative rho (up, down):  7.267E-03 0.000E+00

     total cpu time spent up to now is     3537.5 secs

     total energy              =   -2067.40528372 Ry
     estimated scf accuracy    <       0.11001378 Ry

     iteration # 11     ecut=    60.00 Ry     beta= 0.70
     Davidson diagonalization with overlap
     ethr =  1.22E-04,  avg # of iterations =  7.3

     negative rho (up, down):  1.328E-03 0.000E+00

     total cpu time spent up to now is     3565.7 secs

     total energy              =   -2067.41390397 Ry
     estimated scf accuracy    <       0.03048272 Ry

     iteration # 12     ecut=    60.00 Ry     beta= 0.70
     Davidson diagonalization with overlap
     c_bands:  1 eigenvalues not converged
     c_bands:  1 eigenvalues not converged
     c_bands:  1 eigenvalues not converged
     c_bands:  1 eigenvalues not converged
     c_bands:  1 eigenvalues not converged
     c_bands:  1 eigenvalues not converged
     ethr =  3.39E-05,  avg # of iterations =  6.7

     negative rho (up, down):  6.127E-04 0.000E+00

     total cpu time spent up to now is     3592.0 secs

     total energy              =   -2067.41410658 Ry
     estimated scf accuracy    <       0.00256510 Ry

     iteration # 13     ecut=    60.00 Ry     beta= 0.70
     Davidson diagonalization with overlap
     c_bands:  1 eigenvalues not converged
     c_bands:  1 eigenvalues not converged
     c_bands:  1 eigenvalues not converged
     c_bands:  1 eigenvalues not converged
     ethr =  2.85E-06,  avg # of iterations = 10.4

     negative rho (up, down):  8.175E-04 0.000E+00

     total cpu time spent up to now is     3625.2 secs

     total energy              =   -2067.41428462 Ry
     estimated scf accuracy    <       0.00672236 Ry

     iteration # 14     ecut=    60.00 Ry     beta= 0.70
     Davidson diagonalization with overlap
     ethr =  2.85E-06,  avg # of iterations =  2.0

     negative rho (up, down):  8.261E-04 0.000E+00

     total cpu time spent up to now is     3648.4 secs

     total energy              =   -2067.41440004 Ry
     estimated scf accuracy    <       0.00115536 Ry

     iteration # 15     ecut=    60.00 Ry     beta= 0.70
     Davidson diagonalization with overlap
     ethr =  1.28E-06,  avg # of iterations =  1.3

     negative rho (up, down):  9.146E-04 0.000E+00

     total cpu time spent up to now is     3670.7 secs

     total energy              =   -2067.41439278 Ry
     estimated scf accuracy    <       0.00054738 Ry

     iteration # 16     ecut=    60.00 Ry     beta= 0.70
     Davidson diagonalization with overlap
     ethr =  6.08E-07,  avg # of iterations =  1.1

     negative rho (up, down):  8.782E-04 0.000E+00

     total cpu time spent up to now is     3692.6 secs

     total energy              =   -2067.41441243 Ry
     estimated scf accuracy    <       0.00000741 Ry

     iteration # 17     ecut=    60.00 Ry     beta= 0.70
     Davidson diagonalization with overlap
     ethr =  8.23E-09,  avg # of iterations =  3.4

     negative rho (up, down):  8.386E-04 0.000E+00

     total cpu time spent up to now is     3719.1 secs

     total energy              =   -2067.41441306 Ry
     estimated scf accuracy    <       0.00003046 Ry

     iteration # 18     ecut=    60.00 Ry     beta= 0.70
     Davidson diagonalization with overlap
     ethr =  8.23E-09,  avg # of iterations =  2.0

     negative rho (up, down):  8.220E-04 0.000E+00

     total cpu time spent up to now is     3742.8 secs

     total energy              =   -2067.41441398 Ry
     estimated scf accuracy    <       0.00000041 Ry

     iteration # 19     ecut=    60.00 Ry     beta= 0.70
     Davidson diagonalization with overlap
     ethr =  4.51E-10,  avg # of iterations =  2.8

     negative rho (up, down):  8.207E-04 0.000E+00

     total cpu time spent up to now is     3770.0 secs

     total energy              =   -2067.41441407 Ry
     estimated scf accuracy    <       0.00000014 Ry

     iteration # 20     ecut=    60.00 Ry     beta= 0.70
     Davidson diagonalization with overlap
     ethr =  1.56E-10,  avg # of iterations =  2.0

     negative rho (up, down):  8.201E-04 0.000E+00

     total cpu time spent up to now is     3796.4 secs

     total energy              =   -2067.41441409 Ry
     estimated scf accuracy    <       0.00000005 Ry

     iteration # 21     ecut=    60.00 Ry     beta= 0.70
     Davidson diagonalization with overlap
     ethr =  5.38E-11,  avg # of iterations =  1.3

     negative rho (up, down):  8.203E-04 0.000E+00

     total cpu time spent up to now is     3818.7 secs

     total energy              =   -2067.41441410 Ry
     estimated scf accuracy    <          3.0E-09 Ry

     iteration # 22     ecut=    60.00 Ry     beta= 0.70
     Davidson diagonalization with overlap
     ethr =  3.35E-12,  avg # of iterations =  3.2

     negative rho (up, down):  8.201E-04 0.000E+00

     total cpu time spent up to now is     3846.2 secs

     total energy              =   -2067.41441409 Ry
     estimated scf accuracy    <          5.1E-09 Ry

     iteration # 23     ecut=    60.00 Ry     beta= 0.70
     Davidson diagonalization with overlap
     ethr =  3.35E-12,  avg # of iterations =  2.0

     negative rho (up, down):  8.201E-04 0.000E+00

     total cpu time spent up to now is     3869.9 secs

     total energy              =   -2067.41441410 Ry
     estimated scf accuracy    <          4.0E-10 Ry

     iteration # 24     ecut=    60.00 Ry     beta= 0.70
     Davidson diagonalization with overlap
     ethr =  4.45E-13,  avg # of iterations =  2.1

     negative rho (up, down):  8.201E-04 0.000E+00

     total cpu time spent up to now is     3894.5 secs

     total energy              =   -2067.41441410 Ry
     estimated scf accuracy    <          3.3E-11 Ry

     iteration # 25     ecut=    60.00 Ry     beta= 0.70
     Davidson diagonalization with overlap
     ethr =  1.00E-13,  avg # of iterations =  2.1

     negative rho (up, down):  8.201E-04 0.000E+00

     total cpu time spent up to now is     3918.2 secs

     total energy              =   -2067.41441410 Ry
     estimated scf accuracy    <          1.5E-11 Ry

     iteration # 26     ecut=    60.00 Ry     beta= 0.70
     Davidson diagonalization with overlap
     ethr =  1.00E-13,  avg # of iterations =  1.0

     negative rho (up, down):  8.201E-04 0.000E+00

     total cpu time spent up to now is     3940.1 secs

     total energy              =   -2067.41441410 Ry
     estimated scf accuracy    <          1.3E-12 Ry

     iteration # 27     ecut=    60.00 Ry     beta= 0.70
     Davidson diagonalization with overlap
     ethr =  1.00E-13,  avg # of iterations =  1.0

     negative rho (up, down):  8.201E-04 0.000E+00

     total cpu time spent up to now is     3961.8 secs

     total energy              =   -2067.41441410 Ry
     estimated scf accuracy    <          2.1E-11 Ry

     iteration # 28     ecut=    60.00 Ry     beta= 0.70
     Davidson diagonalization with overlap
     ethr =  1.00E-13,  avg # of iterations =  1.0

     negative rho (up, down):  8.201E-04 0.000E+00

     total cpu time spent up to now is     3983.6 secs

     End of self-consistent calculation

     Number of k-points >= 100: set verbosity='high' to print the bands.

     the Fermi energy is     2.4343 ev

!    total energy              =   -2067.41441410 Ry
     estimated scf accuracy    <          4.4E-14 Ry
     smearing contrib. (-TS)   =      -0.00000481 Ry
     internal energy E=F+TS    =   -2067.41440928 Ry

     The total energy is F=E-TS. E is the sum of the following terms:
     one-electron contribution =  -19824.68846825 Ry
     hartree contribution      =    9963.46788997 Ry
     xc contribution           =    -211.36755302 Ry
     ewald contribution        =    8005.17372203 Ry

     convergence has been achieved in  28 iterations

     negative rho (up, down):  8.201E-04 0.000E+00

     Forces acting on atoms (cartesian axes, Ry/au):

     atom    1 type  1   force =    -0.00115876   -0.00212723   -0.01334082
     atom    2 type  2   force =    -0.00382834    0.00011108   -0.01185603
     atom    3 type  1   force =    -0.01220490   -0.00380638   -0.00271101
     atom    4 type  2   force =    -0.00006829    0.00245528    0.00988155
     atom    5 type  1   force =    -0.00338976    0.02758766    0.00407642
     atom    6 type  3   force =     0.02065004   -0.02422041    0.01394989

     Total force =     0.051092     Total SCF correction =     0.000002


     Computing stress (Cartesian axis) and pressure


     negative rho (up, down):  8.201E-04 0.000E+00
          total   stress  (Ry/bohr**3)                   (kbar)     P=       -1.12
  -0.00007582  -0.00000497   0.00008253          -11.15       -0.73       12.14
  -0.00000497  -0.00004846  -0.00000835           -0.73       -7.13       -1.23
   0.00008253  -0.00000835   0.00010142           12.14       -1.23       14.92

     Energy error            =      8.3E-03 Ry
     Gradient error          =      2.8E-02 Ry/Bohr
     Cell gradient error     =      1.1E+01 kbar

     number of scf cycles    =   4
     number of bfgs steps    =   3

     enthalpy           old  =   -2067.4061615654 Ry
     enthalpy           new  =   -2067.4144140958 Ry

     CASE: enthalpy          _new < enthalpy          _old

     new trust radius        =       0.1921931348 bohr
     new conv_thr            =            2.8E-13 Ry

     new unit-cell volume =   1626.82141 a.u.^3 (   241.07006 Ang^3 )
     density =      3.91157 g/cm^3

CELL_PARAMETERS (alat=  5.55000000)
   1.047536263   0.009580634   0.000000000
  -0.515454154   0.903716550   0.000000000
   0.000000000   0.000000000  10.000000000

ATOMIC_POSITIONS (alat)
Ta            0.0078605119        0.6047956193        0.6199450379
C            -0.0044026995       -0.0015935649        1.0256161536
Ta            0.5158919772        0.3045275714        1.4538121251
C            -0.0265615154        0.5995005812        1.8940683904
Ta           -0.0420466230       -0.0096380497        2.3211240757
H             0.4218897730        0.3568660641        2.6778249173



     Writing output data file /scratch/as3359/Ta3C2H_loop/Ta.save/
     NEW-OLD atomic charge density approx. for the potential

     Check: negative core charge=   -0.000002

     negative rho (up, down):  8.899E-04 0.000E+00
     extrapolated charge   89.35803, renormalised to   90.00000

     total cpu time spent up to now is     4010.7 secs

     Self-consistent Calculation

     iteration #  1     ecut=    60.00 Ry     beta= 0.70
     Davidson diagonalization with overlap
     c_bands:  1 eigenvalues not converged
     c_bands:  1 eigenvalues not converged
     c_bands:  1 eigenvalues not converged
     c_bands:  3 eigenvalues not converged
[...]


     atomic species   valence    mass     pseudopotential
        Ta            27.00   180.94788     Ta( 1.00)
        C              4.00    12.01070     C ( 1.00)
        H              1.00     1.00000     H ( 1.00)

     No symmetry found



   Cartesian axes

     site n.     atom                  positions (alat units)
         1           Ta  tau(   1) = (  -0.0318903   0.6043570   0.5998417  )
         2           C   tau(   2) = (  -0.0318451   0.0046950   1.0123183  )
         3           Ta  tau(   3) = (   0.4873834   0.3045793   1.4551225  )
         4           C   tau(   4) = (  -0.0315990   0.6046742   1.9088526  )
         5           Ta  tau(   5) = (  -0.0314813   0.0050388   2.3418107  )
         6           H   tau(   6) = (   0.4875612   0.3049076   2.6744449  )

     number of k points=   113  Marzari-Vanderbilt smearing, width (Ry)=  0.0010

     Number of k-points >= 100: set verbosity='high' to print them.

     Dense  grid:   139957 G-vectors     FFT dimensions: (  32,  32, 320)

     Smooth grid:   100327 G-vectors     FFT dimensions: (  30,  30, 288)

     Estimated max dynamical RAM per process >       1.26 GB

     Estimated total dynamical RAM >       2.51 GB

     Check: negative core charge=   -0.000002

     Initial potential from superposition of free atoms

     starting charge   89.99759, renormalised to   90.00000

     negative rho (up, down):  8.248E-04 0.000E+00
     Starting wfcs are   60 randomized atomic wfcs

     total cpu time spent up to now is    15246.2 secs

     Self-consistent Calculation

     iteration #  1     ecut=    60.00 Ry     beta= 0.70
     Davidson diagonalization with overlap
     c_bands:  1 eigenvalues not converged
     c_bands:  1 eigenvalues not converged
     c_bands:  1 eigenvalues not converged
     c_bands:  1 eigenvalues not converged
     c_bands:  1 eigenvalues not converged
     c_bands:  1 eigenvalues not converged
     c_bands:  1 eigenvalues not converged
     c_bands:  1 eigenvalues not converged
     c_bands:  1 eigenvalues not converged
     c_bands:  1 eigenvalues not converged
     c_bands:  1 eigenvalues not converged
     c_bands:  1 eigenvalues not converged
     c_bands:  1 eigenvalues not converged
     c_bands:  1 eigenvalues not converged
     c_bands:  1 eigenvalues not converged
     c_bands:  1 eigenvalues not converged
     c_bands:  1 eigenvalues not converged
     c_bands:  1 eigenvalues not converged
     c_bands:  1 eigenvalues not converged
     c_bands:  1 eigenvalues not converged
     c_bands:  2 eigenvalues not converged
     c_bands:  2 eigenvalues not converged
     c_bands:  1 eigenvalues not converged
     c_bands:  1 eigenvalues not converged
     c_bands:  1 eigenvalues not converged
     c_bands:  2 eigenvalues not converged
     c_bands:  3 eigenvalues not converged
     c_bands:  1 eigenvalues not converged
     c_bands:  1 eigenvalues not converged
     c_bands:  1 eigenvalues not converged
     c_bands:  1 eigenvalues not converged
     c_bands:  1 eigenvalues not converged
     c_bands:  2 eigenvalues not converged
     c_bands:  2 eigenvalues not converged
     c_bands:  1 eigenvalues not converged
     c_bands:  1 eigenvalues not converged
     c_bands:  2 eigenvalues not converged
     c_bands:  2 eigenvalues not converged
     c_bands:  1 eigenvalues not converged
     c_bands:  1 eigenvalues not converged
     c_bands:  1 eigenvalues not converged
     c_bands:  1 eigenvalues not converged
     c_bands:  1 eigenvalues not converged
     c_bands:  1 eigenvalues not converged
     c_bands:  1 eigenvalues not converged
     c_bands:  1 eigenvalues not converged
     c_bands:  1 eigenvalues not converged
     c_bands:  2 eigenvalues not converged
     c_bands:  1 eigenvalues not converged
     c_bands:  1 eigenvalues not converged
     c_bands:  1 eigenvalues not converged
     c_bands:  1 eigenvalues not converged
     c_bands:  1 eigenvalues not converged
     c_bands:  1 eigenvalues not converged
     c_bands:  1 eigenvalues not converged
     c_bands:  1 eigenvalues not converged
     c_bands:  1 eigenvalues not converged
     c_bands:  1 eigenvalues not converged
     c_bands:  2 eigenvalues not converged
     c_bands:  2 eigenvalues not converged
     c_bands:  1 eigenvalues not converged
     c_bands:  1 eigenvalues not converged
     c_bands:  1 eigenvalues not converged
     c_bands:  1 eigenvalues not converged
     c_bands:  3 eigenvalues not converged
     c_bands:  1 eigenvalues not converged
     c_bands:  1 eigenvalues not converged
     c_bands:  1 eigenvalues not converged
     c_bands:  1 eigenvalues not converged
     c_bands:  1 eigenvalues not converged
     c_bands:  1 eigenvalues not converged
     c_bands:  1 eigenvalues not converged
     c_bands:  1 eigenvalues not converged
     c_bands:  2 eigenvalues not converged
     c_bands:  2 eigenvalues not converged
     c_bands:  1 eigenvalues not converged
     c_bands:  1 eigenvalues not converged
     ethr =  1.00E-06,  avg # of iterations = 18.9

     negative rho (up, down):  8.652E-04 0.000E+00

     total cpu time spent up to now is    15328.8 secs

     total energy              =   -2065.96632273 Ry
     estimated scf accuracy    <       2.31535874 Ry

     iteration #  2     ecut=    60.00 Ry     beta= 0.70
     Davidson diagonalization with overlap
     ethr =  2.57E-03,  avg # of iterations = 13.9

     negative rho (up, down):  3.157E-05 0.000E+00

     total cpu time spent up to now is    15381.3 secs

     total energy              =   -2052.53092866 Ry
     estimated scf accuracy    <     376.77005733 Ry

     iteration #  3     ecut=    60.00 Ry     beta= 0.70
     Davidson diagonalization with overlap
     ethr =  2.57E-03,  avg # of iterations =  9.4

     negative rho (up, down):  1.851E-06 0.000E+00

     total cpu time spent up to now is    15424.6 secs

     total energy              =   -2061.64332933 Ry
     estimated scf accuracy    <     133.22199318 Ry

     iteration #  4     ecut=    60.00 Ry     beta= 0.70
     Davidson diagonalization with overlap
     ethr =  2.57E-03,  avg # of iterations =  7.7

     negative rho (up, down):  3.734E-06 0.000E+00

     total cpu time spent up to now is    15460.0 secs

     total energy              =   -2066.76039560 Ry
     estimated scf accuracy    <      21.58039031 Ry

     iteration #  5     ecut=    60.00 Ry     beta= 0.70
     Davidson diagonalization with overlap
     ethr =  2.57E-03,  avg # of iterations =  2.5

     negative rho (up, down):  1.608E-06 0.000E+00

     total cpu time spent up to now is    15484.9 secs

     total energy              =   -2067.43935502 Ry
     estimated scf accuracy    <       0.54295468 Ry

     iteration #  6     ecut=    60.00 Ry     beta= 0.70
     Davidson diagonalization with overlap
     ethr =  6.03E-04,  avg # of iterations =  3.8

     negative rho (up, down):  2.441E-06 0.000E+00

     total cpu time spent up to now is    15509.2 secs

     total energy              =   -2067.46410203 Ry
     estimated scf accuracy    <       0.29520745 Ry

     iteration #  7     ecut=    60.00 Ry     beta= 0.70
     Davidson diagonalization with overlap
     ethr =  3.28E-04,  avg # of iterations =  3.7

     negative rho (up, down):  3.895E-06 0.000E+00

     total cpu time spent up to now is    15532.9 secs

     total energy              =   -2067.45690209 Ry
     estimated scf accuracy    <       0.16718707 Ry

     iteration #  8     ecut=    60.00 Ry     beta= 0.70
     Davidson diagonalization with overlap
     ethr =  1.86E-04,  avg # of iterations =  4.4

     negative rho (up, down):  1.118E-05 0.000E+00

     total cpu time spent up to now is    15557.1 secs

     total energy              =   -2067.45094192 Ry
     estimated scf accuracy    <       0.07803635 Ry

     iteration #  9     ecut=    60.00 Ry     beta= 0.70
     Davidson diagonalization with overlap
     ethr =  8.67E-05,  avg # of iterations =  3.1

     negative rho (up, down):  2.992E-05 0.000E+00

     total cpu time spent up to now is    15580.6 secs

     total energy              =   -2067.44717848 Ry
     estimated scf accuracy    <       0.03999069 Ry

     iteration # 10     ecut=    60.00 Ry     beta= 0.70
     Davidson diagonalization with overlap
     ethr =  4.44E-05,  avg # of iterations =  3.7

     negative rho (up, down):  1.230E-04 0.000E+00

     total cpu time spent up to now is    15604.3 secs

     total energy              =   -2067.44214477 Ry
     estimated scf accuracy    <       0.02974423 Ry

     iteration # 11     ecut=    60.00 Ry     beta= 0.70
     Davidson diagonalization with overlap
     ethr =  3.30E-05,  avg # of iterations =  2.4

     negative rho (up, down):  2.314E-03 0.000E+00

     total cpu time spent up to now is    15626.9 secs

     total energy              =   -2067.43085206 Ry
     estimated scf accuracy    <       0.02266242 Ry

     iteration # 12     ecut=    60.00 Ry     beta= 0.70
     Davidson diagonalization with overlap
     ethr =  2.52E-05,  avg # of iterations =  7.4

     negative rho (up, down):  4.751E-04 0.000E+00

     total cpu time spent up to now is    15654.6 secs

     total energy              =   -2067.43223902 Ry
     estimated scf accuracy    <       0.01413678 Ry

     iteration # 13     ecut=    60.00 Ry     beta= 0.70
     Davidson diagonalization with overlap
     ethr =  1.57E-05,  avg # of iterations =  5.2

     negative rho (up, down):  7.822E-04 0.000E+00

     total cpu time spent up to now is    15678.9 secs

     total energy              =   -2067.43244318 Ry
     estimated scf accuracy    <       0.00096409 Ry

     iteration # 14     ecut=    60.00 Ry     beta= 0.70
     Davidson diagonalization with overlap
     ethr =  1.07E-06,  avg # of iterations =  8.4

     negative rho (up, down):  7.299E-04 0.000E+00

     total cpu time spent up to now is    15709.9 secs

     total energy              =   -2067.43253365 Ry
     estimated scf accuracy    <       0.00202889 Ry

     iteration # 15     ecut=    60.00 Ry     beta= 0.70
     Davidson diagonalization with overlap
     ethr =  1.07E-06,  avg # of iterations =  1.1

     negative rho (up, down):  8.070E-04 0.000E+00

     total cpu time spent up to now is    15731.4 secs

     total energy              =   -2067.43260464 Ry
     estimated scf accuracy    <       0.00004164 Ry

     iteration # 16     ecut=    60.00 Ry     beta= 0.70
     Davidson diagonalization with overlap
     ethr =  4.63E-08,  avg # of iterations =  2.1

     negative rho (up, down):  8.298E-04 0.000E+00

     total cpu time spent up to now is    15755.7 secs

     total energy              =   -2067.43260813 Ry
     estimated scf accuracy    <       0.00000231 Ry

     iteration # 17     ecut=    60.00 Ry     beta= 0.70
     Davidson diagonalization with overlap
     ethr =  2.57E-09,  avg # of iterations =  3.6

     negative rho (up, down):  8.343E-04 0.000E+00

     total cpu time spent up to now is    15784.7 secs

     total energy              =   -2067.43260849 Ry
     estimated scf accuracy    <       0.00000350 Ry

     iteration # 18     ecut=    60.00 Ry     beta= 0.70
     Davidson diagonalization with overlap
     ethr =  2.57E-09,  avg # of iterations =  1.3

     negative rho (up, down):  8.366E-04 0.000E+00

     total cpu time spent up to now is    15806.5 secs

     total energy              =   -2067.43260864 Ry
     estimated scf accuracy    <       0.00000020 Ry

     iteration # 19     ecut=    60.00 Ry     beta= 0.70
     Davidson diagonalization with overlap
     ethr =  2.24E-10,  avg # of iterations =  2.1

     negative rho (up, down):  8.361E-04 0.000E+00

     total cpu time spent up to now is    15830.7 secs

     total energy              =   -2067.43260864 Ry
     estimated scf accuracy    <       0.00000014 Ry

     iteration # 20     ecut=    60.00 Ry     beta= 0.70
     Davidson diagonalization with overlap
     ethr =  1.54E-10,  avg # of iterations =  2.0

     negative rho (up, down):  8.347E-04 0.000E+00

     total cpu time spent up to now is    15854.2 secs

     total energy              =   -2067.43260866 Ry
     estimated scf accuracy    <          8.0E-09 Ry

     iteration # 21     ecut=    60.00 Ry     beta= 0.70
     Davidson diagonalization with overlap
     ethr =  8.91E-12,  avg # of iterations =  2.1

     negative rho (up, down):  8.346E-04 0.000E+00

     total cpu time spent up to now is    15878.9 secs

     total energy              =   -2067.43260866 Ry
     estimated scf accuracy    <          7.6E-10 Ry

     iteration # 22     ecut=    60.00 Ry     beta= 0.70
     Davidson diagonalization with overlap
     ethr =  8.49E-13,  avg # of iterations =  3.0

     negative rho (up, down):  8.346E-04 0.000E+00

     total cpu time spent up to now is    15906.1 secs

     total energy              =   -2067.43260866 Ry
     estimated scf accuracy    <          2.7E-10 Ry

     iteration # 23     ecut=    60.00 Ry     beta= 0.70
     Davidson diagonalization with overlap
     ethr =  3.00E-13,  avg # of iterations =  2.2

     negative rho (up, down):  8.345E-04 0.000E+00

     total cpu time spent up to now is    15929.8 secs

     total energy              =   -2067.43260866 Ry
     estimated scf accuracy    <          4.8E-10 Ry

     iteration # 24     ecut=    60.00 Ry     beta= 0.70
     Davidson diagonalization with overlap
     ethr =  3.00E-13,  avg # of iterations =  1.9

     negative rho (up, down):  8.345E-04 0.000E+00

     total cpu time spent up to now is    15952.5 secs

     total energy              =   -2067.43260866 Ry
     estimated scf accuracy    <          5.3E-12 Ry

     iteration # 25     ecut=    60.00 Ry     beta= 0.70
     Davidson diagonalization with overlap
     c_bands:  1 eigenvalues not converged
     ethr =  1.00E-13,  avg # of iterations =  1.2

     negative rho (up, down):  8.345E-04 0.000E+00

     total cpu time spent up to now is    15973.9 secs

     total energy              =   -2067.43260866 Ry
     estimated scf accuracy    <          1.5E-12 Ry

     iteration # 26     ecut=    60.00 Ry     beta= 0.70
     Davidson diagonalization with overlap
     ethr =  1.00E-13,  avg # of iterations =  1.0

     negative rho (up, down):  8.345E-04 0.000E+00

     total cpu time spent up to now is    15995.2 secs

     total energy              =   -2067.43260866 Ry
     estimated scf accuracy    <          6.4E-13 Ry

     iteration # 27     ecut=    60.00 Ry     beta= 0.70
     Davidson diagonalization with overlap
     ethr =  1.00E-13,  avg # of iterations =  1.0

     negative rho (up, down):  8.345E-04 0.000E+00

     total cpu time spent up to now is    16016.5 secs

     total energy              =   -2067.43260866 Ry
     estimated scf accuracy    <          3.1E-14 Ry

     iteration # 28     ecut=    60.00 Ry     beta= 0.70
     Davidson diagonalization with overlap
     ethr =  1.00E-13,  avg # of iterations =  1.0

     negative rho (up, down):  8.345E-04 0.000E+00

     total cpu time spent up to now is    16037.8 secs

     total energy              =   -2067.43260866 Ry
     estimated scf accuracy    <          4.4E-14 Ry

     iteration # 29     ecut=    60.00 Ry     beta= 0.70
     Davidson diagonalization with overlap
     ethr =  1.00E-13,  avg # of iterations =  1.0

     negative rho (up, down):  8.345E-04 0.000E+00

     total cpu time spent up to now is    16059.2 secs

     total energy              =   -2067.43260866 Ry
     estimated scf accuracy    <          4.9E-14 Ry

     iteration # 30     ecut=    60.00 Ry     beta= 0.70
     Davidson diagonalization with overlap
     ethr =  1.00E-13,  avg # of iterations =  1.0

     negative rho (up, down):  8.345E-04 0.000E+00

     total cpu time spent up to now is    16080.4 secs

     End of self-consistent calculation

     Number of k-points >= 100: set verbosity='high' to print the bands.

     the Fermi energy is     2.5976 ev

!    total energy              =   -2067.43260866 Ry
     estimated scf accuracy    <          1.3E-15 Ry
     smearing contrib. (-TS)   =      -0.00000470 Ry
     internal energy E=F+TS    =   -2067.43260397 Ry

     The total energy is F=E-TS. E is the sum of the following terms:
     one-electron contribution =  -19968.66203801 Ry
     hartree contribution      =   10036.17908139 Ry
     xc contribution           =    -211.37443475 Ry
     ewald contribution        =    8076.42478740 Ry

     convergence has been achieved in  30 iterations

     negative rho (up, down):  8.345E-04 0.000E+00

     Forces acting on atoms (cartesian axes, Ry/au):

     atom    1 type  1   force =     0.00002099   -0.00002052    0.00021199
     atom    2 type  2   force =     0.00009557    0.00020582    0.00004119
     atom    3 type  1   force =     0.00007648    0.00005857   -0.00002040
     atom    4 type  2   force =    -0.00011983   -0.00022166   -0.00006486
     atom    5 type  1   force =    -0.00014487   -0.00001612    0.00006040
     atom    6 type  3   force =     0.00007166   -0.00000609   -0.00022832

     Total force =     0.000509     Total SCF correction =     0.000000


     Computing stress (Cartesian axis) and pressure


     negative rho (up, down):  8.345E-04 0.000E+00
          total   stress  (Ry/bohr**3)                   (kbar)     P=       -2.61
  -0.00000578   0.00000053  -0.00000051           -0.85        0.08       -0.07
   0.00000053  -0.00000809  -0.00000042            0.08       -1.19       -0.06
  -0.00000051  -0.00000042  -0.00003940           -0.07       -0.06       -5.80


     Writing output data file /scratch/as3359/Ta3C2H_loop/Ta.save/
 
     init_run     :     56.62s CPU     31.88s WALL (       2 calls)
     electrons    :  30607.83s CPU  15538.23s WALL (      20 calls)
     update_pot   :    142.66s CPU     87.49s WALL (      18 calls)
     forces       :    186.29s CPU     94.28s WALL (      20 calls)
     stress       :    678.88s CPU    343.20s WALL (      20 calls)

     Called by init_run:
     wfcinit      :     40.05s CPU     20.46s WALL (       2 calls)
     potinit      :      4.97s CPU      2.63s WALL (       2 calls)
     hinit0       :     10.44s CPU      8.04s WALL (       2 calls)

     Called by electrons:
     c_bands      :  26283.47s CPU  13296.21s WALL (     528 calls)
     sum_band     :   4028.34s CPU   2069.47s WALL (     528 calls)
     v_of_rho     :     49.07s CPU     25.01s WALL (     547 calls)
     newd         :    237.76s CPU    142.60s WALL (     547 calls)
     mix_rho      :     12.20s CPU      6.22s WALL (     528 calls)

     Called by c_bands:
     init_us_2    :    389.76s CPU    195.38s WALL (  124074 calls)
     cegterg      :  24521.36s CPU  12409.11s WALL (   59894 calls)

     Called by *egterg:
     cdiaghg      :   1395.70s CPU    712.37s WALL (  301581 calls)
     h_psi        :  18105.74s CPU   9180.62s WALL (  304000 calls)
     s_psi        :    916.62s CPU    459.20s WALL (  304000 calls)
     g_psi        :    126.99s CPU     63.74s WALL (  243880 calls)

     Called by h_psi:
     h_psi:calbec :    937.39s CPU    470.55s WALL (  304000 calls)
     vloc_psi     :  16060.46s CPU   8154.64s WALL (  304000 calls)
     add_vuspsi   :    978.98s CPU    490.43s WALL (  304000 calls)

     General routines
     calbec       :   1299.05s CPU    651.95s WALL (  374964 calls)
     fft          :     25.97s CPU     13.45s WALL (    7590 calls)
     ffts         :      2.02s CPU      1.04s WALL (    1075 calls)
     fftw         :  16971.17s CPU   8619.88s WALL (20240114 calls)
     interpolate  :      3.43s CPU      1.76s WALL (     547 calls)
 
     Parallel routines
 
     PWSCF        :      8h48m CPU      4h28m WALL

 
   This run was terminated on:   3:29:37  15Apr2022            

=------------------------------------------------------------------------------=
   JOB DONE.
=------------------------------------------------------------------------------=
