
     Program BANDS v.6.8 starts on 16Apr2022 at 16:31:42 

     This program is part of the open-source Quantum ESPRESSO suite
     for quantum simulation of materials; please cite
         "P. Giannozzi et al., J. Phys.:Condens. Matter 21 395502 (2009);
         "P. Giannozzi et al., J. Phys.:Condens. Matter 29 465901 (2017);
         "P. Giannozzi et al., J. Chem. Phys. 152 154105 (2020);
          URL http://www.quantum-espresso.org", 
     in publications or presentations arising from this work. More details at
     http://www.quantum-espresso.org/quote

     Parallel version (MPI & OpenMP), running on       4 processor cores
     Number of MPI processes:                 2
     Threads/MPI process:                     2

     MPI processes distributed on     1 nodes
     R & G space division:  proc/nbgrp/npool/nimage =       2
     118972 MiB available memory on the printing compute node when the environment starts
 

     Reading xml data from directory:

     /scratch/as3359/Ta2CH2k_bandsdos/Ta.save/
     file Ta.pbesol-spfn-rrkjus_psl.1.0.0.UPF: wavefunction(s)  5S 5P renormalized

     IMPORTANT: XC functional enforced from input :
     Exchange-correlation= PBESOL
                           (   1   4  10   8   0   0   0)
     Any further DFT definition will be discarded
     Please, verify this is what you really want

 
     Parallelization info
     --------------------
     sticks:   dense  smooth     PW     G-vecs:    dense   smooth      PW
     Min         765     654    183               239667   189956   28385
     Max         766     655    184               239702   189957   28410
     Sum        1531    1309    367               479369   379913   56795
 
     Using Slab Decomposition
 

     negative rho (up, down):  6.648E-05 0.000E+00
     Reading collected, re-writing distributed wavefunctions
     high-symmetry point:  0.0000 0.0000 0.0000   x coordinate   0.0000
     high-symmetry point:  0.6553 0.0001 0.0000   x coordinate   0.6553
     high-symmetry point:  0.4915-0.2835 0.0000   x coordinate   0.9829
     high-symmetry point:  0.0000 0.0000 0.0000   x coordinate   1.5502

     Plottable bands (eV) written to file Ta2CH2.Bandx.dat.gnu
     Bands written to file Ta2CH2.Bandx.dat

 **************************************************************************

                    xk=(   0.00000,   0.00000,   0.00000  )

     point group C_1 (1)    
     there are  1 classes
     the character table:

       E    
A      1.00

     the symmetry operations in each class and the name of the first element:

     E        1
                                                                 

     Band symmetry, C_1 (1)     point group:

     e(  1 -  1) =    -67.52545  eV     1   --> A              
     e(  2 -  2) =    -67.49387  eV     1   --> A              
     e(  3 -  3) =    -34.53084  eV     1   --> A              
     e(  4 -  4) =    -34.04800  eV     1   --> A              
     e(  5 -  5) =    -33.60348  eV     1   --> A              
     e(  6 -  6) =    -33.60312  eV     1   --> A              
     e(  7 -  7) =    -33.56473  eV     1   --> A              
     e(  8 -  8) =    -33.56271  eV     1   --> A              
     e(  9 -  9) =    -19.17703  eV     1   --> A              
     e( 10 - 10) =    -19.16328  eV     1   --> A              
     e( 11 - 11) =    -19.14002  eV     1   --> A              
     e( 12 - 12) =    -19.13991  eV     1   --> A              
     e( 13 - 13) =    -19.13798  eV     1   --> A              
     e( 14 - 14) =    -19.13762  eV     1   --> A              
     e( 15 - 15) =    -19.11921  eV     1   --> A              
     e( 16 - 16) =    -19.11904  eV     1   --> A              
     e( 17 - 17) =    -19.11503  eV     1   --> A              
     e( 18 - 18) =    -19.11451  eV     1   --> A              
     e( 19 - 19) =    -19.10556  eV     1   --> A              
     e( 20 - 20) =    -19.09939  eV     1   --> A              
     e( 21 - 21) =    -19.02526  eV     1   --> A              
     e( 22 - 22) =    -19.02449  eV     1   --> A              
     e( 23 - 23) =    -12.76463  eV     1   --> A              
     e( 24 - 24) =     -8.26509  eV     1   --> A              
     e( 25 - 25) =     -5.19527  eV     1   --> A              
     e( 26 - 26) =     -3.41463  eV     1   --> A              
     e( 27 - 27) =     -3.12442  eV     1   --> A              
     e( 28 - 28) =     -3.10906  eV     1   --> A              
     e( 29 - 29) =     -1.16200  eV     1   --> A              
     e( 30 - 30) =      0.41687  eV     1   --> A              
     e( 31 - 31) =      0.43582  eV     1   --> A              
     e( 32 - 32) =      2.57106  eV     1   --> A              
     e( 33 - 33) =      2.58238  eV     1   --> A              
     e( 34 - 34) =      2.99152  eV     1   --> A              
     e( 35 - 35) =      3.02377  eV     1   --> A              
     e( 36 - 36) =      3.57013  eV     1   --> A              
     e( 37 - 37) =      4.48464  eV     1   --> A              
     e( 38 - 38) =      4.53174  eV     1   --> A              
     e( 39 - 39) =      4.93438  eV     1   --> A              
     e( 40 - 40) =      5.32642  eV     1   --> A              
     e( 41 - 41) =      5.77965  eV     1   --> A              
     e( 42 - 42) =      6.49420  eV     1   --> A              

 **************************************************************************

 **************************************************************************

                    xk=(   0.02184,   0.00000,   0.00000  )

     Band symmetry, C_1 (1)     point group:

     e(  1 -  1) =    -67.52520  eV     1   --> A              
     e(  2 -  2) =    -67.49368  eV     1   --> A              
     e(  3 -  3) =    -34.53002  eV     1   --> A              
     e(  4 -  4) =    -34.04792  eV     1   --> A              
     e(  5 -  5) =    -33.60646  eV     1   --> A              
     e(  6 -  6) =    -33.60443  eV     1   --> A              
     e(  7 -  7) =    -33.56611  eV     1   --> A              
     e(  8 -  8) =    -33.56496  eV     1   --> A              
     e(  9 -  9) =    -19.17694  eV     1   --> A              
     e( 10 - 10) =    -19.16323  eV     1   --> A              
     e( 11 - 11) =    -19.14012  eV     1   --> A              
     e( 12 - 12) =    -19.13994  eV     1   --> A              
     e( 13 - 13) =    -19.13798  eV     1   --> A              
     e( 14 - 14) =    -19.13754  eV     1   --> A              
     e( 15 - 15) =    -19.11926  eV     1   --> A              
     e( 16 - 16) =    -19.11910  eV     1   --> A              
     e( 17 - 17) =    -19.11507  eV     1   --> A              
     e( 18 - 18) =    -19.11448  eV     1   --> A              
     e( 19 - 19) =    -19.10536  eV     1   --> A              
     e( 20 - 20) =    -19.09921  eV     1   --> A              
     e( 21 - 21) =    -19.02545  eV     1   --> A              
     e( 22 - 22) =    -19.02469  eV     1   --> A              
     e( 23 - 23) =    -12.75698  eV     1   --> A              
     e( 24 - 24) =     -8.25315  eV     1   --> A              
     e( 25 - 25) =     -5.19869  eV     1   --> A              
     e( 26 - 26) =     -3.41585  eV     1   --> A              
     e( 27 - 27) =     -3.12579  eV     1   --> A              
     e( 28 - 28) =     -3.11886  eV     1   --> A              
     e( 29 - 29) =     -1.15239  eV     1   --> A              
     e( 30 - 30) =      0.41158  eV     1   --> A              
     e( 31 - 31) =      0.43037  eV     1   --> A              
     e( 32 - 32) =      2.50351  eV     1   --> A              
     e( 33 - 33) =      2.54775  eV     1   --> A              
     e( 34 - 34) =      3.02555  eV     1   --> A              
     e( 35 - 35) =      3.04909  eV     1   --> A              
     e( 36 - 36) =      3.62080  eV     1   --> A              
     e( 37 - 37) =      4.49401  eV     1   --> A              
     e( 38 - 38) =      4.54153  eV     1   --> A              
     e( 39 - 39) =      4.94293  eV     1   --> A              
     e( 40 - 40) =      5.33528  eV     1   --> A              
     e( 41 - 41) =      5.79016  eV     1   --> A              
     e( 42 - 42) =      6.51302  eV     1   --> A              

 **************************************************************************

 **************************************************************************

                    xk=(   0.04369,   0.00001,   0.00000  )

     Band symmetry, C_1 (1)     point group:

     e(  1 -  1) =    -67.52447  eV     1   --> A              
     e(  2 -  2) =    -67.49309  eV     1   --> A              
     e(  3 -  3) =    -34.52758  eV     1   --> A              
     e(  4 -  4) =    -34.04769  eV     1   --> A              
     e(  5 -  5) =    -33.61618  eV     1   --> A              
     e(  6 -  6) =    -33.60753  eV     1   --> A              
     e(  7 -  7) =    -33.57505  eV     1   --> A              
     e(  8 -  8) =    -33.56677  eV     1   --> A              
     e(  9 -  9) =    -19.17666  eV     1   --> A              
     e( 10 - 10) =    -19.16308  eV     1   --> A              
     e( 11 - 11) =    -19.14041  eV     1   --> A              
     e( 12 - 12) =    -19.14002  eV     1   --> A              
     e( 13 - 13) =    -19.13800  eV     1   --> A              
     e( 14 - 14) =    -19.13729  eV     1   --> A              
     e( 15 - 15) =    -19.11952  eV     1   --> A              
     e( 16 - 16) =    -19.11915  eV     1   --> A              
     e( 17 - 17) =    -19.11518  eV     1   --> A              
     e( 18 - 18) =    -19.11438  eV     1   --> A              
     e( 19 - 19) =    -19.10478  eV     1   --> A              
     e( 20 - 20) =    -19.09869  eV     1   --> A              
     e( 21 - 21) =    -19.02601  eV     1   --> A              
     e( 22 - 22) =    -19.02526  eV     1   --> A              
     e( 23 - 23) =    -12.73415  eV     1   --> A              
     e( 24 - 24) =     -8.21752  eV     1   --> A              
     e( 25 - 25) =     -5.20885  eV     1   --> A              
     e( 26 - 26) =     -3.42030  eV     1   --> A              
     e( 27 - 27) =     -3.16388  eV     1   --> A              
     e( 28 - 28) =     -3.11281  eV     1   --> A              
     e( 29 - 29) =     -1.12386  eV     1   --> A              
     e( 30 - 30) =      0.34708  eV     1   --> A              
     e( 31 - 31) =      0.46394  eV     1   --> A              
     e( 32 - 32) =      2.36219  eV     1   --> A              
     e( 33 - 33) =      2.45957  eV     1   --> A              
     e( 34 - 34) =      3.07845  eV     1   --> A              
     e( 35 - 35) =      3.11014  eV     1   --> A              
     e( 36 - 36) =      3.76048  eV     1   --> A              
     e( 37 - 37) =      4.52209  eV     1   --> A              
     e( 38 - 38) =      4.57063  eV     1   --> A              
     e( 39 - 39) =      4.96856  eV     1   --> A              
     e( 40 - 40) =      5.36183  eV     1   --> A              
     e( 41 - 41) =      5.82092  eV     1   --> A              
     e( 42 - 42) =      6.54037  eV     1   --> A              

 **************************************************************************

 **************************************************************************

                    xk=(   0.06553,   0.00001,   0.00000  )

     Band symmetry, C_1 (1)     point group:

     e(  1 -  1) =    -67.52325  eV     1   --> A              
     e(  2 -  2) =    -67.49213  eV     1   --> A              
     e(  3 -  3) =    -34.52356  eV     1   --> A              
     e(  4 -  4) =    -34.04734  eV     1   --> A              
     e(  5 -  5) =    -33.63186  eV     1   --> A              
     e(  6 -  6) =    -33.61377  eV     1   --> A              
     e(  7 -  7) =    -33.58891  eV     1   --> A              
     e(  8 -  8) =    -33.56980  eV     1   --> A              
     e(  9 -  9) =    -19.17619  eV     1   --> A              
     e( 10 - 10) =    -19.16283  eV     1   --> A              
     e( 11 - 11) =    -19.14087  eV     1   --> A              
     e( 12 - 12) =    -19.14015  eV     1   --> A              
     e( 13 - 13) =    -19.13801  eV     1   --> A              
     e( 14 - 14) =    -19.13689  eV     1   --> A              
     e( 15 - 15) =    -19.12001  eV     1   --> A              
     e( 16 - 16) =    -19.11916  eV     1   --> A              
     e( 17 - 17) =    -19.11536  eV     1   --> A              
     e( 18 - 18) =    -19.11421  eV     1   --> A              
     e( 19 - 19) =    -19.10382  eV     1   --> A              
     e( 20 - 20) =    -19.09782  eV     1   --> A              
     e( 21 - 21) =    -19.02693  eV     1   --> A              
     e( 22 - 22) =    -19.02621  eV     1   --> A              
     e( 23 - 23) =    -12.69658  eV     1   --> A              
     e( 24 - 24) =     -8.15879  eV     1   --> A              
     e( 25 - 25) =     -5.22548  eV     1   --> A              
     e( 26 - 26) =     -3.43013  eV     1   --> A              
     e( 27 - 27) =     -3.22811  eV     1   --> A              
     e( 28 - 28) =     -3.09757  eV     1   --> A              
     e( 29 - 29) =     -1.07734  eV     1   --> A              
     e( 30 - 30) =      0.24267  eV     1   --> A              
     e( 31 - 31) =      0.52075  eV     1   --> A              
     e( 32 - 32) =      2.21223  eV     1   --> A              
     e( 33 - 33) =      2.33915  eV     1   --> A              
     e( 34 - 34) =      3.11389  eV     1   --> A              
     e( 35 - 35) =      3.19053  eV     1   --> A              
     e( 36 - 36) =      3.95675  eV     1   --> A              
     e( 37 - 37) =      4.56882  eV     1   --> A              
     e( 38 - 38) =      4.61835  eV     1   --> A              
     e( 39 - 39) =      5.01124  eV     1   --> A              
     e( 40 - 40) =      5.40591  eV     1   --> A              
     e( 41 - 41) =      5.87026  eV     1   --> A              
     e( 42 - 42) =      6.58565  eV     1   --> A              

 **************************************************************************

 **************************************************************************

                    xk=(   0.08738,   0.00002,   0.00000  )

     Band symmetry, C_1 (1)     point group:

     e(  1 -  1) =    -67.52158  eV     1   --> A              
     e(  2 -  2) =    -67.49081  eV     1   --> A              
     e(  3 -  3) =    -34.51800  eV     1   --> A              
     e(  4 -  4) =    -34.04695  eV     1   --> A              
     e(  5 -  5) =    -33.65301  eV     1   --> A              
     e(  6 -  6) =    -33.62675  eV     1   --> A              
     e(  7 -  7) =    -33.60355  eV     1   --> A              
     e(  8 -  8) =    -33.57433  eV     1   --> A              
     e(  9 -  9) =    -19.17556  eV     1   --> A              
     e( 10 - 10) =    -19.16250  eV     1   --> A              
     e( 11 - 11) =    -19.14147  eV     1   --> A              
     e( 12 - 12) =    -19.14037  eV     1   --> A              
     e( 13 - 13) =    -19.13802  eV     1   --> A              
     e( 14 - 14) =    -19.13637  eV     1   --> A              
     e( 15 - 15) =    -19.12068  eV     1   --> A              
     e( 16 - 16) =    -19.11916  eV     1   --> A              
     e( 17 - 17) =    -19.11562  eV     1   --> A              
     e( 18 - 18) =    -19.11397  eV     1   --> A              
     e( 19 - 19) =    -19.10250  eV     1   --> A              
     e( 20 - 20) =    -19.09663  eV     1   --> A              
     e( 21 - 21) =    -19.02820  eV     1   --> A              
     e( 22 - 22) =    -19.02752  eV     1   --> A              
     e( 23 - 23) =    -12.64496  eV     1   --> A              
     e( 24 - 24) =     -8.07793  eV     1   --> A              
     e( 25 - 25) =     -5.24812  eV     1   --> A              
     e( 26 - 26) =     -3.44796  eV     1   --> A              
     e( 27 - 27) =     -3.31315  eV     1   --> A              
     e( 28 - 28) =     -3.07322  eV     1   --> A              
     e( 29 - 29) =     -1.01408  eV     1   --> A              
     e( 30 - 30) =      0.10511  eV     1   --> A              
     e( 31 - 31) =      0.59911  eV     1   --> A              
     e( 32 - 32) =      2.08007  eV     1   --> A              
     e( 33 - 33) =      2.20059  eV     1   --> A              
     e( 34 - 34) =      3.13157  eV     1   --> A              
     e( 35 - 35) =      3.28279  eV     1   --> A              
     e( 36 - 36) =      4.17809  eV     1   --> A              
     e( 37 - 37) =      4.63402  eV     1   --> A              
     e( 38 - 38) =      4.68388  eV     1   --> A              
     e( 39 - 39) =      5.07091  eV     1   --> A              
     e( 40 - 40) =      5.46733  eV     1   --> A              
     e( 41 - 41) =      5.93661  eV     1   --> A              
     e( 42 - 42) =      6.64843  eV     1   --> A              

 **************************************************************************

 **************************************************************************

                    xk=(   0.10922,   0.00002,   0.00000  )

     Band symmetry, C_1 (1)     point group:

     e(  1 -  1) =    -67.51946  eV     1   --> A              
     e(  2 -  2) =    -67.48914  eV     1   --> A              
     e(  3 -  3) =    -34.51099  eV     1   --> A              
     e(  4 -  4) =    -34.04661  eV     1   --> A              
     e(  5 -  5) =    -33.67907  eV     1   --> A              
     e(  6 -  6) =    -33.65022  eV     1   --> A              
     e(  7 -  7) =    -33.61474  eV     1   --> A              
     e(  8 -  8) =    -33.58040  eV     1   --> A              
     e(  9 -  9) =    -19.17476  eV     1   --> A              
     e( 10 - 10) =    -19.16210  eV     1   --> A              
     e( 11 - 11) =    -19.14220  eV     1   --> A              
     e( 12 - 12) =    -19.14068  eV     1   --> A              
     e( 13 - 13) =    -19.13799  eV     1   --> A              
     e( 14 - 14) =    -19.13574  eV     1   --> A              
     e( 15 - 15) =    -19.12151  eV     1   --> A              
     e( 16 - 16) =    -19.11916  eV     1   --> A              
     e( 17 - 17) =    -19.11593  eV     1   --> A              
     e( 18 - 18) =    -19.11366  eV     1   --> A              
     e( 19 - 19) =    -19.10085  eV     1   --> A              
     e( 20 - 20) =    -19.09511  eV     1   --> A              
     e( 21 - 21) =    -19.02978  eV     1   --> A              
     e( 22 - 22) =    -19.02915  eV     1   --> A              
     e( 23 - 23) =    -12.58026  eV     1   --> A              
     e( 24 - 24) =     -7.97628  eV     1   --> A              
     e( 25 - 25) =     -5.27611  eV     1   --> A              
     e( 26 - 26) =     -3.47586  eV     1   --> A              
     e( 27 - 27) =     -3.41488  eV     1   --> A              
     e( 28 - 28) =     -3.03872  eV     1   --> A              
     e( 29 - 29) =     -0.93549  eV     1   --> A              
     e( 30 - 30) =     -0.05808  eV     1   --> A              
     e( 31 - 31) =      0.69654  eV     1   --> A              
     e( 32 - 32) =      1.97732  eV     1   --> A              
     e( 33 - 33) =      2.05433  eV     1   --> A              
     e( 34 - 34) =      3.13476  eV     1   --> A              
     e( 35 - 35) =      3.38311  eV     1   --> A              
     e( 36 - 36) =      4.40388  eV     1   --> A              
     e( 37 - 37) =      4.71738  eV     1   --> A              
     e( 38 - 38) =      4.76697  eV     1   --> A              
     e( 39 - 39) =      5.14751  eV     1   --> A              
     e( 40 - 40) =      5.54589  eV     1   --> A              
     e( 41 - 41) =      6.01904  eV     1   --> A              
     e( 42 - 42) =      6.72823  eV     1   --> A              

 **************************************************************************

 **************************************************************************

                    xk=(   0.13107,   0.00002,   0.00000  )

     Band symmetry, C_1 (1)     point group:

     e(  1 -  1) =    -67.51692  eV     1   --> A              
     e(  2 -  2) =    -67.48715  eV     1   --> A              
     e(  3 -  3) =    -34.50265  eV     1   --> A              
     e(  4 -  4) =    -34.04647  eV     1   --> A              
     e(  5 -  5) =    -33.70942  eV     1   --> A              
     e(  6 -  6) =    -33.68144  eV     1   --> A              
     e(  7 -  7) =    -33.62460  eV     1   --> A              
     e(  8 -  8) =    -33.58799  eV     1   --> A              
     e(  9 -  9) =    -19.17382  eV     1   --> A              
     e( 10 - 10) =    -19.16164  eV     1   --> A              
     e( 11 - 11) =    -19.14305  eV     1   --> A              
     e( 12 - 12) =    -19.14109  eV     1   --> A              
     e( 13 - 13) =    -19.13794  eV     1   --> A              
     e( 14 - 14) =    -19.13502  eV     1   --> A              
     e( 15 - 15) =    -19.12246  eV     1   --> A              
     e( 16 - 16) =    -19.11913  eV     1   --> A              
     e( 17 - 17) =    -19.11628  eV     1   --> A              
     e( 18 - 18) =    -19.11329  eV     1   --> A              
     e( 19 - 19) =    -19.09887  eV     1   --> A              
     e( 20 - 20) =    -19.09330  eV     1   --> A              
     e( 21 - 21) =    -19.03165  eV     1   --> A              
     e( 22 - 22) =    -19.03108  eV     1   --> A              
     e( 23 - 23) =    -12.50367  eV     1   --> A              
     e( 24 - 24) =     -7.85553  eV     1   --> A              
     e( 25 - 25) =     -5.30860  eV     1   --> A              
     e( 26 - 26) =     -3.52933  eV     1   --> A              
     e( 27 - 27) =     -3.51458  eV     1   --> A              
     e( 28 - 28) =     -2.99408  eV     1   --> A              
     e( 29 - 29) =     -0.84295  eV     1   --> A              
     e( 30 - 30) =     -0.23879  eV     1   --> A              
     e( 31 - 31) =      0.80731  eV     1   --> A              
     e( 32 - 32) =      1.90935  eV     1   --> A              
     e( 33 - 33) =      1.91184  eV     1   --> A              
     e( 34 - 34) =      3.12428  eV     1   --> A              
     e( 35 - 35) =      3.48941  eV     1   --> A              
     e( 36 - 36) =      4.61954  eV     1   --> A              
     e( 37 - 37) =      4.81840  eV     1   --> A              
     e( 38 - 38) =      4.86972  eV     1   --> A              
     e( 39 - 39) =      5.24095  eV     1   --> A              
     e( 40 - 40) =      5.64149  eV     1   --> A              
     e( 41 - 41) =      6.11703  eV     1   --> A              
     e( 42 - 42) =      6.82453  eV     1   --> A              

 **************************************************************************

 **************************************************************************

                    xk=(   0.15291,   0.00003,   0.00000  )

     Band symmetry, C_1 (1)     point group:

     e(  1 -  1) =    -67.51401  eV     1   --> A              
     e(  2 -  2) =    -67.48488  eV     1   --> A              
     e(  3 -  3) =    -34.49310  eV     1   --> A              
     e(  4 -  4) =    -34.04675  eV     1   --> A              
     e(  5 -  5) =    -33.74327  eV     1   --> A              
     e(  6 -  6) =    -33.71779  eV     1   --> A              
     e(  7 -  7) =    -33.63504  eV     1   --> A              
     e(  8 -  8) =    -33.59710  eV     1   --> A              
     e(  9 -  9) =    -19.17274  eV     1   --> A              
     e( 10 - 10) =    -19.16113  eV     1   --> A              
     e( 11 - 11) =    -19.14399  eV     1   --> A              
     e( 12 - 12) =    -19.14160  eV     1   --> A              
     e( 13 - 13) =    -19.13787  eV     1   --> A              
     e( 14 - 14) =    -19.13425  eV     1   --> A              
     e( 15 - 15) =    -19.12350  eV     1   --> A              
     e( 16 - 16) =    -19.11907  eV     1   --> A              
     e( 17 - 17) =    -19.11667  eV     1   --> A              
     e( 18 - 18) =    -19.11285  eV     1   --> A              
     e( 19 - 19) =    -19.09661  eV     1   --> A              
     e( 20 - 20) =    -19.09122  eV     1   --> A              
     e( 21 - 21) =    -19.03378  eV     1   --> A              
     e( 22 - 22) =    -19.03328  eV     1   --> A              
     e( 23 - 23) =    -12.41657  eV     1   --> A              
     e( 24 - 24) =     -7.71775  eV     1   --> A              
     e( 25 - 25) =     -5.34455  eV     1   --> A              
     e( 26 - 26) =     -3.65193  eV     1   --> A              
     e( 27 - 27) =     -3.56445  eV     1   --> A              
     e( 28 - 28) =     -2.94024  eV     1   --> A              
     e( 29 - 29) =     -0.73777  eV     1   --> A              
     e( 30 - 30) =     -0.42911  eV     1   --> A              
     e( 31 - 31) =      0.91705  eV     1   --> A              
     e( 32 - 32) =      1.79153  eV     1   --> A              
     e( 33 - 33) =      1.87837  eV     1   --> A              
     e( 34 - 34) =      3.10032  eV     1   --> A              
     e( 35 - 35) =      3.60013  eV     1   --> A              
     e( 36 - 36) =      4.81033  eV     1   --> A              
     e( 37 - 37) =      4.93638  eV     1   --> A              
     e( 38 - 38) =      4.99934  eV     1   --> A              
     e( 39 - 39) =      5.35110  eV     1   --> A              
     e( 40 - 40) =      5.75410  eV     1   --> A              
     e( 41 - 41) =      6.23020  eV     1   --> A              
     e( 42 - 42) =      6.93676  eV     1   --> A              

 **************************************************************************

 **************************************************************************

                    xk=(   0.17476,   0.00003,   0.00000  )

     Band symmetry, C_1 (1)     point group:

     e(  1 -  1) =    -67.51075  eV     1   --> A              
     e(  2 -  2) =    -67.48236  eV     1   --> A              
     e(  3 -  3) =    -34.48250  eV     1   --> A              
     e(  4 -  4) =    -34.04774  eV     1   --> A              
     e(  5 -  5) =    -33.77970  eV     1   --> A              
     e(  6 -  6) =    -33.75788  eV     1   --> A              
     e(  7 -  7) =    -33.64664  eV     1   --> A              
     e(  8 -  8) =    -33.60771  eV     1   --> A              
     e(  9 -  9) =    -19.17155  eV     1   --> A              
     e( 10 - 10) =    -19.16059  eV     1   --> A              
     e( 11 - 11) =    -19.14500  eV     1   --> A              
     e( 12 - 12) =    -19.14221  eV     1   --> A              
     e( 13 - 13) =    -19.13779  eV     1   --> A              
     e( 14 - 14) =    -19.13345  eV     1   --> A              
     e( 15 - 15) =    -19.12461  eV     1   --> A              
     e( 16 - 16) =    -19.11898  eV     1   --> A              
     e( 17 - 17) =    -19.11705  eV     1   --> A              
     e( 18 - 18) =    -19.11236  eV     1   --> A              
     e( 19 - 19) =    -19.09410  eV     1   --> A              
     e( 20 - 20) =    -19.08890  eV     1   --> A              
     e( 21 - 21) =    -19.03613  eV     1   --> A              
     e( 22 - 22) =    -19.03571  eV     1   --> A              
     e( 23 - 23) =    -12.32053  eV     1   --> A              
     e( 24 - 24) =     -7.56531  eV     1   --> A              
     e( 25 - 25) =     -5.38277  eV     1   --> A              
     e( 26 - 26) =     -3.77937  eV     1   --> A              
     e( 27 - 27) =     -3.62406  eV     1   --> A              
     e( 28 - 28) =     -2.87878  eV     1   --> A              
     e( 29 - 29) =     -0.62353  eV     1   --> A              
     e( 30 - 30) =     -0.61935  eV     1   --> A              
     e( 31 - 31) =      0.99229  eV     1   --> A              
     e( 32 - 32) =      1.72985  eV     1   --> A              
     e( 33 - 33) =      1.88416  eV     1   --> A              
     e( 34 - 34) =      3.06369  eV     1   --> A              
     e( 35 - 35) =      3.71408  eV     1   --> A              
     e( 36 - 36) =      4.96669  eV     1   --> A              
     e( 37 - 37) =      5.07044  eV     1   --> A              
     e( 38 - 38) =      5.16115  eV     1   --> A              
     e( 39 - 39) =      5.47778  eV     1   --> A              
     e( 40 - 40) =      5.88370  eV     1   --> A              
     e( 41 - 41) =      6.35807  eV     1   --> A              
     e( 42 - 42) =      7.06429  eV     1   --> A              

 **************************************************************************

 **************************************************************************

                    xk=(   0.19660,   0.00003,   0.00000  )

     Band symmetry, C_1 (1)     point group:

     e(  1 -  1) =    -67.50720  eV     1   --> A              
     e(  2 -  2) =    -67.47963  eV     1   --> A              
     e(  3 -  3) =    -34.47104  eV     1   --> A              
     e(  4 -  4) =    -34.04990  eV     1   --> A              
     e(  5 -  5) =    -33.81757  eV     1   --> A              
     e(  6 -  6) =    -33.80066  eV     1   --> A              
     e(  7 -  7) =    -33.65957  eV     1   --> A              
     e(  8 -  8) =    -33.61979  eV     1   --> A              
     e(  9 -  9) =    -19.17027  eV     1   --> A              
     e( 10 - 10) =    -19.16003  eV     1   --> A              
     e( 11 - 11) =    -19.14606  eV     1   --> A              
     e( 12 - 12) =    -19.14292  eV     1   --> A              
     e( 13 - 13) =    -19.13771  eV     1   --> A              
     e( 14 - 14) =    -19.13267  eV     1   --> A              
     e( 15 - 15) =    -19.12574  eV     1   --> A              
     e( 16 - 16) =    -19.11885  eV     1   --> A              
     e( 17 - 17) =    -19.11739  eV     1   --> A              
     e( 18 - 18) =    -19.11182  eV     1   --> A              
     e( 19 - 19) =    -19.09135  eV     1   --> A              
     e( 20 - 20) =    -19.08636  eV     1   --> A              
     e( 21 - 21) =    -19.03867  eV     1   --> A              
     e( 22 - 22) =    -19.03833  eV     1   --> A              
     e( 23 - 23) =    -12.21723  eV     1   --> A              
     e( 24 - 24) =     -7.40091  eV     1   --> A              
     e( 25 - 25) =     -5.42195  eV     1   --> A              
     e( 26 - 26) =     -3.90817  eV     1   --> A              
     e( 27 - 27) =     -3.69189  eV     1   --> A              
     e( 28 - 28) =     -2.81164  eV     1   --> A              
     e( 29 - 29) =     -0.81064  eV     1   --> A              
     e( 30 - 30) =     -0.49386  eV     1   --> A              
     e( 31 - 31) =      0.98728  eV     1   --> A              
     e( 32 - 32) =      1.77424  eV     1   --> A              
     e( 33 - 33) =      1.92466  eV     1   --> A              
     e( 34 - 34) =      3.01672  eV     1   --> A              
     e( 35 - 35) =      3.83043  eV     1   --> A              
     e( 36 - 36) =      5.10001  eV     1   --> A              
     e( 37 - 37) =      5.21966  eV     1   --> A              
     e( 38 - 38) =      5.34210  eV     1   --> A              
     e( 39 - 39) =      5.62075  eV     1   --> A              
     e( 40 - 40) =      6.03010  eV     1   --> A              
     e( 41 - 41) =      6.49981  eV     1   --> A              
     e( 42 - 42) =      7.20211  eV     1   --> A              

 **************************************************************************

 **************************************************************************

                    xk=(   0.21844,   0.00004,   0.00000  )

     Band symmetry, C_1 (1)     point group:

     e(  1 -  1) =    -67.50339  eV     1   --> A              
     e(  2 -  2) =    -67.47672  eV     1   --> A              
     e(  3 -  3) =    -34.45896  eV     1   --> A              
     e(  4 -  4) =    -34.05397  eV     1   --> A              
     e(  5 -  5) =    -33.85544  eV     1   --> A              
     e(  6 -  6) =    -33.84511  eV     1   --> A              
     e(  7 -  7) =    -33.67389  eV     1   --> A              
     e(  8 -  8) =    -33.63332  eV     1   --> A              
     e(  9 -  9) =    -19.16890  eV     1   --> A              
     e( 10 - 10) =    -19.15948  eV     1   --> A              
     e( 11 - 11) =    -19.14714  eV     1   --> A              
     e( 12 - 12) =    -19.14372  eV     1   --> A              
     e( 13 - 13) =    -19.13765  eV     1   --> A              
     e( 14 - 14) =    -19.13197  eV     1   --> A              
     e( 15 - 15) =    -19.12685  eV     1   --> A              
     e( 16 - 16) =    -19.11878  eV     1   --> A              
     e( 17 - 17) =    -19.11755  eV     1   --> A              
     e( 18 - 18) =    -19.11125  eV     1   --> A              
     e( 19 - 19) =    -19.08842  eV     1   --> A              
     e( 20 - 20) =    -19.08365  eV     1   --> A              
     e( 21 - 21) =    -19.04135  eV     1   --> A              
     e( 22 - 22) =    -19.04110  eV     1   --> A              
     e( 23 - 23) =    -12.10845  eV     1   --> A              
     e( 24 - 24) =     -7.22753  eV     1   --> A              
     e( 25 - 25) =     -5.46075  eV     1   --> A              
     e( 26 - 26) =     -4.03532  eV     1   --> A              
     e( 27 - 27) =     -3.76587  eV     1   --> A              
     e( 28 - 28) =     -2.74110  eV     1   --> A              
     e( 29 - 29) =     -0.99011  eV     1   --> A              
     e( 30 - 30) =     -0.35711  eV     1   --> A              
     e( 31 - 31) =      0.90227  eV     1   --> A              
     e( 32 - 32) =      1.92515  eV     1   --> A              
     e( 33 - 33) =      1.99531  eV     1   --> A              
     e( 34 - 34) =      2.96420  eV     1   --> A              
     e( 35 - 35) =      3.94874  eV     1   --> A              
     e( 36 - 36) =      5.22392  eV     1   --> A              
     e( 37 - 37) =      5.38312  eV     1   --> A              
     e( 38 - 38) =      5.52890  eV     1   --> A              
     e( 39 - 39) =      5.77975  eV     1   --> A              
     e( 40 - 40) =      6.19279  eV     1   --> A              
     e( 41 - 41) =      6.65381  eV     1   --> A              
     e( 42 - 42) =      7.18329  eV     1   --> A              

 **************************************************************************

 **************************************************************************

                    xk=(   0.24029,   0.00004,   0.00000  )

     Band symmetry, C_1 (1)     point group:

     e(  1 -  1) =    -67.49938  eV     1   --> A              
     e(  2 -  2) =    -67.47369  eV     1   --> A              
     e(  3 -  3) =    -34.44651  eV     1   --> A              
     e(  4 -  4) =    -34.06107  eV     1   --> A              
     e(  5 -  5) =    -33.89146  eV     1   --> A              
     e(  6 -  6) =    -33.89022  eV     1   --> A              
     e(  7 -  7) =    -33.68963  eV     1   --> A              
     e(  8 -  8) =    -33.64829  eV     1   --> A              
     e(  9 -  9) =    -19.16747  eV     1   --> A              
     e( 10 - 10) =    -19.15894  eV     1   --> A              
     e( 11 - 11) =    -19.14821  eV     1   --> A              
     e( 12 - 12) =    -19.14460  eV     1   --> A              
     e( 13 - 13) =    -19.13763  eV     1   --> A              
     e( 14 - 14) =    -19.13139  eV     1   --> A              
     e( 15 - 15) =    -19.12791  eV     1   --> A              
     e( 16 - 16) =    -19.11890  eV     1   --> A              
     e( 17 - 17) =    -19.11735  eV     1   --> A              
     e( 18 - 18) =    -19.11065  eV     1   --> A              
     e( 19 - 19) =    -19.08534  eV     1   --> A              
     e( 20 - 20) =    -19.08079  eV     1   --> A              
     e( 21 - 21) =    -19.04414  eV     1   --> A              
     e( 22 - 22) =    -19.04399  eV     1   --> A              
     e( 23 - 23) =    -11.99600  eV     1   --> A              
     e( 24 - 24) =     -7.04843  eV     1   --> A              
     e( 25 - 25) =     -5.49787  eV     1   --> A              
     e( 26 - 26) =     -4.15818  eV     1   --> A              
     e( 27 - 27) =     -3.84365  eV     1   --> A              
     e( 28 - 28) =     -2.66985  eV     1   --> A              
     e( 29 - 29) =     -1.15556  eV     1   --> A              
     e( 30 - 30) =     -0.21180  eV     1   --> A              
     e( 31 - 31) =      0.77579  eV     1   --> A              
     e( 32 - 32) =      2.08739  eV     1   --> A              
     e( 33 - 33) =      2.14394  eV     1   --> A              
     e( 34 - 34) =      2.91516  eV     1   --> A              
     e( 35 - 35) =      4.06885  eV     1   --> A              
     e( 36 - 36) =      5.34281  eV     1   --> A              
     e( 37 - 37) =      5.55997  eV     1   --> A              
     e( 38 - 38) =      5.71888  eV     1   --> A              
     e( 39 - 39) =      5.95450  eV     1   --> A              
     e( 40 - 40) =      6.37099  eV     1   --> A              
     e( 41 - 41) =      6.81606  eV     1   --> A              
     e( 42 - 42) =      7.17943  eV     1   --> A              

 **************************************************************************

 **************************************************************************

                    xk=(   0.26213,   0.00005,   0.00000  )

     Band symmetry, C_1 (1)     point group:

     e(  1 -  1) =    -67.49520  eV     1   --> A              
     e(  2 -  2) =    -67.47058  eV     1   --> A              
     e(  3 -  3) =    -34.43401  eV     1   --> A              
     e(  4 -  4) =    -34.07275  eV     1   --> A              
     e(  5 -  5) =    -33.93497  eV     1   --> A              
     e(  6 -  6) =    -33.92334  eV     1   --> A              
     e(  7 -  7) =    -33.70676  eV     1   --> A              
     e(  8 -  8) =    -33.66464  eV     1   --> A              
     e(  9 -  9) =    -19.16599  eV     1   --> A              
     e( 10 - 10) =    -19.15843  eV     1   --> A              
     e( 11 - 11) =    -19.14926  eV     1   --> A              
     e( 12 - 12) =    -19.14554  eV     1   --> A              
     e( 13 - 13) =    -19.13766  eV     1   --> A              
     e( 14 - 14) =    -19.13097  eV     1   --> A              
     e( 15 - 15) =    -19.12887  eV     1   --> A              
     e( 16 - 16) =    -19.11918  eV     1   --> A              
     e( 17 - 17) =    -19.11681  eV     1   --> A              
     e( 18 - 18) =    -19.11006  eV     1   --> A              
     e( 19 - 19) =    -19.08215  eV     1   --> A              
     e( 20 - 20) =    -19.07784  eV     1   --> A              
     e( 21 - 22) =    -19.04701  eV     2   -->   2 A              
     e( 23 - 23) =    -11.88169  eV     1   --> A              
     e( 24 - 24) =     -6.86707  eV     1   --> A              
     e( 25 - 25) =     -5.53218  eV     1   --> A              
     e( 26 - 26) =     -4.27431  eV     1   --> A              
     e( 27 - 27) =     -3.92272  eV     1   --> A              
     e( 28 - 28) =     -2.60104  eV     1   --> A              
     e( 29 - 29) =     -1.30270  eV     1   --> A              
     e( 30 - 30) =     -0.05946  eV     1   --> A              
     e( 31 - 31) =      0.63470  eV     1   --> A              
     e( 32 - 32) =      2.18461  eV     1   --> A              
     e( 33 - 33) =      2.40320  eV     1   --> A              
     e( 34 - 34) =      2.88617  eV     1   --> A              
     e( 35 - 35) =      4.19081  eV     1   --> A              
     e( 36 - 36) =      5.45710  eV     1   --> A              
     e( 37 - 37) =      5.74946  eV     1   --> A              
     e( 38 - 38) =      5.91405  eV     1   --> A              
     e( 39 - 39) =      6.14476  eV     1   --> A              
     e( 40 - 40) =      6.56373  eV     1   --> A              
     e( 41 - 41) =      6.97251  eV     1   --> A              
     e( 42 - 42) =      7.20587  eV     1   --> A              

 **************************************************************************

 **************************************************************************

                    xk=(   0.28398,   0.00005,   0.00000  )

     Band symmetry, C_1 (1)     point group:

     e(  1 -  1) =    -67.49093  eV     1   --> A              
     e(  2 -  2) =    -67.46743  eV     1   --> A              
     e(  3 -  3) =    -34.42185  eV     1   --> A              
     e(  4 -  4) =    -34.09048  eV     1   --> A              
     e(  5 -  5) =    -33.97828  eV     1   --> A              
     e(  6 -  6) =    -33.94894  eV     1   --> A              
     e(  7 -  7) =    -33.72525  eV     1   --> A              
     e(  8 -  8) =    -33.68233  eV     1   --> A              
     e(  9 -  9) =    -19.16449  eV     1   --> A              
     e( 10 - 10) =    -19.15796  eV     1   --> A              
     e( 11 - 11) =    -19.15025  eV     1   --> A              
     e( 12 - 12) =    -19.14652  eV     1   --> A              
     e( 13 - 13) =    -19.13776  eV     1   --> A              
     e( 14 - 14) =    -19.13072  eV     1   --> A              
     e( 15 - 15) =    -19.12969  eV     1   --> A              
     e( 16 - 16) =    -19.11949  eV     1   --> A              
     e( 17 - 17) =    -19.11605  eV     1   --> A              
     e( 18 - 18) =    -19.10948  eV     1   --> A              
     e( 19 - 19) =    -19.07889  eV     1   --> A              
     e( 20 - 20) =    -19.07483  eV     1   --> A              
     e( 21 - 22) =    -19.04995  eV     2   -->   2 A              
     e( 23 - 23) =    -11.76727  eV     1   --> A              
     e( 24 - 24) =     -6.68703  eV     1   --> A              
     e( 25 - 25) =     -5.56284  eV     1   --> A              
     e( 26 - 26) =     -4.38152  eV     1   --> A              
     e( 27 - 27) =     -4.00061  eV     1   --> A              
     e( 28 - 28) =     -2.53847  eV     1   --> A              
     e( 29 - 29) =     -1.42741  eV     1   --> A              
     e( 30 - 30) =      0.09532  eV     1   --> A              
     e( 31 - 31) =      0.49509  eV     1   --> A              
     e( 32 - 32) =      2.26017  eV     1   --> A              
     e( 33 - 33) =      2.68840  eV     1   --> A              
     e( 34 - 34) =      2.90380  eV     1   --> A              
     e( 35 - 35) =      4.31468  eV     1   --> A              
     e( 36 - 36) =      5.56695  eV     1   --> A              
     e( 37 - 37) =      5.95087  eV     1   --> A              
     e( 38 - 38) =      6.11711  eV     1   --> A              
     e( 39 - 39) =      6.35037  eV     1   --> A              
     e( 40 - 40) =      6.76990  eV     1   --> A              
     e( 41 - 41) =      7.07963  eV     1   --> A              
     e( 42 - 42) =      7.30411  eV     1   --> A              

 **************************************************************************

 **************************************************************************

                    xk=(   0.30582,   0.00005,   0.00000  )

     Band symmetry, C_1 (1)     point group:

     e(  1 -  1) =    -67.48660  eV     1   --> A              
     e(  2 -  2) =    -67.46430  eV     1   --> A              
     e(  3 -  3) =    -34.41047  eV     1   --> A              
     e(  4 -  4) =    -34.11430  eV     1   --> A              
     e(  5 -  5) =    -34.01910  eV     1   --> A              
     e(  6 -  6) =    -33.96755  eV     1   --> A              
     e(  7 -  7) =    -33.74504  eV     1   --> A              
     e(  8 -  8) =    -33.70131  eV     1   --> A              
     e(  9 -  9) =    -19.16297  eV     1   --> A              
     e( 10 - 10) =    -19.15756  eV     1   --> A              
     e( 11 - 11) =    -19.15117  eV     1   --> A              
     e( 12 - 12) =    -19.14749  eV     1   --> A              
     e( 13 - 13) =    -19.13798  eV     1   --> A              
     e( 14 - 14) =    -19.13067  eV     1   --> A              
     e( 15 - 15) =    -19.13034  eV     1   --> A              
     e( 16 - 16) =    -19.11978  eV     1   --> A              
     e( 17 - 17) =    -19.11513  eV     1   --> A              
     e( 18 - 18) =    -19.10894  eV     1   --> A              
     e( 19 - 19) =    -19.07561  eV     1   --> A              
     e( 20 - 20) =    -19.07181  eV     1   --> A              
     e( 21 - 21) =    -19.05295  eV     1   --> A              
     e( 22 - 22) =    -19.05280  eV     1   --> A              
     e( 23 - 23) =    -11.65437  eV     1   --> A              
     e( 24 - 24) =     -6.51196  eV     1   --> A              
     e( 25 - 25) =     -5.58938  eV     1   --> A              
     e( 26 - 26) =     -4.47768  eV     1   --> A              
     e( 27 - 27) =     -4.07499  eV     1   --> A              
     e( 28 - 28) =     -2.48668  eV     1   --> A              
     e( 29 - 29) =     -1.52552  eV     1   --> A              
     e( 30 - 30) =      0.21587  eV     1   --> A              
     e( 31 - 31) =      0.39911  eV     1   --> A              
     e( 32 - 32) =      2.29097  eV     1   --> A              
     e( 33 - 33) =      2.98876  eV     1   --> A              
     e( 34 - 34) =      2.99084  eV     1   --> A              
     e( 35 - 35) =      4.44039  eV     1   --> A              
     e( 36 - 36) =      5.67383  eV     1   --> A              
     e( 37 - 37) =      6.16338  eV     1   --> A              
     e( 38 - 38) =      6.32975  eV     1   --> A              
     e( 39 - 39) =      6.57125  eV     1   --> A              
     e( 40 - 40) =      6.98770  eV     1   --> A              
     e( 41 - 41) =      7.12679  eV     1   --> A              
     e( 42 - 42) =      7.47991  eV     1   --> A              

 **************************************************************************

 **************************************************************************

                    xk=(   0.32767,   0.00006,   0.00000  )

     Band symmetry, C_1 (1)     point group:

     e(  1 -  1) =    -67.48226  eV     1   --> A              
     e(  2 -  2) =    -67.46122  eV     1   --> A              
     e(  3 -  3) =    -34.40040  eV     1   --> A              
     e(  4 -  4) =    -34.14229  eV     1   --> A              
     e(  5 -  5) =    -34.05634  eV     1   --> A              
     e(  6 -  6) =    -33.98046  eV     1   --> A              
     e(  7 -  7) =    -33.76604  eV     1   --> A              
     e(  8 -  8) =    -33.72148  eV     1   --> A              
     e(  9 -  9) =    -19.16144  eV     1   --> A              
     e( 10 - 10) =    -19.15725  eV     1   --> A              
     e( 11 - 11) =    -19.15198  eV     1   --> A              
     e( 12 - 12) =    -19.14840  eV     1   --> A              
     e( 13 - 13) =    -19.13831  eV     1   --> A              
     e( 14 - 14) =    -19.13090  eV     1   --> A              
     e( 15 - 15) =    -19.13071  eV     1   --> A              
     e( 16 - 16) =    -19.12001  eV     1   --> A              
     e( 17 - 17) =    -19.11412  eV     1   --> A              
     e( 18 - 18) =    -19.10847  eV     1   --> A              
     e( 19 - 19) =    -19.07235  eV     1   --> A              
     e( 20 - 20) =    -19.06883  eV     1   --> A              
     e( 21 - 21) =    -19.05591  eV     1   --> A              
     e( 22 - 22) =    -19.05567  eV     1   --> A              
     e( 23 - 23) =    -11.54447  eV     1   --> A              
     e( 24 - 24) =     -6.34532  eV     1   --> A              
     e( 25 - 25) =     -5.61177  eV     1   --> A              
     e( 26 - 26) =     -4.56082  eV     1   --> A              
     e( 27 - 27) =     -4.14389  eV     1   --> A              
     e( 28 - 28) =     -2.45064  eV     1   --> A              
     e( 29 - 29) =     -1.59295  eV     1   --> A              
     e( 30 - 30) =      0.15808  eV     1   --> A              
     e( 31 - 31) =      0.49397  eV     1   --> A              
     e( 32 - 32) =      2.28395  eV     1   --> A              
     e( 33 - 33) =      3.13385  eV     1   --> A              
     e( 34 - 34) =      3.29868  eV     1   --> A              
     e( 35 - 35) =      4.56744  eV     1   --> A              
     e( 36 - 36) =      5.78155  eV     1   --> A              
     e( 37 - 37) =      6.38569  eV     1   --> A              
     e( 38 - 38) =      6.55178  eV     1   --> A              
     e( 39 - 39) =      6.80738  eV     1   --> A              
     e( 40 - 40) =      7.15109  eV     1   --> A              
     e( 41 - 41) =      7.21230  eV     1   --> A              
     e( 42 - 42) =      7.68830  eV     1   --> A              

 **************************************************************************

 **************************************************************************

                    xk=(   0.34951,   0.00006,   0.00000  )

     Band symmetry, C_1 (1)     point group:

     e(  1 -  1) =    -67.47798  eV     1   --> A              
     e(  2 -  2) =    -67.45823  eV     1   --> A              
     e(  3 -  3) =    -34.39222  eV     1   --> A              
     e(  4 -  4) =    -34.17181  eV     1   --> A              
     e(  5 -  5) =    -34.08891  eV     1   --> A              
     e(  6 -  6) =    -33.98976  eV     1   --> A              
     e(  7 -  7) =    -33.78815  eV     1   --> A              
     e(  8 -  8) =    -33.74276  eV     1   --> A              
     e(  9 -  9) =    -19.15992  eV     1   --> A              
     e( 10 - 10) =    -19.15706  eV     1   --> A              
     e( 11 - 11) =    -19.15267  eV     1   --> A              
     e( 12 - 12) =    -19.14918  eV     1   --> A              
     e( 13 - 13) =    -19.13877  eV     1   --> A              
     e( 14 - 14) =    -19.13121  eV     1   --> A              
     e( 15 - 15) =    -19.13097  eV     1   --> A              
     e( 16 - 16) =    -19.12018  eV     1   --> A              
     e( 17 - 17) =    -19.11307  eV     1   --> A              
     e( 18 - 18) =    -19.10809  eV     1   --> A              
     e( 19 - 19) =    -19.06917  eV     1   --> A              
     e( 20 - 20) =    -19.06597  eV     1   --> A              
     e( 21 - 21) =    -19.05875  eV     1   --> A              
     e( 22 - 22) =    -19.05846  eV     1   --> A              
     e( 23 - 23) =    -11.43887  eV     1   --> A              
     e( 24 - 24) =     -6.19020  eV     1   --> A              
     e( 25 - 25) =     -5.63041  eV     1   --> A              
     e( 26 - 26) =     -4.62910  eV     1   --> A              
     e( 27 - 27) =     -4.20579  eV     1   --> A              
     e( 28 - 28) =     -2.43484  eV     1   --> A              
     e( 29 - 29) =     -1.62652  eV     1   --> A              
     e( 30 - 30) =      0.03648  eV     1   --> A              
     e( 31 - 31) =      0.66721  eV     1   --> A              
     e( 32 - 32) =      2.26335  eV     1   --> A              
     e( 33 - 33) =      3.30562  eV     1   --> A              
     e( 34 - 34) =      3.60552  eV     1   --> A              
     e( 35 - 35) =      4.69454  eV     1   --> A              
     e( 36 - 36) =      5.89690  eV     1   --> A              
     e( 37 - 37) =      6.61478  eV     1   --> A              
     e( 38 - 38) =      6.77951  eV     1   --> A              
     e( 39 - 39) =      7.05868  eV     1   --> A              
     e( 40 - 40) =      7.16187  eV     1   --> A              
     e( 41 - 41) =      7.42245  eV     1   --> A              
     e( 42 - 42) =      7.73807  eV     1   --> A              

 **************************************************************************

 **************************************************************************

                    xk=(   0.37136,   0.00006,   0.00000  )

     Band symmetry, C_1 (1)     point group:

     e(  1 -  1) =    -67.47378  eV     1   --> A              
     e(  2 -  2) =    -67.45539  eV     1   --> A              
     e(  3 -  3) =    -34.38647  eV     1   --> A              
     e(  4 -  4) =    -34.20064  eV     1   --> A              
     e(  5 -  5) =    -34.11591  eV     1   --> A              
     e(  6 -  6) =    -33.99719  eV     1   --> A              
     e(  7 -  7) =    -33.81122  eV     1   --> A              
     e(  8 -  8) =    -33.76499  eV     1   --> A              
     e(  9 -  9) =    -19.15842  eV     1   --> A              
     e( 10 - 10) =    -19.15706  eV     1   --> A              
     e( 11 - 11) =    -19.15322  eV     1   --> A              
     e( 12 - 12) =    -19.14973  eV     1   --> A              
     e( 13 - 13) =    -19.13933  eV     1   --> A              
     e( 14 - 14) =    -19.13146  eV     1   --> A              
     e( 15 - 15) =    -19.13128  eV     1   --> A              
     e( 16 - 16) =    -19.12027  eV     1   --> A              
     e( 17 - 17) =    -19.11204  eV     1   --> A              
     e( 18 - 18) =    -19.10782  eV     1   --> A              
     e( 19 - 19) =    -19.06619  eV     1   --> A              
     e( 20 - 20) =    -19.06369  eV     1   --> A              
     e( 21 - 22) =    -19.06107  eV     2   -->   2 A              
     e( 23 - 23) =    -11.33863  eV     1   --> A              
     e( 24 - 24) =     -6.04898  eV     1   --> A              
     e( 25 - 25) =     -5.64602  eV     1   --> A              
     e( 26 - 26) =     -4.68102  eV     1   --> A              
     e( 27 - 27) =     -4.25978  eV     1   --> A              
     e( 28 - 28) =     -2.44156  eV     1   --> A              
     e( 29 - 29) =     -1.62551  eV     1   --> A              
     e( 30 - 30) =     -0.08364  eV     1   --> A              
     e( 31 - 31) =      0.85505  eV     1   --> A              
     e( 32 - 32) =      2.24794  eV     1   --> A              
     e( 33 - 33) =      3.47674  eV     1   --> A              
     e( 34 - 34) =      3.89958  eV     1   --> A              
     e( 35 - 35) =      4.81908  eV     1   --> A              
     e( 36 - 36) =      6.02976  eV     1   --> A              
     e( 37 - 37) =      6.83882  eV     1   --> A              
     e( 38 - 38) =      6.99968  eV     1   --> A              
     e( 39 - 39) =      7.16418  eV     1   --> A              
     e( 40 - 40) =      7.32569  eV     1   --> A              
     e( 41 - 41) =      7.54231  eV     1   --> A              
     e( 42 - 42) =      7.85245  eV     1   --> A              

 **************************************************************************

 **************************************************************************

                    xk=(   0.39320,   0.00007,   0.00000  )

     Band symmetry, C_1 (1)     point group:

     e(  1 -  1) =    -67.46972  eV     1   --> A              
     e(  2 -  2) =    -67.45273  eV     1   --> A              
     e(  3 -  3) =    -34.38344  eV     1   --> A              
     e(  4 -  4) =    -34.22723  eV     1   --> A              
     e(  5 -  5) =    -34.13672  eV     1   --> A              
     e(  6 -  6) =    -34.00390  eV     1   --> A              
     e(  7 -  7) =    -33.83503  eV     1   --> A              
     e(  8 -  8) =    -33.78802  eV     1   --> A              
     e(  9 -  9) =    -19.15726  eV     1   --> A              
     e( 10 - 10) =    -19.15695  eV     1   --> A              
     e( 11 - 11) =    -19.15360  eV     1   --> A              
     e( 12 - 12) =    -19.15000  eV     1   --> A              
     e( 13 - 13) =    -19.13998  eV     1   --> A              
     e( 14 - 14) =    -19.13188  eV     1   --> A              
     e( 15 - 15) =    -19.13141  eV     1   --> A              
     e( 16 - 16) =    -19.12026  eV     1   --> A              
     e( 17 - 17) =    -19.11108  eV     1   --> A              
     e( 18 - 18) =    -19.10768  eV     1   --> A              
     e( 19 - 19) =    -19.06487  eV     1   --> A              
     e( 20 - 20) =    -19.06475  eV     1   --> A              
     e( 21 - 21) =    -19.06216  eV     1   --> A              
     e( 22 - 22) =    -19.05985  eV     1   --> A              
     e( 23 - 23) =    -11.24459  eV     1   --> A              
     e( 24 - 24) =     -5.92308  eV     1   --> A              
     e( 25 - 25) =     -5.65930  eV     1   --> A              
     e( 26 - 26) =     -4.71565  eV     1   --> A              
     e( 27 - 27) =     -4.30570  eV     1   --> A              
     e( 28 - 28) =     -2.47005  eV     1   --> A              
     e( 29 - 29) =     -1.59231  eV     1   --> A              
     e( 30 - 30) =     -0.19395  eV     1   --> A              
     e( 31 - 31) =      1.05029  eV     1   --> A              
     e( 32 - 32) =      2.24856  eV     1   --> A              
     e( 33 - 33) =      3.62440  eV     1   --> A              
     e( 34 - 34) =      4.16857  eV     1   --> A              
     e( 35 - 35) =      4.93693  eV     1   --> A              
     e( 36 - 36) =      6.19186  eV     1   --> A              
     e( 37 - 37) =      6.98555  eV     1   --> A              
     e( 38 - 38) =      7.16771  eV     1   --> A              
     e( 39 - 39) =      7.22616  eV     1   --> A              
     e( 40 - 40) =      7.60694  eV     1   --> A              
     e( 41 - 41) =      7.60914  eV     1   --> A              
     e( 42 - 42) =      8.08815  eV     1   --> A              

 **************************************************************************

 **************************************************************************

                    xk=(   0.41504,   0.00007,   0.00000  )

     Band symmetry, C_1 (1)     point group:

     e(  1 -  1) =    -67.46584  eV     1   --> A              
     e(  2 -  2) =    -67.45027  eV     1   --> A              
     e(  3 -  3) =    -34.38295  eV     1   --> A              
     e(  4 -  4) =    -34.25055  eV     1   --> A              
     e(  5 -  5) =    -34.15136  eV     1   --> A              
     e(  6 -  6) =    -34.01063  eV     1   --> A              
     e(  7 -  7) =    -33.85935  eV     1   --> A              
     e(  8 -  8) =    -33.81162  eV     1   --> A              
     e(  9 -  9) =    -19.15764  eV     1   --> A              
     e( 10 - 10) =    -19.15558  eV     1   --> A              
     e( 11 - 11) =    -19.15377  eV     1   --> A              
     e( 12 - 12) =    -19.14998  eV     1   --> A              
     e( 13 - 13) =    -19.14070  eV     1   --> A              
     e( 14 - 14) =    -19.13243  eV     1   --> A              
     e( 15 - 15) =    -19.13144  eV     1   --> A              
     e( 16 - 16) =    -19.12016  eV     1   --> A              
     e( 17 - 17) =    -19.11023  eV     1   --> A              
     e( 18 - 18) =    -19.10767  eV     1   --> A              
     e( 19 - 19) =    -19.06731  eV     1   --> A              
     e( 20 - 20) =    -19.06673  eV     1   --> A              
     e( 21 - 21) =    -19.05986  eV     1   --> A              
     e( 22 - 22) =    -19.05744  eV     1   --> A              
     e( 23 - 23) =    -11.15738  eV     1   --> A              
     e( 24 - 24) =     -5.81271  eV     1   --> A              
     e( 25 - 25) =     -5.67066  eV     1   --> A              
     e( 26 - 26) =     -4.73299  eV     1   --> A              
     e( 27 - 27) =     -4.34419  eV     1   --> A              
     e( 28 - 28) =     -2.51757  eV     1   --> A              
     e( 29 - 29) =     -1.53124  eV     1   --> A              
     e( 30 - 30) =     -0.29132  eV     1   --> A              
     e( 31 - 31) =      1.25053  eV     1   --> A              
     e( 32 - 32) =      2.27077  eV     1   --> A              
     e( 33 - 33) =      3.73161  eV     1   --> A              
     e( 34 - 34) =      4.39837  eV     1   --> A              
     e( 35 - 35) =      5.04335  eV     1   --> A              
     e( 36 - 36) =      6.39302  eV     1   --> A              
     e( 37 - 37) =      6.97330  eV     1   --> A              
     e( 38 - 38) =      7.21647  eV     1   --> A              
     e( 39 - 39) =      7.42874  eV     1   --> A              
     e( 40 - 40) =      7.76741  eV     1   --> A              
     e( 41 - 41) =      7.90183  eV     1   --> A              
     e( 42 - 42) =      8.36083  eV     1   --> A              

 **************************************************************************

 **************************************************************************

                    xk=(   0.43689,   0.00008,   0.00000  )

     Band symmetry, C_1 (1)     point group:

     e(  1 -  1) =    -67.46217  eV     1   --> A              
     e(  2 -  2) =    -67.44805  eV     1   --> A              
     e(  3 -  3) =    -34.38422  eV     1   --> A              
     e(  4 -  4) =    -34.26989  eV     1   --> A              
     e(  5 -  5) =    -34.16060  eV     1   --> A              
     e(  6 -  6) =    -34.01789  eV     1   --> A              
     e(  7 -  7) =    -33.88382  eV     1   --> A              
     e(  8 -  8) =    -33.83554  eV     1   --> A              
     e(  9 -  9) =    -19.15813  eV     1   --> A              
     e( 10 - 10) =    -19.15455  eV     1   --> A              
     e( 11 - 11) =    -19.15347  eV     1   --> A              
     e( 12 - 12) =    -19.14970  eV     1   --> A              
     e( 13 - 13) =    -19.14145  eV     1   --> A              
     e( 14 - 14) =    -19.13307  eV     1   --> A              
     e( 15 - 15) =    -19.13143  eV     1   --> A              
     e( 16 - 16) =    -19.11996  eV     1   --> A              
     e( 17 - 17) =    -19.10951  eV     1   --> A              
     e( 18 - 18) =    -19.10781  eV     1   --> A              
     e( 19 - 19) =    -19.06970  eV     1   --> A              
     e( 20 - 20) =    -19.06903  eV     1   --> A              
     e( 21 - 21) =    -19.05730  eV     1   --> A              
     e( 22 - 22) =    -19.05512  eV     1   --> A              
     e( 23 - 23) =    -11.07742  eV     1   --> A              
     e( 24 - 24) =     -5.71694  eV     1   --> A              
     e( 25 - 25) =     -5.67988  eV     1   --> A              
     e( 26 - 26) =     -4.73416  eV     1   --> A              
     e( 27 - 27) =     -4.37676  eV     1   --> A              
     e( 28 - 28) =     -2.58072  eV     1   --> A              
     e( 29 - 29) =     -1.44707  eV     1   --> A              
     e( 30 - 30) =     -0.37375  eV     1   --> A              
     e( 31 - 31) =      1.45400  eV     1   --> A              
     e( 32 - 32) =      2.31656  eV     1   --> A              
     e( 33 - 33) =      3.78953  eV     1   --> A              
     e( 34 - 34) =      4.57209  eV     1   --> A              
     e( 35 - 35) =      5.13667  eV     1   --> A              
     e( 36 - 36) =      6.63513  eV     1   --> A              
     e( 37 - 37) =      6.90778  eV     1   --> A              
     e( 38 - 38) =      7.17844  eV     1   --> A              
     e( 39 - 39) =      7.66693  eV     1   --> A              
     e( 40 - 40) =      7.99794  eV     1   --> A              
     e( 41 - 41) =      8.20621  eV     1   --> A              
     e( 42 - 42) =      8.61563  eV     1   --> A              

 **************************************************************************

 **************************************************************************

                    xk=(   0.45873,   0.00008,   0.00000  )

     Band symmetry, C_1 (1)     point group:

     e(  1 -  1) =    -67.45875  eV     1   --> A              
     e(  2 -  2) =    -67.44610  eV     1   --> A              
     e(  3 -  3) =    -34.38596  eV     1   --> A              
     e(  4 -  4) =    -34.28481  eV     1   --> A              
     e(  5 -  5) =    -34.16587  eV     1   --> A              
     e(  6 -  6) =    -34.02609  eV     1   --> A              
     e(  7 -  7) =    -33.90798  eV     1   --> A              
     e(  8 -  8) =    -33.85943  eV     1   --> A              
     e(  9 -  9) =    -19.15867  eV     1   --> A              
     e( 10 - 10) =    -19.15414  eV     1   --> A              
     e( 11 - 11) =    -19.15241  eV     1   --> A              
     e( 12 - 12) =    -19.14922  eV     1   --> A              
     e( 13 - 13) =    -19.14223  eV     1   --> A              
     e( 14 - 14) =    -19.13375  eV     1   --> A              
     e( 15 - 15) =    -19.13145  eV     1   --> A              
     e( 16 - 16) =    -19.11966  eV     1   --> A              
     e( 17 - 17) =    -19.10897  eV     1   --> A              
     e( 18 - 18) =    -19.10808  eV     1   --> A              
     e( 19 - 19) =    -19.07194  eV     1   --> A              
     e( 20 - 20) =    -19.07121  eV     1   --> A              
     e( 21 - 21) =    -19.05491  eV     1   --> A              
     e( 22 - 22) =    -19.05299  eV     1   --> A              
     e( 23 - 23) =    -11.00496  eV     1   --> A              
     e( 24 - 24) =     -5.68631  eV     1   --> A              
     e( 25 - 25) =     -5.63366  eV     1   --> A              
     e( 26 - 26) =     -4.72138  eV     1   --> A              
     e( 27 - 27) =     -4.40576  eV     1   --> A              
     e( 28 - 28) =     -2.65577  eV     1   --> A              
     e( 29 - 29) =     -1.34469  eV     1   --> A              
     e( 30 - 30) =     -0.43988  eV     1   --> A              
     e( 31 - 31) =      1.65883  eV     1   --> A              
     e( 32 - 32) =      2.38508  eV     1   --> A              
     e( 33 - 33) =      3.79874  eV     1   --> A              
     e( 34 - 34) =      4.67119  eV     1   --> A              
     e( 35 - 35) =      5.22105  eV     1   --> A              
     e( 36 - 36) =      6.82958  eV     1   --> A              
     e( 37 - 37) =      6.89172  eV     1   --> A              
     e( 38 - 38) =      7.12758  eV     1   --> A              
     e( 39 - 39) =      7.89433  eV     1   --> A              
     e( 40 - 40) =      8.20026  eV     1   --> A              
     e( 41 - 41) =      8.50970  eV     1   --> A              
     e( 42 - 42) =      8.66012  eV     1   --> A              

 **************************************************************************

 **************************************************************************

                    xk=(   0.48058,   0.00008,   0.00000  )

     Band symmetry, C_1 (1)     point group:

     e(  1 -  1) =    -67.45559  eV     1   --> A              
     e(  2 -  2) =    -67.44442  eV     1   --> A              
     e(  3 -  3) =    -34.38678  eV     1   --> A              
     e(  4 -  4) =    -34.29504  eV     1   --> A              
     e(  5 -  5) =    -34.16895  eV     1   --> A              
     e(  6 -  6) =    -34.03556  eV     1   --> A              
     e(  7 -  7) =    -33.93122  eV     1   --> A              
     e(  8 -  8) =    -33.88288  eV     1   --> A              
     e(  9 -  9) =    -19.15917  eV     1   --> A              
     e( 10 - 10) =    -19.15383  eV     1   --> A              
     e( 11 - 11) =    -19.15116  eV     1   --> A              
     e( 12 - 12) =    -19.14859  eV     1   --> A              
     e( 13 - 13) =    -19.14301  eV     1   --> A              
     e( 14 - 14) =    -19.13447  eV     1   --> A              
     e( 15 - 15) =    -19.13152  eV     1   --> A              
     e( 16 - 16) =    -19.11926  eV     1   --> A              
     e( 17 - 17) =    -19.10863  eV     1   --> A              
     e( 18 - 18) =    -19.10846  eV     1   --> A              
     e( 19 - 19) =    -19.07400  eV     1   --> A              
     e( 20 - 20) =    -19.07323  eV     1   --> A              
     e( 21 - 21) =    -19.05275  eV     1   --> A              
     e( 22 - 22) =    -19.05108  eV     1   --> A              
     e( 23 - 23) =    -10.94014  eV     1   --> A              
     e( 24 - 24) =     -5.68825  eV     1   --> A              
     e( 25 - 25) =     -5.56076  eV     1   --> A              
     e( 26 - 26) =     -4.69770  eV     1   --> A              
     e( 27 - 27) =     -4.43426  eV     1   --> A              
     e( 28 - 28) =     -2.73831  eV     1   --> A              
     e( 29 - 29) =     -1.22946  eV     1   --> A              
     e( 30 - 30) =     -0.48897  eV     1   --> A              
     e( 31 - 31) =      1.86288  eV     1   --> A              
     e( 32 - 32) =      2.47320  eV     1   --> A              
     e( 33 - 33) =      3.76727  eV     1   --> A              
     e( 34 - 34) =      4.68680  eV     1   --> A              
     e( 35 - 35) =      5.29738  eV     1   --> A              
     e( 36 - 36) =      6.75020  eV     1   --> A              
     e( 37 - 37) =      6.94407  eV     1   --> A              
     e( 38 - 38) =      7.28465  eV     1   --> A              
     e( 39 - 39) =      8.09117  eV     1   --> A              
     e( 40 - 40) =      8.18992  eV     1   --> A              
     e( 41 - 41) =      8.77776  eV     1   --> A              
     e( 42 - 42) =      8.79085  eV     1   --> A              

 **************************************************************************

 **************************************************************************

                    xk=(   0.50242,   0.00009,   0.00000  )

     Band symmetry, C_1 (1)     point group:

     e(  1 -  1) =    -67.45272  eV     1   --> A              
     e(  2 -  2) =    -67.44304  eV     1   --> A              
     e(  3 -  3) =    -34.38547  eV     1   --> A              
     e(  4 -  4) =    -34.30051  eV     1   --> A              
     e(  5 -  5) =    -34.17171  eV     1   --> A              
     e(  6 -  6) =    -34.04660  eV     1   --> A              
     e(  7 -  7) =    -33.95272  eV     1   --> A              
     e(  8 -  8) =    -33.90543  eV     1   --> A              
     e(  9 -  9) =    -19.15961  eV     1   --> A              
     e( 10 - 10) =    -19.15340  eV     1   --> A              
     e( 11 - 11) =    -19.14992  eV     1   --> A              
     e( 12 - 12) =    -19.14787  eV     1   --> A              
     e( 13 - 13) =    -19.14379  eV     1   --> A              
     e( 14 - 14) =    -19.13522  eV     1   --> A              
     e( 15 - 15) =    -19.13168  eV     1   --> A              
     e( 16 - 16) =    -19.11875  eV     1   --> A              
     e( 17 - 17) =    -19.10896  eV     1   --> A              
     e( 18 - 18) =    -19.10846  eV     1   --> A              
     e( 19 - 19) =    -19.07584  eV     1   --> A              
     e( 20 - 20) =    -19.07507  eV     1   --> A              
     e( 21 - 21) =    -19.05083  eV     1   --> A              
     e( 22 - 22) =    -19.04941  eV     1   --> A              
     e( 23 - 23) =    -10.88303  eV     1   --> A              
     e( 24 - 24) =     -5.68416  eV     1   --> A              
     e( 25 - 25) =     -5.49562  eV     1   --> A              
     e( 26 - 26) =     -4.66664  eV     1   --> A              
     e( 27 - 27) =     -4.46600  eV     1   --> A              
     e( 28 - 28) =     -2.82304  eV     1   --> A              
     e( 29 - 29) =     -1.10748  eV     1   --> A              
     e( 30 - 30) =     -0.52113  eV     1   --> A              
     e( 31 - 31) =      2.06349  eV     1   --> A              
     e( 32 - 32) =      2.57587  eV     1   --> A              
     e( 33 - 33) =      3.70720  eV     1   --> A              
     e( 34 - 34) =      4.63003  eV     1   --> A              
     e( 35 - 35) =      5.35078  eV     1   --> A              
     e( 36 - 36) =      6.67886  eV     1   --> A              
     e( 37 - 37) =      6.84775  eV     1   --> A              
     e( 38 - 38) =      7.55167  eV     1   --> A              
     e( 39 - 39) =      8.07607  eV     1   --> A              
     e( 40 - 40) =      8.24746  eV     1   --> A              
     e( 41 - 41) =      9.03166  eV     1   --> A              
     e( 42 - 42) =      9.05779  eV     1   --> A              

 **************************************************************************

 **************************************************************************

                    xk=(   0.52427,   0.00009,   0.00000  )

     Band symmetry, C_1 (1)     point group:

     e(  1 -  1) =    -67.45016  eV     1   --> A              
     e(  2 -  2) =    -67.44196  eV     1   --> A              
     e(  3 -  3) =    -34.38112  eV     1   --> A              
     e(  4 -  4) =    -34.30133  eV     1   --> A              
     e(  5 -  5) =    -34.17591  eV     1   --> A              
     e(  6 -  6) =    -34.05941  eV     1   --> A              
     e(  7 -  7) =    -33.97152  eV     1   --> A              
     e(  8 -  8) =    -33.92655  eV     1   --> A              
     e(  9 -  9) =    -19.15995  eV     1   --> A              
     e( 10 - 10) =    -19.15285  eV     1   --> A              
     e( 11 - 11) =    -19.14872  eV     1   --> A              
     e( 12 - 12) =    -19.14711  eV     1   --> A              
     e( 13 - 13) =    -19.14450  eV     1   --> A              
     e( 14 - 14) =    -19.13597  eV     1   --> A              
     e( 15 - 15) =    -19.13196  eV     1   --> A              
     e( 16 - 16) =    -19.11815  eV     1   --> A              
     e( 17 - 17) =    -19.10950  eV     1   --> A              
     e( 18 - 18) =    -19.10852  eV     1   --> A              
     e( 19 - 19) =    -19.07746  eV     1   --> A              
     e( 20 - 20) =    -19.07670  eV     1   --> A              
     e( 21 - 21) =    -19.04917  eV     1   --> A              
     e( 22 - 22) =    -19.04800  eV     1   --> A              
     e( 23 - 23) =    -10.83366  eV     1   --> A              
     e( 24 - 24) =     -5.67225  eV     1   --> A              
     e( 25 - 25) =     -5.43633  eV     1   --> A              
     e( 26 - 26) =     -4.63179  eV     1   --> A              
     e( 27 - 27) =     -4.50495  eV     1   --> A              
     e( 28 - 28) =     -2.90396  eV     1   --> A              
     e( 29 - 29) =     -0.98559  eV     1   --> A              
     e( 30 - 30) =     -0.53753  eV     1   --> A              
     e( 31 - 31) =      2.25740  eV     1   --> A              
     e( 32 - 32) =      2.68649  eV     1   --> A              
     e( 33 - 33) =      3.63196  eV     1   --> A              
     e( 34 - 34) =      4.52150  eV     1   --> A              
     e( 35 - 35) =      5.35936  eV     1   --> A              
     e( 36 - 36) =      6.63074  eV     1   --> A              
     e( 37 - 37) =      6.73839  eV     1   --> A              
     e( 38 - 38) =      7.61462  eV     1   --> A              
     e( 39 - 39) =      8.16818  eV     1   --> A              
     e( 40 - 40) =      8.35373  eV     1   --> A              
     e( 41 - 41) =      9.21542  eV     1   --> A              
     e( 42 - 42) =      9.38116  eV     1   --> A              

 **************************************************************************

 **************************************************************************

                    xk=(   0.54611,   0.00010,   0.00000  )

     Band symmetry, C_1 (1)     point group:

     e(  1 -  1) =    -67.44791  eV     1   --> A              
     e(  2 -  2) =    -67.44118  eV     1   --> A              
     e(  3 -  3) =    -34.37317  eV     1   --> A              
     e(  4 -  4) =    -34.29783  eV     1   --> A              
     e(  5 -  5) =    -34.18308  eV     1   --> A              
     e(  6 -  6) =    -34.07400  eV     1   --> A              
     e(  7 -  7) =    -33.98662  eV     1   --> A              
     e(  8 -  8) =    -33.94578  eV     1   --> A              
     e(  9 -  9) =    -19.16019  eV     1   --> A              
     e( 10 - 10) =    -19.15218  eV     1   --> A              
     e( 11 - 11) =    -19.14760  eV     1   --> A              
     e( 12 - 12) =    -19.14649  eV     1   --> A              
     e( 13 - 13) =    -19.14500  eV     1   --> A              
     e( 14 - 14) =    -19.13672  eV     1   --> A              
     e( 15 - 15) =    -19.13239  eV     1   --> A              
     e( 16 - 16) =    -19.11747  eV     1   --> A              
     e( 17 - 17) =    -19.11006  eV     1   --> A              
     e( 18 - 18) =    -19.10877  eV     1   --> A              
     e( 19 - 19) =    -19.07884  eV     1   --> A              
     e( 20 - 20) =    -19.07811  eV     1   --> A              
     e( 21 - 21) =    -19.04778  eV     1   --> A              
     e( 22 - 22) =    -19.04684  eV     1   --> A              
     e( 23 - 23) =    -10.79204  eV     1   --> A              
     e( 24 - 24) =     -5.65083  eV     1   --> A              
     e( 25 - 25) =     -5.38192  eV     1   --> A              
     e( 26 - 26) =     -4.59650  eV     1   --> A              
     e( 27 - 27) =     -4.55464  eV     1   --> A              
     e( 28 - 28) =     -2.97510  eV     1   --> A              
     e( 29 - 29) =     -0.87092  eV     1   --> A              
     e( 30 - 30) =     -0.54065  eV     1   --> A              
     e( 31 - 31) =      2.44060  eV     1   --> A              
     e( 32 - 32) =      2.79720  eV     1   --> A              
     e( 33 - 33) =      3.55497  eV     1   --> A              
     e( 34 - 34) =      4.37916  eV     1   --> A              
     e( 35 - 35) =      5.31326  eV     1   --> A              
     e( 36 - 36) =      6.61770  eV     1   --> A              
     e( 37 - 37) =      6.63810  eV     1   --> A              
     e( 38 - 38) =      7.48048  eV     1   --> A              
     e( 39 - 39) =      8.39691  eV     1   --> A              
     e( 40 - 40) =      8.46198  eV     1   --> A              
     e( 41 - 41) =      9.34274  eV     1   --> A              
     e( 42 - 42) =      9.72153  eV     1   --> A              

 **************************************************************************

 **************************************************************************

                    xk=(   0.56795,   0.00010,   0.00000  )

     Band symmetry, C_1 (1)     point group:

     e(  1 -  1) =    -67.44597  eV     1   --> A              
     e(  2 -  2) =    -67.44070  eV     1   --> A              
     e(  3 -  3) =    -34.36139  eV     1   --> A              
     e(  4 -  4) =    -34.29067  eV     1   --> A              
     e(  5 -  5) =    -34.19417  eV     1   --> A              
     e(  6 -  6) =    -34.09000  eV     1   --> A              
     e(  7 -  7) =    -33.99735  eV     1   --> A              
     e(  8 -  8) =    -33.96279  eV     1   --> A              
     e(  9 -  9) =    -19.16034  eV     1   --> A              
     e( 10 - 10) =    -19.15144  eV     1   --> A              
     e( 11 - 12) =    -19.14659  eV     2   -->   2 A              
     e( 13 - 13) =    -19.14478  eV     1   --> A              
[...]
     e( 13 - 13) =    -19.13821  eV     1   --> A              
     e( 14 - 14) =    -19.13564  eV     1   --> A              
     e( 15 - 15) =    -19.12181  eV     1   --> A              
     e( 16 - 16) =    -19.11903  eV     1   --> A              
     e( 17 - 17) =    -19.11582  eV     1   --> A              
     e( 18 - 18) =    -19.11377  eV     1   --> A              
     e( 19 - 19) =    -19.10048  eV     1   --> A              
     e( 20 - 20) =    -19.09478  eV     1   --> A              
     e( 21 - 21) =    -19.03011  eV     1   --> A              
     e( 22 - 22) =    -19.02949  eV     1   --> A              
     e( 23 - 23) =    -12.56635  eV     1   --> A              
     e( 24 - 24) =     -7.95466  eV     1   --> A              
     e( 25 - 25) =     -5.28389  eV     1   --> A              
     e( 26 - 26) =     -3.54554  eV     1   --> A              
     e( 27 - 27) =     -3.33888  eV     1   --> A              
     e( 28 - 28) =     -3.06206  eV     1   --> A              
     e( 29 - 29) =     -0.92421  eV     1   --> A              
     e( 30 - 30) =     -0.08613  eV     1   --> A              
     e( 31 - 31) =      0.72780  eV     1   --> A              
     e( 32 - 32) =      1.81989  eV     1   --> A              
     e( 33 - 33) =      2.21560  eV     1   --> A              
     e( 34 - 34) =      3.00714  eV     1   --> A              
     e( 35 - 35) =      3.46033  eV     1   --> A              
     e( 36 - 36) =      4.44936  eV     1   --> A              
     e( 37 - 37) =      4.74399  eV     1   --> A              
     e( 38 - 38) =      4.78598  eV     1   --> A              
     e( 39 - 39) =      5.16484  eV     1   --> A              
     e( 40 - 40) =      5.56300  eV     1   --> A              
     e( 41 - 41) =      6.03702  eV     1   --> A              
     e( 42 - 42) =      6.74459  eV     1   --> A              

 **************************************************************************

 **************************************************************************

                    xk=(   0.08191,  -0.04725,   0.00000  )

     Band symmetry, C_1 (1)     point group:

     e(  1 -  1) =    -67.52093  eV     1   --> A              
     e(  2 -  2) =    -67.49030  eV     1   --> A              
     e(  3 -  3) =    -34.51588  eV     1   --> A              
     e(  4 -  4) =    -34.04679  eV     1   --> A              
     e(  5 -  5) =    -33.66355  eV     1   --> A              
     e(  6 -  6) =    -33.62090  eV     1   --> A              
     e(  7 -  7) =    -33.62031  eV     1   --> A              
     e(  8 -  8) =    -33.57329  eV     1   --> A              
     e(  9 -  9) =    -19.17532  eV     1   --> A              
     e( 10 - 10) =    -19.16238  eV     1   --> A              
     e( 11 - 11) =    -19.14182  eV     1   --> A              
     e( 12 - 12) =    -19.14019  eV     1   --> A              
     e( 13 - 13) =    -19.13808  eV     1   --> A              
     e( 14 - 14) =    -19.13624  eV     1   --> A              
     e( 15 - 15) =    -19.12104  eV     1   --> A              
     e( 16 - 16) =    -19.11906  eV     1   --> A              
     e( 17 - 17) =    -19.11554  eV     1   --> A              
     e( 18 - 18) =    -19.11405  eV     1   --> A              
     e( 19 - 19) =    -19.10199  eV     1   --> A              
     e( 20 - 20) =    -19.09616  eV     1   --> A              
     e( 21 - 21) =    -19.02868  eV     1   --> A              
     e( 22 - 22) =    -19.02801  eV     1   --> A              
     e( 23 - 23) =    -12.62512  eV     1   --> A              
     e( 24 - 24) =     -8.04686  eV     1   --> A              
     e( 25 - 25) =     -5.25786  eV     1   --> A              
     e( 26 - 26) =     -3.47978  eV     1   --> A              
     e( 27 - 27) =     -3.30529  eV     1   --> A              
     e( 28 - 28) =     -3.07640  eV     1   --> A              
     e( 29 - 29) =     -0.99106  eV     1   --> A              
     e( 30 - 30) =      0.05135  eV     1   --> A              
     e( 31 - 31) =      0.63719  eV     1   --> A              
     e( 32 - 32) =      1.95800  eV     1   --> A              
     e( 33 - 33) =      2.27115  eV     1   --> A              
     e( 34 - 34) =      3.02911  eV     1   --> A              
     e( 35 - 35) =      3.37463  eV     1   --> A              
     e( 36 - 36) =      4.25804  eV     1   --> A              
     e( 37 - 37) =      4.66186  eV     1   --> A              
     e( 38 - 38) =      4.70915  eV     1   --> A              
     e( 39 - 39) =      5.09437  eV     1   --> A              
     e( 40 - 40) =      5.49119  eV     1   --> A              
     e( 41 - 41) =      5.96203  eV     1   --> A              
     e( 42 - 42) =      6.67241  eV     1   --> A              

 **************************************************************************

 **************************************************************************

                    xk=(   0.06553,  -0.03780,   0.00000  )

     Band symmetry, C_1 (1)     point group:

     e(  1 -  1) =    -67.52254  eV     1   --> A              
     e(  2 -  2) =    -67.49157  eV     1   --> A              
     e(  3 -  3) =    -34.52119  eV     1   --> A              
     e(  4 -  4) =    -34.04714  eV     1   --> A              
     e(  5 -  5) =    -33.64231  eV     1   --> A              
     e(  6 -  6) =    -33.61456  eV     1   --> A              
     e(  7 -  7) =    -33.60050  eV     1   --> A              
     e(  8 -  8) =    -33.56984  eV     1   --> A              
     e(  9 -  9) =    -19.17593  eV     1   --> A              
     e( 10 - 10) =    -19.16269  eV     1   --> A              
     e( 11 - 11) =    -19.14120  eV     1   --> A              
     e( 12 - 12) =    -19.14011  eV     1   --> A              
     e( 13 - 13) =    -19.13799  eV     1   --> A              
     e( 14 - 14) =    -19.13676  eV     1   --> A              
     e( 15 - 15) =    -19.12039  eV     1   --> A              
     e( 16 - 16) =    -19.11907  eV     1   --> A              
     e( 17 - 17) =    -19.11531  eV     1   --> A              
     e( 18 - 18) =    -19.11427  eV     1   --> A              
     e( 19 - 19) =    -19.10325  eV     1   --> A              
     e( 20 - 20) =    -19.09731  eV     1   --> A              
     e( 21 - 21) =    -19.02747  eV     1   --> A              
     e( 22 - 22) =    -19.02677  eV     1   --> A              
     e( 23 - 23) =    -12.67439  eV     1   --> A              
     e( 24 - 24) =     -8.12406  eV     1   --> A              
     e( 25 - 25) =     -5.23589  eV     1   --> A              
     e( 26 - 26) =     -3.44313  eV     1   --> A              
     e( 27 - 27) =     -3.25541  eV     1   --> A              
     e( 28 - 28) =     -3.08964  eV     1   --> A              
     e( 29 - 29) =     -1.05003  eV     1   --> A              
     e( 30 - 30) =      0.17657  eV     1   --> A              
     e( 31 - 31) =      0.56200  eV     1   --> A              
     e( 32 - 32) =      2.10465  eV     1   --> A              
     e( 33 - 33) =      2.33894  eV     1   --> A              
     e( 34 - 34) =      3.04594  eV     1   --> A              
     e( 35 - 35) =      3.28371  eV     1   --> A              
     e( 36 - 36) =      4.06311  eV     1   --> A              
     e( 37 - 37) =      4.59724  eV     1   --> A              
     e( 38 - 38) =      4.64640  eV     1   --> A              
     e( 39 - 39) =      5.03679  eV     1   --> A              
     e( 40 - 40) =      5.43216  eV     1   --> A              
     e( 41 - 41) =      5.89896  eV     1   --> A              
     e( 42 - 42) =      6.61241  eV     1   --> A              

 **************************************************************************

 **************************************************************************

                    xk=(   0.04915,  -0.02835,   0.00000  )

     Band symmetry, C_1 (1)     point group:

     e(  1 -  1) =    -67.52380  eV     1   --> A              
     e(  2 -  2) =    -67.49257  eV     1   --> A              
     e(  3 -  3) =    -34.52538  eV     1   --> A              
     e(  4 -  4) =    -34.04748  eV     1   --> A              
     e(  5 -  5) =    -33.62544  eV     1   --> A              
     e(  6 -  6) =    -33.60972  eV     1   --> A              
     e(  7 -  7) =    -33.58458  eV     1   --> A              
     e(  8 -  8) =    -33.56715  eV     1   --> A              
     e(  9 -  9) =    -19.17640  eV     1   --> A              
     e( 10 - 10) =    -19.16294  eV     1   --> A              
     e( 11 - 11) =    -19.14070  eV     1   --> A              
     e( 12 - 12) =    -19.14003  eV     1   --> A              
     e( 13 - 13) =    -19.13793  eV     1   --> A              
     e( 14 - 14) =    -19.13717  eV     1   --> A              
     e( 15 - 15) =    -19.11987  eV     1   --> A              
     e( 16 - 16) =    -19.11907  eV     1   --> A              
     e( 17 - 17) =    -19.11515  eV     1   --> A              
     e( 18 - 18) =    -19.11442  eV     1   --> A              
     e( 19 - 19) =    -19.10425  eV     1   --> A              
     e( 20 - 20) =    -19.09821  eV     1   --> A              
     e( 21 - 21) =    -19.02652  eV     1   --> A              
     e( 22 - 22) =    -19.02578  eV     1   --> A              
     e( 23 - 23) =    -12.71345  eV     1   --> A              
     e( 24 - 24) =     -8.18517  eV     1   --> A              
     e( 25 - 25) =     -5.21838  eV     1   --> A              
     e( 26 - 26) =     -3.42628  eV     1   --> A              
     e( 27 - 27) =     -3.20149  eV     1   --> A              
     e( 28 - 28) =     -3.10081  eV     1   --> A              
     e( 29 - 29) =     -1.09797  eV     1   --> A              
     e( 30 - 30) =      0.28155  eV     1   --> A              
     e( 31 - 31) =      0.50299  eV     1   --> A              
     e( 32 - 32) =      2.25558  eV     1   --> A              
     e( 33 - 33) =      2.41421  eV     1   --> A              
     e( 34 - 34) =      3.05382  eV     1   --> A              
     e( 35 - 35) =      3.19156  eV     1   --> A              
     e( 36 - 36) =      3.87793  eV     1   --> A              
     e( 37 - 37) =      4.54782  eV     1   --> A              
     e( 38 - 38) =      4.59687  eV     1   --> A              
     e( 39 - 39) =      4.99201  eV     1   --> A              
     e( 40 - 40) =      5.38604  eV     1   --> A              
     e( 41 - 41) =      5.84827  eV     1   --> A              
     e( 42 - 42) =      6.56522  eV     1   --> A              

 **************************************************************************

 **************************************************************************

                    xk=(   0.03276,  -0.01890,   0.00000  )

     Band symmetry, C_1 (1)     point group:

     e(  1 -  1) =    -67.52472  eV     1   --> A              
     e(  2 -  2) =    -67.49329  eV     1   --> A              
     e(  3 -  3) =    -34.52840  eV     1   --> A              
     e(  4 -  4) =    -34.04776  eV     1   --> A              
     e(  5 -  5) =    -33.61320  eV     1   --> A              
     e(  6 -  6) =    -33.60618  eV     1   --> A              
     e(  7 -  7) =    -33.57309  eV     1   --> A              
     e(  8 -  8) =    -33.56519  eV     1   --> A              
     e(  9 -  9) =    -19.17675  eV     1   --> A              
     e( 10 - 10) =    -19.16313  eV     1   --> A              
     e( 11 - 11) =    -19.14033  eV     1   --> A              
     e( 12 - 12) =    -19.13997  eV     1   --> A              
     e( 13 - 13) =    -19.13791  eV     1   --> A              
     e( 14 - 14) =    -19.13745  eV     1   --> A              
     e( 15 - 15) =    -19.11950  eV     1   --> A              
     e( 16 - 16) =    -19.11907  eV     1   --> A              
     e( 17 - 17) =    -19.11506  eV     1   --> A              
     e( 18 - 18) =    -19.11450  eV     1   --> A              
     e( 19 - 19) =    -19.10497  eV     1   --> A              
     e( 20 - 20) =    -19.09886  eV     1   --> A              
     e( 21 - 21) =    -19.02583  eV     1   --> A              
     e( 22 - 22) =    -19.02507  eV     1   --> A              
     e( 23 - 23) =    -12.74175  eV     1   --> A              
     e( 24 - 24) =     -8.22938  eV     1   --> A              
     e( 25 - 25) =     -5.20562  eV     1   --> A              
     e( 26 - 26) =     -3.41876  eV     1   --> A              
     e( 27 - 27) =     -3.15684  eV     1   --> A              
     e( 28 - 28) =     -3.10885  eV     1   --> A              
     e( 29 - 29) =     -1.13322  eV     1   --> A              
     e( 30 - 30) =      0.36026  eV     1   --> A              
     e( 31 - 31) =      0.46089  eV     1   --> A              
     e( 32 - 32) =      2.40188  eV     1   --> A              
     e( 33 - 33) =      2.48980  eV     1   --> A              
     e( 34 - 34) =      3.04597  eV     1   --> A              
     e( 35 - 35) =      3.10588  eV     1   --> A              
     e( 36 - 36) =      3.71909  eV     1   --> A              
     e( 37 - 37) =      4.51271  eV     1   --> A              
     e( 38 - 38) =      4.56091  eV     1   --> A              
     e( 39 - 39) =      4.96001  eV     1   --> A              
     e( 40 - 40) =      5.35296  eV     1   --> A              
     e( 41 - 41) =      5.81077  eV     1   --> A              
     e( 42 - 42) =      6.53123  eV     1   --> A              

 **************************************************************************

 **************************************************************************

                    xk=(   0.01638,  -0.00945,   0.00000  )

     Band symmetry, C_1 (1)     point group:

     e(  1 -  1) =    -67.52527  eV     1   --> A              
     e(  2 -  2) =    -67.49373  eV     1   --> A              
     e(  3 -  3) =    -34.53023  eV     1   --> A              
     e(  4 -  4) =    -34.04794  eV     1   --> A              
     e(  5 -  5) =    -33.60579  eV     1   --> A              
     e(  6 -  6) =    -33.60402  eV     1   --> A              
     e(  7 -  7) =    -33.56641  eV     1   --> A              
     e(  8 -  8) =    -33.56374  eV     1   --> A              
     e(  9 -  9) =    -19.17696  eV     1   --> A              
     e( 10 - 10) =    -19.16324  eV     1   --> A              
     e( 11 - 11) =    -19.14010  eV     1   --> A              
     e( 12 - 12) =    -19.13993  eV     1   --> A              
     e( 13 - 13) =    -19.13795  eV     1   --> A              
     e( 14 - 14) =    -19.13759  eV     1   --> A              
     e( 15 - 15) =    -19.11928  eV     1   --> A              
     e( 16 - 16) =    -19.11905  eV     1   --> A              
     e( 17 - 17) =    -19.11503  eV     1   --> A              
     e( 18 - 18) =    -19.11451  eV     1   --> A              
     e( 19 - 19) =    -19.10541  eV     1   --> A              
     e( 20 - 20) =    -19.09926  eV     1   --> A              
     e( 21 - 21) =    -19.02540  eV     1   --> A              
     e( 22 - 22) =    -19.02464  eV     1   --> A              
     e( 23 - 23) =    -12.75889  eV     1   --> A              
     e( 24 - 24) =     -8.25613  eV     1   --> A              
     e( 25 - 25) =     -5.19787  eV     1   --> A              
     e( 26 - 26) =     -3.41553  eV     1   --> A              
     e( 27 - 27) =     -3.13020  eV     1   --> A              
     e( 28 - 28) =     -3.11155  eV     1   --> A              
     e( 29 - 29) =     -1.15476  eV     1   --> A              
     e( 30 - 30) =      0.40703  eV     1   --> A              
     e( 31 - 31) =      0.43758  eV     1   --> A              
     e( 32 - 32) =      2.52247  eV     1   --> A              
     e( 33 - 33) =      2.55276  eV     1   --> A              
     e( 34 - 34) =      3.01506  eV     1   --> A              
     e( 35 - 35) =      3.04510  eV     1   --> A              
     e( 36 - 36) =      3.60934  eV     1   --> A              
     e( 37 - 37) =      4.49166  eV     1   --> A              
     e( 38 - 38) =      4.53907  eV     1   --> A              
     e( 39 - 39) =      4.94079  eV     1   --> A              
     e( 40 - 40) =      5.33306  eV     1   --> A              
     e( 41 - 41) =      5.78754  eV     1   --> A              
     e( 42 - 42) =      6.51073  eV     1   --> A              

 **************************************************************************

 **************************************************************************

                    xk=(   0.00000,   0.00000,   0.00000  )

     Band symmetry, C_1 (1)     point group:

     e(  1 -  1) =    -67.52545  eV     1   --> A              
     e(  2 -  2) =    -67.49387  eV     1   --> A              
     e(  3 -  3) =    -34.53084  eV     1   --> A              
     e(  4 -  4) =    -34.04800  eV     1   --> A              
     e(  5 -  5) =    -33.60348  eV     1   --> A              
     e(  6 -  6) =    -33.60312  eV     1   --> A              
     e(  7 -  7) =    -33.56473  eV     1   --> A              
     e(  8 -  8) =    -33.56271  eV     1   --> A              
     e(  9 -  9) =    -19.17703  eV     1   --> A              
     e( 10 - 10) =    -19.16328  eV     1   --> A              
     e( 11 - 11) =    -19.14002  eV     1   --> A              
     e( 12 - 12) =    -19.13991  eV     1   --> A              
     e( 13 - 13) =    -19.13798  eV     1   --> A              
     e( 14 - 14) =    -19.13762  eV     1   --> A              
     e( 15 - 15) =    -19.11921  eV     1   --> A              
     e( 16 - 16) =    -19.11904  eV     1   --> A              
     e( 17 - 17) =    -19.11503  eV     1   --> A              
     e( 18 - 18) =    -19.11451  eV     1   --> A              
     e( 19 - 19) =    -19.10556  eV     1   --> A              
     e( 20 - 20) =    -19.09939  eV     1   --> A              
     e( 21 - 21) =    -19.02526  eV     1   --> A              
     e( 22 - 22) =    -19.02449  eV     1   --> A              
     e( 23 - 23) =    -12.76463  eV     1   --> A              
     e( 24 - 24) =     -8.26509  eV     1   --> A              
     e( 25 - 25) =     -5.19527  eV     1   --> A              
     e( 26 - 26) =     -3.41463  eV     1   --> A              
     e( 27 - 27) =     -3.12442  eV     1   --> A              
     e( 28 - 28) =     -3.10906  eV     1   --> A              
     e( 29 - 29) =     -1.16200  eV     1   --> A              
     e( 30 - 30) =      0.41687  eV     1   --> A              
     e( 31 - 31) =      0.43582  eV     1   --> A              
     e( 32 - 32) =      2.57106  eV     1   --> A              
     e( 33 - 33) =      2.58238  eV     1   --> A              
     e( 34 - 34) =      2.99152  eV     1   --> A              
     e( 35 - 35) =      3.02377  eV     1   --> A              
     e( 36 - 36) =      3.57013  eV     1   --> A              
     e( 37 - 37) =      4.48464  eV     1   --> A              
     e( 38 - 38) =      4.53174  eV     1   --> A              
     e( 39 - 39) =      4.93438  eV     1   --> A              
     e( 40 - 40) =      5.32642  eV     1   --> A              
     e( 41 - 41) =      5.77965  eV     1   --> A              
     e( 42 - 42) =      6.49420  eV     1   --> A              

 **************************************************************************
 
     BANDS        :   1m48.45s CPU   1m14.10s WALL

 
   This run was terminated on:  16:32:56  16Apr2022            

=------------------------------------------------------------------------------=
   JOB DONE.
=------------------------------------------------------------------------------=
