
     Program PWSCF v.6.8 starts on 16Apr2022 at 16:18:51 

     This program is part of the open-source Quantum ESPRESSO suite
     for quantum simulation of materials; please cite
         "P. Giannozzi et al., J. Phys.:Condens. Matter 21 395502 (2009);
         "P. Giannozzi et al., J. Phys.:Condens. Matter 29 465901 (2017);
         "P. Giannozzi et al., J. Chem. Phys. 152 154105 (2020);
          URL http://www.quantum-espresso.org", 
     in publications or presentations arising from this work. More details at
     http://www.quantum-espresso.org/quote

     Parallel version (MPI & OpenMP), running on       4 processor cores
     Number of MPI processes:                 2
     Threads/MPI process:                     2

     MPI processes distributed on     1 nodes
     R & G space division:  proc/nbgrp/npool/nimage =       2
     118978 MiB available memory on the printing compute node when the environment starts
 
     Waiting for input...
     Reading input from standard input

     Current dimensions of program PWSCF are:
     Max number of different atomic species (ntypx) = 10
     Max number of k-points (npk) =  40000
     Max angular momentum in pseudopotentials (lmaxx) =  4

     Atomic positions and unit cell read from directory:
     /scratch/as3359/Ta2CH2k_bandsdos/Ta.save/
 
     file Ta.pbesol-spfn-rrkjus_psl.1.0.0.UPF: wavefunction(s)  5S 5P renormalized

     Subspace diagonalization in iterative solution of the eigenvalue problem:
     a serial algorithm will be used

 
     Parallelization info
     --------------------
     sticks:   dense  smooth     PW     G-vecs:    dense   smooth      PW
     Min         765     654    183               239667   189956   28385
     Max         766     655    184               239702   189957   28410
     Sum        1531    1309    367               479369   379913   56795
 
     Using Slab Decomposition
 


     bravais-lattice index     =            0
     lattice parameter (alat)  =       5.5500  a.u.
     unit-cell volume          =    1533.2393 (a.u.)^3
     number of atoms/cell      =            5
     number of atomic types    =            3
     number of electrons       =        60.00
     number of Kohn-Sham states=           42
     kinetic-energy cutoff     =     150.0000  Ry
     charge density cutoff     =     700.0000  Ry
     Exchange-correlation= PBESOL
                           (   1   4  10   8   0   0   0)

     celldm(1)=   5.550000  celldm(2)=   0.000000  celldm(3)=   0.000000
     celldm(4)=   0.000000  celldm(5)=   0.000000  celldm(6)=   0.000000

     crystal axes: (cart. coord. in units of alat)
               a(1) = (   1.017295  -0.000177   0.000000 )  
               a(2) = (  -0.508801   0.881714   0.000000 )  
               a(3) = (   0.000000   0.000000  10.000000 )  

     reciprocal axes: (cart. coord. in units 2 pi/alat)
               b(1) = (  0.983098  0.567305  0.000000 )  
               b(2) = (  0.000198  1.134269  0.000000 )  
               b(3) = (  0.000000  0.000000  0.100000 )  


     PseudoPot. # 1 for Ta read from file:
     /shared/home/as3359/pseudo/Ta.pbesol-spfn-rrkjus_psl.1.0.0.UPF
     MD5 check sum: f099565ffaca9b150a52e9412a28e20b
     Pseudo is Ultrasoft + core correction, Zval = 27.0
     Generated using &quot;atomic&quot; code by A. Dal Corso  v.6.3
     Using radial grid of 1273 points,  8 beta functions with: 
                l(1) =   0
                l(2) =   0
                l(3) =   1
                l(4) =   1
                l(5) =   2
                l(6) =   2
                l(7) =   3
                l(8) =   3
     Q(r) pseudized with 0 coefficients 


     PseudoPot. # 2 for C  read from file:
     /shared/home/as3359/pseudo/C.pbesol-n-rrkjus_psl.1.0.0.UPF
     MD5 check sum: 05995be603a8a7c99da3dc4413f31573
     Pseudo is Ultrasoft + core correction, Zval =  4.0
     Generated using &quot;atomic&quot; code by A. Dal Corso  v.6.3MaX
     Using radial grid of 1073 points,  4 beta functions with: 
                l(1) =   0
                l(2) =   0
                l(3) =   1
                l(4) =   1
     Q(r) pseudized with 0 coefficients 


     PseudoPot. # 3 for H  read from file:
     /shared/home/as3359/pseudo/H.pbesol-rrkjus_psl.0.1.UPF
     MD5 check sum: 1dbb1a5c48b1283557b8117eb856a7ca
     Pseudo is Ultrasoft, Zval =  1.0
     Generated using "atomic" code by A. Dal Corso  v.5.0.2 svn rev. 9415
     Using radial grid of  929 points,  2 beta functions with: 
                l(1) =   0
                l(2) =   0
     Q(r) pseudized with 0 coefficients 


     atomic species   valence    mass     pseudopotential
        Ta            27.00   180.94788     Ta( 1.00)
        C              4.00    12.01070     C ( 1.00)
        H              1.00     1.00000     H ( 1.00)

     No symmetry found



   Cartesian axes

     site n.     atom                  positions (alat units)
         1           C   tau(   1) = (   0.0000000   0.0000000   0.0000000  )
         2           Ta  tau(   2) = (   0.5088008   0.2948413  -0.4364511  )
         3           Ta  tau(   3) = (  -0.0007447   0.5869407   0.4364532  )
         4           H   tau(   4) = (  -0.0017928  -0.0015314   0.8341930  )
         5           H   tau(   5) = (   0.0002769   0.0024412  -0.8341930  )

     number of k points=    91  Marzari-Vanderbilt smearing, width (Ry)=  0.0010
                       cart. coord. in units 2pi/alat
        k(    1) = (   0.0000000   0.0000000   0.0000000), wk =   0.0219780
        k(    2) = (   0.0218444   0.0000038   0.0000000), wk =   0.0219780
        k(    3) = (   0.0436888   0.0000076   0.0000000), wk =   0.0219780
        k(    4) = (   0.0655333   0.0000114   0.0000000), wk =   0.0219780
        k(    5) = (   0.0873777   0.0000152   0.0000000), wk =   0.0219780
        k(    6) = (   0.1092221   0.0000190   0.0000000), wk =   0.0219780
        k(    7) = (   0.1310665   0.0000228   0.0000000), wk =   0.0219780
        k(    8) = (   0.1529110   0.0000266   0.0000000), wk =   0.0219780
        k(    9) = (   0.1747554   0.0000304   0.0000000), wk =   0.0219780
        k(   10) = (   0.1965998   0.0000342   0.0000000), wk =   0.0219780
        k(   11) = (   0.2184442   0.0000380   0.0000000), wk =   0.0219780
        k(   12) = (   0.2402886   0.0000418   0.0000000), wk =   0.0219780
        k(   13) = (   0.2621331   0.0000456   0.0000000), wk =   0.0219780
        k(   14) = (   0.2839775   0.0000494   0.0000000), wk =   0.0219780
        k(   15) = (   0.3058219   0.0000532   0.0000000), wk =   0.0219780
        k(   16) = (   0.3276663   0.0000570   0.0000000), wk =   0.0219780
        k(   17) = (   0.3495107   0.0000608   0.0000000), wk =   0.0219780
        k(   18) = (   0.3713552   0.0000646   0.0000000), wk =   0.0219780
        k(   19) = (   0.3931996   0.0000685   0.0000000), wk =   0.0219780
        k(   20) = (   0.4150440   0.0000723   0.0000000), wk =   0.0219780
        k(   21) = (   0.4368884   0.0000761   0.0000000), wk =   0.0219780
        k(   22) = (   0.4587329   0.0000799   0.0000000), wk =   0.0219780
        k(   23) = (   0.4805773   0.0000837   0.0000000), wk =   0.0219780
        k(   24) = (   0.5024217   0.0000875   0.0000000), wk =   0.0219780
        k(   25) = (   0.5242661   0.0000913   0.0000000), wk =   0.0219780
        k(   26) = (   0.5461105   0.0000951   0.0000000), wk =   0.0219780
        k(   27) = (   0.5679550   0.0000989   0.0000000), wk =   0.0219780
        k(   28) = (   0.5897994   0.0001027   0.0000000), wk =   0.0219780
        k(   29) = (   0.6116438   0.0001065   0.0000000), wk =   0.0219780
        k(   30) = (   0.6334882   0.0001103   0.0000000), wk =   0.0219780
        k(   31) = (   0.6553327   0.0001141   0.0000000), wk =   0.0219780
        k(   32) = (   0.6498699  -0.0093391   0.0000000), wk =   0.0219780
        k(   33) = (   0.6444072  -0.0187923   0.0000000), wk =   0.0219780
        k(   34) = (   0.6389444  -0.0282455   0.0000000), wk =   0.0219780
        k(   35) = (   0.6334816  -0.0376987   0.0000000), wk =   0.0219780
        k(   36) = (   0.6280189  -0.0471519   0.0000000), wk =   0.0219780
        k(   37) = (   0.6225561  -0.0566051   0.0000000), wk =   0.0219780
        k(   38) = (   0.6170934  -0.0660582   0.0000000), wk =   0.0219780
        k(   39) = (   0.6116306  -0.0755114   0.0000000), wk =   0.0219780
        k(   40) = (   0.6061679  -0.0849646   0.0000000), wk =   0.0219780
        k(   41) = (   0.6007051  -0.0944178   0.0000000), wk =   0.0219780
        k(   42) = (   0.5952424  -0.1038710   0.0000000), wk =   0.0219780
        k(   43) = (   0.5897796  -0.1133242   0.0000000), wk =   0.0219780
        k(   44) = (   0.5843169  -0.1227774   0.0000000), wk =   0.0219780
        k(   45) = (   0.5788541  -0.1322306   0.0000000), wk =   0.0219780
        k(   46) = (   0.5733914  -0.1416838   0.0000000), wk =   0.0219780
        k(   47) = (   0.5679286  -0.1511369   0.0000000), wk =   0.0219780
        k(   48) = (   0.5624659  -0.1605901   0.0000000), wk =   0.0219780
        k(   49) = (   0.5570031  -0.1700433   0.0000000), wk =   0.0219780
        k(   50) = (   0.5515404  -0.1794965   0.0000000), wk =   0.0219780
        k(   51) = (   0.5460776  -0.1889497   0.0000000), wk =   0.0219780
        k(   52) = (   0.5406149  -0.1984029   0.0000000), wk =   0.0219780
        k(   53) = (   0.5351521  -0.2078561   0.0000000), wk =   0.0219780
        k(   54) = (   0.5296894  -0.2173093   0.0000000), wk =   0.0219780
        k(   55) = (   0.5242266  -0.2267625   0.0000000), wk =   0.0219780
        k(   56) = (   0.5187639  -0.2362157   0.0000000), wk =   0.0219780
        k(   57) = (   0.5133011  -0.2456688   0.0000000), wk =   0.0219780
        k(   58) = (   0.5078384  -0.2551220   0.0000000), wk =   0.0219780
        k(   59) = (   0.5023756  -0.2645752   0.0000000), wk =   0.0219780
        k(   60) = (   0.4969129  -0.2740284   0.0000000), wk =   0.0219780
        k(   61) = (   0.4914501  -0.2834816   0.0000000), wk =   0.0219780
        k(   62) = (   0.4750684  -0.2740322   0.0000000), wk =   0.0219780
        k(   63) = (   0.4586868  -0.2645828   0.0000000), wk =   0.0219780
        k(   64) = (   0.4423051  -0.2551334   0.0000000), wk =   0.0219780
        k(   65) = (   0.4259234  -0.2456841   0.0000000), wk =   0.0219780
        k(   66) = (   0.4095418  -0.2362347   0.0000000), wk =   0.0219780
        k(   67) = (   0.3931601  -0.2267853   0.0000000), wk =   0.0219780
        k(   68) = (   0.3767784  -0.2173359   0.0000000), wk =   0.0219780
        k(   69) = (   0.3603967  -0.2078865   0.0000000), wk =   0.0219780
        k(   70) = (   0.3440151  -0.1984371   0.0000000), wk =   0.0219780
        k(   71) = (   0.3276334  -0.1889877   0.0000000), wk =   0.0219780
        k(   72) = (   0.3112517  -0.1795384   0.0000000), wk =   0.0219780
        k(   73) = (   0.2948701  -0.1700890   0.0000000), wk =   0.0219780
        k(   74) = (   0.2784884  -0.1606396   0.0000000), wk =   0.0219780
        k(   75) = (   0.2621067  -0.1511902   0.0000000), wk =   0.0219780
        k(   76) = (   0.2457251  -0.1417408   0.0000000), wk =   0.0219780
        k(   77) = (   0.2293434  -0.1322914   0.0000000), wk =   0.0219780
        k(   78) = (   0.2129617  -0.1228420   0.0000000), wk =   0.0219780
        k(   79) = (   0.1965800  -0.1133926   0.0000000), wk =   0.0219780
        k(   80) = (   0.1801984  -0.1039433   0.0000000), wk =   0.0219780
        k(   81) = (   0.1638167  -0.0944939   0.0000000), wk =   0.0219780
        k(   82) = (   0.1474350  -0.0850445   0.0000000), wk =   0.0219780
        k(   83) = (   0.1310534  -0.0755951   0.0000000), wk =   0.0219780
        k(   84) = (   0.1146717  -0.0661457   0.0000000), wk =   0.0219780
        k(   85) = (   0.0982900  -0.0566963   0.0000000), wk =   0.0219780
        k(   86) = (   0.0819084  -0.0472469   0.0000000), wk =   0.0219780
        k(   87) = (   0.0655267  -0.0377975   0.0000000), wk =   0.0219780
        k(   88) = (   0.0491450  -0.0283482   0.0000000), wk =   0.0219780
        k(   89) = (   0.0327633  -0.0188988   0.0000000), wk =   0.0219780
        k(   90) = (   0.0163817  -0.0094494   0.0000000), wk =   0.0219780
        k(   91) = (   0.0000000   0.0000000   0.0000000), wk =   0.0219780

     Dense  grid:   479369 G-vectors     FFT dimensions: (  48,  48, 480)

     Smooth grid:   379913 G-vectors     FFT dimensions: (  45,  45, 450)

     Estimated max dynamical RAM per process >       2.13 GB

     Estimated total dynamical RAM >       4.26 GB

     The potential is recalculated from file :
     /scratch/as3359/Ta2CH2k_bandsdos/Ta.save/charge-density


     negative rho (up, down):  6.648E-05 0.000E+00
     Starting wfcs are   40 randomized atomic wfcs +    2 random wfcs

     Band Structure Calculation
     Davidson diagonalization with overlap
     c_bands:  1 eigenvalues not converged
     c_bands:  1 eigenvalues not converged
     c_bands:  1 eigenvalues not converged
     c_bands:  1 eigenvalues not converged
     c_bands:  1 eigenvalues not converged
     c_bands:  1 eigenvalues not converged
     c_bands:  1 eigenvalues not converged
     c_bands:  1 eigenvalues not converged
     c_bands:  1 eigenvalues not converged
     c_bands:  1 eigenvalues not converged
     c_bands:  1 eigenvalues not converged
     c_bands:  1 eigenvalues not converged

     ethr =  1.00E-13,  avg # of iterations = 74.9

     total cpu time spent up to now is      761.9 secs

     End of band structure calculation

          k = 0.0000 0.0000 0.0000 ( 47073 PWs)   bands (ev):

   -67.5255 -67.4939 -34.5308 -34.0480 -33.6035 -33.6031 -33.5647 -33.5627
   -19.1770 -19.1633 -19.1400 -19.1399 -19.1380 -19.1376 -19.1192 -19.1190
   -19.1150 -19.1145 -19.1056 -19.0994 -19.0253 -19.0245 -12.7646  -8.2651
    -5.1953  -3.4146  -3.1244  -3.1091  -1.1620   0.4169   0.4358   2.5711
     2.5824   2.9915   3.0238   3.5701   4.4846   4.5317   4.9344   5.3264
     5.7796   6.4942

          k = 0.0218 0.0000 0.0000 ( 47180 PWs)   bands (ev):

   -67.5252 -67.4937 -34.5300 -34.0479 -33.6065 -33.6044 -33.5661 -33.5650
   -19.1769 -19.1632 -19.1401 -19.1399 -19.1380 -19.1375 -19.1193 -19.1191
   -19.1151 -19.1145 -19.1054 -19.0992 -19.0255 -19.0247 -12.7570  -8.2531
    -5.1987  -3.4158  -3.1258  -3.1189  -1.1524   0.4116   0.4304   2.5035
     2.5478   3.0256   3.0491   3.6208   4.4940   4.5415   4.9429   5.3353
     5.7902   6.5130

          k = 0.0437 0.0000 0.0000 ( 47241 PWs)   bands (ev):

   -67.5245 -67.4931 -34.5276 -34.0477 -33.6162 -33.6075 -33.5751 -33.5668
   -19.1767 -19.1631 -19.1404 -19.1400 -19.1380 -19.1373 -19.1195 -19.1192
   -19.1152 -19.1144 -19.1048 -19.0987 -19.0260 -19.0253 -12.7341  -8.2175
    -5.2088  -3.4203  -3.1639  -3.1128  -1.1239   0.3471   0.4639   2.3622
     2.4596   3.0785   3.1101   3.7605   4.5221   4.5706   4.9686   5.3618
     5.8209   6.5404

          k = 0.0655 0.0000 0.0000 ( 47275 PWs)   bands (ev):

   -67.5233 -67.4921 -34.5236 -34.0473 -33.6319 -33.6138 -33.5889 -33.5698
   -19.1762 -19.1628 -19.1409 -19.1402 -19.1380 -19.1369 -19.1200 -19.1192
   -19.1154 -19.1142 -19.1038 -19.0978 -19.0269 -19.0262 -12.6966  -8.1588
    -5.2255  -3.4301  -3.2281  -3.0976  -1.0773   0.2427   0.5208   2.2122
     2.3392   3.1139   3.1905   3.9567   4.5688   4.6184   5.0112   5.4059
     5.8703   6.5856

          k = 0.0874 0.0000 0.0000 ( 47301 PWs)   bands (ev):

   -67.5216 -67.4908 -34.5180 -34.0469 -33.6530 -33.6267 -33.6035 -33.5743
   -19.1756 -19.1625 -19.1415 -19.1404 -19.1380 -19.1364 -19.1207 -19.1192
   -19.1156 -19.1140 -19.1025 -19.0966 -19.0282 -19.0275 -12.6450  -8.0779
    -5.2481  -3.4480  -3.3131  -3.0732  -1.0141   0.1051   0.5991   2.0801
     2.2006   3.1316   3.2828   4.1781   4.6340   4.6839   5.0709   5.4673
     5.9366   6.6484

          k = 0.1092 0.0000 0.0000 ( 47337 PWs)   bands (ev):

   -67.5195 -67.4891 -34.5110 -34.0466 -33.6791 -33.6502 -33.6147 -33.5804
   -19.1748 -19.1621 -19.1422 -19.1407 -19.1380 -19.1357 -19.1215 -19.1192
   -19.1159 -19.1137 -19.1008 -19.0951 -19.0298 -19.0291 -12.5803  -7.9763
    -5.2761  -3.4759  -3.4149  -3.0387  -0.9355  -0.0581   0.6965   1.9773
     2.0543   3.1348   3.3831   4.4039   4.7174   4.7670   5.1475   5.5459
     6.0190   6.7282

          k = 0.1311 0.0000 0.0000 ( 47373 PWs)   bands (ev):

   -67.5169 -67.4872 -34.5026 -34.0465 -33.7094 -33.6814 -33.6246 -33.5880
   -19.1738 -19.1616 -19.1431 -19.1411 -19.1379 -19.1350 -19.1225 -19.1191
   -19.1163 -19.1133 -19.0989 -19.0933 -19.0317 -19.0311 -12.5037  -7.8555
    -5.3086  -3.5293  -3.5146  -2.9941  -0.8430  -0.2388   0.8073   1.9094
     1.9118   3.1243   3.4894   4.6195   4.8184   4.8697   5.2410   5.6415
     6.1170   6.8245

          k = 0.1529 0.0000 0.0000 ( 47403 PWs)   bands (ev):

   -67.5140 -67.4849 -34.4931 -34.0467 -33.7433 -33.7178 -33.6350 -33.5971
   -19.1727 -19.1611 -19.1440 -19.1416 -19.1379 -19.1342 -19.1235 -19.1191
   -19.1167 -19.1129 -19.0966 -19.0912 -19.0338 -19.0333 -12.4166  -7.7177
    -5.3446  -3.6519  -3.5645  -2.9402  -0.7378  -0.4291   0.9171   1.7915
     1.8784   3.1003   3.6001   4.8103   4.9364   4.9993   5.3511   5.7541
     6.2302   6.9368

          k = 0.1748 0.0000 0.0000 ( 47459 PWs)   bands (ev):

   -67.5108 -67.4824 -34.4825 -34.0477 -33.7797 -33.7579 -33.6466 -33.6077
   -19.1716 -19.1606 -19.1450 -19.1422 -19.1378 -19.1334 -19.1246 -19.1190
   -19.1171 -19.1124 -19.0941 -19.0889 -19.0361 -19.0357 -12.3205  -7.5653
    -5.3828  -3.7794  -3.6241  -2.8788  -0.6235  -0.6194   0.9923   1.7299
     1.8842   3.0637   3.7141   4.9667   5.0704   5.1611   5.4778   5.8837
     6.3581   7.0643

          k = 0.1966 0.0000 0.0000 ( 47476 PWs)   bands (ev):

   -67.5072 -67.4796 -34.4710 -34.0499 -33.8176 -33.8007 -33.6596 -33.6198
   -19.1703 -19.1600 -19.1461 -19.1429 -19.1377 -19.1327 -19.1257 -19.1189
   -19.1174 -19.1118 -19.0914 -19.0864 -19.0387 -19.0383 -12.2172  -7.4009
    -5.4219  -3.9082  -3.6919  -2.8116  -0.8106  -0.4939   0.9873   1.7742
     1.9247   3.0167   3.8304   5.1000   5.2197   5.3421   5.6208   6.0301
     6.4998   7.2021

          k = 0.2184 0.0000 0.0000 ( 47507 PWs)   bands (ev):

   -67.5034 -67.4767 -34.4590 -34.0540 -33.8554 -33.8451 -33.6739 -33.6333
   -19.1689 -19.1595 -19.1471 -19.1437 -19.1377 -19.1320 -19.1269 -19.1188
   -19.1176 -19.1112 -19.0884 -19.0836 -19.0414 -19.0411 -12.1084  -7.2275
    -5.4607  -4.0353  -3.7659  -2.7411  -0.9901  -0.3571   0.9023   1.9251
     1.9953   2.9642   3.9487   5.2239   5.3831   5.5289   5.7797   6.1928
     6.6538   7.1833

          k = 0.2403 0.0000 0.0000 ( 47543 PWs)   bands (ev):

   -67.4994 -67.4737 -34.4465 -34.0611 -33.8915 -33.8902 -33.6896 -33.6483
   -19.1675 -19.1589 -19.1482 -19.1446 -19.1376 -19.1314 -19.1279 -19.1189
   -19.1174 -19.1107 -19.0853 -19.0808 -19.0441 -19.0440 -11.9960  -7.0484
    -5.4979  -4.1582  -3.8436  -2.6698  -1.1556  -0.2118   0.7758   2.0874
     2.1439   2.9152   4.0689   5.3428   5.5600   5.7189   5.9545   6.3710
     6.8161   7.1794

          k = 0.2621 0.0000 0.0000 ( 47571 PWs)   bands (ev):

   -67.4952 -67.4706 -34.4340 -34.0728 -33.9350 -33.9233 -33.7068 -33.6646
   -19.1660 -19.1584 -19.1493 -19.1455 -19.1377 -19.1310 -19.1289 -19.1192
   -19.1168 -19.1101 -19.0822 -19.0778 -19.0470 -19.0470 -11.8817  -6.8671
    -5.5322  -4.2743  -3.9227  -2.6010  -1.3027  -0.0595   0.6347   2.1846
     2.4032   2.8862   4.1908   5.4571   5.7495   5.9140   6.1448   6.5637
     6.9725   7.2059

          k = 0.2840 0.0000 0.0000 ( 47533 PWs)   bands (ev):

   -67.4909 -67.4674 -34.4218 -34.0905 -33.9783 -33.9489 -33.7252 -33.6823
   -19.1645 -19.1580 -19.1503 -19.1465 -19.1378 -19.1307 -19.1297 -19.1195
   -19.1161 -19.1095 -19.0789 -19.0748 -19.0500 -19.0499 -11.7673  -6.6870
    -5.5628  -4.3815  -4.0006  -2.5385  -1.4274   0.0953   0.4951   2.2602
     2.6884   2.9038   4.3147   5.5669   5.9509   6.1171   6.3504   6.7699
     7.0796   7.3041

          k = 0.3058 0.0001 0.0000 ( 47573 PWs)   bands (ev):

   -67.4866 -67.4643 -34.4105 -34.1143 -34.0191 -33.9676 -33.7450 -33.7013
   -19.1630 -19.1576 -19.1512 -19.1475 -19.1380 -19.1307 -19.1303 -19.1198
   -19.1151 -19.1089 -19.0756 -19.0718 -19.0530 -19.0528 -11.6544  -6.5120
    -5.5894  -4.4777  -4.0750  -2.4867  -1.5255   0.2159   0.3991   2.2910
     2.9888   2.9908   4.4404   5.6738   6.1634   6.3298   6.5712   6.9877
     7.1268   7.4799

          k = 0.3277 0.0001 0.0000 ( 47559 PWs)   bands (ev):

   -67.4823 -67.4612 -34.4004 -34.1423 -34.0563 -33.9805 -33.7660 -33.7215
   -19.1614 -19.1572 -19.1520 -19.1484 -19.1383 -19.1309 -19.1307 -19.1200
   -19.1141 -19.1085 -19.0724 -19.0688 -19.0559 -19.0557 -11.5445  -6.3453
    -5.6118  -4.5608  -4.1439  -2.4506  -1.5929   0.1581   0.4940   2.2840
     3.1338   3.2987   4.5674   5.7816   6.3857   6.5518   6.8074   7.1511
     7.2123   7.6883

          k = 0.3495 0.0001 0.0000 ( 47562 PWs)   bands (ev):

   -67.4780 -67.4582 -34.3922 -34.1718 -34.0889 -33.9898 -33.7882 -33.7428
   -19.1599 -19.1571 -19.1527 -19.1492 -19.1388 -19.1312 -19.1310 -19.1202
   -19.1131 -19.1081 -19.0692 -19.0660 -19.0587 -19.0585 -11.4389  -6.1902
    -5.6304  -4.6291  -4.2058  -2.4348  -1.6265   0.0365   0.6672   2.2633
     3.3056   3.6055   4.6945   5.8969   6.6148   6.7795   7.0587   7.1619
     7.4224   7.7381

          k = 0.3714 0.0001 0.0000 ( 47583 PWs)   bands (ev):

   -67.4738 -67.4554 -34.3865 -34.2006 -34.1159 -33.9972 -33.8112 -33.7650
   -19.1584 -19.1571 -19.1532 -19.1497 -19.1393 -19.1315 -19.1313 -19.1203
   -19.1120 -19.1078 -19.0662 -19.0637 -19.0611 -19.0610 -11.3386  -6.0490
    -5.6460  -4.6810  -4.2598  -2.4416  -1.6255  -0.0836   0.8550   2.2479
     3.4767   3.8996   4.8191   6.0298   6.8388   6.9997   7.1642   7.3257
     7.5423   7.8524

          k = 0.3932 0.0001 0.0000 ( 47581 PWs)   bands (ev):

   -67.4697 -67.4527 -34.3834 -34.2272 -34.1367 -34.0039 -33.8350 -33.7880
   -19.1573 -19.1570 -19.1536 -19.1500 -19.1400 -19.1319 -19.1314 -19.1203
   -19.1111 -19.1077 -19.0649 -19.0647 -19.0622 -19.0598 -11.2446  -5.9231
    -5.6593  -4.7156  -4.3057  -2.4701  -1.5923  -0.1939   1.0503   2.2486
     3.6244   4.1686   4.9369   6.1919   6.9856   7.1677   7.2262   7.6069
     7.6091   8.0881

          k = 0.4150 0.0001 0.0000 ( 47609 PWs)   bands (ev):

   -67.4658 -67.4503 -34.3830 -34.2506 -34.1514 -34.0106 -33.8594 -33.8116
   -19.1576 -19.1556 -19.1538 -19.1500 -19.1407 -19.1324 -19.1314 -19.1202
   -19.1102 -19.1077 -19.0673 -19.0667 -19.0599 -19.0574 -11.1574  -5.8127
    -5.6707  -4.7330  -4.3442  -2.5176  -1.5312  -0.2913   1.2505   2.2708
     3.7316   4.3984   5.0434   6.3930   6.9733   7.2165   7.4287   7.7674
     7.9018   8.3608

          k = 0.4369 0.0001 0.0000 ( 47591 PWs)   bands (ev):

   -67.4622 -67.4481 -34.3842 -34.2699 -34.1606 -34.0179 -33.8838 -33.8355
   -19.1581 -19.1545 -19.1535 -19.1497 -19.1415 -19.1331 -19.1314 -19.1200
   -19.1095 -19.1078 -19.0697 -19.0690 -19.0573 -19.0551 -11.0774  -5.7169
    -5.6799  -4.7342  -4.3768  -2.5807  -1.4471  -0.3738   1.4540   2.3166
     3.7895   4.5721   5.1367   6.6351   6.9078   7.1784   7.6669   7.9979
     8.2062   8.6156

          k = 0.4587 0.0001 0.0000 ( 47607 PWs)   bands (ev):

   -67.4587 -67.4461 -34.3860 -34.2848 -34.1659 -34.0261 -33.9080 -33.8594
   -19.1587 -19.1541 -19.1524 -19.1492 -19.1422 -19.1338 -19.1315 -19.1197
   -19.1090 -19.1081 -19.0719 -19.0712 -19.0549 -19.0530 -11.0050  -5.6863
    -5.6337  -4.7214  -4.4058  -2.6558  -1.3447  -0.4399   1.6588   2.3851
     3.7987   4.6712   5.2210   6.8296   6.8917   7.1276   7.8943   8.2003
     8.5097   8.6601

          k = 0.4806 0.0001 0.0000 ( 47599 PWs)   bands (ev):

   -67.4556 -67.4444 -34.3868 -34.2950 -34.1690 -34.0356 -33.9312 -33.8829
   -19.1592 -19.1538 -19.1512 -19.1486 -19.1430 -19.1345 -19.1315 -19.1193
   -19.1086 -19.1085 -19.0740 -19.0732 -19.0527 -19.0511 -10.9401  -5.6883
    -5.5608  -4.6977  -4.4343  -2.7383  -1.2295  -0.4890   1.8629   2.4732
     3.7673   4.6868   5.2974   6.7502   6.9441   7.2847   8.0912   8.1899
     8.7778   8.7908

          k = 0.5024 0.0001 0.0000 ( 47605 PWs)   bands (ev):

   -67.4527 -67.4430 -34.3855 -34.3005 -34.1717 -34.0466 -33.9527 -33.9054
   -19.1596 -19.1534 -19.1499 -19.1479 -19.1438 -19.1352 -19.1317 -19.1188
   -19.1090 -19.1085 -19.0758 -19.0751 -19.0508 -19.0494 -10.8830  -5.6842
    -5.4956  -4.6666  -4.4660  -2.8230  -1.1075  -0.5211   2.0635   2.5759
     3.7072   4.6300   5.3508   6.6789   6.8477   7.5517   8.0761   8.2475
     9.0317   9.0578

          k = 0.5243 0.0001 0.0000 ( 47637 PWs)   bands (ev):

   -67.4502 -67.4420 -34.3811 -34.3013 -34.1759 -34.0594 -33.9715 -33.9265
   -19.1600 -19.1528 -19.1487 -19.1471 -19.1445 -19.1360 -19.1320 -19.1182
   -19.1095 -19.1085 -19.0775 -19.0767 -19.0492 -19.0480 -10.8337  -5.6722
    -5.4363  -4.6318  -4.5049  -2.9040  -0.9856  -0.5375   2.2574   2.6865
     3.6320   4.5215   5.3594   6.6307   6.7384   7.6146   8.1682   8.3537
     9.2154   9.3812

          k = 0.5461 0.0001 0.0000 ( 47614 PWs)   bands (ev):

   -67.4479 -67.4412 -34.3732 -34.2978 -34.1831 -34.0740 -33.9866 -33.9458
   -19.1602 -19.1522 -19.1476 -19.1465 -19.1450 -19.1367 -19.1324 -19.1175
   -19.1101 -19.1088 -19.0788 -19.0781 -19.0478 -19.0468 -10.7920  -5.6508
    -5.3819  -4.5965  -4.5546  -2.9751  -0.8709  -0.5406   2.4406   2.7972
     3.5550   4.3792   5.3133   6.6177   6.6381   7.4805   8.3969   8.4620
     9.3427   9.7215

          k = 0.5680 0.0001 0.0000 ( 47629 PWs)   bands (ev):

   -67.4460 -67.4407 -34.3614 -34.2907 -34.1942 -34.0900 -33.9974 -33.9628
   -19.1603 -19.1514 -19.1466 -19.1465 -19.1448 -19.1374 -19.1330 -19.1167
   -19.1106 -19.1092 -19.0800 -19.0793 -19.0467 -19.0459 -10.7582  -5.6184
    -5.3331  -4.6169  -4.5636  -3.0316  -0.7701  -0.5345   2.6083   2.8991
     3.4892   4.2163   5.2255   6.5625   6.6360   7.3155   8.3777   8.7786
     9.4658  10.0669

          k = 0.5898 0.0001 0.0000 ( 47625 PWs)   bands (ev):

   -67.4443 -67.4405 -34.3458 -34.2810 -34.2093 -34.1065 -34.0037 -33.9774
   -19.1604 -19.1507 -19.1471 -19.1456 -19.1441 -19.1381 -19.1337 -19.1159
   -19.1111 -19.1098 -19.0808 -19.0803 -19.0458 -19.0453 -10.7321  -5.5737
    -5.2937  -4.6892  -4.5356  -3.0711  -0.6879  -0.5246   2.7551   2.9819
     3.4477   4.0439   5.1239   6.5259   6.6681   7.1533   8.3236   9.0679
     9.6165  10.3824

          k = 0.6116 0.0001 0.0000 ( 47633 PWs)   bands (ev):

   -67.4430 -67.4406 -34.3267 -34.2707 -34.2278 -34.1217 -34.0061 -33.9894
   -19.1604 -19.1499 -19.1477 -19.1447 -19.1435 -19.1386 -19.1344 -19.1150
   -19.1114 -19.1105 -19.0814 -19.0810 -19.0452 -19.0449 -10.7137  -5.5157
    -5.2730  -4.7621  -4.5143  -3.0940  -0.6261  -0.5179   2.8759   3.0333
     3.4444   3.8728   5.0358   6.5388   6.6954   6.9997   8.2681   9.3077
     9.7917  10.5104

          k = 0.6335 0.0001 0.0000 ( 47635 PWs)   bands (ev):

   -67.4420 -67.4409 -34.3053 -34.2630 -34.2478 -34.1330 -34.0056 -33.9986
   -19.1604 -19.1492 -19.1482 -19.1440 -19.1432 -19.1390 -19.1350 -19.1141
   -19.1116 -19.1113 -19.0817 -19.0815 -19.0448 -19.0446 -10.7030  -5.4438
    -5.2883  -4.8165  -4.5009  -3.1037  -0.5820  -0.5219   2.9662   3.0448
     3.4893   3.7152   4.9788   6.6053   6.7062   6.8562   8.2322   9.4790
     9.9794  10.3648

          k = 0.6553 0.0001 0.0000 ( 47643 PWs)   bands (ev):

   -67.4415 -67.4412 -34.2900 -34.2619 -34.2604 -34.1372 -34.0044 -34.0027
   -19.1603 -19.1487 -19.1486 -19.1435 -19.1433 -19.1391 -19.1353 -19.1135
   -19.1119 -19.1117 -19.0817 -19.0817 -19.0446 -19.0446 -10.6997  -5.3578
    -5.3552  -4.8346  -4.4964  -3.1055  -0.5485  -0.5431   3.0210   3.0216
     3.5782   3.5865   4.9598   6.6978   6.7021   6.7453   8.2224   9.5479
    10.1601  10.1670

          k = 0.6499-0.0093 0.0000 ( 47643 PWs)   bands (ev):

   -67.4417 -67.4410 -34.2948 -34.2639 -34.2545 -34.1363 -34.0049 -34.0013
   -19.1603 -19.1489 -19.1485 -19.1438 -19.1431 -19.1391 -19.1352 -19.1137
   -19.1118 -19.1116 -19.0817 -19.0816 -19.0447 -19.0446 -10.7005  -5.4083
    -5.3085  -4.8307  -4.4975  -3.1054  -0.5651  -0.5291   3.0006   3.0336
     3.5344   3.6407   4.9643   6.6561   6.6930   6.8013   8.2249   9.5254
    10.0849  10.2525

          k = 0.6444-0.0188 0.0000 ( 47635 PWs)   bands (ev):

   -67.4421 -67.4408 -34.3046 -34.2687 -34.2426 -34.1339 -34.0044 -33.9991
   -19.1603 -19.1490 -19.1484 -19.1443 -19.1429 -19.1390 -19.1350 -19.1140
   -19.1118 -19.1113 -19.0817 -19.0814 -19.0448 -19.0446 -10.7031  -5.4693
    -5.2572  -4.8203  -4.5009  -3.1056  -0.5896  -0.5113   2.9751   3.0334
     3.5023   3.7056   4.9771   6.5979   6.6827   6.8852   8.2319   9.4565
    10.0351  10.3347

          k = 0.6389-0.0282 0.0000 ( 47637 PWs)   bands (ev):

   -67.4425 -67.4407 -34.3158 -34.2751 -34.2287 -34.1307 -34.0024 -33.9966
   -19.1604 -19.1491 -19.1484 -19.1449 -19.1427 -19.1388 -19.1347 -19.1145
   -19.1117 -19.1108 -19.0816 -19.0812 -19.0449 -19.0447 -10.7073  -5.5373
    -5.2028  -4.8055  -4.5063  -3.1066  -0.6200  -0.4904   2.9458   3.0193
     3.4878   3.7762   4.9973   6.5413   6.6718   6.9775   8.2420   9.3495
    10.0089  10.4064

          k = 0.6335-0.0377 0.0000 ( 47643 PWs)   bands (ev):

   -67.4430 -67.4405 -34.3275 -34.2829 -34.2141 -34.1274 -33.9984 -33.9936
   -19.1604 -19.1492 -19.1485 -19.1457 -19.1425 -19.1386 -19.1344 -19.1149
   -19.1116 -19.1103 -19.0815 -19.0809 -19.0451 -19.0448 -10.7131  -5.6105
    -5.1455  -4.7880  -4.5137  -3.1090  -0.6559  -0.4649   2.9135   2.9915
     3.4915   3.8514   5.0240   6.4878   6.6615   7.0746   8.2541   9.2190
     9.9954  10.4633

          k = 0.6280-0.0472 0.0000 ( 47631 PWs)   bands (ev):

   -67.4435 -67.4405 -34.3393 -34.2915 -34.1991 -34.1246 -33.9925 -33.9903
   -19.1605 -19.1492 -19.1486 -19.1465 -19.1424 -19.1383 -19.1340 -19.1154
   -19.1115 -19.1098 -19.0813 -19.0806 -19.0453 -19.0449 -10.7204  -5.6874
    -5.0856  -4.7691  -4.5226  -3.1131  -0.6969  -0.4337   2.8792   2.9521
     3.5115   3.9296   5.0565   6.4375   6.6528   7.1732   8.2671   9.0768
     9.9866  10.5006

          k = 0.6226-0.0566 0.0000 ( 47621 PWs)   bands (ev):

   -67.4440 -67.4404 -34.3511 -34.3007 -34.1839 -34.1225 -33.9871 -33.9840
   -19.1606 -19.1492 -19.1487 -19.1474 -19.1423 -19.1380 -19.1335 -19.1159
   -19.1114 -19.1093 -19.0811 -19.0801 -19.0455 -19.0451 -10.7291  -5.7668
    -5.0240  -4.7497  -4.5325  -3.1190  -0.7424  -0.3955   2.8435   2.9038
     3.5452   4.0096   5.0941   6.3911   6.6465   7.2689   8.2801   8.9318
     9.9793  10.5147

          k = 0.6171-0.0661 0.0000 ( 47605 PWs)   bands (ev):

   -67.4445 -67.4405 -34.3628 -34.3102 -34.1688 -34.1214 -33.9831 -33.9740
   -19.1608 -19.1492 -19.1489 -19.1483 -19.1422 -19.1376 -19.1331 -19.1163
   -19.1112 -19.1088 -19.0808 -19.0797 -19.0458 -19.0453 -10.7390  -5.8478
    -4.9617  -4.7307  -4.5421  -3.1266  -0.7915  -0.3497   2.8068   2.8489
     3.5898   4.0900   5.1366   6.3486   6.6432   7.3555   8.2922   8.7914
     9.9728  10.5043

          k = 0.6116-0.0755 0.0000 ( 47601 PWs)   bands (ev):

   -67.4451 -67.4405 -34.3743 -34.3200 -34.1538 -34.1212 -33.9787 -33.9623
   -19.1610 -19.1494 -19.1492 -19.1490 -19.1422 -19.1372 -19.1326 -19.1167
   -19.1111 -19.1083 -19.0804 -19.0792 -19.0461 -19.0455 -10.7501  -5.9296
    -4.9010  -4.7127  -4.5494  -3.1359  -0.8436  -0.2957   2.7694   2.7894
     3.6433   4.1691   5.1837   6.3106   6.6434   7.4245   8.3029   8.6644
     9.9685  10.4708

          k = 0.6062-0.0850 0.0000 ( 47603 PWs)   bands (ev):

   -67.4457 -67.4406 -34.3856 -34.3297 -34.1393 -34.1218 -33.9739 -33.9493
   -19.1612 -19.1502 -19.1494 -19.1490 -19.1422 -19.1369 -19.1321 -19.1172
   -19.1109 -19.1077 -19.0801 -19.0786 -19.0464 -19.0458 -10.7623  -6.0116
    -4.8458  -4.6961  -4.5504  -3.1463  -0.8977  -0.2330   2.7224   2.7357
     3.7036   4.2453   5.2356   6.2775   6.6470   7.4647   8.3117   8.5612
     9.9683  10.4176

          k = 0.6007-0.0944 0.0000 ( 47613 PWs)   bands (ev):

   -67.4463 -67.4407 -34.3966 -34.3394 -34.1255 -34.1229 -33.9686 -33.9352
   -19.1614 -19.1511 -19.1497 -19.1489 -19.1423 -19.1365 -19.1316 -19.1176
   -19.1107 -19.1072 -19.0797 -19.0780 -19.0467 -19.0460 -10.7753  -6.0933
    -4.8031  -4.6813  -4.5383  -3.1576  -0.9530  -0.1616   2.6561   2.6984
     3.7693   4.3169   5.2924   6.2495   6.6539   7.4643   8.3185   8.4920
     9.9749  10.3486

          k = 0.5952-0.1039 0.0000 ( 47629 PWs)   bands (ev):

   -67.4469 -67.4408 -34.4072 -34.3489 -34.1247 -34.1121 -33.9627 -33.9205
   -19.1617 -19.1520 -19.1500 -19.1488 -19.1423 -19.1361 -19.1312 -19.1179
   -19.1105 -19.1067 -19.0792 -19.0774 -19.0470 -19.0463 -10.7891  -6.1741
    -4.7799  -4.6687  -4.5062  -3.1693  -1.0088  -0.0815   2.5859   2.6630
     3.8389   4.3819   5.3544   6.2271   6.6641   7.4180   8.3231   8.4607
     9.9909  10.2670

          k = 0.5898-0.1133 0.0000 ( 47633 PWs)   bands (ev):

   -67.4475 -67.4410 -34.4175 -34.3582 -34.1268 -34.0998 -33.9561 -33.9052
   -19.1620 -19.1529 -19.1503 -19.1487 -19.1424 -19.1357 -19.1307 -19.1183
   -19.1103 -19.1062 -19.0788 -19.0767 -19.0473 -19.0466 -10.8034  -6.2537
    -4.7765  -4.6585  -4.4537  -3.1808  -1.0645   0.0072   2.5130   2.6290
     3.9113   4.4382   5.4216   6.2105   6.6771   7.3318   8.3259   8.4596
    10.0187  10.1759

          k = 0.5843-0.1228 0.0000 ( 47639 PWs)   bands (ev):

   -67.4481 -67.4412 -34.4274 -34.3672 -34.1290 -34.0886 -33.9488 -33.8898
   -19.1624 -19.1537 -19.1506 -19.1486 -19.1426 -19.1353 -19.1303 -19.1186
   -19.1100 -19.1057 -19.0783 -19.0760 -19.0476 -19.0469 -10.8183  -6.3314
    -4.7867  -4.6507  -4.3870  -3.1916  -1.1194   0.1041   2.4380   2.5964
     3.9854   4.4839   5.4941   6.2000   6.6927   7.2185   8.3267   8.4753
    10.0584  10.0788

          k = 0.5789-0.1322 0.0000 ( 47629 PWs)   bands (ev):

   -67.4487 -67.4414 -34.4369 -34.3759 -34.1314 -34.0785 -33.9409 -33.8744
   -19.1627 -19.1544 -19.1509 -19.1484 -19.1427 -19.1349 -19.1298 -19.1188
   -19.1098 -19.1053 -19.0778 -19.0753 -19.0480 -19.0472 -10.8334  -6.4071
    -4.8050  -4.6455  -4.3119  -3.2015  -1.1732   0.2088   2.3614   2.5654
     4.0602   4.5167   5.5717   6.1951   6.7105   7.0912   8.3257   8.4954
     9.9726  10.1143

          k = 0.5734-0.1417 0.0000 ( 47629 PWs)   bands (ev):

   -67.4493 -67.4416 -34.4459 -34.3842 -34.1339 -34.0696 -33.9323 -33.8591
   -19.1631 -19.1551 -19.1512 -19.1483 -19.1429 -19.1346 -19.1294 -19.1191
   -19.1096 -19.1048 -19.0773 -19.0746 -19.0483 -19.0475 -10.8486  -6.4802
    -4.8278  -4.6427  -4.2320  -3.2101  -1.2254   0.3210   2.2836   2.5361
     4.1350   4.5345   5.6536   6.1951   6.7304   6.9602   8.3230   8.5123
     9.8644  10.1776

          k = 0.5679-0.1511 0.0000 ( 47647 PWs)   bands (ev):

   -67.4498 -67.4418 -34.4544 -34.3922 -34.1364 -34.0618 -33.9233 -33.8441
   -19.1636 -19.1558 -19.1514 -19.1481 -19.1431 -19.1342 -19.1291 -19.1193
   -19.1094 -19.1044 -19.0767 -19.0739 -19.0486 -19.0477 -10.8638  -6.5504
    -4.8530  -4.6422  -4.1494  -3.2173  -1.2758   0.4401   2.2052   2.5087
     4.2092   4.5357   5.7391   6.1981   6.7524   6.8337   8.3188   8.5223
     9.7534  10.2426

          k = 0.5625-0.1606 0.0000 ( 47659 PWs)   bands (ev):

   -67.4504 -67.4420 -34.4625 -34.3997 -34.1388 -34.0551 -33.9138 -33.8296
   -19.1640 -19.1563 -19.1517 -19.1480 -19.1433 -19.1339 -19.1287 -19.1195
   -19.1091 -19.1040 -19.0762 -19.0732 -19.0489 -19.0480 -10.8787  -6.6174
    -4.8795  -4.6438  -4.0656  -3.2229  -1.3242   0.5656   2.1268   2.4832
     4.2823   4.5185   5.8266   6.2005   6.7189   6.7773   8.3135   8.5243
     9.6409  10.2939

          k = 0.5570-0.1700 0.0000 ( 47649 PWs)   bands (ev):

   -67.4509 -67.4422 -34.4700 -34.4067 -34.1412 -34.0494 -33.9043 -33.8157
   -19.1645 -19.1568 -19.1520 -19.1478 -19.1435 -19.1336 -19.1284 -19.1197
   -19.1089 -19.1036 -19.0757 -19.0726 -19.0492 -19.0483 -10.8934  -6.6809
    -4.9065  -4.6472  -3.9818  -3.2269  -1.3703   0.6970   2.0492   2.4597
     4.3538   4.4820   5.9143   6.1966   6.6256   6.8044   8.3071   8.5191
     9.5285  10.3120

          k = 0.5515-0.1795 0.0000 ( 47663 PWs)   bands (ev):

   -67.4514 -67.4424 -34.4770 -34.4132 -34.1435 -34.0446 -33.8947 -33.8025
   -19.1649 -19.1573 -19.1523 -19.1477 -19.1437 -19.1334 -19.1281 -19.1198
   -19.1087 -19.1032 -19.0752 -19.0719 -19.0495 -19.0486 -10.9075  -6.7404
    -4.9331  -4.6521  -3.8988  -3.2295  -1.4141   0.8336   1.9731   2.4383
     4.4187   4.4305   6.0000   6.1790   6.5616   6.8354   8.2999   8.5081
     9.4172  10.2970

          k = 0.5461-0.1889 0.0000 ( 47657 PWs)   bands (ev):

   -67.4518 -67.4426 -34.4835 -34.4193 -34.1457 -34.0405 -33.8854 -33.7901
   -19.1654 -19.1577 -19.1525 -19.1476 -19.1439 -19.1331 -19.1278 -19.1199
   -19.1085 -19.1029 -19.0747 -19.0713 -19.0498 -19.0488 -10.9209  -6.7958
    -4.9591  -4.6581  -3.8176  -3.2309  -1.4555   0.9748   1.8994   2.4189
     4.3497   4.4913   6.0811   6.1445   6.5307   6.8709   8.2920   8.4928
     9.3086  10.2670

          k = 0.5406-0.1984 0.0000 ( 47643 PWs)   bands (ev):

   -67.4523 -67.4428 -34.4893 -34.4248 -34.1477 -34.0371 -33.8765 -33.7786
   -19.1658 -19.1580 -19.1528 -19.1475 -19.1440 -19.1329 -19.1275 -19.1201
   -19.1083 -19.1026 -19.0743 -19.0707 -19.0500 -19.0490 -10.9336  -6.8468
    -4.9838  -4.6648  -3.7392  -3.2311  -1.4943   1.1198   1.8289   2.4016
     4.2564   4.5557   6.0981   6.1556   6.5266   6.9120   8.2837   8.4748
     9.2038  10.2332

          k = 0.5352-0.2079 0.0000 ( 47629 PWs)   bands (ev):

   -67.4527 -67.4430 -34.4946 -34.4298 -34.1495 -34.0343 -33.8681 -33.7681
   -19.1663 -19.1583 -19.1530 -19.1473 -19.1442 -19.1327 -19.1273 -19.1201
   -19.1082 -19.1023 -19.0739 -19.0701 -19.0503 -19.0493 -10.9453  -6.8931
    -5.0069  -4.6719  -3.6645  -3.2305  -1.5304   1.2676   1.7626   2.3865
     4.1474   4.6168   6.0496   6.2202   6.5387   6.9591   8.2750   8.4554
     9.1042  10.1999

          k = 0.5297-0.2173 0.0000 ( 47641 PWs)   bands (ev):

   -67.4530 -67.4431 -34.4993 -34.4342 -34.1512 -34.0319 -33.8604 -33.7586
   -19.1667 -19.1586 -19.1532 -19.1472 -19.1444 -19.1325 -19.1271 -19.1202
   -19.1080 -19.1020 -19.0735 -19.0696 -19.0505 -19.0495 -10.9559  -6.9345
    -5.0280  -4.6790  -3.5947  -3.2293  -1.5635   1.4171   1.7013   2.3737
     4.0256   4.6738   6.0046   6.2742   6.5588   7.0118   8.2662   8.4359
     9.0112  10.1687

          k = 0.5242-0.2268 0.0000 ( 47637 PWs)   bands (ev):

   -67.4533 -67.4433 -34.5034 -34.4381 -34.1526 -34.0300 -33.8535 -33.7503
   -19.1670 -19.1588 -19.1533 -19.1472 -19.1445 -19.1323 -19.1269 -19.1203
   -19.1079 -19.1018 -19.0731 -19.0692 -19.0507 -19.0496 -10.9654  -6.9708
    -5.0470  -4.6859  -3.5309  -3.2277  -1.5935   1.5664   1.6461   2.3632
     3.8946   4.7260   5.9658   6.3171   6.5818   7.0685   8.2573   8.4171
     8.9261  10.1389

          k = 0.5188-0.2362 0.0000 ( 47620 PWs)   bands (ev):

   -67.4536 -67.4434 -34.5069 -34.4413 -34.1539 -34.0284 -33.8475 -33.7432
   -19.1673 -19.1589 -19.1535 -19.1471 -19.1446 -19.1322 -19.1268 -19.1203
   -19.1077 -19.1016 -19.0728 -19.0688 -19.0508 -19.0498 -10.9736  -7.0019
    -5.0634  -4.6922  -3.4741  -3.2260  -1.6199   1.5970   1.7138   2.3555
     3.7586   4.7725   5.9339   6.3496   6.6047   7.1264   8.2486   8.4000
     8.8502  10.1111

          k = 0.5133-0.2457 0.0000 ( 47583 PWs)   bands (ev):

   -67.4538 -67.4435 -34.5098 -34.4440 -34.1549 -34.0272 -33.8425 -33.7372
   -19.1676 -19.1591 -19.1536 -19.1470 -19.1447 -19.1321 -19.1266 -19.1204
   -19.1076 -19.1015 -19.0726 -19.0685 -19.0510 -19.0499 -10.9804  -7.0275
    -5.0772  -4.6977  -3.4256  -3.2243  -1.6424   1.5561   1.8543   2.3512
     3.6227   4.8122   5.9088   6.3732   6.6253   7.1818   8.2405   8.3852
     8.7850  10.0869

          k = 0.5078-0.2551 0.0000 ( 47603 PWs)   bands (ev):

   -67.4540 -67.4436 -34.5120 -34.4461 -34.1557 -34.0263 -33.8386 -33.7326
   -19.1678 -19.1592 -19.1537 -19.1470 -19.1448 -19.1320 -19.1265 -19.1204
   -19.1075 -19.1013 -19.0724 -19.0682 -19.0511 -19.0500 -10.9858  -7.0475
    -5.0880  -4.7022  -3.3865  -3.2228  -1.6606   1.5234   1.9817   2.3515
     3.4936   4.8444   5.8899   6.3894   6.6426   7.2307   8.2333   8.3731
     8.7320  10.0672

          k = 0.5024-0.2646 0.0000 ( 47609 PWs)   bands (ev):

   -67.4541 -67.4437 -34.5136 -34.4477 -34.1563 -34.0256 -33.8357 -33.7293
   -19.1679 -19.1593 -19.1538 -19.1469 -19.1449 -19.1319 -19.1265 -19.1204
   -19.1075 -19.1012 -19.0722 -19.0680 -19.0511 -19.0501 -10.9897  -7.0619
    -5.0959  -4.7055  -3.3578  -3.2216  -1.6740   1.4997   2.0852   2.3584
     3.3815   4.8681   5.8769   6.3998   6.6554   7.2692   8.2276   8.3642
     8.6928  10.0526

          k = 0.4969-0.2740 0.0000 ( 47625 PWs)   bands (ev):

   -67.4542 -67.4437 -34.5146 -34.4486 -34.1567 -34.0252 -33.8340 -33.7272
   -19.1680 -19.1593 -19.1538 -19.1469 -19.1449 -19.1319 -19.1264 -19.1204
   -19.1075 -19.1012 -19.0721 -19.0679 -19.0512 -19.0501 -10.9920  -7.0705
    -5.1007  -4.7075  -3.3402  -3.2208  -1.6822   1.4852   2.1510   2.3712
     3.3017   4.8826   5.8692   6.4055   6.6634   7.2939   8.2239   8.3588
     8.6686  10.0437

          k = 0.4915-0.2835 0.0000 ( 47636 PWs)   bands (ev):

   -67.4542 -67.4437 -34.5149 -34.4489 -34.1568 -34.0251 -33.8334 -33.7266
   -19.1680 -19.1593 -19.1538 -19.1469 -19.1449 -19.1319 -19.1264 -19.1205
   -19.1074 -19.1012 -19.0721 -19.0679 -19.0512 -19.0501 -10.9928  -7.0734
    -5.1022  -4.7082  -3.3342  -3.2206  -1.6850   1.4803   2.1726   2.3787
     3.2720   4.8875   5.8667   6.4073   6.6661   7.3024   8.2226   8.3569
     8.6604  10.0406

          k = 0.4751-0.2740 0.0000 ( 47628 PWs)   bands (ev):

   -67.4544 -67.4438 -34.5129 -34.4471 -34.1573 -34.0247 -33.8328 -33.7261
   -19.1680 -19.1593 -19.1538 -19.1469 -19.1450 -19.1319 -19.1265 -19.1204
   -19.1075 -19.1012 -19.0720 -19.0678 -19.0514 -19.0503 -10.9964  -7.0693
    -5.1019  -4.7071  -3.3322  -3.2292  -1.6872   1.4853   2.1600   2.3721
     3.2706   4.8629   5.8361   6.4063   6.6575   7.3266   8.2252   8.2995
     8.6660   9.8985

          k = 0.4587-0.2646 0.0000 ( 47628 PWs)   bands (ev):

   -67.4551 -67.4441 -34.5071 -34.4420 -34.1587 -34.0236 -33.8310 -33.7247
   -19.1679 -19.1593 -19.1535 -19.1468 -19.1451 -19.1318 -19.1266 -19.1204
   -19.1077 -19.1014 -19.0716 -19.0675 -19.0519 -19.0506 -11.0072  -7.0571
    -5.1012  -4.7038  -3.3260  -3.2540  -1.6941   1.5000   2.1229   2.3521
     3.2661   4.7927   5.7481   6.3984   6.6408   7.3940   8.1118   8.2846
     8.6536   9.7216

          k = 0.4423-0.2551 0.0000 ( 47582 PWs)   bands (ev):

   -67.4562 -67.4447 -34.4977 -34.4336 -34.1608 -34.0218 -33.8281 -33.7224
   -19.1677 -19.1592 -19.1532 -19.1466 -19.1453 -19.1316 -19.1269 -19.1204
   -19.1080 -19.1016 -19.0711 -19.0671 -19.0527 -19.0513 -11.0251  -7.0371
    -5.1010  -4.6988  -3.3165  -3.2916  -1.7062   1.5242   2.0639   2.3178
     3.2572   4.6856   5.6113   6.3724   6.6372   7.4927   7.9125   8.3042
     8.6174   9.4025

          k = 0.4259-0.2457 0.0000 ( 47573 PWs)   bands (ev):

   -67.4577 -67.4455 -34.4850 -34.4220 -34.1630 -34.0196 -33.8241 -33.7192
   -19.1675 -19.1591 -19.1527 -19.1464 -19.1456 -19.1314 -19.1272 -19.1204
   -19.1084 -19.1019 -19.0703 -19.0664 -19.0538 -19.0522 -11.0503  -7.0098
    -5.1029  -4.6923  -3.3408  -3.3006  -1.7234   1.5557   1.9880   2.2682
     3.2416   4.5537   5.4351   6.3254   6.6607   7.6094   7.6978   8.2469
     8.6165   9.0855

          k = 0.4095-0.2362 0.0000 ( 47583 PWs)   bands (ev):

   -67.4596 -67.4465 -34.4697 -34.4074 -34.1645 -34.0170 -33.8189 -33.7152
   -19.1672 -19.1589 -19.1522 -19.1462 -19.1458 -19.1312 -19.1276 -19.1203
   -19.1089 -19.1023 -19.0693 -19.0656 -19.0551 -19.0534 -11.0829  -6.9760
    -5.1092  -4.6846  -3.3921  -3.2834  -1.7453   1.5883   1.9040   2.2037
     3.2158   4.4098   5.2284   6.2690   6.7061   7.4883   7.7334   8.0940
     8.6435   8.8013

          k = 0.3932-0.2268 0.0000 ( 47597 PWs)   bands (ev):

   -67.4618 -67.4478 -34.4527 -34.3898 -34.1644 -34.0142 -33.8128 -33.7103
   -19.1669 -19.1587 -19.1518 -19.1461 -19.1458 -19.1309 -19.1281 -19.1203
   -19.1096 -19.1028 -19.0681 -19.0646 -19.0568 -19.0548 -11.1228  -6.9367
    -5.1226  -4.6756  -3.4428  -3.2628  -1.7699   1.6019   1.8310   2.1287
     3.1745   4.2670   4.9987   6.2159   6.7531   7.3061   7.8561   7.8928
     8.4505   8.6741

          k = 0.3768-0.2173 0.0000 ( 47593 PWs)   bands (ev):

   -67.4643 -67.4493 -34.4358 -34.3690 -34.1616 -34.0114 -33.8056 -33.7047
   -19.1665 -19.1583 -19.1515 -19.1462 -19.1455 -19.1306 -19.1285 -19.1202
   -19.1103 -19.1033 -19.0666 -19.0635 -19.0586 -19.0564 -11.1701  -6.8935
    -5.1464  -4.6648  -3.4878  -3.2394  -1.7944   1.5591   1.7936   2.0601
     3.1119   4.1374   4.7530   6.1731   6.7539   7.1969   7.6712   7.9717
     8.1728   8.4382

          k = 0.3604-0.2079 0.0000 ( 47577 PWs)   bands (ev):

   -67.4671 -67.4510 -34.4207 -34.3448 -34.1549 -34.0085 -33.7975 -33.6984
   -19.1662 -19.1579 -19.1515 -19.1460 -19.1451 -19.1303 -19.1289 -19.1202
   -19.1110 -19.1039 -19.0650 -19.0621 -19.0607 -19.0583 -11.2247  -6.8485
    -5.1829  -4.6511  -3.5235  -3.2140  -1.8149   1.4635   1.7532   2.0373
     3.0230   4.0299   4.4980   6.1437   6.6594   7.2005   7.4436   7.9031
     8.0753   8.1850

          k = 0.3440-0.1984 0.0000 ( 47565 PWs)   bands (ev):

   -67.4701 -67.4529 -34.4094 -34.3167 -34.1431 -34.0055 -33.7886 -33.6915
   -19.1659 -19.1573 -19.1519 -19.1456 -19.1448 -19.1301 -19.1293 -19.1201
   -19.1119 -19.1046 -19.0633 -19.0630 -19.0606 -19.0603 -11.2864  -6.8046
    -5.2329  -4.6332  -3.5477  -3.1871  -1.8272   1.3435   1.6689   2.0775
     2.9073   3.9461   4.2415   6.1270   6.5106   7.1980   7.2734   7.6503
     7.9470   8.1636

          k = 0.3276-0.1890 0.0000 ( 47551 PWs)   bands (ev):

   -67.4733 -67.4551 -34.4027 -34.2852 -34.1257 -34.0023 -33.7790 -33.6841
   -19.1657 -19.1567 -19.1525 -19.1449 -19.1443 -19.1299 -19.1296 -19.1200
   -19.1127 -19.1052 -19.0654 -19.0625 -19.0613 -19.0589 -11.3550  -6.7657
    -5.2942  -4.6101  -3.5601  -3.1595  -1.8274   1.2088   1.5652   2.1511
     2.7696   3.8642   4.0078   6.1166   6.3565   6.9821   7.2612   7.4384
     7.7410   8.1460

          k = 0.3113-0.1795 0.0000 ( 47549 PWs)   bands (ev):

   -67.4767 -67.4573 -34.4007 -34.2509 -34.1027 -33.9987 -33.7687 -33.6763
   -19.1656 -19.1559 -19.1533 -19.1441 -19.1439 -19.1300 -19.1296 -19.1199
   -19.1136 -19.1060 -19.0680 -19.0648 -19.0592 -19.0571 -11.4299  -6.7369
    -5.3618  -4.5811  -3.5615  -3.1321  -1.8119   1.0612   1.4650   2.2376
     2.6174   3.6797   3.8999   6.0816   6.2406   6.7642   7.1014   7.2880
     7.5782   7.9994

          k = 0.2949-0.1701 0.0000 ( 47555 PWs)   bands (ev):

   -67.4802 -67.4598 -34.4026 -34.2149 -34.0749 -33.9942 -33.7578 -33.6680
   -19.1656 -19.1550 -19.1542 -19.1435 -19.1431 -19.1301 -19.1295 -19.1197
   -19.1145 -19.1067 -19.0706 -19.0673 -19.0570 -19.0552 -11.5108  -6.7248
    -5.4280  -4.5455  -3.5538  -3.1055  -1.7783   0.9020   1.3792   2.3282
     2.4581   3.4395   3.8684   5.9720   6.2119   6.5564   6.8909   7.1121
     7.4184   7.8562

          k = 0.2785-0.1606 0.0000 ( 47557 PWs)   bands (ev):

   -67.4839 -67.4623 -34.4077 -34.1785 -34.0434 -33.9879 -33.7466 -33.6595
   -19.1657 -19.1552 -19.1541 -19.1431 -19.1422 -19.1301 -19.1295 -19.1195
   -19.1153 -19.1074 -19.0734 -19.0698 -19.0547 -19.0531 -11.5967  -6.7363
    -5.4838  -4.5025  -3.5394  -3.0809  -1.7251   0.7347   1.3121   2.2963
     2.4188   3.2027   3.8528   5.8340   6.2059   6.3732   6.6845   6.9216
     7.2424   7.6859

          k = 0.2621-0.1512 0.0000 ( 47549 PWs)   bands (ev):

   -67.4875 -67.4649 -34.4150 -34.1433 -34.0100 -33.9778 -33.7350 -33.6509
   -19.1661 -19.1561 -19.1530 -19.1427 -19.1414 -19.1300 -19.1296 -19.1193
   -19.1160 -19.1082 -19.0762 -19.0724 -19.0523 -19.0510 -11.6869  -6.7768
    -5.5219  -4.4513  -3.5204  -3.0589  -1.6522   0.5636   1.2649   2.1363
     2.5053   2.9797   3.8426   5.6965   6.1088   6.2819   6.4956   6.7409
     7.0651   7.5033

          k = 0.2457-0.1417 0.0000 ( 47557 PWs)   bands (ev):

   -67.4912 -67.4676 -34.4239 -34.1120 -33.9797 -33.9579 -33.7232 -33.6422
   -19.1665 -19.1569 -19.1520 -19.1423 -19.1407 -19.1299 -19.1296 -19.1190
   -19.1167 -19.1089 -19.0790 -19.0749 -19.0498 -19.0487 -11.7804  -6.8476
    -5.5386  -4.3910  -3.4988  -3.0403  -1.5602   0.3929   1.2378   1.9787
     2.5864   2.7762   3.8333   5.5648   5.9400   6.2061   6.3456   6.5946
     6.9050   7.3232

          k = 0.2293-0.1323 0.0000 ( 47527 PWs)   bands (ev):

   -67.4948 -67.4703 -34.4337 -34.0871 -33.9546 -33.9248 -33.7113 -33.6336
   -19.1672 -19.1577 -19.1508 -19.1420 -19.1402 -19.1303 -19.1291 -19.1187
   -19.1173 -19.1096 -19.0818 -19.0775 -19.0473 -19.0464 -11.8760  -6.9454
    -5.5355  -4.3210  -3.4764  -3.0259  -1.4508   0.2262   1.2307   1.8234
     2.5972   2.6606   3.8219   5.4397   5.7692   6.0584   6.2113   6.4928
     6.7905   7.1569

          k = 0.2130-0.1228 0.0000 ( 47545 PWs)   bands (ev):

   -67.4984 -67.4730 -34.4441 -34.0698 -33.9263 -33.8869 -33.6994 -33.6251
   -19.1680 -19.1584 -19.1497 -19.1417 -19.1397 -19.1308 -19.1284 -19.1184
   -19.1178 -19.1103 -19.0846 -19.0801 -19.0449 -19.0441 -11.9725  -7.0634
    -5.5170  -4.2413  -3.4546  -3.0161  -1.3267   0.0667   1.2432   1.6695
     2.4469   2.7273   3.8061   5.3209   5.6064   5.8917   6.0530   6.3809
     6.7362   7.0237

          k = 0.1966-0.1134 0.0000 ( 47529 PWs)   bands (ev):

   -67.5019 -67.4756 -34.4546 -34.0592 -33.8931 -33.8480 -33.6877 -33.6168
   -19.1689 -19.1591 -19.1486 -19.1414 -19.1394 -19.1314 -19.1276 -19.1182
   -19.1180 -19.1109 -19.0873 -19.0826 -19.0424 -19.0418 -12.0686  -7.1943
    -5.4884  -4.1521  -3.4341  -3.0110  -1.1917  -0.0822   1.2749   1.5168
     2.3281   2.7861   3.7840   5.2075   5.4535   5.7231   5.8879   6.2460
     6.6757   6.9662

          k = 0.1802-0.1039 0.0000 ( 47499 PWs)   bands (ev):

   -67.5053 -67.4782 -34.4651 -34.0530 -33.8572 -33.8095 -33.6763 -33.6089
   -19.1699 -19.1596 -19.1474 -19.1411 -19.1391 -19.1321 -19.1266 -19.1184
   -19.1176 -19.1115 -19.0898 -19.0850 -19.0400 -19.0395 -12.1631  -7.3314
    -5.4543  -4.0548  -3.4158  -3.0108  -1.0518  -0.2153   1.3252   1.3664
     2.2413   2.8373   3.7541   5.0981   5.3114   5.5516   5.7295   6.1075
     6.5689   6.9868

          k = 0.1638-0.0945 0.0000 ( 47473 PWs)   bands (ev):

   -67.5085 -67.4806 -34.4753 -34.0495 -33.8203 -33.7720 -33.6653 -33.6014
   -19.1709 -19.1602 -19.1463 -19.1409 -19.1389 -19.1328 -19.1256 -19.1187
   -19.1172 -19.1121 -19.0923 -19.0873 -19.0378 -19.0373 -12.2547  -7.4694
    -5.4178  -3.9512  -3.3997  -3.0150  -0.9196  -0.3221   1.2202   1.3933
     2.1853   2.8815   3.7151   4.9907   5.1804   5.3749   5.5853   5.9757
     6.4479   7.0240

          k = 0.1474-0.0850 0.0000 ( 47453 PWs)   bands (ev):

   -67.5115 -67.4829 -34.4849 -34.0476 -33.7842 -33.7364 -33.6548 -33.5945
   -19.1719 -19.1607 -19.1453 -19.1407 -19.1387 -19.1335 -19.1246 -19.1188
   -19.1169 -19.1126 -19.0946 -19.0894 -19.0356 -19.0351 -12.3419  -7.6037
    -5.3813  -3.8441  -3.3857  -3.0232  -0.8247  -0.3753   1.0810   1.4781
     2.1577   2.9195   3.6663   4.8818   5.0603   5.1956   5.4576   5.8542
     6.3303   7.0026

          k = 0.1311-0.0756 0.0000 ( 47387 PWs)   bands (ev):

   -67.5143 -67.4851 -34.4939 -34.0467 -33.7497 -33.7029 -33.6450 -33.5882
   -19.1729 -19.1612 -19.1443 -19.1405 -19.1385 -19.1343 -19.1236 -19.1189
   -19.1165 -19.1130 -19.0968 -19.0914 -19.0336 -19.0331 -12.4237  -7.7311
    -5.3462  -3.7370  -3.3727  -3.0344  -0.8089  -0.3361   0.9512   1.5783
     2.1556   2.9526   3.6073   4.7636   4.9498   5.0247   5.3458   5.7446
     6.2216   6.9187

          k = 0.1147-0.0661 0.0000 ( 47354 PWs)   bands (ev):

   -67.5168 -67.4870 -34.5022 -34.0464 -33.7177 -33.6722 -33.6359 -33.5825
   -19.1738 -19.1616 -19.1434 -19.1404 -19.1383 -19.1350 -19.1227 -19.1190
   -19.1161 -19.1134 -19.0987 -19.0932 -19.0318 -19.0312 -12.4989  -7.8488
    -5.3135  -3.6350  -3.3587  -3.0477  -0.8568  -0.2236   0.8329   1.6928
     2.1760   2.9816   3.5384   4.6219   4.8441   4.8847   5.2485   5.6475
     6.1237   6.8278

          k = 0.0983-0.0567 0.0000 ( 47348 PWs)   bands (ev):

   -67.5190 -67.4888 -34.5095 -34.0465 -33.6888 -33.6446 -33.6278 -33.5775
   -19.1746 -19.1620 -19.1426 -19.1403 -19.1382 -19.1356 -19.1218 -19.1190
   -19.1158 -19.1138 -19.1005 -19.0948 -19.0301 -19.0295 -12.5663  -7.9547
    -5.2839  -3.5455  -3.3389  -3.0621  -0.9242  -0.0861   0.7278   1.8199
     2.2156   3.0071   3.4603   4.4494   4.7440   4.7860   5.1648   5.5630
     6.0370   6.7446

          k = 0.0819-0.0472 0.0000 ( 47299 PWs)   bands (ev):

   -67.5209 -67.4903 -34.5159 -34.0468 -33.6636 -33.6209 -33.6203 -33.5733
   -19.1753 -19.1624 -19.1418 -19.1402 -19.1381 -19.1362 -19.1210 -19.1191
   -19.1155 -19.1141 -19.1020 -19.0962 -19.0287 -19.0280 -12.6251  -8.0469
    -5.2579  -3.4798  -3.3053  -3.0764  -0.9911   0.0514   0.6372   1.9580
     2.2712   3.0291   3.3746   4.2580   4.6619   4.7091   5.0944   5.4912
     5.9620   6.6724

          k = 0.0655-0.0378 0.0000 ( 47297 PWs)   bands (ev):

   -67.5225 -67.4916 -34.5212 -34.0471 -33.6423 -33.6146 -33.6005 -33.5698
   -19.1759 -19.1627 -19.1412 -19.1401 -19.1380 -19.1368 -19.1204 -19.1191
   -19.1153 -19.1143 -19.1033 -19.0973 -19.0275 -19.0268 -12.6744  -8.1241
    -5.2359  -3.4431  -3.2554  -3.0896  -1.0500   0.1766   0.5620   2.1046
     2.3389   3.0459   3.2837   4.0631   4.5972   4.6464   5.0368   5.4322
     5.8990   6.6124

          k = 0.0491-0.0283 0.0000 ( 47245 PWs)   bands (ev):

   -67.5238 -67.4926 -34.5254 -34.0475 -33.6254 -33.6097 -33.5846 -33.5672
   -19.1764 -19.1629 -19.1407 -19.1400 -19.1379 -19.1372 -19.1199 -19.1191
   -19.1151 -19.1144 -19.1042 -19.0982 -19.0265 -19.0258 -12.7134  -8.1852
    -5.2184  -3.4263  -3.2015  -3.1008  -1.0980   0.2816   0.5030   2.2556
     2.4142   3.0538   3.1916   3.8779   4.5478   4.5969   4.9920   5.3860
     5.8483   6.5652

          k = 0.0328-0.0189 0.0000 ( 47241 PWs)   bands (ev):

   -67.5247 -67.4933 -34.5284 -34.0478 -33.6132 -33.6062 -33.5731 -33.5652
   -19.1768 -19.1631 -19.1403 -19.1400 -19.1379 -19.1375 -19.1195 -19.1191
   -19.1151 -19.1145 -19.1050 -19.0989 -19.0258 -19.0251 -12.7418  -8.2294
    -5.2056  -3.4188  -3.1568  -3.1088  -1.1332   0.3603   0.4609   2.4019
     2.4898   3.0460   3.1059   3.7191   4.5127   4.5609   4.9600   5.3530
     5.8108   6.5312

          k = 0.0164-0.0094 0.0000 ( 47154 PWs)   bands (ev):

   -67.5253 -67.4937 -34.5302 -34.0479 -33.6058 -33.6040 -33.5664 -33.5637
   -19.1770 -19.1632 -19.1401 -19.1399 -19.1380 -19.1376 -19.1193 -19.1191
   -19.1150 -19.1145 -19.1054 -19.0993 -19.0254 -19.0246 -12.7589  -8.2561
    -5.1979  -3.4155  -3.1302  -3.1116  -1.1548   0.4070   0.4376   2.5225
     2.5528   3.0151   3.0451   3.6093   4.4917   4.5391   4.9408   5.3331
     5.7875   6.5107

          k = 0.0000 0.0000 0.0000 ( 47073 PWs)   bands (ev):

   -67.5255 -67.4939 -34.5308 -34.0480 -33.6035 -33.6031 -33.5647 -33.5627
   -19.1770 -19.1633 -19.1400 -19.1399 -19.1380 -19.1376 -19.1192 -19.1190
   -19.1150 -19.1145 -19.1056 -19.0994 -19.0253 -19.0245 -12.7646  -8.2651
    -5.1953  -3.4146  -3.1244  -3.1091  -1.1620   0.4169   0.4358   2.5711
     2.5824   2.9915   3.0238   3.5701   4.4846   4.5317   4.9344   5.3264
     5.7796   6.4942

     Writing output data file /scratch/as3359/Ta2CH2k_bandsdos/Ta.save/
 
     init_run     :      9.43s CPU      6.92s WALL (       1 calls)
     electrons    :   1491.65s CPU    754.57s WALL (       1 calls)

     Called by init_run:
     wfcinit      :      0.00s CPU      0.00s WALL (       1 calls)
     potinit      :      0.46s CPU      0.27s WALL (       1 calls)
     hinit0       :      6.71s CPU      5.11s WALL (       1 calls)

     Called by electrons:
     c_bands      :   1491.65s CPU    754.57s WALL (       1 calls)
     v_of_rho     :      0.35s CPU      0.19s WALL (       1 calls)
     newd         :      1.98s CPU      1.23s WALL (       1 calls)

     Called by c_bands:
     init_us_2    :      1.16s CPU      0.59s WALL (      91 calls)
     cegterg      :   1441.96s CPU    728.67s WALL (     375 calls)

     Called by *egterg:
     cdiaghg      :     22.42s CPU     11.45s WALL (    6910 calls)
     h_psi        :   1090.08s CPU    551.58s WALL (    7285 calls)
     s_psi        :     58.24s CPU     29.15s WALL (    7285 calls)
     g_psi        :      8.41s CPU      4.22s WALL (    6819 calls)

     Called by h_psi:
     h_psi:calbec :     44.86s CPU     22.50s WALL (    7285 calls)
     vloc_psi     :    974.64s CPU    493.31s WALL (    7285 calls)
     add_vuspsi   :     61.95s CPU     31.02s WALL (    7285 calls)

     General routines
     calbec       :     44.80s CPU     22.48s WALL (    7285 calls)
     fft          :      0.20s CPU      0.11s WALL (      13 calls)
     ffts         :      0.01s CPU      0.01s WALL (       1 calls)
     fftw         :    839.79s CPU    425.41s WALL (  221176 calls)
     interpolate  :      0.03s CPU      0.02s WALL (       1 calls)
     davcio       :      0.96s CPU      1.01s WALL (     182 calls)
 
     Parallel routines
 
     PWSCF        :  25m10.20s CPU  12m50.02s WALL

 
   This run was terminated on:  16:31:41  16Apr2022            

=------------------------------------------------------------------------------=
   JOB DONE.
=------------------------------------------------------------------------------=
