
     Program PWSCF v.6.8 starts on  8Apr2022 at 18:46:36 

     This program is part of the open-source Quantum ESPRESSO suite
     for quantum simulation of materials; please cite
         "P. Giannozzi et al., J. Phys.:Condens. Matter 21 395502 (2009);
         "P. Giannozzi et al., J. Phys.:Condens. Matter 29 465901 (2017);
         "P. Giannozzi et al., J. Chem. Phys. 152 154105 (2020);
          URL http://www.quantum-espresso.org", 
     in publications or presentations arising from this work. More details at
     http://www.quantum-espresso.org/quote

     Parallel version (MPI & OpenMP), running on       4 processor cores
     Number of MPI processes:                 2
     Threads/MPI process:                     2

     MPI processes distributed on     1 nodes
     R & G space division:  proc/nbgrp/npool/nimage =       2
     124356 MiB available memory on the printing compute node when the environment starts
 
     Reading input from Ta4C3.scf.vcrelax1.in

     Current dimensions of program PWSCF are:
     Max number of different atomic species (ntypx) = 10
     Max number of k-points (npk) =  40000
     Max angular momentum in pseudopotentials (lmaxx) =  4
     file Ta.pbesol-spfn-rrkjus_psl.1.0.0.UPF: wavefunction(s)  5S 5P renormalized

     Subspace diagonalization in iterative solution of the eigenvalue problem:
     a serial algorithm will be used

 
     Parallelization info
     --------------------
     sticks:   dense  smooth     PW     G-vecs:    dense   smooth      PW
     Min         351     279     81                42925    30711    5013
     Max         352     280     82                42932    30732    5030
     Sum         703     559    163                85857    61443   10043
 
     Using Slab Decomposition
 


     bravais-lattice index     =            0
     lattice parameter (alat)  =       5.5500  a.u.
     unit-cell volume          =     979.9751 (a.u.)^3
     number of atoms/cell      =            7
     number of atomic types    =            2
     number of electrons       =       120.00
     number of Kohn-Sham states=           72
     kinetic-energy cutoff     =      60.0000  Ry
     charge density cutoff     =     300.0000  Ry
     scf convergence threshold =      1.0E-12
     mixing beta               =       0.7000
     number of iterations used =            8  plain     mixing
     energy convergence thresh.=      1.0E-04
     force convergence thresh. =      1.0E-03
     press convergence thresh. =      5.0E-01
     Exchange-correlation= PBESOL
                           (   1   4  10   8   0   0   0)
     nstep                     =           50


     celldm(1)=   5.550000  celldm(2)=   0.000000  celldm(3)=   0.000000
     celldm(4)=   0.000000  celldm(5)=   0.000000  celldm(6)=   0.000000

     crystal axes: (cart. coord. in units of alat)
               a(1) = (   1.050333  -0.000000   0.000000 )  
               a(2) = (  -0.525167   0.909616   0.000000 )  
               a(3) = (   0.000000   0.000000   6.000000 )  

     reciprocal axes: (cart. coord. in units 2 pi/alat)
               b(1) = (  0.952079  0.549683  0.000000 )  
               b(2) = (  0.000000  1.099366  0.000000 )  
               b(3) = (  0.000000  0.000000  0.166667 )  


     PseudoPot. # 1 for Ta read from file:
     /shared/home/as3359/pseudo/Ta.pbesol-spfn-rrkjus_psl.1.0.0.UPF
     MD5 check sum: f099565ffaca9b150a52e9412a28e20b
     Pseudo is Ultrasoft + core correction, Zval = 27.0
     Generated using &quot;atomic&quot; code by A. Dal Corso  v.6.3
     Using radial grid of 1273 points,  8 beta functions with: 
                l(1) =   0
                l(2) =   0
                l(3) =   1
                l(4) =   1
                l(5) =   2
                l(6) =   2
                l(7) =   3
                l(8) =   3
     Q(r) pseudized with 0 coefficients 


     PseudoPot. # 2 for C  read from file:
     /shared/home/as3359/pseudo/C.pbesol-n-rrkjus_psl.1.0.0.UPF
     MD5 check sum: 05995be603a8a7c99da3dc4413f31573
     Pseudo is Ultrasoft + core correction, Zval =  4.0
     Generated using &quot;atomic&quot; code by A. Dal Corso  v.6.3MaX
     Using radial grid of 1073 points,  4 beta functions with: 
                l(1) =   0
                l(2) =   0
                l(3) =   1
                l(4) =   1
     Q(r) pseudized with 0 coefficients 


     atomic species   valence    mass     pseudopotential
        Ta            27.00   180.94788     Ta( 1.00)
        C              4.00    12.01070     C ( 1.00)

     No symmetry found



   Cartesian axes

     site n.     atom                  positions (alat units)
         1           Ta  tau(   1) = (   0.0000409   0.6070318  -0.1703336  )
         2           C   tau(   2) = (   0.0002511   0.0005928   0.2265444  )
         3           Ta  tau(   3) = (   0.5255277   0.3037199   0.6690180  )
         4           C   tau(   4) = (   0.0002771   0.6069603   1.1221243  )
         5           Ta  tau(   5) = (   0.0002681   0.0004611   1.5751489  )
         6           C   tau(   6) = (   0.5254190   0.3037992   2.0175711  )
         7           Ta  tau(   7) = (   0.0003354   0.6072027   2.4144937  )

     number of k points=    74  Marzari-Vanderbilt smearing, width (Ry)=  0.0010
                       cart. coord. in units 2pi/alat
        k(    1) = (   0.0000000   0.0000000   0.0000000), wk =   0.0138889
        k(    2) = (   0.0000000   0.0916138   0.0000000), wk =   0.0277778
        k(    3) = (   0.0000000   0.1832276   0.0000000), wk =   0.0277778
        k(    4) = (   0.0000000   0.2748414   0.0000000), wk =   0.0277778
        k(    5) = (   0.0000001   0.3664552   0.0000000), wk =   0.0277778
        k(    6) = (   0.0000001   0.4580690   0.0000000), wk =   0.0277778
        k(    7) = (  -0.0000001  -0.5496828   0.0000000), wk =   0.0138889
        k(    8) = (   0.0793399   0.1374207   0.0000000), wk =   0.0277778
        k(    9) = (   0.0793400   0.2290345   0.0000000), wk =   0.0277778
        k(   10) = (   0.0793400   0.3206483   0.0000000), wk =   0.0277778
        k(   11) = (   0.0793400   0.4122621   0.0000000), wk =   0.0277778
        k(   12) = (   0.0793400   0.5038759   0.0000000), wk =   0.0277778
        k(   13) = (   0.1586799   0.2748414   0.0000000), wk =   0.0277778
        k(   14) = (   0.1586799   0.3664552   0.0000000), wk =   0.0277778
        k(   15) = (   0.1586799   0.4580690   0.0000000), wk =   0.0277778
        k(   16) = (   0.1586799   0.5496828   0.0000000), wk =   0.0277778
        k(   17) = (   0.2380198   0.4122621   0.0000000), wk =   0.0277778
        k(   18) = (   0.2380199   0.5038759   0.0000000), wk =   0.0277778
        k(   19) = (   0.3173598   0.5496828   0.0000000), wk =   0.0277778
        k(   20) = (  -0.0793399   0.0458069   0.0000000), wk =   0.0277778
        k(   21) = (   0.0793399   0.0458069   0.0000000), wk =   0.0277778
        k(   22) = (  -0.1586798   0.0916138   0.0000000), wk =   0.0277778
        k(   23) = (   0.1586799   0.0916138   0.0000000), wk =   0.0277778
        k(   24) = (  -0.2380198   0.1374206   0.0000000), wk =   0.0277778
        k(   25) = (   0.2380198   0.1374207   0.0000000), wk =   0.0277778
        k(   26) = (  -0.3173597   0.1832275   0.0000000), wk =   0.0277778
        k(   27) = (   0.3173597   0.1832276   0.0000000), wk =   0.0277778
        k(   28) = (  -0.3966996   0.2290344   0.0000000), wk =   0.0277778
        k(   29) = (   0.3966997   0.2290345   0.0000000), wk =   0.0277778
        k(   30) = (   0.4760395  -0.2748413   0.0000000), wk =   0.0138889
        k(   31) = (  -0.4760396  -0.2748415   0.0000000), wk =   0.0138889
        k(   32) = (  -0.0793399   0.1374207   0.0000000), wk =   0.0277778
        k(   33) = (   0.1586799   0.0000000   0.0000000), wk =   0.0277778
        k(   34) = (  -0.0793399   0.2290345   0.0000000), wk =   0.0277778
        k(   35) = (  -0.1586798   0.1832276   0.0000000), wk =   0.0277778
        k(   36) = (   0.2380198   0.0458069   0.0000000), wk =   0.0277778
        k(   37) = (  -0.1586799  -0.1832276   0.0000000), wk =   0.0277778
        k(   38) = (   0.2380198  -0.0458069   0.0000000), wk =   0.0277778
        k(   39) = (  -0.0793399   0.3206483   0.0000000), wk =   0.0277778
        k(   40) = (  -0.2380197   0.2290344   0.0000000), wk =   0.0277778
        k(   41) = (   0.3173597   0.0916138   0.0000000), wk =   0.0277778
        k(   42) = (  -0.2380198  -0.2290345   0.0000000), wk =   0.0277778
        k(   43) = (   0.3173597  -0.0916137   0.0000000), wk =   0.0277778
        k(   44) = (  -0.0793399   0.4122621   0.0000000), wk =   0.0277778
        k(   45) = (  -0.3173597   0.2748413   0.0000000), wk =   0.0277778
        k(   46) = (   0.3966997   0.1374208   0.0000000), wk =   0.0277778
        k(   47) = (  -0.3173597  -0.2748414   0.0000000), wk =   0.0277778
        k(   48) = (   0.3966996  -0.1374206   0.0000000), wk =   0.0277778
        k(   49) = (  -0.0793398   0.5038758   0.0000000), wk =   0.0277778
        k(   50) = (  -0.3966996   0.3206482   0.0000000), wk =   0.0277778
        k(   51) = (   0.4760396   0.1832277   0.0000000), wk =   0.0277778
        k(   52) = (  -0.3966997  -0.3206483   0.0000000), wk =   0.0277778
        k(   53) = (   0.4760395  -0.1832275   0.0000000), wk =   0.0277778
        k(   54) = (  -0.1586798   0.2748414   0.0000000), wk =   0.0277778
        k(   55) = (   0.3173597   0.0000001   0.0000000), wk =   0.0277778
        k(   56) = (  -0.1586798   0.3664551   0.0000000), wk =   0.0277778
        k(   57) = (  -0.2380197   0.3206482   0.0000000), wk =   0.0277778
        k(   58) = (   0.3966996   0.0458070   0.0000000), wk =   0.0277778
        k(   59) = (  -0.2380198  -0.3206483   0.0000000), wk =   0.0277778
        k(   60) = (   0.3966996  -0.0458068   0.0000000), wk =   0.0277778
        k(   61) = (  -0.1586798   0.4580689   0.0000000), wk =   0.0277778
        k(   62) = (  -0.3173596   0.3664551   0.0000000), wk =   0.0277778
        k(   63) = (   0.4760396   0.0916139   0.0000000), wk =   0.0277778
        k(   64) = (  -0.3173598  -0.3664552   0.0000000), wk =   0.0277778
        k(   65) = (   0.4760395  -0.0916137   0.0000000), wk =   0.0277778
        k(   66) = (  -0.3966996   0.4122620   0.0000000), wk =   0.0277778
        k(   67) = (   0.5553795   0.1374208   0.0000000), wk =   0.0277778
        k(   68) = (  -0.2380197   0.4122620   0.0000000), wk =   0.0277778
        k(   69) = (   0.4760396   0.0000001   0.0000000), wk =   0.0277778
        k(   70) = (  -0.2380197   0.5038758   0.0000000), wk =   0.0277778
        k(   71) = (  -0.3173596   0.4580689   0.0000000), wk =   0.0277778
        k(   72) = (   0.5553795   0.0458070   0.0000000), wk =   0.0277778
        k(   73) = (  -0.3173598  -0.4580690   0.0000000), wk =   0.0277778
        k(   74) = (   0.5553795  -0.0458068   0.0000000), wk =   0.0277778

     Dense  grid:    85857 G-vectors     FFT dimensions: (  36,  36, 192)

     Smooth grid:    61443 G-vectors     FFT dimensions: (  30,  30, 180)

     Estimated max dynamical RAM per process >     747.96 MB

     Estimated total dynamical RAM >       1.46 GB

     Check: negative core charge=   -0.000003

     Initial potential from superposition of free atoms

     starting charge  119.99679, renormalised to  120.00000

     negative rho (up, down):  3.615E-05 0.000E+00
     Starting wfcs are   80 randomized atomic wfcs

     total cpu time spent up to now is       10.2 secs

     Self-consistent Calculation

     iteration #  1     ecut=    60.00 Ry     beta= 0.70
     CG style diagonalization
     ethr =  1.00E-02,  avg # of iterations =  2.2

     negative rho (up, down):  1.320E-06 0.000E+00

     total cpu time spent up to now is       34.7 secs

     total energy              =   -2756.49888008 Ry
     estimated scf accuracy    <       3.78468257 Ry

     iteration #  2     ecut=    60.00 Ry     beta= 0.70
     CG style diagonalization
     c_bands:  1 eigenvalues not converged
     c_bands:  1 eigenvalues not converged
     c_bands:  1 eigenvalues not converged
     ethr =  3.15E-03,  avg # of iterations =  4.0

     total cpu time spent up to now is       71.1 secs

     total energy              =   -2746.34082451 Ry
     estimated scf accuracy    <     220.88256807 Ry

     iteration #  3     ecut=    60.00 Ry     beta= 0.70
     CG style diagonalization
     ethr =  3.15E-03,  avg # of iterations =  4.6

     total cpu time spent up to now is      114.8 secs

     total energy              =   -2757.57350350 Ry
     estimated scf accuracy    <      11.80297628 Ry

     iteration #  4     ecut=    60.00 Ry     beta= 0.70
     CG style diagonalization
     ethr =  3.15E-03,  avg # of iterations =  3.4

     total cpu time spent up to now is      145.4 secs

     total energy              =   -2758.87835711 Ry
     estimated scf accuracy    <       1.44955710 Ry

     iteration #  5     ecut=    60.00 Ry     beta= 0.70
     CG style diagonalization
     ethr =  1.21E-03,  avg # of iterations =  3.5

     total cpu time spent up to now is      176.6 secs

     total energy              =   -2758.82000926 Ry
     estimated scf accuracy    <      14.04051099 Ry

     iteration #  6     ecut=    60.00 Ry     beta= 0.70
     CG style diagonalization
     ethr =  1.21E-03,  avg # of iterations =  3.0
     Minimization algorithm failed to find Fermi energy: reverting to bisection
     Possible cause: smearing is larger than the electronic band-gap.

     total cpu time spent up to now is      203.0 secs

     total energy              =   -2759.16087638 Ry
     estimated scf accuracy    <       0.20934946 Ry

     iteration #  7     ecut=    60.00 Ry     beta= 0.70
     CG style diagonalization
     ethr =  1.74E-04,  avg # of iterations =  3.3

     total cpu time spent up to now is      231.8 secs

     total energy              =   -2759.16099926 Ry
     estimated scf accuracy    <       0.10064648 Ry

     iteration #  8     ecut=    60.00 Ry     beta= 0.70
     CG style diagonalization
     ethr =  8.39E-05,  avg # of iterations =  3.3
     Minimization algorithm failed to find Fermi energy: reverting to bisection
     Possible cause: smearing is larger than the electronic band-gap.

     total cpu time spent up to now is      261.0 secs

     total energy              =   -2759.15600040 Ry
     estimated scf accuracy    <       0.08563916 Ry

     iteration #  9     ecut=    60.00 Ry     beta= 0.70
     CG style diagonalization
     ethr =  7.14E-05,  avg # of iterations =  3.1

     total cpu time spent up to now is      288.3 secs

     total energy              =   -2759.16113784 Ry
     estimated scf accuracy    <       0.02875012 Ry

     iteration # 10     ecut=    60.00 Ry     beta= 0.70
     CG style diagonalization
     ethr =  2.40E-05,  avg # of iterations =  3.3

     negative rho (up, down):  2.501E-08 0.000E+00

     total cpu time spent up to now is      317.7 secs

     total energy              =   -2759.16260315 Ry
     estimated scf accuracy    <       0.00675522 Ry

     iteration # 11     ecut=    60.00 Ry     beta= 0.70
     CG style diagonalization
     ethr =  5.63E-06,  avg # of iterations =  3.6

     negative rho (up, down):  2.693E-06 0.000E+00

     total cpu time spent up to now is      350.6 secs

     total energy              =   -2759.16302499 Ry
     estimated scf accuracy    <       0.01654745 Ry

     iteration # 12     ecut=    60.00 Ry     beta= 0.70
     CG style diagonalization
     ethr =  5.63E-06,  avg # of iterations =  3.1

     negative rho (up, down):  9.716E-07 0.000E+00

     total cpu time spent up to now is      378.2 secs

     total energy              =   -2759.16276916 Ry
     estimated scf accuracy    <       0.00834680 Ry

     iteration # 13     ecut=    60.00 Ry     beta= 0.70
     CG style diagonalization
     ethr =  5.63E-06,  avg # of iterations =  3.0

     negative rho (up, down):  1.889E-05 0.000E+00

     total cpu time spent up to now is      404.5 secs

     total energy              =   -2759.16295201 Ry
     estimated scf accuracy    <       0.02385566 Ry

     iteration # 14     ecut=    60.00 Ry     beta= 0.70
     CG style diagonalization
     ethr =  5.63E-06,  avg # of iterations =  3.0

     negative rho (up, down):  2.564E-05 0.000E+00

     total cpu time spent up to now is      430.5 secs

     total energy              =   -2759.16306664 Ry
     estimated scf accuracy    <       0.00885074 Ry

     iteration # 15     ecut=    60.00 Ry     beta= 0.70
     CG style diagonalization
     ethr =  5.63E-06,  avg # of iterations =  3.0

     negative rho (up, down):  2.790E-05 0.000E+00

     total cpu time spent up to now is      456.4 secs

     total energy              =   -2759.16310993 Ry
     estimated scf accuracy    <       0.00198137 Ry

     iteration # 16     ecut=    60.00 Ry     beta= 0.70
     CG style diagonalization
     ethr =  1.65E-06,  avg # of iterations =  3.0

     negative rho (up, down):  2.740E-05 0.000E+00

     total cpu time spent up to now is      482.5 secs

     total energy              =   -2759.16312374 Ry
     estimated scf accuracy    <       0.00043550 Ry

     iteration # 17     ecut=    60.00 Ry     beta= 0.70
     CG style diagonalization
     ethr =  3.63E-07,  avg # of iterations =  3.1

     negative rho (up, down):  2.538E-05 0.000E+00

     total cpu time spent up to now is      509.4 secs

     total energy              =   -2759.16313674 Ry
     estimated scf accuracy    <       0.00016765 Ry

     iteration # 18     ecut=    60.00 Ry     beta= 0.70
     CG style diagonalization
     ethr =  1.40E-07,  avg # of iterations =  3.1

     negative rho (up, down):  2.526E-05 0.000E+00

     total cpu time spent up to now is      536.0 secs

     total energy              =   -2759.16314021 Ry
     estimated scf accuracy    <       0.00001789 Ry

     iteration # 19     ecut=    60.00 Ry     beta= 0.70
     CG style diagonalization
     ethr =  1.49E-08,  avg # of iterations =  3.4

     negative rho (up, down):  2.683E-05 0.000E+00

     total cpu time spent up to now is      566.0 secs

     total energy              =   -2759.16314058 Ry
     estimated scf accuracy    <       0.00001811 Ry

     iteration # 20     ecut=    60.00 Ry     beta= 0.70
     CG style diagonalization
     ethr =  1.49E-08,  avg # of iterations =  3.1

     negative rho (up, down):  2.803E-05 0.000E+00

     total cpu time spent up to now is      592.9 secs

     total energy              =   -2759.16313850 Ry
     estimated scf accuracy    <       0.00014916 Ry

     iteration # 21     ecut=    60.00 Ry     beta= 0.70
     CG style diagonalization
     ethr =  1.49E-08,  avg # of iterations =  3.3

     negative rho (up, down):  2.882E-05 0.000E+00

     total cpu time spent up to now is      621.5 secs

     total energy              =   -2759.16314114 Ry
     estimated scf accuracy    <       0.00000869 Ry

     iteration # 22     ecut=    60.00 Ry     beta= 0.70
     CG style diagonalization
     ethr =  7.24E-09,  avg # of iterations =  3.2

     negative rho (up, down):  2.884E-05 0.000E+00

     total cpu time spent up to now is      649.1 secs

     total energy              =   -2759.16314112 Ry
     estimated scf accuracy    <       0.00000578 Ry

     iteration # 23     ecut=    60.00 Ry     beta= 0.70
     CG style diagonalization
     ethr =  4.82E-09,  avg # of iterations =  3.0

     negative rho (up, down):  2.901E-05 0.000E+00

     total cpu time spent up to now is      675.3 secs

     total energy              =   -2759.16314107 Ry
     estimated scf accuracy    <       0.00000066 Ry

     iteration # 24     ecut=    60.00 Ry     beta= 0.70
     CG style diagonalization
     ethr =  5.47E-10,  avg # of iterations =  3.4

     negative rho (up, down):  2.922E-05 0.000E+00

     total cpu time spent up to now is      704.8 secs

     total energy              =   -2759.16314125 Ry
     estimated scf accuracy    <       0.00000003 Ry

     iteration # 25     ecut=    60.00 Ry     beta= 0.70
     CG style diagonalization
     ethr =  2.18E-11,  avg # of iterations =  4.4

     negative rho (up, down):  2.928E-05 0.000E+00

     total cpu time spent up to now is      744.9 secs

     total energy              =   -2759.16314124 Ry
     estimated scf accuracy    <       0.00000018 Ry

     iteration # 26     ecut=    60.00 Ry     beta= 0.70
     CG style diagonalization
     ethr =  2.18E-11,  avg # of iterations =  3.7

     negative rho (up, down):  2.934E-05 0.000E+00

     total cpu time spent up to now is      777.6 secs

     total energy              =   -2759.16314127 Ry
     estimated scf accuracy    <          9.0E-09 Ry

     iteration # 27     ecut=    60.00 Ry     beta= 0.70
     CG style diagonalization
     ethr =  7.54E-12,  avg # of iterations =  4.0

     negative rho (up, down):  2.935E-05 0.000E+00

     total cpu time spent up to now is      813.5 secs

     total energy              =   -2759.16314128 Ry
     estimated scf accuracy    <          8.5E-09 Ry

     iteration # 28     ecut=    60.00 Ry     beta= 0.70
     CG style diagonalization
     ethr =  7.12E-12,  avg # of iterations =  3.0

     negative rho (up, down):  2.934E-05 0.000E+00

     total cpu time spent up to now is      839.5 secs

     total energy              =   -2759.16314128 Ry
     estimated scf accuracy    <       0.00000001 Ry

     iteration # 29     ecut=    60.00 Ry     beta= 0.70
     CG style diagonalization
     ethr =  7.12E-12,  avg # of iterations =  3.0

     negative rho (up, down):  2.935E-05 0.000E+00

     total cpu time spent up to now is      865.2 secs

     total energy              =   -2759.16314128 Ry
     estimated scf accuracy    <          1.0E-09 Ry

     iteration # 30     ecut=    60.00 Ry     beta= 0.70
     CG style diagonalization
     ethr =  8.54E-13,  avg # of iterations =  3.1

     negative rho (up, down):  2.936E-05 0.000E+00

     total cpu time spent up to now is      892.2 secs

     total energy              =   -2759.16314128 Ry
     estimated scf accuracy    <          2.4E-10 Ry

     iteration # 31     ecut=    60.00 Ry     beta= 0.70
     CG style diagonalization
     ethr =  2.00E-13,  avg # of iterations =  3.3

     negative rho (up, down):  2.936E-05 0.000E+00

     total cpu time spent up to now is      921.4 secs

     total energy              =   -2759.16314128 Ry
     estimated scf accuracy    <          4.0E-11 Ry

     iteration # 32     ecut=    60.00 Ry     beta= 0.70
     CG style diagonalization
     ethr =  1.00E-13,  avg # of iterations =  3.2

     negative rho (up, down):  2.937E-05 0.000E+00

     total cpu time spent up to now is      949.7 secs

     total energy              =   -2759.16314128 Ry
     estimated scf accuracy    <          9.7E-11 Ry

     iteration # 33     ecut=    60.00 Ry     beta= 0.70
     CG style diagonalization
     ethr =  1.00E-13,  avg # of iterations =  3.0

     negative rho (up, down):  2.937E-05 0.000E+00

     total cpu time spent up to now is      975.9 secs

     total energy              =   -2759.16314128 Ry
     estimated scf accuracy    <          5.5E-11 Ry

     iteration # 34     ecut=    60.00 Ry     beta= 0.70
     CG style diagonalization
     ethr =  1.00E-13,  avg # of iterations =  3.0

     negative rho (up, down):  2.937E-05 0.000E+00

     total cpu time spent up to now is     1001.9 secs

     End of self-consistent calculation

          k = 0.0000 0.0000 0.0000 (  7649 PWs)   bands (ev):

   -57.4925 -57.4737 -56.9779 -56.9779 -24.3929 -24.1312 -23.7535 -23.7535
   -23.7258 -23.7257 -23.6149 -23.5487 -23.1255 -23.1255 -23.1254 -23.1254
    -9.1700  -9.1644  -9.1497  -9.1491  -9.1491  -9.1395  -9.1394  -9.1375
    -9.1250  -9.1249  -9.1160  -9.1160  -9.1020  -9.1015  -8.7199  -8.7198
    -8.6782  -8.6781  -8.6780  -8.6780  -8.6596  -8.6596  -8.6595  -8.6595
    -8.6448  -8.6446  -8.5859  -8.5857  -3.2631  -2.1008  -0.3373   2.7958
     4.6713   6.0865   6.0868   6.8456   6.8463   7.4487   8.8354   8.8355
     9.4871  10.2923  10.2925  10.3374  10.4000  11.4736  11.4740  12.1265
    12.2632  12.2641  13.3184  13.3210  13.6784  14.0046  14.0075  14.5931

          k = 0.0000 0.0916 0.0000 (  7675 PWs)   bands (ev):

   -57.4894 -57.4712 -56.9753 -56.9753 -24.3773 -24.1265 -23.8000 -23.7818
   -23.7667 -23.7343 -23.6003 -23.5481 -23.1682 -23.1675 -23.1351 -23.1350
    -9.1675  -9.1621  -9.1500  -9.1482  -9.1477  -9.1397  -9.1384  -9.1364
    -9.1265  -9.1255  -9.1174  -9.1162  -9.1047  -9.1043  -8.7187  -8.7186
    -8.6796  -8.6795  -8.6785  -8.6784  -8.6600  -8.6599  -8.6585  -8.6584
    -8.6423  -8.6422  -8.5886  -8.5885  -3.0949  -1.9839  -0.3360   3.0046
     4.6496   6.1214   6.1689   6.3830   6.8837   7.6224   8.2074   8.6726
     9.5035  10.0011  10.2988  10.5096  10.5109  11.2880  11.4934  11.7626
    12.4181  12.9355  13.3663  13.4344  13.6243  14.1519  14.1995  14.9057

          k = 0.0000 0.1832 0.0000 (  7681 PWs)   bands (ev):

   -57.4810 -57.4643 -56.9682 -56.9681 -24.3339 -24.1239 -23.9317 -23.8944
   -23.8012 -23.7587 -23.5827 -23.5486 -23.2829 -23.2796 -23.1614 -23.1612
    -9.1604  -9.1559  -9.1515  -9.1445  -9.1440  -9.1403  -9.1356  -9.1336
    -9.1299  -9.1269  -9.1211  -9.1182  -9.1116  -9.1101  -8.7153  -8.7152
    -8.6835  -8.6834  -8.6796  -8.6794  -8.6610  -8.6608  -8.6555  -8.6553
    -8.6354  -8.6353  -8.5954  -8.5953  -2.6223  -1.6777  -0.3691   3.5594
     4.7152   5.6400   6.1699   6.3526   6.9412   7.0774   7.6028   8.3596
     8.9978   9.8365  10.0605  10.4856  11.1074  11.2471  11.8348  11.8697
    12.5582  13.2282  13.5331  13.6778  13.8699  14.3171  14.5031  15.5369

          k = 0.0000 0.2748 0.0000 (  7694 PWs)   bands (ev):

   -57.4692 -57.4551 -56.9585 -56.9584 -24.2747 -24.1805 -24.0961 -23.9846
   -23.8465 -23.7933 -23.5725 -23.5523 -23.4335 -23.4248 -23.1971 -23.1967
    -9.1575  -9.1502  -9.1453  -9.1411  -9.1391  -9.1375  -9.1349  -9.1332
    -9.1292  -9.1292  -9.1253  -9.1246  -9.1201  -9.1129  -8.7109  -8.7108
    -8.6886  -8.6885  -8.6811  -8.6809  -8.6617  -8.6615  -8.6514  -8.6513
    -8.6261  -8.6260  -8.6044  -8.6042  -1.9479  -1.3097  -0.4479   4.0818
     5.0129   5.2298   5.6467   6.4365   6.4402   6.9397   7.2492   8.2281
     8.2323   9.9029   9.9694  10.3145  11.7232  11.9705  12.1282  12.5356
    13.0333  13.2224  13.6513  13.7737  14.1929  14.6431  14.8035  16.1249

          k = 0.0000 0.3665 0.0000 (  7696 PWs)   bands (ev):

   -57.4571 -57.4462 -56.9487 -56.9486 -24.3169 -24.2790 -24.1802 -24.0060
   -23.8905 -23.8285 -23.5856 -23.5809 -23.5594 -23.5353 -23.2326 -23.2319
    -9.1604  -9.1470  -9.1402  -9.1376  -9.1375  -9.1369  -9.1341  -9.1323
    -9.1318  -9.1281  -9.1259  -9.1246  -9.1241  -9.1136  -8.7069  -8.7068
    -8.6936  -8.6934  -8.6827  -8.6826  -8.6619  -8.6617  -8.6473  -8.6471
    -8.6166  -8.6165  -8.6129  -8.6128  -1.3565  -1.0163  -0.3556   3.8887
     4.6097   5.4043   5.8380   6.1516   6.2861   6.9178   6.9347   7.5747
     8.3546   9.8360  10.3378  10.5423  12.1062  12.6836  12.9324  13.2937
    13.5012  13.8457  13.9653  14.0359  14.1434  14.8867  15.1206  16.4688

          k = 0.0000 0.4581 0.0000 (  7710 PWs)   bands (ev):

   -57.4479 -57.4401 -56.9416 -56.9415 -24.4311 -24.3791 -24.1371 -24.0198
   -23.9221 -23.8546 -23.6721 -23.6619 -23.5676 -23.5481 -23.2584 -23.2576
    -9.1629  -9.1469  -9.1434  -9.1431  -9.1426  -9.1382  -9.1304  -9.1275
    -9.1264  -9.1253  -9.1236  -9.1234  -9.1211  -9.1137  -8.7043  -8.7042
    -8.6971  -8.6970  -8.6841  -8.6840  -8.6616  -8.6615  -8.6441  -8.6440
    -8.6188  -8.6187  -8.6097  -8.6096  -1.2920  -0.7366   0.1387   3.2253
     4.2330   5.6802   5.8568   6.0995   6.3142   6.8168   6.8794   7.1391
     8.5292   9.9122  10.9158  11.0153  12.2418  13.2898  13.5066  13.7902
    13.9003  14.1698  14.5256  14.8017  14.9292  15.2201  15.2988  16.2917

          k =-0.0000-0.5497 0.0000 (  7688 PWs)   bands (ev):

   -57.4443 -57.4380 -56.9389 -56.9389 -24.4734 -24.4184 -24.1164 -24.0301
   -23.9335 -23.8641 -23.6977 -23.6971 -23.5681 -23.5505 -23.2678 -23.2669
    -9.1638  -9.1466  -9.1457  -9.1450  -9.1444  -9.1392  -9.1300  -9.1249
    -9.1243  -9.1236  -9.1228  -9.1222  -9.1194  -9.1137  -8.7034  -8.7033
    -8.6982  -8.6981  -8.6846  -8.6845  -8.6615  -8.6614  -8.6429  -8.6428
    -8.6209  -8.6208  -8.6071  -8.6070  -1.3254  -0.6510   0.4871   2.8271
     4.1587   5.6336   6.0019   6.0254   6.2460   6.8588   6.8914   6.9834
     8.5996   9.9828  11.2213  11.2692  12.3315  13.5682  13.6504  13.7929
    14.0841  14.4636  14.8799  15.3722  15.4002  15.4030  15.7344  15.8413

          k = 0.0793 0.1374 0.0000 (  7679 PWs)   bands (ev):

   -57.4837 -57.4665 -56.9705 -56.9704 -24.3477 -24.1222 -23.8837 -23.8674
   -23.7858 -23.7581 -23.5864 -23.5481 -23.2445 -23.2422 -23.1554 -23.1553
    -9.1626  -9.1576  -9.1506  -9.1478  -9.1438  -9.1399  -9.1371  -9.1341
    -9.1288  -9.1265  -9.1202  -9.1167  -9.1093  -9.1091  -8.7163  -8.7162
    -8.6822  -8.6821  -8.6792  -8.6790  -8.6606  -8.6605  -8.6565  -8.6564
    -8.6377  -8.6376  -8.5933  -8.5932  -2.7738  -1.7715  -0.3539   3.3940
     4.6750   5.7959   6.1865   6.3914   6.8063   7.5259   7.6161   8.2268
     9.5682   9.6091  10.3740  10.4050  10.6752  11.2738  11.6440  11.8814
    12.3944  13.2819  13.4381  13.8547  13.9957  14.1655  14.4257  14.8513

          k = 0.0793 0.2290 0.0000 (  7681 PWs)   bands (ev):

   -57.4735 -57.4585 -56.9620 -56.9620 -24.2956 -24.1434 -24.0330 -23.9571
   -23.8328 -23.7963 -23.5736 -23.5499 -23.3711 -23.3658 -23.1921 -23.1918
    -9.1555  -9.1522  -9.1493  -9.1445  -9.1402  -9.1379  -9.1347  -9.1327
    -9.1307  -9.1281  -9.1252  -9.1195  -9.1171  -9.1140  -8.7124  -8.7123
    -8.6866  -8.6865  -8.6805  -8.6804  -8.6614  -8.6613  -8.6531  -8.6530
    -8.6295  -8.6294  -8.6012  -8.6011  -2.1926  -1.4274  -0.4277   4.0198
     4.8602   5.2856   5.9385   6.5010   6.6307   6.8542   7.3474   7.7768
     9.0601   9.7966  10.0336  10.3764  11.1640  11.3584  12.2437  12.3452
    12.5971  13.3704  13.7259  14.0330  14.3811  14.4839  14.7606  15.3312

          k = 0.0793 0.3206 0.0000 (  7669 PWs)   bands (ev):

   -57.4616 -57.4494 -56.9523 -56.9522 -24.2478 -24.2451 -24.1711 -23.9969
   -23.8871 -23.8382 -23.5682 -23.5565 -23.5093 -23.4974 -23.2341 -23.2337
    -9.1574  -9.1464  -9.1422  -9.1385  -9.1377  -9.1368  -9.1341  -9.1330
    -9.1318  -9.1288  -9.1268  -9.1247  -9.1235  -9.1149  -8.7081  -8.7080
    -8.6914  -8.6912  -8.6823  -8.6821  -8.6616  -8.6615  -8.6491  -8.6490
    -8.6201  -8.6200  -8.6100  -8.6099  -1.5012  -1.0992  -0.4811   4.2201
     4.9527   5.2608   5.5009   6.2927   6.4999   6.7124   7.0205   7.4049
     8.7166  10.0410  10.1102  10.1952  11.8111  11.9407  12.4603  13.1454
    13.4744  13.5974  13.7662  14.2338  14.5132  14.7491  15.2687  16.0866

          k = 0.0793 0.4123 0.0000 (  7696 PWs)   bands (ev):

   -57.4509 -57.4420 -56.9438 -56.9438 -24.3719 -24.3272 -24.1531 -24.0131
   -23.9292 -23.8744 -23.6266 -23.6184 -23.5630 -23.5467 -23.2700 -23.2697
    -9.1602  -9.1459  -9.1415  -9.1410  -9.1407  -9.1359  -9.1333  -9.1299
    -9.1286  -9.1273  -9.1256  -9.1241  -9.1221  -9.1151  -8.7047  -8.7046
    -8.6954  -8.6953  -8.6841  -8.6839  -8.6615  -8.6614  -8.6458  -8.6457
    -8.6174  -8.6173  -8.6118  -8.6117  -1.1837  -0.8079  -0.1816   3.6981
     4.4013   5.5432   5.9845   6.1577   6.2639   6.6516   6.8471   7.0670
     8.6339   9.9972  10.5850  10.6451  12.1999  12.7773  12.8911  13.4009
    13.8376  14.1934  14.5991  14.7744  14.7981  15.0044  15.4144  16.3261

          k = 0.0793 0.5039 0.0000 (  7703 PWs)   bands (ev):

   -57.4443 -57.4380 -56.9389 -56.9389 -24.4483 -24.3952 -24.1142 -24.0323
   -23.9508 -23.8955 -23.6825 -23.6767 -23.5644 -23.5508 -23.2906 -23.2904
    -9.1619  -9.1462  -9.1451  -9.1447  -9.1431  -9.1383  -9.1315  -9.1267
    -9.1249  -9.1241  -9.1238  -9.1221  -9.1200  -9.1152  -8.7029  -8.7027
    -8.6976  -8.6975  -8.6852  -8.6850  -8.6612  -8.6611  -8.6439  -8.6437
    -8.6214  -8.6213  -8.6071  -8.6070  -1.2243  -0.6306   0.3347   3.0726
     4.2382   5.7117   5.9258   6.0533   6.3041   6.6141   6.8436   6.9424
     8.6754  10.0221  11.0872  11.1049  12.3810  13.2149  13.4120  13.6254
    14.1371  14.6618  14.9959  15.1638  15.2139  15.2627  15.7080  16.1539

          k = 0.1587 0.2748 0.0000 (  7665 PWs)   bands (ev):

   -57.4632 -57.4506 -56.9536 -56.9535 -24.2464 -24.2069 -24.1542 -23.9862
   -23.8910 -23.8618 -23.5649 -23.5526 -23.4753 -23.4685 -23.2458 -23.2442
    -9.1537  -9.1475  -9.1448  -9.1397  -9.1388  -9.1356  -9.1341  -9.1321
    -9.1319  -9.1302  -9.1259  -9.1250  -9.1206  -9.1177  -8.7084  -8.7083
    -8.6903  -8.6902  -8.6823  -8.6821  -8.6616  -8.6614  -8.6501  -8.6500
    -8.6213  -8.6212  -8.6090  -8.6089  -1.5626  -1.1057  -0.5302   4.5191
     5.0442   5.1911   5.3167   6.4869   6.4958   6.7081   6.8021   7.2614
     9.3901   9.4905  10.0789  10.3392  11.5044  11.5785  12.2056  13.1464
    13.4429  13.5913  13.7460  14.6479  14.6487  14.9077  15.4342  15.7084

          k = 0.1587 0.3665 0.0000 (  7665 PWs)   bands (ev):

   -57.4526 -57.4431 -56.9451 -56.9451 -24.3019 -24.2815 -24.1654 -24.0034
   -23.9565 -23.9214 -23.5743 -23.5701 -23.5565 -23.5481 -23.3039 -23.3011
    -9.1551  -9.1451  -9.1409  -9.1398  -9.1382  -9.1363  -9.1340  -9.1316
    -9.1310  -9.1282  -9.1275  -9.1248  -9.1226  -9.1178  -8.7046  -8.7044
    -8.6936  -8.6935  -8.6844  -8.6842  -8.6611  -8.6610  -8.6474  -8.6473
    -8.6172  -8.6171  -8.6129  -8.6128  -0.9617  -0.8339  -0.5104   4.3206
     4.6150   5.3491   5.8041   6.1463   6.3200   6.5668   6.6280   6.9203
     9.1518   9.9057  10.2221  10.3975  12.0210  12.2242  12.3573  13.2632
    13.8931  14.0459  14.5685  14.9519  15.0699  15.1577  16.0776  16.3018

          k = 0.1587 0.4581 0.0000 (  7703 PWs)   bands (ev):

   -57.4443 -57.4380 -56.9389 -56.9389 -24.3847 -24.3417 -24.1175 -24.0495
   -23.9815 -23.9613 -23.6372 -23.6313 -23.5586 -23.5532 -23.3471 -23.3440
    -9.1568  -9.1460  -9.1436  -9.1419  -9.1406  -9.1365  -9.1337  -9.1317
    -9.1276  -9.1248  -9.1241  -9.1228  -9.1220  -9.1180  -8.7018  -8.7017
    -8.6959  -8.6958  -8.6863  -8.6861  -8.6604  -8.6603  -8.6459  -8.6458
    -8.6227  -8.6226  -8.6073  -8.6072  -0.9477  -0.5914  -0.0224   3.6624
     4.4486   5.5577   5.9643   6.1477   6.2934   6.3773   6.4654   6.8798
     9.1026  10.0161  10.6877  10.7709  12.4317  12.6796  13.1249  13.2559
    13.9308  14.4266  14.9266  15.1749  15.2233  15.4097  16.2727  16.5465

          k = 0.1587 0.5497 0.0000 (  7708 PWs)   bands (ev):

   -57.4410 -57.4364 -56.9367 -56.9366 -24.4153 -24.3636 -24.0877 -24.0814
   -23.9832 -23.9806 -23.6604 -23.6539 -23.5580 -23.5543 -23.3630 -23.3599
    -9.1574  -9.1473  -9.1457  -9.1416  -9.1413  -9.1371  -9.1351  -9.1292
    -9.1270  -9.1235  -9.1231  -9.1216  -9.1196  -9.1193  -8.7008  -8.7007
    -8.6967  -8.6966  -8.6871  -8.6869  -8.6600  -8.6599  -8.6454  -8.6453
    -8.6247  -8.6246  -8.6051  -8.6050  -0.9846  -0.5177   0.2612   3.3535
     4.3993   5.7203   5.9392   5.9914   6.1942   6.3118   6.5422   6.9770
     9.1121  10.0353  10.9632  11.0229  12.5212  13.1765  13.1967  13.7213
    13.9757  14.2858  14.7312  14.9299  15.2663  15.4763  16.4146  16.8198

          k = 0.2380 0.4123 0.0000 (  7697 PWs)   bands (ev):

   -57.4443 -57.4380 -56.9390 -56.9389 -24.3324 -24.3171 -24.1323 -24.0432
   -24.0391 -23.9717 -23.6008 -23.6002 -23.5593 -23.5567 -23.3842 -23.3783
    -9.1528  -9.1442  -9.1440  -9.1427  -9.1379  -9.1377  -9.1329  -9.1325
    -9.1295  -9.1270  -9.1246  -9.1243  -9.1226  -9.1187  -8.7013  -8.7011
    -8.6948  -8.6948  -8.6870  -8.6869  -8.6600  -8.6598  -8.6470  -8.6469
    -8.6233  -8.6232  -8.6073  -8.6072  -0.6408  -0.6101  -0.3241   4.1121
     4.5805   5.3246   5.7973   6.1634   6.1896   6.3415   6.5814   6.7415
     9.6059   9.9954  10.2750  10.5654  12.1752  12.5841  12.8684  13.2466
    13.9789  14.3270  14.8661  15.2199  15.2367  15.3502  16.6936  16.8399

          k = 0.2380 0.5039 0.0000 (  7717 PWs)   bands (ev):

   -57.4390 -57.4357 -56.9354 -56.9353 -24.3477 -24.3072 -24.1612 -24.1052
   -24.0413 -23.9877 -23.6158 -23.6080 -23.5588 -23.5553 -23.4413 -23.4345
    -9.1518  -9.1472  -9.1453  -9.1410  -9.1393  -9.1369  -9.1342  -9.1328
    -9.1296  -9.1259  -9.1235  -9.1225  -9.1210  -9.1195  -8.6993  -8.6992
    -8.6949  -8.6947  -8.6892  -8.6891  -8.6586  -8.6585  -8.6474  -8.6472
    -8.6270  -8.6269  -8.6041  -8.6040  -0.6433  -0.4548  -0.0237   3.9209
     4.5837   5.3337   5.5266   6.1238   6.2084   6.3117   6.5551   6.8122
     9.8362  10.1252  10.6558  10.7729  12.2693  12.9952  13.2307  13.4375
    13.9035  14.0727  14.4088  14.7581  15.1920  15.3862  16.8371  17.1416

          k = 0.3174 0.5497 0.0000 (  7743 PWs)   bands (ev):

   -57.4360 -57.4358 -56.9341 -56.9340 -24.2813 -24.2499 -24.2498 -24.1868
   -24.0108 -24.0107 -23.5797 -23.5797 -23.5606 -23.5550 -23.4973 -23.4973
    -9.1480  -9.1477  -9.1475  -9.1392  -9.1391  -9.1376  -9.1340  -9.1338
    -9.1300  -9.1279  -9.1236  -9.1233  -9.1199  -9.1197  -8.6984  -8.6982
    -8.6928  -8.6927  -8.6920  -8.6919  -8.6575  -8.6574  -8.6486  -8.6485
    -8.6287  -8.6286  -8.6029  -8.6028  -0.4108  -0.4108  -0.1526   4.4104
     4.4105   5.1518   5.2049   6.1786   6.1792   6.4425   6.6408   6.6408
    10.2892  10.2892  10.7188  10.7190  12.1616  13.1092  13.1101  13.2009
    13.6902  14.1758  14.1762  14.5538  15.1865  15.1866  16.9446  17.5214

          k =-0.0793 0.0458 0.0000 (  7675 PWs)   bands (ev):

   -57.4894 -57.4712 -56.9753 -56.9753 -24.3773 -24.1265 -23.8000 -23.7818
   -23.7667 -23.7343 -23.6003 -23.5481 -23.1682 -23.1675 -23.1351 -23.1350
    -9.1675  -9.1621  -9.1500  -9.1482  -9.1477  -9.1397  -9.1384  -9.1364
    -9.1265  -9.1255  -9.1174  -9.1162  -9.1047  -9.1043  -8.7187  -8.7186
    -8.6797  -8.6795  -8.6785  -8.6784  -8.6600  -8.6599  -8.6585  -8.6584
    -8.6423  -8.6422  -8.5886  -8.5885  -3.0949  -1.9839  -0.3360   3.0046
     4.6496   6.1214   6.1689   6.3830   6.8837   7.6224   8.2074   8.6726
     9.5035  10.0011  10.2988  10.5096  10.5109  11.2880  11.4934  11.7626
    12.4181  12.9356  13.3663  13.4345  13.6243  14.1519  14.1997  14.9057

          k = 0.0793 0.0458 0.0000 (  7675 PWs)   bands (ev):

   -57.4894 -57.4712 -56.9753 -56.9753 -24.3773 -24.1265 -23.8000 -23.7819
   -23.7666 -23.7342 -23.6003 -23.5481 -23.1682 -23.1675 -23.1351 -23.1350
    -9.1675  -9.1621  -9.1500  -9.1482  -9.1477  -9.1397  -9.1384  -9.1364
    -9.1265  -9.1255  -9.1174  -9.1162  -9.1047  -9.1043  -8.7187  -8.7186
    -8.6797  -8.6795  -8.6785  -8.6784  -8.6600  -8.6599  -8.6585  -8.6584
    -8.6423  -8.6422  -8.5886  -8.5885  -3.0949  -1.9839  -0.3360   3.0046
     4.6495   6.1216   6.1686   6.3834   6.8830   7.6224   8.2076   8.6725
     9.5034  10.0010  10.2985  10.5097  10.5102  11.2890  11.4936  11.7619
    12.4191  12.9365  13.3643  13.4363  13.6236  14.1504  14.2014  14.9070

          k =-0.1587 0.0916 0.0000 (  7681 PWs)   bands (ev):

   -57.4810 -57.4643 -56.9682 -56.9681 -24.3339 -24.1239 -23.9317 -23.8944
   -23.8012 -23.7587 -23.5827 -23.5486 -23.2829 -23.2796 -23.1614 -23.1612
    -9.1604  -9.1559  -9.1515  -9.1445  -9.1440  -9.1403  -9.1356  -9.1336
    -9.1299  -9.1269  -9.1211  -9.1182  -9.1116  -9.1101  -8.7153  -8.7152
    -8.6835  -8.6833  -8.6795  -8.6794  -8.6610  -8.6608  -8.6555  -8.6553
    -8.6355  -8.6353  -8.5954  -8.5953  -2.6223  -1.6777  -0.3691   3.5594
     4.7152   5.6400   6.1699   6.3526   6.9412   7.0774   7.6028   8.3596
     8.9978   9.8365  10.0605  10.4856  11.1074  11.2472  11.8348  11.8697
    12.5582  13.2282  13.5331  13.6778  13.8698  14.3171  14.5027  15.5644

          k = 0.1587 0.0916 0.0000 (  7681 PWs)   bands (ev):

   -57.4810 -57.4643 -56.9682 -56.9681 -24.3339 -24.1239 -23.9317 -23.8945
   -23.8012 -23.7586 -23.5827 -23.5486 -23.2828 -23.2795 -23.1614 -23.1612
    -9.1604  -9.1559  -9.1515  -9.1445  -9.1440  -9.1403  -9.1356  -9.1336
    -9.1299  -9.1269  -9.1211  -9.1182  -9.1116  -9.1101  -8.7153  -8.7152
    -8.6835  -8.6834  -8.6795  -8.6794  -8.6610  -8.6608  -8.6555  -8.6553
    -8.6355  -8.6353  -8.5954  -8.5953  -2.6223  -1.6778  -0.3691   3.5593
     4.7151   5.6403   6.1699   6.3523   6.9404   7.0775   7.6028   8.3596
     8.9978   9.8364  10.0599  10.4852  11.1071  11.2483  11.8350  11.8704
    12.5590  13.2303  13.5328  13.6766  13.8707  14.3166  14.5035  15.5375

          k =-0.2380 0.1374 0.0000 (  7694 PWs)   bands (ev):

   -57.4692 -57.4551 -56.9585 -56.9584 -24.2747 -24.1805 -24.0961 -23.9846
   -23.8465 -23.7933 -23.5725 -23.5523 -23.4335 -23.4248 -23.1971 -23.1967
    -9.1575  -9.1502  -9.1453  -9.1411  -9.1391  -9.1375  -9.1349  -9.1332
    -9.1292  -9.1292  -9.1253  -9.1246  -9.1201  -9.1129  -8.7109  -8.7108
    -8.6886  -8.6885  -8.6810  -8.6810  -8.6617  -8.6615  -8.6514  -8.6513
    -8.6261  -8.6260  -8.6043  -8.6043  -1.9479  -1.3097  -0.4479   4.0818
     5.0129   5.2298   5.6467   6.4365   6.4402   6.9397   7.2492   8.2281
     8.2323   9.9029   9.9694  10.3145  11.7232  11.9705  12.1282  12.5356
    13.0333  13.2224  13.6513  13.7737  14.1929  14.6431  14.8035  16.1249

          k = 0.2380 0.1374 0.0000 (  7694 PWs)   bands (ev):

   -57.4692 -57.4551 -56.9585 -56.9584 -24.2747 -24.1805 -24.0962 -23.9846
   -23.8465 -23.7932 -23.5725 -23.5524 -23.4334 -23.4247 -23.1971 -23.1967
    -9.1575  -9.1502  -9.1454  -9.1411  -9.1391  -9.1375  -9.1349  -9.1332
    -9.1292  -9.1292  -9.1253  -9.1246  -9.1201  -9.1129  -8.7109  -8.7108
    -8.6886  -8.6885  -8.6810  -8.6809  -8.6617  -8.6615  -8.6514  -8.6513
    -8.6261  -8.6260  -8.6043  -8.6042  -1.9479  -1.3097  -0.4479   4.0818
     5.0127   5.2297   5.6465   6.4361   6.4400   6.9388   7.2491   8.2279
     8.2323   9.9024   9.9693  10.3147  11.7244  11.9704  12.1291  12.5359
    13.0335  13.2240  13.6513  13.7735  14.1945  14.6427  14.8034  16.1250

          k =-0.3174 0.1832 0.0000 (  7696 PWs)   bands (ev):

   -57.4571 -57.4462 -56.9487 -56.9486 -24.3169 -24.2790 -24.1802 -24.0060
   -23.8905 -23.8285 -23.5856 -23.5809 -23.5594 -23.5353 -23.2326 -23.2319
    -9.1604  -9.1470  -9.1402  -9.1376  -9.1375  -9.1369  -9.1341  -9.1323
    -9.1318  -9.1281  -9.1259  -9.1246  -9.1241  -9.1136  -8.7069  -8.7068
    -8.6936  -8.6934  -8.6827  -8.6826  -8.6619  -8.6617  -8.6473  -8.6471
    -8.6166  -8.6165  -8.6129  -8.6128  -1.3565  -1.0163  -0.3556   3.8887
     4.6097   5.4043   5.8380   6.1516   6.2861   6.9178   6.9347   7.5747
     8.3545   9.8360  10.3378  10.5423  12.1062  12.6836  12.9324  13.2938
    13.5012  13.8457  13.9653  14.0359  14.1434  14.8867  15.1206  16.4686

          k = 0.3174 0.1832 0.0000 (  7696 PWs)   bands (ev):

   -57.4571 -57.4462 -56.9487 -56.9486 -24.3170 -24.2790 -24.1802 -24.0059
   -23.8904 -23.8285 -23.5855 -23.5808 -23.5595 -23.5354 -23.2326 -23.2320
    -9.1604  -9.1470  -9.1402  -9.1376  -9.1375  -9.1369  -9.1341  -9.1323
    -9.1318  -9.1281  -9.1259  -9.1246  -9.1242  -9.1135  -8.7069  -8.7068
    -8.6936  -8.6934  -8.6827  -8.6826  -8.6619  -8.6617  -8.6473  -8.6471
    -8.6166  -8.6165  -8.6129  -8.6128  -1.3565  -1.0163  -0.3556   3.8887
     4.6095   5.4040   5.8373   6.1514   6.2858   6.9168   6.9345   7.5747
     8.3543   9.8358  10.3378  10.5426  12.1086  12.6839  12.9326  13.2950
    13.5011  13.8454  13.9657  14.0361  14.1444  14.8866  15.1205  16.4687

          k =-0.3967 0.2290 0.0000 (  7710 PWs)   bands (ev):

   -57.4479 -57.4401 -56.9416 -56.9415 -24.4311 -24.3791 -24.1371 -24.0198
   -23.9221 -23.8546 -23.6721 -23.6619 -23.5676 -23.5481 -23.2584 -23.2576
    -9.1629  -9.1469  -9.1434  -9.1431  -9.1426  -9.1382  -9.1304  -9.1275
    -9.1264  -9.1253  -9.1236  -9.1234  -9.1211  -9.1137  -8.7043  -8.7042
    -8.6971  -8.6970  -8.6841  -8.6840  -8.6617  -8.6615  -8.6441  -8.6440
    -8.6188  -8.6187  -8.6097  -8.6096  -1.2920  -0.7366   0.1387   3.2253
     4.2330   5.6802   5.8568   6.0995   6.3142   6.8168   6.8794   7.1391
     8.5292   9.9122  10.9158  11.0153  12.2418  13.2899  13.5066  13.7902
    13.9003  14.1698  14.5256  14.8017  14.9292  15.2200  15.2988  16.2915

          k = 0.3967 0.2290 0.0000 (  7710 PWs)   bands (ev):

   -57.4479 -57.4401 -56.9416 -56.9415 -24.4312 -24.3792 -24.1372 -24.0197
   -23.9220 -23.8545 -23.6719 -23.6618 -23.5677 -23.5483 -23.2584 -23.2576
    -9.1629  -9.1469  -9.1434  -9.1431  -9.1426  -9.1382  -9.1304  -9.1275
    -9.1264  -9.1253  -9.1236  -9.1233  -9.1212  -9.1137  -8.7043  -8.7042
    -8.6971  -8.6970  -8.6841  -8.6840  -8.6617  -8.6616  -8.6441  -8.6440
    -8.6188  -8.6187  -8.6097  -8.6096  -1.2919  -0.7366   0.1387   3.2253
     4.2325   5.6801   5.8562   6.0991   6.3134   6.8166   6.8784   7.1392
     8.5288   9.9119  10.9158  11.0154  12.2448  13.2903  13.5069  13.7903
    13.9021  14.1697  14.5254  14.8017  14.9290  15.2203  15.2986  16.2918

          k = 0.4760-0.2748 0.0000 (  7688 PWs)   bands (ev):

   -57.4443 -57.4380 -56.9389 -56.9389 -24.4734 -24.4184 -24.1164 -24.0301
   -23.9335 -23.8641 -23.6977 -23.6971 -23.5681 -23.5505 -23.2678 -23.2669
    -9.1638  -9.1466  -9.1457  -9.1450  -9.1444  -9.1392  -9.1300  -9.1249
    -9.1243  -9.1236  -9.1228  -9.1222  -9.1194  -9.1137  -8.7033  -8.7033
    -8.6983  -8.6981  -8.6846  -8.6845  -8.6615  -8.6613  -8.6429  -8.6428
    -8.6209  -8.6208  -8.6071  -8.6070  -1.3254  -0.6510   0.4871   2.8271
     4.1587   5.6336   6.0019   6.0254   6.2460   6.8588   6.8914   6.9834
     8.5996   9.9828  11.2213  11.2692  12.3315  13.5682  13.6504  13.7929
    14.0841  14.4636  14.8799  15.3722  15.4002  15.4030  15.7342  15.8414

          k =-0.4760-0.2748 0.0000 (  7688 PWs)   bands (ev):

   -57.4443 -57.4380 -56.9389 -56.9389 -24.4734 -24.4184 -24.1164 -24.0300
   -23.9335 -23.8640 -23.6974 -23.6969 -23.5682 -23.5507 -23.2678 -23.2670
    -9.1638  -9.1466  -9.1457  -9.1450  -9.1444  -9.1392  -9.1299  -9.1249
    -9.1243  -9.1236  -9.1228  -9.1222  -9.1195  -9.1137  -8.7033  -8.7032
    -8.6983  -8.6981  -8.6846  -8.6844  -8.6615  -8.6614  -8.6429  -8.6428
    -8.6209  -8.6208  -8.6071  -8.6070  -1.3253  -0.6509   0.4871   2.8270
     4.1581   5.6335   6.0016   6.0250   6.2450   6.8578   6.8911   6.9834
     8.5992   9.9825  11.2213  11.2692  12.3345  13.5682  13.6505  13.7951
    14.0839  14.4636  14.8794  15.3723  15.4001  15.4031  15.7344  15.8418

          k =-0.0793 0.1374 0.0000 (  7679 PWs)   bands (ev):

   -57.4837 -57.4665 -56.9705 -56.9704 -24.3477 -24.1222 -23.8836 -23.8673
   -23.7859 -23.7582 -23.5864 -23.5480 -23.2445 -23.2423 -23.1554 -23.1553
    -9.1626  -9.1576  -9.1506  -9.1478  -9.1438  -9.1399  -9.1371  -9.1341
    -9.1288  -9.1265  -9.1202  -9.1167  -9.1094  -9.1091  -8.7163  -8.7162
    -8.6822  -8.6821  -8.6792  -8.6791  -8.6606  -8.6605  -8.6565  -8.6564
    -8.6377  -8.6376  -8.5933  -8.5932  -2.7737  -1.7715  -0.3539   3.3940
     4.6751   5.7957   6.1865   6.3918   6.8069   7.5258   7.6162   8.2266
     9.5684   9.6090  10.3745  10.4044  10.6763  11.2734  11.6435  11.8811
    12.3940  13.2809  13.4369  13.8569  13.9963  14.1640  14.4248  14.8504

          k = 0.1587 0.0000 0.0000 (  7679 PWs)   bands (ev):

   -57.4837 -57.4665 -56.9705 -56.9704 -24.3477 -24.1222 -23.8837 -23.8674
   -23.7858 -23.7581 -23.5864 -23.5481 -23.2445 -23.2422 -23.1554 -23.1553
    -9.1626  -9.1576  -9.1506  -9.1478  -9.1438  -9.1399  -9.1371  -9.1341
    -9.1288  -9.1265  -9.1202  -9.1167  -9.1094  -9.1091  -8.7163  -8.7162
    -8.6823  -8.6821  -8.6791  -8.6791  -8.6606  -8.6605  -8.6565  -8.6564
    -8.6377  -8.6376  -8.5933  -8.5932  -2.7738  -1.7715  -0.3539   3.3940
     4.6750   5.7959   6.1865   6.3914   6.8063   7.5259   7.6161   8.2268
     9.5682   9.6091  10.3740  10.4050  10.6752  11.2738  11.6440  11.8814
    12.3944  13.2820  13.4382  13.8546  13.9955  14.1654  14.4254  14.8516

          k =-0.0793 0.2290 0.0000 (  7681 PWs)   bands (ev):

   -57.4735 -57.4585 -56.9620 -56.9620 -24.2956 -24.1434 -24.0329 -23.9571
   -23.8329 -23.7964 -23.5736 -23.5498 -23.3711 -23.3659 -23.1920 -23.1917
    -9.1555  -9.1522  -9.1493  -9.1445  -9.1402  -9.1379  -9.1347  -9.1327
    -9.1306  -9.1281  -9.1252  -9.1195  -9.1171  -9.1140  -8.7124  -8.7123
    -8.6866  -8.6865  -8.6805  -8.6804  -8.6614  -8.6613  -8.6531  -8.6530
    -8.6295  -8.6294  -8.6012  -8.6011  -2.1926  -1.4274  -0.4277   4.0198
     4.8603   5.2856   5.9387   6.5013   6.6307   6.8547   7.3475   7.7766
     9.0601   9.7967  10.0332  10.3761  11.1651  11.3589  12.2429  12.3450
    12.5965  13.3699  13.7257  14.0321  14.3816  14.4837  14.7609  15.3301

          k =-0.1587 0.1832 0.0000 (  7681 PWs)   bands (ev):

   -57.4735 -57.4585 -56.9620 -56.9620 -24.2956 -24.1434 -24.0329 -23.9571
   -23.8329 -23.7964 -23.5736 -23.5498 -23.3711 -23.3659 -23.1920 -23.1917
    -9.1555  -9.1522  -9.1493  -9.1445  -9.1402  -9.1379  -9.1347  -9.1327
    -9.1306  -9.1281  -9.1252  -9.1195  -9.1171  -9.1140  -8.7124  -8.7123
    -8.6866  -8.6865  -8.6805  -8.6804  -8.6614  -8.6613  -8.6531  -8.6530
    -8.6295  -8.6294  -8.6012  -8.6011  -2.1926  -1.4274  -0.4277   4.0198
     4.8603   5.2856   5.9387   6.5013   6.6307   6.8547   7.3475   7.7766
     9.0601   9.7967  10.0332  10.3761  11.1651  11.3589  12.2429  12.3450
    12.5965  13.3699  13.7257  14.0321  14.3816  14.4836  14.7609  15.3306

          k = 0.2380 0.0458 0.0000 (  7681 PWs)   bands (ev):

   -57.4735 -57.4585 -56.9620 -56.9620 -24.2956 -24.1434 -24.0331 -23.9571
   -23.8328 -23.7963 -23.5736 -23.5499 -23.3710 -23.3658 -23.1921 -23.1918
    -9.1555  -9.1521  -9.1493  -9.1445  -9.1402  -9.1379  -9.1347  -9.1327
    -9.1307  -9.1281  -9.1252  -9.1195  -9.1171  -9.1139  -8.7124  -8.7123
    -8.6866  -8.6865  -8.6805  -8.6804  -8.6614  -8.6613  -8.6531  -8.6530
    -8.6295  -8.6294  -8.6012  -8.6011  -2.1926  -1.4274  -0.4277   4.0198
     4.8601   5.2856   5.9385   6.5010   6.6303   6.8541   7.3472   7.7769
     9.0601   9.7964  10.0334  10.3761  11.1641  11.3594  12.2438  12.3457
    12.5971  13.3707  13.7261  14.0332  14.3812  14.4846  14.7607  15.3304

          k =-0.1587-0.1832 0.0000 (  7681 PWs)   bands (ev):

   -57.4735 -57.4585 -56.9620 -56.9620 -24.2956 -24.1434 -24.0331 -23.9571
   -23.8328 -23.7963 -23.5736 -23.5499 -23.3710 -23.3658 -23.1921 -23.1918
    -9.1555  -9.1521  -9.1494  -9.1445  -9.1402  -9.1379  -9.1347  -9.1327
    -9.1307  -9.1281  -9.1252  -9.1195  -9.1171  -9.1139  -8.7124  -8.7123
    -8.6866  -8.6865  -8.6805  -8.6804  -8.6614  -8.6613  -8.6531  -8.6530
    -8.6295  -8.6294  -8.6012  -8.6011  -2.1926  -1.4274  -0.4277   4.0198
     4.8601   5.2856   5.9385   6.5010   6.6303   6.8541   7.3472   7.7769
     9.0601   9.7964  10.0334  10.3761  11.1641  11.3594  12.2438  12.3457
    12.5971  13.3707  13.7261  14.0332  14.3812  14.4846  14.7606  15.3309

          k = 0.2380-0.0458 0.0000 (  7681 PWs)   bands (ev):

   -57.4735 -57.4585 -56.9620 -56.9620 -24.2956 -24.1434 -24.0330 -23.9571
   -23.8328 -23.7963 -23.5736 -23.5499 -23.3711 -23.3658 -23.1921 -23.1918
    -9.1555  -9.1522  -9.1493  -9.1445  -9.1402  -9.1379  -9.1347  -9.1327
    -9.1307  -9.1281  -9.1252  -9.1195  -9.1171  -9.1140  -8.7124  -8.7123
    -8.6866  -8.6865  -8.6805  -8.6804  -8.6614  -8.6613  -8.6531  -8.6530
    -8.6295  -8.6294  -8.6012  -8.6011  -2.1926  -1.4274  -0.4277   4.0198
     4.8602   5.2856   5.9385   6.5010   6.6307   6.8542   7.3474   7.7768
     9.0601   9.7966  10.0336  10.3764  11.1640  11.3584  12.2437  12.3452
    12.5971  13.3704  13.7259  14.0330  14.3812  14.4839  14.7607  15.3313

          k =-0.0793 0.3206 0.0000 (  7669 PWs)   bands (ev):

   -57.4616 -57.4494 -56.9523 -56.9522 -24.2478 -24.2450 -24.1710 -23.9969
   -23.8871 -23.8383 -23.5682 -23.5565 -23.5093 -23.4974 -23.2340 -23.2337
    -9.1573  -9.1464  -9.1422  -9.1385  -9.1377  -9.1368  -9.1341  -9.1330
    -9.1318  -9.1288  -9.1268  -9.1247  -9.1235  -9.1149  -8.7081  -8.7080
    -8.6913  -8.6912  -8.6823  -8.6821  -8.6616  -8.6615  -8.6491  -8.6490
    -8.6201  -8.6200  -8.6100  -8.6099  -1.5012  -1.0993  -0.4812   4.2202
     4.9530   5.2608   5.5009   6.2931   6.4998   6.7129   7.0203   7.4048
     8.7167  10.0410  10.1099  10.1954  11.8119  11.9413  12.4597  13.1454
    13.4732  13.5962  13.7665  14.2331  14.5139  14.7490  15.2686  16.0859

          k =-0.2380 0.2290 0.0000 (  7669 PWs)   bands (ev):

   -57.4616 -57.4494 -56.9523 -56.9522 -24.2478 -24.2450 -24.1710 -23.9969
   -23.8871 -23.8383 -23.5682 -23.5565 -23.5093 -23.4974 -23.2340 -23.2337
    -9.1573  -9.1464  -9.1422  -9.1385  -9.1377  -9.1368  -9.1341  -9.1330
    -9.1318  -9.1288  -9.1268  -9.1247  -9.1235  -9.1149  -8.7081  -8.7080
    -8.6914  -8.6911  -8.6823  -8.6822  -8.6616  -8.6615  -8.6491  -8.6490
    -8.6201  -8.6199  -8.6100  -8.6099  -1.5012  -1.0993  -0.4812   4.2202
     4.9530   5.2608   5.5009   6.2931   6.4998   6.7129   7.0203   7.4048
     8.7167  10.0410  10.1099  10.1954  11.8119  11.9413  12.4597  13.1454
    13.4732  13.5962  13.7664  14.2331  14.5139  14.7490  15.2687  16.0860

          k = 0.3174 0.0916 0.0000 (  7669 PWs)   bands (ev):

   -57.4616 -57.4494 -56.9523 -56.9522 -24.2478 -24.2451 -24.1712 -23.9968
   -23.8870 -23.8382 -23.5682 -23.5565 -23.5092 -23.4973 -23.2341 -23.2337
    -9.1573  -9.1463  -9.1422  -9.1385  -9.1377  -9.1368  -9.1341  -9.1330
    -9.1318  -9.1288  -9.1268  -9.1247  -9.1235  -9.1148  -8.7081  -8.7080
    -8.6914  -8.6912  -8.6822  -8.6821  -8.6616  -8.6615  -8.6491  -8.6490
    -8.6201  -8.6200  -8.6100  -8.6099  -1.5012  -1.0992  -0.4812   4.2202
     4.9528   5.2605   5.5005   6.2927   6.4995   6.7119   7.0203   7.4048
     8.7166  10.0407  10.1103  10.1951  11.8124  11.9408  12.4614  13.1455
    13.4739  13.5972  13.7671  14.2339  14.5145  14.7488  15.2691  16.0863

          k =-0.2380-0.2290 0.0000 (  7669 PWs)   bands (ev):

   -57.4616 -57.4494 -56.9523 -56.9522 -24.2478 -24.2451 -24.1712 -23.9968
   -23.8870 -23.8382 -23.5682 -23.5565 -23.5092 -23.4973 -23.2341 -23.2337
    -9.1573  -9.1463  -9.1422  -9.1385  -9.1377  -9.1368  -9.1341  -9.1330
    -9.1318  -9.1288  -9.1268  -9.1247  -9.1235  -9.1148  -8.7081  -8.7080
    -8.6914  -8.6912  -8.6822  -8.6821  -8.6616  -8.6615  -8.6491  -8.6490
    -8.6201  -8.6200  -8.6100  -8.6099  -1.5012  -1.0992  -0.4812   4.2202
     4.9528   5.2605   5.5005   6.2927   6.4995   6.7119   7.0203   7.4048
     8.7166  10.0407  10.1103  10.1951  11.8124  11.9408  12.4614  13.1455
    13.4739  13.5972  13.7671  14.2339  14.5145  14.7488  15.2690  16.0862

          k = 0.3174-0.0916 0.0000 (  7669 PWs)   bands (ev):

   -57.4616 -57.4494 -56.9523 -56.9522 -24.2478 -24.2451 -24.1711 -23.9969
   -23.8871 -23.8382 -23.5682 -23.5565 -23.5093 -23.4974 -23.2341 -23.2337
    -9.1574  -9.1464  -9.1422  -9.1385  -9.1377  -9.1368  -9.1341  -9.1330
    -9.1318  -9.1288  -9.1268  -9.1247  -9.1235  -9.1149  -8.7081  -8.7080
    -8.6914  -8.6912  -8.6822  -8.6822  -8.6616  -8.6615  -8.6492  -8.6490
    -8.6201  -8.6200  -8.6100  -8.6099  -1.5012  -1.0992  -0.4811   4.2201
     4.9527   5.2608   5.5009   6.2927   6.4999   6.7124   7.0205   7.4049
     8.7166  10.0410  10.1102  10.1952  11.8111  11.9407  12.4603  13.1454
    13.4744  13.5974  13.7662  14.2338  14.5133  14.7491  15.2687  16.0863

          k =-0.0793 0.4123 0.0000 (  7696 PWs)   bands (ev):

   -57.4509 -57.4420 -56.9438 -56.9438 -24.3719 -24.3272 -24.1531 -24.0132
   -23.9292 -23.8745 -23.6266 -23.6185 -23.5630 -23.5467 -23.2700 -23.2697
    -9.1602  -9.1459  -9.1414  -9.1410  -9.1407  -9.1359  -9.1333  -9.1299
    -9.1286  -9.1274  -9.1256  -9.1241  -9.1221  -9.1151  -8.7047  -8.7046
    -8.6954  -8.6953  -8.6841  -8.6839  -8.6615  -8.6614  -8.6458  -8.6457
    -8.6174  -8.6173  -8.6118  -8.6117  -1.1837  -0.8079  -0.1816   3.6982
     4.4015   5.5431   5.9849   6.1576   6.2636   6.6520   6.8471   7.0668
     8.6341   9.9974  10.5849  10.6451  12.2006  12.7770  12.8920  13.3995
    13.8372  14.1934  14.5997  14.7745  14.7967  15.0039  15.4149  16.3255

          k =-0.3174 0.2748 0.0000 (  7696 PWs)   bands (ev):

   -57.4509 -57.4420 -56.9438 -56.9438 -24.3719 -24.3272 -24.1531 -24.0132
   -23.9292 -23.8745 -23.6266 -23.6185 -23.5630 -23.5467 -23.2700 -23.2697
    -9.1602  -9.1459  -9.1414  -9.1410  -9.1408  -9.1359  -9.1333  -9.1299
    -9.1286  -9.1274  -9.1256  -9.1241  -9.1221  -9.1151  -8.7047  -8.7046
    -8.6954  -8.6952  -8.6841  -8.6839  -8.6615  -8.6614  -8.6458  -8.6457
    -8.6174  -8.6173  -8.6118  -8.6117  -1.1837  -0.8079  -0.1816   3.6982
     4.4015   5.5431   5.9849   6.1576   6.2636   6.6520   6.8471   7.0668
     8.6341   9.9974  10.5849  10.6451  12.2007  12.7770  12.8920  13.3995
    13.8372  14.1934  14.5997  14.7745  14.7967  15.0039  15.4148  16.3257

          k = 0.3967 0.1374 0.0000 (  7696 PWs)   bands (ev):

   -57.4509 -57.4420 -56.9438 -56.9438 -24.3720 -24.3273 -24.1532 -24.0131
   -23.9292 -23.8744 -23.6264 -23.6183 -23.5631 -23.5468 -23.2700 -23.2697
    -9.1602  -9.1459  -9.1414  -9.1410  -9.1407  -9.1359  -9.1333  -9.1299
    -9.1286  -9.1274  -9.1256  -9.1241  -9.1221  -9.1151  -8.7047  -8.7046
    -8.6954  -8.6953  -8.6840  -8.6839  -8.6615  -8.6614  -8.6458  -8.6457
    -8.6174  -8.6173  -8.6118  -8.6117  -1.1836  -0.8079  -0.1816   3.6982
     4.4012   5.5429   5.9842   6.1570   6.2634   6.6510   6.8469   7.0668
     8.6339   9.9972  10.5850  10.6451  12.2023  12.7779  12.8917  13.4005
    13.8377  14.1932  14.6004  14.7746  14.7976  15.0043  15.4148  16.3259

          k =-0.3174-0.2748 0.0000 (  7696 PWs)   bands (ev):

   -57.4509 -57.4420 -56.9438 -56.9438 -24.3720 -24.3273 -24.1532 -24.0131
   -23.9292 -23.8744 -23.6264 -23.6183 -23.5631 -23.5468 -23.2700 -23.2697
    -9.1602  -9.1459  -9.1415  -9.1410  -9.1407  -9.1359  -9.1333  -9.1299
    -9.1286  -9.1274  -9.1256  -9.1241  -9.1221  -9.1151  -8.7047  -8.7046
    -8.6954  -8.6953  -8.6840  -8.6839  -8.6615  -8.6614  -8.6458  -8.6457
    -8.6174  -8.6173  -8.6118  -8.6117  -1.1836  -0.8079  -0.1816   3.6982
     4.4012   5.5429   5.9842   6.1570   6.2634   6.6510   6.8469   7.0668
     8.6339   9.9972  10.5850  10.6451  12.2023  12.7779  12.8917  13.4005
    13.8377  14.1932  14.6004  14.7746  14.7976  15.0043  15.4147  16.3260

          k = 0.3967-0.1374 0.0000 (  7696 PWs)   bands (ev):

   -57.4509 -57.4420 -56.9438 -56.9438 -24.3719 -24.3272 -24.1531 -24.0131
   -23.9292 -23.8744 -23.6266 -23.6184 -23.5630 -23.5467 -23.2700 -23.2697
    -9.1602  -9.1459  -9.1415  -9.1410  -9.1407  -9.1359  -9.1333  -9.1299
    -9.1286  -9.1273  -9.1256  -9.1241  -9.1221  -9.1151  -8.7047  -8.7046
    -8.6954  -8.6952  -8.6840  -8.6839  -8.6615  -8.6614  -8.6458  -8.6457
    -8.6174  -8.6173  -8.6118  -8.6117  -1.1837  -0.8079  -0.1816   3.6981
     4.4013   5.5432   5.9845   6.1577   6.2639   6.6516   6.8471   7.0670
     8.6339   9.9972  10.5850  10.6451  12.1999  12.7773  12.8911  13.4009
    13.8376  14.1934  14.5991  14.7744  14.7981  15.0044  15.4144  16.3259

          k =-0.0793 0.5039 0.0000 (  7703 PWs)   bands (ev):

   -57.4443 -57.4380 -56.9389 -56.9389 -24.4483 -24.3952 -24.1142 -24.0323
   -23.9508 -23.8955 -23.6825 -23.6767 -23.5644 -23.5508 -23.2906 -23.2904
    -9.1619  -9.1462  -9.1451  -9.1447  -9.1431  -9.1383  -9.1315  -9.1267
    -9.1249  -9.1241  -9.1238  -9.1221  -9.1200  -9.1152  -8.7029  -8.7027
    -8.6976  -8.6975  -8.6852  -8.6850  -8.6612  -8.6611  -8.6438  -8.6437
    -8.6214  -8.6213  -8.6071  -8.6070  -1.2243  -0.6307   0.3347   3.0726
     4.2384   5.7119   5.9256   6.0531   6.3045   6.6139   6.8437   6.9423
     8.6754  10.0223  11.0873  11.1050  12.3812  13.2154  13.4117  13.6248
    14.1371  14.6621  14.9958  15.1641  15.2128  15.2629  15.7079  16.1537

          k =-0.3967 0.3206 0.0000 (  7703 PWs)   bands (ev):

   -57.4443 -57.4380 -56.9389 -56.9389 -24.4483 -24.3952 -24.1142 -24.0323
   -23.9508 -23.8955 -23.6825 -23.6767 -23.5644 -23.5508 -23.2906 -23.2904
    -9.1619  -9.1462  -9.1451  -9.1447  -9.1431  -9.1383  -9.1315  -9.1267
    -9.1249  -9.1241  -9.1238  -9.1221  -9.1200  -9.1152  -8.7028  -8.7027
    -8.6976  -8.6975  -8.6851  -8.6850  -8.6613  -8.6611  -8.6438  -8.6437
    -8.6214  -8.6213  -8.6071  -8.6070  -1.2243  -0.6307   0.3347   3.0726
     4.2384   5.7119   5.9256   6.0531   6.3045   6.6139   6.8437   6.9423
     8.6754  10.0223  11.0873  11.1050  12.3812  13.2154  13.4117  13.6248
    14.1371  14.6621  14.9958  15.1641  15.2128  15.2629  15.7081  16.1539

          k = 0.4760 0.1832 0.0000 (  7703 PWs)   bands (ev):

   -57.4443 -57.4380 -56.9389 -56.9389 -24.4484 -24.3953 -24.1143 -24.0322
   -23.9507 -23.8954 -23.6823 -23.6765 -23.5645 -23.5510 -23.2906 -23.2904
    -9.1619  -9.1462  -9.1451  -9.1447  -9.1431  -9.1383  -9.1314  -9.1267
    -9.1249  -9.1241  -9.1238  -9.1221  -9.1200  -9.1152  -8.7028  -8.7027
    -8.6977  -8.6975  -8.6851  -8.6850  -8.6613  -8.6611  -8.6438  -8.6437
    -8.6214  -8.6213  -8.6071  -8.6070  -1.2243  -0.6306   0.3347   3.0725
     4.2378   5.7119   5.9251   6.0529   6.3035   6.6134   6.8435   6.9420
     8.6751  10.0221  11.0873  11.1049  12.3838  13.2154  13.4119  13.6260
    14.1368  14.6616  14.9965  15.1640  15.2136  15.2628  15.7082  16.1542

          k =-0.3967-0.3206 0.0000 (  7703 PWs)   bands (ev):

   -57.4443 -57.4380 -56.9389 -56.9389 -24.4484 -24.3953 -24.1143 -24.0322
   -23.9507 -23.8954 -23.6823 -23.6765 -23.5645 -23.5510 -23.2906 -23.2904
    -9.1619  -9.1462  -9.1451  -9.1447  -9.1431  -9.1383  -9.1314  -9.1267
    -9.1249  -9.1241  -9.1238  -9.1221  -9.1200  -9.1152  -8.7028  -8.7027
    -8.6977  -8.6975  -8.6851  -8.6850  -8.6613  -8.6611  -8.6438  -8.6437
    -8.6214  -8.6213  -8.6071  -8.6070  -1.2243  -0.6306   0.3347   3.0725
     4.2378   5.7119   5.9251   6.0529   6.3035   6.6134   6.8435   6.9420
     8.6751  10.0221  11.0873  11.1049  12.3838  13.2154  13.4119  13.6260
    14.1368  14.6616  14.9965  15.1640  15.2136  15.2628  15.7081  16.1544

          k = 0.4760-0.1832 0.0000 (  7703 PWs)   bands (ev):

   -57.4443 -57.4380 -56.9389 -56.9389 -24.4483 -24.3952 -24.1142 -24.0323
   -23.9508 -23.8955 -23.6825 -23.6767 -23.5644 -23.5508 -23.2906 -23.2904
    -9.1619  -9.1462  -9.1451  -9.1447  -9.1431  -9.1383  -9.1315  -9.1267
    -9.1249  -9.1241  -9.1238  -9.1221  -9.1200  -9.1152  -8.7028  -8.7027
    -8.6976  -8.6975  -8.6851  -8.6850  -8.6613  -8.6611  -8.6438  -8.6437
    -8.6214  -8.6213  -8.6071  -8.6070  -1.2243  -0.6306   0.3347   3.0726
     4.2382   5.7117   5.9258   6.0533   6.3041   6.6141   6.8436   6.9424
     8.6754  10.0221  11.0872  11.1049  12.3810  13.2149  13.4120  13.6254
    14.1371  14.6618  14.9959  15.1638  15.2140  15.2628  15.7080  16.1542

          k =-0.1587 0.2748 0.0000 (  7665 PWs)   bands (ev):

   -57.4632 -57.4506 -56.9536 -56.9535 -24.2464 -24.2069 -24.1541 -23.9862
   -23.8911 -23.8619 -23.5649 -23.5525 -23.4754 -23.4686 -23.2458 -23.2442
    -9.1537  -9.1475  -9.1448  -9.1397  -9.1389  -9.1355  -9.1341  -9.1321
    -9.1319  -9.1302  -9.1259  -9.1250  -9.1206  -9.1177  -8.7084  -8.7083
    -8.6903  -8.6901  -8.6823  -8.6822  -8.6616  -8.6614  -8.6501  -8.6500
    -8.6213  -8.6212  -8.6090  -8.6089  -1.5626  -1.1057  -0.5302   4.5191
     5.0442   5.1913   5.3171   6.4872   6.4965   6.7084   6.8021   7.2612
     9.3899   9.4902  10.0796  10.3389  11.5050  11.5796  12.2038  13.1463
    13.4423  13.5899  13.7456  14.6475  14.6480  14.9080  15.4334  15.7084

          k = 0.3174 0.0000 0.0000 (  7665 PWs)   bands (ev):

   -57.4632 -57.4506 -56.9536 -56.9535 -24.2464 -24.2069 -24.1542 -23.9862
   -23.8910 -23.8618 -23.5649 -23.5526 -23.4753 -23.4685 -23.2458 -23.2442
    -9.1537  -9.1475  -9.1448  -9.1397  -9.1388  -9.1356  -9.1341  -9.1321
    -9.1318  -9.1302  -9.1259  -9.1250  -9.1206  -9.1177  -8.7084  -8.7083
    -8.6903  -8.6901  -8.6822  -8.6822  -8.6616  -8.6614  -8.6501  -8.6500
    -8.6213  -8.6212  -8.6090  -8.6089  -1.5626  -1.1057  -0.5302   4.5191
     5.0442   5.1911   5.3167   6.4869   6.4958   6.7081   6.8021   7.2614
     9.3901   9.4905  10.0789  10.3392  11.5044  11.5785  12.2056  13.1464
    13.4429  13.5913  13.7460  14.6476  14.6488  14.9078  15.4345  15.7085

          k =-0.1587 0.3665 0.0000 (  7665 PWs)   bands (ev):

   -57.4526 -57.4431 -56.9451 -56.9451 -24.3018 -24.2815 -24.1654 -24.0034
   -23.9565 -23.9215 -23.5744 -23.5702 -23.5565 -23.5481 -23.3038 -23.3010
    -9.1550  -9.1451  -9.1409  -9.1398  -9.1382  -9.1363  -9.1341  -9.1316
    -9.1310  -9.1283  -9.1275  -9.1248  -9.1226  -9.1178  -8.7046  -8.7044
    -8.6936  -8.6935  -8.6844  -8.6843  -8.6611  -8.6610  -8.6474  -8.6473
    -8.6172  -8.6171  -8.6129  -8.6128  -0.9617  -0.8340  -0.5104   4.3208
     4.6155   5.3491   5.8038   6.1471   6.3206   6.5664   6.6281   6.9204
     9.1519   9.9052  10.2224  10.3982  12.0219  12.2231  12.3580  13.2619
    13.8928  14.0456  14.5675  14.9520  15.0688  15.1576  16.0778  16.3012

          k =-0.2380 0.3206 0.0000 (  7665 PWs)   bands (ev):

   -57.4526 -57.4431 -56.9451 -56.9451 -24.3018 -24.2815 -24.1654 -24.0034
   -23.9565 -23.9215 -23.5744 -23.5702 -23.5565 -23.5481 -23.3038 -23.3010
    -9.1550  -9.1451  -9.1409  -9.1398  -9.1382  -9.1363  -9.1341  -9.1316
    -9.1310  -9.1283  -9.1275  -9.1248  -9.1226  -9.1178  -8.7046  -8.7045
    -8.6936  -8.6935  -8.6844  -8.6843  -8.6611  -8.6610  -8.6474  -8.6473
    -8.6172  -8.6171  -8.6129  -8.6128  -0.9617  -0.8340  -0.5104   4.3208
     4.6155   5.3491   5.8038   6.1471   6.3206   6.5664   6.6281   6.9204
     9.1519   9.9052  10.2224  10.3982  12.0219  12.2231  12.3580  13.2619
    13.8928  14.0456  14.5675  14.9520  15.0688  15.1576  16.0770  16.3011

          k = 0.3967 0.0458 0.0000 (  7665 PWs)   bands (ev):

   -57.4526 -57.4431 -56.9451 -56.9451 -24.3019 -24.2815 -24.1654 -24.0034
   -23.9564 -23.9214 -23.5743 -23.5700 -23.5565 -23.5482 -23.3039 -23.3011
    -9.1551  -9.1451  -9.1409  -9.1398  -9.1382  -9.1363  -9.1340  -9.1316
    -9.1310  -9.1283  -9.1275  -9.1248  -9.1226  -9.1178  -8.7045  -8.7044
    -8.6937  -8.6935  -8.6843  -8.6842  -8.6611  -8.6610  -8.6474  -8.6473
    -8.6172  -8.6171  -8.6129  -8.6128  -0.9617  -0.8339  -0.5104   4.3206
     4.6151   5.3489   5.8036   6.1463   6.3199   6.5666   6.6278   6.9203
     9.1519   9.9059  10.2221  10.3973  12.0214  12.2247  12.3576  13.2631
    13.8934  14.0455  14.5684  14.9526  15.0701  15.1574  16.0776  16.3023

          k =-0.2380-0.3206 0.0000 (  7665 PWs)   bands (ev):

   -57.4526 -57.4431 -56.9451 -56.9451 -24.3019 -24.2815 -24.1654 -24.0034
   -23.9564 -23.9214 -23.5743 -23.5700 -23.5565 -23.5482 -23.3039 -23.3011
    -9.1551  -9.1451  -9.1409  -9.1398  -9.1382  -9.1363  -9.1340  -9.1316
    -9.1310  -9.1283  -9.1275  -9.1248  -9.1226  -9.1178  -8.7046  -8.7044
    -8.6936  -8.6935  -8.6844  -8.6842  -8.6611  -8.6610  -8.6474  -8.6473
    -8.6172  -8.6171  -8.6129  -8.6128  -0.9617  -0.8339  -0.5104   4.3206
     4.6151   5.3489   5.8036   6.1463   6.3199   6.5666   6.6278   6.9203
     9.1519   9.9059  10.2221  10.3973  12.0214  12.2247  12.3576  13.2631
    13.8933  14.0455  14.5684  14.9526  15.0700  15.1573  16.0783  16.3016

          k = 0.3967-0.0458 0.0000 (  7665 PWs)   bands (ev):

   -57.4526 -57.4431 -56.9451 -56.9451 -24.3019 -24.2815 -24.1654 -24.0034
   -23.9565 -23.9214 -23.5743 -23.5701 -23.5565 -23.5481 -23.3039 -23.3011
    -9.1551  -9.1451  -9.1409  -9.1398  -9.1382  -9.1363  -9.1340  -9.1316
    -9.1310  -9.1282  -9.1275  -9.1248  -9.1226  -9.1178  -8.7045  -8.7045
    -8.6937  -8.6935  -8.6843  -8.6842  -8.6611  -8.6610  -8.6474  -8.6473
    -8.6172  -8.6171  -8.6129  -8.6128  -0.9617  -0.8339  -0.5104   4.3206
     4.6150   5.3491   5.8041   6.1463   6.3200   6.5668   6.6280   6.9203
     9.1518   9.9057  10.2221  10.3975  12.0210  12.2242  12.3573  13.2632
    13.8931  14.0459  14.5684  14.9520  15.0700  15.1578  16.0771  16.3011

          k =-0.1587 0.4581 0.0000 (  7703 PWs)   bands (ev):

   -57.4443 -57.4380 -56.9389 -56.9389 -24.3847 -24.3417 -24.1175 -24.0496
   -23.9814 -23.9614 -23.6372 -23.6314 -23.5586 -23.5532 -23.3471 -23.3439
    -9.1568  -9.1460  -9.1436  -9.1419  -9.1406  -9.1365  -9.1337  -9.1318
    -9.1277  -9.1248  -9.1241  -9.1228  -9.1221  -9.1179  -8.7018  -8.7017
    -8.6959  -8.6958  -8.6863  -8.6862  -8.6604  -8.6603  -8.6459  -8.6458
    -8.6227  -8.6226  -8.6073  -8.6072  -0.9478  -0.5914  -0.0224   3.6625
     4.4490   5.5576   5.9647   6.1474   6.2936   6.3772   6.4654   6.8799
     9.1028  10.0163  10.6878  10.7711  12.4321  12.6797  13.1253  13.2549
    13.9302  14.4266  14.9260  15.1745  15.2229  15.4096  16.2731  16.5443

          k =-0.3174 0.3665 0.0000 (  7703 PWs)   bands (ev):

   -57.4443 -57.4380 -56.9390 -56.9389 -24.3847 -24.3417 -24.1175 -24.0496
   -23.9814 -23.9614 -23.6372 -23.6314 -23.5586 -23.5532 -23.3471 -23.3439
    -9.1568  -9.1460  -9.1436  -9.1419  -9.1406  -9.1365  -9.1337  -9.1318
    -9.1277  -9.1248  -9.1241  -9.1228  -9.1221  -9.1179  -8.7018  -8.7017
    -8.6960  -8.6958  -8.6863  -8.6862  -8.6604  -8.6603  -8.6459  -8.6458
    -8.6227  -8.6226  -8.6073  -8.6072  -0.9478  -0.5914  -0.0224   3.6625
     4.4490   5.5576   5.9647   6.1474   6.2936   6.3772   6.4654   6.8799
     9.1028  10.0163  10.6878  10.7711  12.4321  12.6797  13.1253  13.2549
    13.9302  14.4266  14.9260  15.1745  15.2229  15.4095  16.2726  16.5446

          k = 0.4760 0.0916 0.0000 (  7703 PWs)   bands (ev):

   -57.4443 -57.4380 -56.9390 -56.9389 -24.3848 -24.3418 -24.1175 -24.0495
   -23.9814 -23.9612 -23.6370 -23.6312 -23.5587 -23.5533 -23.3472 -23.3440
    -9.1568  -9.1460  -9.1436  -9.1418  -9.1406  -9.1364  -9.1337  -9.1317
    -9.1276  -9.1248  -9.1241  -9.1228  -9.1221  -9.1180  -8.7018  -8.7017
    -8.6960  -8.6958  -8.6863  -8.6862  -8.6604  -8.6603  -8.6459  -8.6458
    -8.6227  -8.6226  -8.6073  -8.6072  -0.9477  -0.5913  -0.0224   3.6624
     4.4485   5.5575   5.9640   6.1474   6.2931   6.3769   6.4650   6.8796
     9.1026  10.0163  10.6878  10.7708  12.4337  12.6798  13.1251  13.2555
    13.9309  14.4261  14.9265  15.1749  15.2232  15.4099  16.2737  16.5467

          k =-0.3174-0.3665 0.0000 (  7703 PWs)   bands (ev):

   -57.4443 -57.4380 -56.9390 -56.9389 -24.3848 -24.3418 -24.1175 -24.0495
   -23.9814 -23.9612 -23.6370 -23.6312 -23.5587 -23.5533 -23.3472 -23.3440
    -9.1568  -9.1460  -9.1436  -9.1418  -9.1406  -9.1364  -9.1337  -9.1317
    -9.1276  -9.1248  -9.1241  -9.1228  -9.1221  -9.1180  -8.7018  -8.7017
    -8.6960  -8.6958  -8.6863  -8.6861  -8.6604  -8.6603  -8.6459  -8.6458
    -8.6227  -8.6226  -8.6073  -8.6072  -0.9477  -0.5913  -0.0224   3.6624
     4.4485   5.5575   5.9640   6.1474   6.2931   6.3769   6.4650   6.8796
     9.1026  10.0163  10.6878  10.7708  12.4337  12.6798  13.1251  13.2555
    13.9309  14.4261  14.9265  15.1749  15.2232  15.4099  16.2735  16.5462

          k = 0.4760-0.0916 0.0000 (  7703 PWs)   bands (ev):

   -57.4443 -57.4380 -56.9390 -56.9389 -24.3847 -24.3417 -24.1175 -24.0495
   -23.9815 -23.9613 -23.6372 -23.6313 -23.5586 -23.5532 -23.3471 -23.3440
    -9.1568  -9.1460  -9.1436  -9.1419  -9.1406  -9.1365  -9.1337  -9.1317
    -9.1276  -9.1248  -9.1241  -9.1228  -9.1220  -9.1180  -8.7018  -8.7017
    -8.6960  -8.6958  -8.6863  -8.6862  -8.6604  -8.6603  -8.6459  -8.6458
    -8.6227  -8.6226  -8.6073  -8.6072  -0.9477  -0.5914  -0.0224   3.6624
     4.4486   5.5577   5.9643   6.1477   6.2934   6.3773   6.4654   6.8798
     9.1026  10.0161  10.6877  10.7709  12.4317  12.6796  13.1249  13.2559
    13.9308  14.4266  14.9266  15.1748  15.2233  15.4096  16.2727  16.5449

          k =-0.3967 0.4123 0.0000 (  7708 PWs)   bands (ev):

   -57.4410 -57.4364 -56.9367 -56.9366 -24.4153 -24.3636 -24.0877 -24.0814
   -23.9832 -23.9806 -23.6604 -23.6539 -23.5580 -23.5543 -23.3630 -23.3599
    -9.1574  -9.1473  -9.1457  -9.1416  -9.1412  -9.1371  -9.1351  -9.1292
    -9.1270  -9.1235  -9.1231  -9.1216  -9.1196  -9.1193  -8.7008  -8.7007
    -8.6967  -8.6965  -8.6870  -8.6869  -8.6600  -8.6598  -8.6454  -8.6453
    -8.6247  -8.6246  -8.6051  -8.6050  -0.9846  -0.5177   0.2612   3.3535
     4.3993   5.7203   5.9392   5.9914   6.1942   6.3118   6.5422   6.9770
     9.1121  10.0353  10.9632  11.0229  12.5212  13.1765  13.1967  13.7213
    13.9757  14.2858  14.7312  14.9299  15.2663  15.4763  16.4146  16.8194

          k = 0.5554 0.1374 0.0000 (  7708 PWs)   bands (ev):

   -57.4410 -57.4364 -56.9367 -56.9366 -24.4154 -24.3637 -24.0878 -24.0813
   -23.9831 -23.9805 -23.6602 -23.6537 -23.5581 -23.5544 -23.3630 -23.3599
    -9.1574  -9.1473  -9.1457  -9.1416  -9.1412  -9.1371  -9.1350  -9.1292
    -9.1270  -9.1235  -9.1231  -9.1216  -9.1196  -9.1194  -8.7008  -8.7007
    -8.6967  -8.6966  -8.6870  -8.6869  -8.6600  -8.6599  -8.6454  -8.6453
    -8.6247  -8.6246  -8.6051  -8.6050  -0.9845  -0.5176   0.2612   3.3534
     4.3990   5.7202   5.9391   5.9908   6.1939   6.3118   6.5414   6.9767
     9.1119  10.0352  10.9633  11.0229  12.5232  13.1764  13.1973  13.7220
    13.9753  14.2854  14.7312  14.9303  15.2662  15.4765  16.4153  16.8189

          k =-0.2380 0.4123 0.0000 (  7697 PWs)   bands (ev):

   -57.4443 -57.4380 -56.9390 -56.9389 -24.3323 -24.3170 -24.1323 -24.0432
   -24.0392 -23.9718 -23.6009 -23.6003 -23.5593 -23.5566 -23.3841 -23.3783
    -9.1528  -9.1442  -9.1440  -9.1427  -9.1379  -9.1377  -9.1330  -9.1325
    -9.1295  -9.1270  -9.1246  -9.1242  -9.1225  -9.1187  -8.7013  -8.7012
    -8.6948  -8.6947  -8.6870  -8.6869  -8.6600  -8.6598  -8.6470  -8.6469
    -8.6233  -8.6232  -8.6073  -8.6072  -0.6408  -0.6103  -0.3241   4.1123
     4.5811   5.3245   5.7971   6.1633   6.1901   6.3420   6.5815   6.7417
     9.6062   9.9952  10.2752  10.5660  12.1738  12.5853  12.8693  13.2447
    13.9784  14.3269  14.8657  15.2202  15.2355  15.3499  16.6932  16.8405

          k = 0.4760 0.0000 0.0000 (  7697 PWs)   bands (ev):

   -57.4443 -57.4380 -56.9390 -56.9389 -24.3324 -24.3171 -24.1323 -24.0432
   -24.0391 -23.9717 -23.6008 -23.6002 -23.5593 -23.5567 -23.3842 -23.3783
    -9.1528  -9.1442  -9.1440  -9.1427  -9.1379  -9.1377  -9.1329  -9.1325
    -9.1295  -9.1270  -9.1246  -9.1242  -9.1225  -9.1187  -8.7013  -8.7012
    -8.6949  -8.6947  -8.6870  -8.6869  -8.6600  -8.6598  -8.6470  -8.6469
    -8.6233  -8.6232  -8.6073  -8.6072  -0.6408  -0.6101  -0.3241   4.1121
     4.5805   5.3246   5.7973   6.1634   6.1896   6.3415   6.5814   6.7415
     9.6059   9.9954  10.2750  10.5654  12.1752  12.5841  12.8684  13.2466
    13.9789  14.3270  14.8661  15.2201  15.2367  15.3502  16.6929  16.8393

          k =-0.2380 0.5039 0.0000 (  7717 PWs)   bands (ev):

   -57.4390 -57.4357 -56.9354 -56.9353 -24.3476 -24.3072 -24.1612 -24.1053
   -24.0413 -23.9877 -23.6159 -23.6080 -23.5588 -23.5553 -23.4412 -23.4344
    -9.1518  -9.1472  -9.1453  -9.1410  -9.1393  -9.1369  -9.1342  -9.1328
    -9.1296  -9.1259  -9.1235  -9.1225  -9.1209  -9.1195  -8.6993  -8.6992
    -8.6949  -8.6947  -8.6892  -8.6891  -8.6586  -8.6585  -8.6473  -8.6472
    -8.6270  -8.6269  -8.6041  -8.6040  -0.6433  -0.4548  -0.0237   3.9210
     4.5841   5.3337   5.5264   6.1238   6.2086   6.3117   6.5552   6.8123
     9.8363  10.1254  10.6559  10.7730  12.2689  12.9960  13.2294  13.4381
    13.9028  14.0728  14.4086  14.7576  15.1921  15.3861  16.8370  17.1415

          k =-0.3174 0.4581 0.0000 (  7717 PWs)   bands (ev):

   -57.4390 -57.4357 -56.9354 -56.9353 -24.3476 -24.3072 -24.1612 -24.1053
   -24.0413 -23.9877 -23.6159 -23.6080 -23.5588 -23.5553 -23.4412 -23.4344
    -9.1518  -9.1472  -9.1453  -9.1410  -9.1393  -9.1369  -9.1342  -9.1328
    -9.1296  -9.1259  -9.1235  -9.1225  -9.1209  -9.1195  -8.6993  -8.6992
    -8.6949  -8.6947  -8.6892  -8.6891  -8.6586  -8.6585  -8.6473  -8.6472
    -8.6270  -8.6269  -8.6041  -8.6040  -0.6433  -0.4548  -0.0237   3.9210
     4.5841   5.3337   5.5264   6.1238   6.2086   6.3117   6.5552   6.8123
     9.8363  10.1254  10.6559  10.7730  12.2689  12.9960  13.2294  13.4381
    13.9028  14.0728  14.4086  14.7576  15.1921  15.3861  16.8373  17.1432

          k = 0.5554 0.0458 0.0000 (  7717 PWs)   bands (ev):

   -57.4390 -57.4357 -56.9354 -56.9353 -24.3477 -24.3072 -24.1611 -24.1052
   -24.0413 -23.9876 -23.6157 -23.6079 -23.5588 -23.5553 -23.4413 -23.4345
    -9.1518  -9.1472  -9.1453  -9.1409  -9.1393  -9.1369  -9.1342  -9.1328
    -9.1296  -9.1259  -9.1235  -9.1225  -9.1210  -9.1195  -8.6993  -8.6992
    -8.6949  -8.6947  -8.6892  -8.6891  -8.6586  -8.6585  -8.6474  -8.6472
    -8.6270  -8.6269  -8.6041  -8.6040  -0.6433  -0.4547  -0.0238   3.9208
     4.5837   5.3336   5.5265   6.1236   6.2085   6.3115   6.5547   6.8121
     9.8359  10.1252  10.6560  10.7729  12.2698  12.9958  13.2306  13.4374
    13.9036  14.0725  14.4087  14.7582  15.1920  15.3862  16.8375  17.1415

          k =-0.3174-0.4581 0.0000 (  7717 PWs)   bands (ev):

   -57.4390 -57.4357 -56.9354 -56.9353 -24.3477 -24.3072 -24.1611 -24.1052
   -24.0413 -23.9876 -23.6157 -23.6079 -23.5588 -23.5553 -23.4413 -23.4345
    -9.1518  -9.1472  -9.1453  -9.1409  -9.1393  -9.1369  -9.1342  -9.1328
    -9.1296  -9.1259  -9.1235  -9.1225  -9.1210  -9.1195  -8.6993  -8.6992
    -8.6949  -8.6948  -8.6892  -8.6891  -8.6586  -8.6585  -8.6473  -8.6472
    -8.6270  -8.6269  -8.6041  -8.6040  -0.6433  -0.4547  -0.0238   3.9208
     4.5837   5.3336   5.5265   6.1236   6.2085   6.3115   6.5547   6.8121
     9.8359  10.1252  10.6560  10.7729  12.2698  12.9958  13.2306  13.4374
    13.9036  14.0725  14.4087  14.7582  15.1921  15.3863  16.8383  17.1415

          k = 0.5554-0.0458 0.0000 (  7717 PWs)   bands (ev):

   -57.4390 -57.4357 -56.9354 -56.9353 -24.3477 -24.3072 -24.1612 -24.1052
   -24.0413 -23.9877 -23.6158 -23.6080 -23.5588 -23.5553 -23.4413 -23.4345
    -9.1518  -9.1472  -9.1453  -9.1410  -9.1393  -9.1369  -9.1342  -9.1328
    -9.1296  -9.1259  -9.1235  -9.1225  -9.1210  -9.1195  -8.6993  -8.6992
    -8.6949  -8.6947  -8.6892  -8.6891  -8.6586  -8.6585  -8.6474  -8.6472
    -8.6270  -8.6269  -8.6041  -8.6040  -0.6433  -0.4548  -0.0237   3.9209
     4.5837   5.3337   5.5266   6.1238   6.2084   6.3117   6.5551   6.8122
     9.8362  10.1252  10.6558  10.7729  12.2693  12.9952  13.2307  13.4375
    13.9035  14.0727  14.4088  14.7581  15.1921  15.3862  16.8371  17.1415

     the Fermi energy is    11.1022 ev

!    total energy              =   -2759.16314128 Ry
     estimated scf accuracy    <          8.8E-13 Ry
     smearing contrib. (-TS)   =      -0.00001538 Ry
     internal energy E=F+TS    =   -2759.16312590 Ry

     The total energy is F=E-TS. E is the sum of the following terms:
     one-electron contribution =   -8679.74224863 Ry
     hartree contribution      =    4446.09776356 Ry
     xc contribution           =    -282.41463338 Ry
     ewald contribution        =    1756.89599255 Ry

     convergence has been achieved in  34 iterations

     negative rho (up, down):  2.937E-05 0.000E+00

     Forces acting on atoms (cartesian axes, Ry/au):

     atom    1 type  1   force =     0.00025070   -0.00002611   -0.00053444
     atom    2 type  2   force =    -0.00013536   -0.00005456   -0.00072787
     atom    3 type  1   force =    -0.00014998    0.00010551   -0.00041623
     atom    4 type  2   force =     0.00003851   -0.00006762   -0.00002305
     atom    5 type  1   force =    -0.00001767    0.00018203    0.00045678
     atom    6 type  2   force =     0.00011583    0.00009080    0.00072515
     atom    7 type  1   force =    -0.00010203   -0.00023005    0.00051967

     Total force =     0.001496     Total SCF correction =     0.000009


     Computing stress (Cartesian axis) and pressure


     negative rho (up, down):  2.937E-05 0.000E+00
          total   stress  (Ry/bohr**3)                   (kbar)     P=       -4.91
  -0.00001729  -0.00000032  -0.00000097           -2.54       -0.05       -0.14
  -0.00000032  -0.00001692  -0.00000056           -0.05       -2.49       -0.08
  -0.00000097  -0.00000056  -0.00006600           -0.14       -0.08       -9.71


[...]
    -8.5983  -8.5982  -8.5837  -8.5836  -1.2119  -0.6164   0.3515   3.0845
     4.2499   5.7212   5.9377   6.0691   6.3177   6.6291   6.8562   6.9571
     8.6937  10.0358  11.1085  11.1258  12.3971  13.2353  13.4359  13.6424
    14.1623  14.6900  15.0171  15.1935  15.2434  15.2876  15.7369  16.1837

          k =-0.1588 0.2750 0.0000 (  7653 PWs)   bands (ev):

   -57.4433 -57.4308 -56.9309 -56.9308 -24.2279 -24.1885 -24.1359 -23.9675
   -23.8711 -23.8420 -23.5435 -23.5312 -23.4542 -23.4474 -23.2231 -23.2215
    -9.1334  -9.1272  -9.1244  -9.1193  -9.1184  -9.1153  -9.1137  -9.1117
    -9.1115  -9.1098  -9.1055  -9.1047  -9.1002  -9.0973  -8.6853  -8.6852
    -8.6672  -8.6670  -8.6592  -8.6591  -8.6383  -8.6382  -8.6268  -8.6267
    -8.5980  -8.5979  -8.5858  -8.5857  -1.5483  -1.0917  -0.5170   4.5329
     5.0587   5.2059   5.3316   6.5003   6.5109   6.7240   6.8164   7.2760
     9.4057   9.5072  10.0943  10.3568  11.5252  11.5968  12.2233  13.1675
    13.4673  13.6088  13.7651  14.6671  14.6696  14.9308  15.4592  15.7319

          k = 0.3176 0.0000 0.0000 (  7653 PWs)   bands (ev):

   -57.4433 -57.4307 -56.9309 -56.9308 -24.2279 -24.1885 -24.1359 -23.9675
   -23.8711 -23.8420 -23.5435 -23.5312 -23.4543 -23.4475 -23.2230 -23.2215
    -9.1334  -9.1272  -9.1244  -9.1193  -9.1184  -9.1153  -9.1137  -9.1117
    -9.1115  -9.1098  -9.1055  -9.1047  -9.1002  -9.0973  -8.6852  -8.6852
    -8.6673  -8.6671  -8.6591  -8.6590  -8.6383  -8.6382  -8.6268  -8.6267
    -8.5980  -8.5979  -8.5858  -8.5857  -1.5483  -1.0916  -0.5169   4.5328
     5.0587   5.2058   5.3314   6.5003   6.5105   6.7237   6.8163   7.2764
     9.4057   9.5072  10.0941  10.3570  11.5246  11.5962  12.2239  13.1679
    13.4676  13.6096  13.7653  14.6676  14.6697  14.9304  15.4595  15.7317

          k =-0.1588 0.3667 0.0000 (  7663 PWs)   bands (ev):

   -57.4326 -57.4231 -56.9223 -56.9223 -24.2842 -24.2637 -24.1467 -23.9845
   -23.9371 -23.9020 -23.5535 -23.5493 -23.5353 -23.5270 -23.2816 -23.2788
    -9.1348  -9.1248  -9.1206  -9.1195  -9.1179  -9.1160  -9.1137  -9.1112
    -9.1106  -9.1079  -9.1071  -9.1044  -9.1022  -9.0974  -8.6814  -8.6813
    -8.6706  -8.6704  -8.6613  -8.6611  -8.6379  -8.6378  -8.6242  -8.6241
    -8.5940  -8.5939  -8.5896  -8.5895  -0.9473  -0.8196  -0.4966   4.3347
     4.6287   5.3638   5.8190   6.1586   6.3349   6.5804   6.6418   6.9342
     9.1685   9.9212  10.2409  10.4147  12.0424  12.2399  12.3791  13.2821
    13.9104  14.0655  14.5957  14.9758  15.0931  15.1836  16.1032  16.3263

          k =-0.2382 0.3209 0.0000 (  7663 PWs)   bands (ev):

   -57.4326 -57.4231 -56.9223 -56.9223 -24.2842 -24.2637 -24.1467 -23.9845
   -23.9371 -23.9020 -23.5535 -23.5493 -23.5353 -23.5270 -23.2816 -23.2788
    -9.1348  -9.1248  -9.1206  -9.1195  -9.1179  -9.1160  -9.1137  -9.1112
    -9.1106  -9.1079  -9.1071  -9.1044  -9.1022  -9.0974  -8.6814  -8.6813
    -8.6706  -8.6704  -8.6613  -8.6611  -8.6379  -8.6378  -8.6242  -8.6241
    -8.5940  -8.5939  -8.5896  -8.5894  -0.9473  -0.8196  -0.4966   4.3347
     4.6287   5.3638   5.8190   6.1586   6.3349   6.5804   6.6418   6.9342
     9.1685   9.9212  10.2409  10.4147  12.0424  12.2399  12.3791  13.2821
    13.9104  14.0655  14.5958  14.9758  15.0931  15.1836  16.1033  16.3263

          k = 0.3970 0.0458 0.0000 (  7663 PWs)   bands (ev):

   -57.4326 -57.4231 -56.9223 -56.9223 -24.2842 -24.2637 -24.1467 -23.9845
   -23.9371 -23.9020 -23.5536 -23.5494 -23.5354 -23.5271 -23.2815 -23.2787
    -9.1348  -9.1248  -9.1206  -9.1195  -9.1179  -9.1160  -9.1137  -9.1112
    -9.1106  -9.1079  -9.1071  -9.1044  -9.1022  -9.0974  -8.6813  -8.6813
    -8.6706  -8.6705  -8.6612  -8.6611  -8.6380  -8.6378  -8.6242  -8.6241
    -8.5940  -8.5939  -8.5896  -8.5894  -0.9473  -0.8195  -0.4964   4.3346
     4.6285   5.3636   5.8190   6.1580   6.3344   6.5805   6.6414   6.9345
     9.1685   9.9214  10.2407  10.4144  12.0419  12.2406  12.3787  13.2828
    13.9109  14.0656  14.5966  14.9761  15.0936  15.1836  16.1038  16.3263

          k =-0.2382-0.3209 0.0000 (  7663 PWs)   bands (ev):

   -57.4326 -57.4231 -56.9223 -56.9223 -24.2842 -24.2637 -24.1467 -23.9845
   -23.9371 -23.9020 -23.5536 -23.5494 -23.5354 -23.5271 -23.2815 -23.2787
    -9.1348  -9.1248  -9.1206  -9.1195  -9.1179  -9.1160  -9.1137  -9.1112
    -9.1106  -9.1079  -9.1071  -9.1044  -9.1022  -9.0974  -8.6814  -8.6813
    -8.6706  -8.6705  -8.6612  -8.6611  -8.6380  -8.6378  -8.6242  -8.6241
    -8.5940  -8.5939  -8.5896  -8.5895  -0.9473  -0.8195  -0.4964   4.3346
     4.6285   5.3636   5.8190   6.1580   6.3344   6.5805   6.6414   6.9345
     9.1685   9.9214  10.2407  10.4144  12.0419  12.2406  12.3787  13.2828
    13.9109  14.0656  14.5965  14.9761  15.0936  15.1835  16.1036  16.3262

          k = 0.3970-0.0458 0.0000 (  7663 PWs)   bands (ev):

   -57.4326 -57.4231 -56.9223 -56.9223 -24.2842 -24.2638 -24.1467 -23.9845
   -23.9371 -23.9019 -23.5536 -23.5494 -23.5353 -23.5270 -23.2815 -23.2787
    -9.1348  -9.1248  -9.1206  -9.1195  -9.1179  -9.1160  -9.1137  -9.1112
    -9.1106  -9.1079  -9.1071  -9.1044  -9.1022  -9.0974  -8.6814  -8.6813
    -8.6706  -8.6705  -8.6612  -8.6611  -8.6379  -8.6378  -8.6242  -8.6241
    -8.5940  -8.5939  -8.5896  -8.5894  -0.9472  -0.8195  -0.4965   4.3345
     4.6284   5.3637   5.8191   6.1581   6.3347   6.5806   6.6418   6.9341
     9.1683   9.9213  10.2407  10.4145  12.0418  12.2402  12.3785  13.2829
    13.9107  14.0658  14.5966  14.9759  15.0936  15.1839  16.1036  16.3259

          k =-0.1588 0.4584 0.0000 (  7690 PWs)   bands (ev):

   -57.4243 -57.4180 -56.9161 -56.9160 -24.3675 -24.3245 -24.0986 -24.0305
   -23.9623 -23.9422 -23.6171 -23.6113 -23.5370 -23.5316 -23.3251 -23.3220
    -9.1365  -9.1257  -9.1234  -9.1215  -9.1203  -9.1161  -9.1133  -9.1113
    -9.1073  -9.1043  -9.1036  -9.1024  -9.1016  -9.0975  -8.6786  -8.6785
    -8.6729  -8.6727  -8.6632  -8.6631  -8.6372  -8.6371  -8.6226  -8.6225
    -8.5995  -8.5994  -8.5838  -8.5837  -0.9346  -0.5769  -0.0064   3.6753
     4.4615   5.5721   5.9760   6.1609   6.3068   6.3921   6.4789   6.8930
     9.1198  10.0317  10.7076  10.7901  12.4491  12.7030  13.1480  13.2745
    13.9472  14.4479  14.9560  15.2000  15.2494  15.4355  16.2988  16.5747

          k =-0.3176 0.3667 0.0000 (  7690 PWs)   bands (ev):

   -57.4243 -57.4180 -56.9161 -56.9160 -24.3675 -24.3245 -24.0986 -24.0305
   -23.9623 -23.9422 -23.6171 -23.6113 -23.5370 -23.5316 -23.3251 -23.3220
    -9.1365  -9.1257  -9.1234  -9.1215  -9.1203  -9.1161  -9.1133  -9.1113
    -9.1073  -9.1043  -9.1036  -9.1024  -9.1016  -9.0975  -8.6786  -8.6785
    -8.6729  -8.6727  -8.6632  -8.6631  -8.6372  -8.6371  -8.6226  -8.6225
    -8.5995  -8.5994  -8.5838  -8.5837  -0.9346  -0.5769  -0.0064   3.6753
     4.4615   5.5721   5.9760   6.1609   6.3068   6.3921   6.4789   6.8930
     9.1198  10.0317  10.7076  10.7901  12.4491  12.7030  13.1480  13.2745
    13.9472  14.4479  14.9560  15.2000  15.2494  15.4355  16.2988  16.5746

          k = 0.4764 0.0917 0.0000 (  7690 PWs)   bands (ev):

   -57.4243 -57.4180 -56.9161 -56.9160 -24.3676 -24.3245 -24.0986 -24.0305
   -23.9624 -23.9421 -23.6171 -23.6113 -23.5371 -23.5317 -23.3251 -23.3219
    -9.1365  -9.1257  -9.1234  -9.1215  -9.1203  -9.1161  -9.1133  -9.1113
    -9.1073  -9.1043  -9.1036  -9.1024  -9.1016  -9.0975  -8.6786  -8.6784
    -8.6729  -8.6728  -8.6631  -8.6630  -8.6372  -8.6371  -8.6226  -8.6225
    -8.5995  -8.5994  -8.5838  -8.5837  -0.9345  -0.5768  -0.0062   3.6753
     4.4613   5.5719   5.9754   6.1608   6.3065   6.3920   6.4787   6.8933
     9.1197  10.0317  10.7076  10.7900  12.4498  12.7027  13.1479  13.2748
    13.9477  14.4478  14.9569  15.2002  15.2499  15.4357  16.2992  16.5752

          k =-0.3176-0.3667 0.0000 (  7690 PWs)   bands (ev):

   -57.4243 -57.4180 -56.9161 -56.9160 -24.3676 -24.3245 -24.0986 -24.0305
   -23.9624 -23.9421 -23.6171 -23.6113 -23.5371 -23.5317 -23.3251 -23.3219
    -9.1365  -9.1257  -9.1234  -9.1216  -9.1203  -9.1161  -9.1133  -9.1113
    -9.1073  -9.1043  -9.1036  -9.1024  -9.1016  -9.0975  -8.6786  -8.6784
    -8.6729  -8.6728  -8.6631  -8.6630  -8.6372  -8.6371  -8.6226  -8.6225
    -8.5995  -8.5994  -8.5838  -8.5837  -0.9345  -0.5768  -0.0062   3.6753
     4.4613   5.5719   5.9754   6.1608   6.3065   6.3920   6.4787   6.8933
     9.1197  10.0317  10.7076  10.7900  12.4498  12.7027  13.1479  13.2748
    13.9477  14.4478  14.9569  15.2002  15.2499  15.4358  16.2992  16.5750

          k = 0.4764-0.0917 0.0000 (  7690 PWs)   bands (ev):

   -57.4243 -57.4180 -56.9161 -56.9160 -24.3675 -24.3245 -24.0986 -24.0305
   -23.9624 -23.9421 -23.6171 -23.6113 -23.5370 -23.5316 -23.3251 -23.3219
    -9.1365  -9.1257  -9.1234  -9.1215  -9.1203  -9.1161  -9.1133  -9.1113
    -9.1073  -9.1043  -9.1036  -9.1024  -9.1016  -9.0975  -8.6786  -8.6785
    -8.6729  -8.6727  -8.6631  -8.6631  -8.6372  -8.6371  -8.6226  -8.6225
    -8.5995  -8.5994  -8.5838  -8.5837  -0.9345  -0.5768  -0.0064   3.6753
     4.4613   5.5721   5.9755   6.1612   6.3067   6.3923   6.4789   6.8929
     9.1197  10.0315  10.7075  10.7900  12.4489  12.7025  13.1476  13.2750
    13.9475  14.4479  14.9571  15.2004  15.2501  15.4357  16.2988  16.5752

          k =-0.3970 0.4125 0.0000 (  7698 PWs)   bands (ev):

   -57.4210 -57.4164 -56.9138 -56.9137 -24.3984 -24.3466 -24.0688 -24.0623
   -23.9641 -23.9615 -23.6405 -23.6340 -23.5364 -23.5327 -23.3411 -23.3380
    -9.1371  -9.1271  -9.1255  -9.1213  -9.1210  -9.1168  -9.1147  -9.1088
    -9.1066  -9.1030  -9.1026  -9.1011  -9.0991  -9.0989  -8.6776  -8.6775
    -8.6737  -8.6735  -8.6639  -8.6638  -8.6368  -8.6367  -8.6221  -8.6220
    -8.6015  -8.6014  -8.5817  -8.5816  -0.9716  -0.5032   0.2779   3.3657
     4.4117   5.7348   5.9534   6.0000   6.2095   6.3252   6.5545   6.9913
     9.1293  10.0505  10.9837  11.0431  12.5381  13.1978  13.2221  13.7392
    13.9990  14.3130  14.7591  14.9526  15.2876  15.5024  16.4439  16.8496

          k = 0.5558 0.1375 0.0000 (  7698 PWs)   bands (ev):

   -57.4210 -57.4164 -56.9138 -56.9137 -24.3984 -24.3466 -24.0689 -24.0623
   -23.9641 -23.9615 -23.6405 -23.6341 -23.5364 -23.5327 -23.3411 -23.3380
    -9.1371  -9.1271  -9.1255  -9.1213  -9.1210  -9.1168  -9.1147  -9.1088
    -9.1066  -9.1030  -9.1026  -9.1011  -9.0991  -9.0989  -8.6776  -8.6774
    -8.6737  -8.6736  -8.6639  -8.6638  -8.6368  -8.6367  -8.6221  -8.6219
    -8.6015  -8.6014  -8.5817  -8.5816  -0.9716  -0.5031   0.2781   3.3657
     4.4116   5.7346   5.9531   5.9995   6.2092   6.3250   6.5542   6.9916
     9.1291  10.0505  10.9839  11.0432  12.5390  13.1977  13.2224  13.7397
    13.9990  14.3130  14.7591  14.9529  15.2874  15.5023  16.4445  16.8498

          k =-0.2382 0.4125 0.0000 (  7677 PWs)   bands (ev):

   -57.4243 -57.4180 -56.9161 -56.9160 -24.3149 -24.2995 -24.1133 -24.0243
   -24.0203 -23.9528 -23.5806 -23.5800 -23.5377 -23.5350 -23.3625 -23.3566
    -9.1325  -9.1239  -9.1237  -9.1225  -9.1175  -9.1173  -9.1125  -9.1122
    -9.1091  -9.1066  -9.1041  -9.1037  -9.1021  -9.0982  -8.6780  -8.6779
    -8.6717  -8.6716  -8.6639  -8.6638  -8.6368  -8.6365  -8.6237  -8.6236
    -8.6002  -8.6001  -8.5839  -8.5838  -0.6271  -0.5958  -0.3084   4.1252
     4.5950   5.3393   5.8105   6.1752   6.2040   6.3572   6.5945   6.7533
     9.6241  10.0124  10.2934  10.5826  12.1938  12.6057  12.8892  13.2674
    13.9943  14.3444  14.8970  15.2432  15.2629  15.3770  16.7200  16.8708

          k = 0.4764 0.0000 0.0000 (  7681 PWs)   bands (ev):

   -57.4243 -57.4180 -56.9161 -56.9160 -24.3150 -24.2996 -24.1133 -24.0244
   -24.0203 -23.9527 -23.5807 -23.5800 -23.5377 -23.5350 -23.3624 -23.3566
    -9.1326  -9.1239  -9.1238  -9.1225  -9.1175  -9.1173  -9.1126  -9.1122
    -9.1091  -9.1066  -9.1041  -9.1037  -9.1021  -9.0982  -8.6780  -8.6779
    -8.6718  -8.6717  -8.6639  -8.6638  -8.6368  -8.6365  -8.6237  -8.6236
    -8.6002  -8.6001  -8.5839  -8.5838  -0.6269  -0.5957  -0.3084   4.1252
     4.5946   5.3391   5.8105   6.1751   6.2037   6.3570   6.5947   6.7533
     9.6240  10.0125  10.2932  10.5823  12.1942  12.6051  12.8888  13.2682
    13.9947  14.3446  14.8980  15.2430  15.2640  15.3772  16.7213  16.8710

          k =-0.2382 0.5042 0.0000 (  7705 PWs)   bands (ev):

   -57.4189 -57.4156 -56.9125 -56.9124 -24.3302 -24.2897 -24.1426 -24.0867
   -24.0225 -23.9687 -23.5956 -23.5878 -23.5371 -23.5336 -23.4200 -23.4132
    -9.1315  -9.1270  -9.1251  -9.1206  -9.1189  -9.1166  -9.1139  -9.1124
    -9.1092  -9.1055  -9.1031  -9.1021  -9.1004  -9.0990  -8.6760  -8.6759
    -8.6718  -8.6717  -8.6662  -8.6660  -8.6353  -8.6352  -8.6241  -8.6239
    -8.6039  -8.6038  -8.5806  -8.5805  -0.6294  -0.4400  -0.0078   3.9337
     4.5973   5.3481   5.5405   6.1367   6.2221   6.3232   6.5678   6.8252
     9.8545  10.1431  10.6747  10.7912  12.2893  13.0185  13.2544  13.4614
    13.9235  14.0943  14.4288  14.7794  15.2137  15.4117  16.8675  17.1738

          k =-0.3176 0.4584 0.0000 (  7705 PWs)   bands (ev):

   -57.4189 -57.4156 -56.9125 -56.9124 -24.3302 -24.2897 -24.1426 -24.0867
   -24.0225 -23.9687 -23.5956 -23.5878 -23.5371 -23.5336 -23.4200 -23.4132
    -9.1315  -9.1270  -9.1251  -9.1206  -9.1189  -9.1166  -9.1139  -9.1124
    -9.1092  -9.1055  -9.1031  -9.1021  -9.1004  -9.0990  -8.6760  -8.6759
    -8.6718  -8.6717  -8.6661  -8.6660  -8.6353  -8.6352  -8.6241  -8.6239
    -8.6039  -8.6038  -8.5806  -8.5805  -0.6294  -0.4400  -0.0078   3.9337
     4.5973   5.3481   5.5405   6.1367   6.2221   6.3232   6.5678   6.8252
     9.8545  10.1431  10.6747  10.7912  12.2893  13.0185  13.2544  13.4614
    13.9235  14.0943  14.4288  14.7794  15.2137  15.4117  16.8679  17.1724

          k = 0.5558 0.0458 0.0000 (  7705 PWs)   bands (ev):

   -57.4189 -57.4156 -56.9125 -56.9124 -24.3303 -24.2897 -24.1425 -24.0867
   -24.0225 -23.9687 -23.5957 -23.5879 -23.5371 -23.5336 -23.4199 -23.4132
    -9.1315  -9.1270  -9.1251  -9.1206  -9.1189  -9.1166  -9.1139  -9.1124
    -9.1092  -9.1055  -9.1031  -9.1021  -9.1004  -9.0990  -8.6760  -8.6759
    -8.6719  -8.6717  -8.6661  -8.6660  -8.6354  -8.6353  -8.6241  -8.6239
    -8.6039  -8.6038  -8.5806  -8.5805  -0.6293  -0.4399  -0.0078   3.9337
     4.5971   5.3479   5.5404   6.1364   6.2220   6.3231   6.5676   6.8254
     9.8543  10.1430  10.6748  10.7911  12.2897  13.0184  13.2548  13.4612
    13.9241  14.0947  14.4289  14.7799  15.2135  15.4118  16.8680  17.1725

          k =-0.3176-0.4584 0.0000 (  7705 PWs)   bands (ev):

   -57.4189 -57.4156 -56.9125 -56.9124 -24.3303 -24.2897 -24.1425 -24.0867
   -24.0225 -23.9687 -23.5956 -23.5879 -23.5371 -23.5336 -23.4199 -23.4132
    -9.1315  -9.1270  -9.1251  -9.1206  -9.1189  -9.1166  -9.1139  -9.1124
    -9.1092  -9.1055  -9.1031  -9.1021  -9.1004  -9.0990  -8.6760  -8.6759
    -8.6719  -8.6717  -8.6661  -8.6660  -8.6354  -8.6353  -8.6241  -8.6239
    -8.6039  -8.6038  -8.5806  -8.5805  -0.6293  -0.4399  -0.0078   3.9337
     4.5971   5.3479   5.5404   6.1364   6.2220   6.3231   6.5676   6.8254
     9.8543  10.1430  10.6748  10.7911  12.2897  13.0184  13.2548  13.4612
    13.9241  14.0947  14.4289  14.7799  15.2135  15.4118  16.8678  17.1730

          k = 0.5558-0.0458 0.0000 (  7705 PWs)   bands (ev):

   -57.4189 -57.4156 -56.9125 -56.9124 -24.3303 -24.2898 -24.1425 -24.0867
   -24.0225 -23.9687 -23.5956 -23.5878 -23.5371 -23.5336 -23.4200 -23.4132
    -9.1315  -9.1270  -9.1251  -9.1206  -9.1189  -9.1166  -9.1139  -9.1124
    -9.1092  -9.1055  -9.1031  -9.1021  -9.1004  -9.0990  -8.6760  -8.6759
    -8.6718  -8.6717  -8.6661  -8.6660  -8.6353  -8.6352  -8.6241  -8.6239
    -8.6039  -8.6038  -8.5806  -8.5805  -0.6294  -0.4400  -0.0078   3.9337
     4.5970   5.3481   5.5406   6.1366   6.2220   6.3234   6.5679   6.8251
     9.8545  10.1430  10.6747  10.7910  12.2893  13.0181  13.2549  13.4611
    13.9240  14.0948  14.4289  14.7799  15.2136  15.4118  16.8676  17.1728

     the Fermi energy is    11.1233 ev

!    total energy              =   -2759.16305292 Ry
     estimated scf accuracy    <          1.9E-15 Ry
     smearing contrib. (-TS)   =      -0.00001570 Ry
     internal energy E=F+TS    =   -2759.16303722 Ry

     The total energy is F=E-TS. E is the sum of the following terms:
     one-electron contribution =   -8682.78678701 Ry
     hartree contribution      =    4447.71200926 Ry
     xc contribution           =    -282.42324841 Ry
     ewald contribution        =    1758.33498894 Ry

     convergence has been achieved in  39 iterations

     negative rho (up, down):  3.635E-05 0.000E+00

     Forces acting on atoms (cartesian axes, Ry/au):

     atom    1 type  1   force =     0.00007696   -0.00003622   -0.00088706
     atom    2 type  2   force =     0.00001211    0.00000153   -0.00057502
     atom    3 type  1   force =    -0.00007584    0.00001432   -0.00033517
     atom    4 type  2   force =    -0.00002488    0.00004205    0.00000186
     atom    5 type  1   force =     0.00002539    0.00007266    0.00032758
     atom    6 type  2   force =    -0.00000734   -0.00000970    0.00058269
     atom    7 type  1   force =    -0.00000640   -0.00008462    0.00088513

     Total force =     0.001578     Total SCF correction =     0.000000


     Computing stress (Cartesian axis) and pressure


     negative rho (up, down):  3.635E-05 0.000E+00
          total   stress  (Ry/bohr**3)                   (kbar)     P=       -2.91
   0.00000179  -0.00000011  -0.00000045            0.26       -0.02       -0.07
  -0.00000011   0.00000192  -0.00000026           -0.02        0.28       -0.04
  -0.00000045  -0.00000026  -0.00006297           -0.07       -0.04       -9.26


     Writing output data file /scratch/as3359/Ta4C3_loop/Ta.save/
 
     init_run     :     33.36s CPU     18.58s WALL (       2 calls)
     electrons    :   8259.68s CPU   4201.66s WALL (       4 calls)
     update_pot   :      7.65s CPU      4.50s WALL (       2 calls)
     forces       :     20.93s CPU     10.59s WALL (       4 calls)
     stress       :     85.79s CPU     43.28s WALL (       4 calls)

     Called by init_run:
     wfcinit      :     23.26s CPU     11.89s WALL (       2 calls)
     potinit      :      2.48s CPU      1.32s WALL (       2 calls)
     hinit0       :      6.82s CPU      4.88s WALL (       2 calls)

     Called by electrons:
     c_bands      :   7647.15s CPU   3883.32s WALL (     143 calls)
     sum_band     :    565.49s CPU    291.03s WALL (     143 calls)
     v_of_rho     :      7.44s CPU      3.77s WALL (     147 calls)
     newd         :     38.02s CPU     22.78s WALL (     147 calls)
     mix_rho      :      1.95s CPU      1.00s WALL (     143 calls)

     Called by c_bands:
     init_us_2    :     40.89s CPU     20.55s WALL (   21904 calls)
     ccgdiagg     :   6504.04s CPU   3303.56s WALL (   10619 calls)
     wfcrot       :   1118.88s CPU    567.06s WALL (   10471 calls)

     Called by *cgdiagg:
     h_psi        :   4388.52s CPU   2230.04s WALL ( 1800422 calls)
     s_psi        :   1396.00s CPU    708.04s WALL ( 3590373 calls)

     Called by h_psi:
     h_psi:calbec :    679.71s CPU    344.52s WALL ( 1800422 calls)
     vloc_psi     :   2929.14s CPU   1490.71s WALL ( 1800422 calls)
     add_vuspsi   :    726.44s CPU    368.95s WALL ( 1800422 calls)
     hs_1psi      :   4145.13s CPU   2104.44s WALL ( 1789951 calls)
     s_1psi       :   1333.46s CPU    674.68s WALL ( 1789951 calls)

     General routines
     calbec       :   1349.50s CPU    685.70s WALL ( 3602435 calls)
     fft          :      3.67s CPU      1.96s WALL (    2005 calls)
     ffts         :      0.33s CPU      0.17s WALL (     290 calls)
     fftw         :   2949.40s CPU   1501.51s WALL ( 5851998 calls)
     interpolate  :      0.55s CPU      0.28s WALL (     147 calls)
 
     Parallel routines
 
     PWSCF        :      2h20m CPU      1h11m WALL

 
   This run was terminated on:  19:57:57   8Apr2022            

=------------------------------------------------------------------------------=
   JOB DONE.
=------------------------------------------------------------------------------=
