
     Program PWSCF v.6.8 starts on  7Apr2022 at 11:29:19 

     This program is part of the open-source Quantum ESPRESSO suite
     for quantum simulation of materials; please cite
         "P. Giannozzi et al., J. Phys.:Condens. Matter 21 395502 (2009);
         "P. Giannozzi et al., J. Phys.:Condens. Matter 29 465901 (2017);
         "P. Giannozzi et al., J. Chem. Phys. 152 154105 (2020);
          URL http://www.quantum-espresso.org", 
     in publications or presentations arising from this work. More details at
     http://www.quantum-espresso.org/quote

     Parallel version (MPI & OpenMP), running on       4 processor cores
     Number of MPI processes:                 2
     Threads/MPI process:                     2

     MPI processes distributed on     1 nodes
     R & G space division:  proc/nbgrp/npool/nimage =       2
     125209 MiB available memory on the printing compute node when the environment starts
 
     Reading input from Ta4C3.vcrelax.in

     Current dimensions of program PWSCF are:
     Max number of different atomic species (ntypx) = 10
     Max number of k-points (npk) =  40000
     Max angular momentum in pseudopotentials (lmaxx) =  4
     file Ta.pbesol-spfn-rrkjus_psl.1.0.0.UPF: wavefunction(s)  5S 5P renormalized

     Subspace diagonalization in iterative solution of the eigenvalue problem:
     a serial algorithm will be used

 
     Parallelization info
     --------------------
     sticks:   dense  smooth     PW     G-vecs:    dense   smooth      PW
     Min         594     360    111                83822    38979    6895
     Max         595     361    112                83825    38982    6896
     Sum        1189     721    223               167647    77961   13791
 
     Using Slab Decomposition
 


     bravais-lattice index     =            0
     lattice parameter (alat)  =       5.5500  a.u.
     unit-cell volume          =    1242.1942 (a.u.)^3
     number of atoms/cell      =            7
     number of atomic types    =            2
     number of electrons       =       120.00
     number of Kohn-Sham states=           72
     kinetic-energy cutoff     =      60.0000  Ry
     charge density cutoff     =     400.0000  Ry
     scf convergence threshold =      1.0E-12
     mixing beta               =       0.7000
     number of iterations used =            8  plain     mixing
     energy convergence thresh.=      1.0E-04
     force convergence thresh. =      1.0E-03
     press convergence thresh. =      5.0E-01
     Exchange-correlation= PBESOL
                           (   1   4  10   8   0   0   0)
     nstep                     =           50


     celldm(1)=   5.550000  celldm(2)=   0.000000  celldm(3)=   0.000000
     celldm(4)=   0.000000  celldm(5)=   0.000000  celldm(6)=   0.000000

     crystal axes: (cart. coord. in units of alat)
               a(1) = (   1.182549   0.000005   0.000000 )  
               a(2) = (  -0.591270   1.024092   0.000000 )  
               a(3) = (   0.000000   0.000000   6.000000 )  

     reciprocal axes: (cart. coord. in units 2 pi/alat)
               b(1) = (  0.845629  0.488232  0.000000 )  
               b(2) = ( -0.000005  0.976472  0.000000 )  
               b(3) = (  0.000000  0.000000  0.166667 )  


     PseudoPot. # 1 for Ta read from file:
     /shared/home/as3359/pseudo/Ta.pbesol-spfn-rrkjus_psl.1.0.0.UPF
     MD5 check sum: f099565ffaca9b150a52e9412a28e20b
     Pseudo is Ultrasoft + core correction, Zval = 27.0
     Generated using &quot;atomic&quot; code by A. Dal Corso  v.6.3
     Using radial grid of 1273 points,  8 beta functions with: 
                l(1) =   0
                l(2) =   0
                l(3) =   1
                l(4) =   1
                l(5) =   2
                l(6) =   2
                l(7) =   3
                l(8) =   3
     Q(r) pseudized with 0 coefficients 


     PseudoPot. # 2 for C  read from file:
     /shared/home/as3359/pseudo/C.pbesol-n-rrkjus_psl.1.0.0.UPF
     MD5 check sum: 05995be603a8a7c99da3dc4413f31573
     Pseudo is Ultrasoft + core correction, Zval =  4.0
     Generated using &quot;atomic&quot; code by A. Dal Corso  v.6.3MaX
     Using radial grid of 1073 points,  4 beta functions with: 
                l(1) =   0
                l(2) =   0
                l(3) =   1
                l(4) =   1
     Q(r) pseudized with 0 coefficients 


     atomic species   valence    mass     pseudopotential
        Ta            27.00   180.94788     Ta( 1.00)
        C              4.00    12.01070     C ( 1.00)

     No symmetry found



   Cartesian axes

     site n.     atom                  positions (alat units)
         1           Ta  tau(   1) = (   0.0000020   0.6827271  -0.1614180  )
         2           C   tau(   2) = (  -0.0000003  -0.0000008   0.2347305  )
         3           Ta  tau(   3) = (   0.5912766   0.3413688   0.5574684  )
         4           C   tau(   4) = (   0.0000029   0.6827292   1.0709545  )
         5           Ta  tau(   5) = (  -0.0000004  -0.0000009   1.5238175  )
         6           C   tau(   6) = (   0.5912766   0.3413690   2.0864468  )
         7           Ta  tau(   7) = (   0.0000043   0.6827325   2.5425670  )

     number of k points=    74  Marzari-Vanderbilt smearing, width (Ry)=  0.0010
                       cart. coord. in units 2pi/alat
        k(    1) = (   0.0000000   0.0000000   0.0000000), wk =   0.0138889
        k(    2) = (  -0.0000004   0.0813727   0.0000000), wk =   0.0277778
        k(    3) = (  -0.0000008   0.1627454   0.0000000), wk =   0.0277778
        k(    4) = (  -0.0000011   0.2441180   0.0000000), wk =   0.0277778
        k(    5) = (  -0.0000015   0.3254907   0.0000000), wk =   0.0277778
        k(    6) = (  -0.0000019   0.4068634   0.0000000), wk =   0.0277778
        k(    7) = (   0.0000023  -0.4882361   0.0000000), wk =   0.0138889
        k(    8) = (   0.0704691   0.0406860   0.0000000), wk =   0.0277778
        k(    9) = (   0.0704687   0.1220587   0.0000000), wk =   0.0277778
        k(   10) = (   0.0704683   0.2034314   0.0000000), wk =   0.0277778
        k(   11) = (   0.0704679   0.2848041   0.0000000), wk =   0.0277778
        k(   12) = (   0.0704675   0.3661767   0.0000000), wk =   0.0277778
        k(   13) = (   0.0704672   0.4475494   0.0000000), wk =   0.0277778
        k(   14) = (   0.0704713  -0.4475501   0.0000000), wk =   0.0277778
        k(   15) = (   0.0704709  -0.3661774   0.0000000), wk =   0.0277778
        k(   16) = (   0.0704706  -0.2848047   0.0000000), wk =   0.0277778
        k(   17) = (   0.0704702  -0.2034320   0.0000000), wk =   0.0277778
        k(   18) = (   0.0704698  -0.1220593   0.0000000), wk =   0.0277778
        k(   19) = (   0.0704694  -0.0406867   0.0000000), wk =   0.0277778
        k(   20) = (   0.1409381   0.0813720   0.0000000), wk =   0.0277778
        k(   21) = (   0.1409377   0.1627447   0.0000000), wk =   0.0277778
        k(   22) = (   0.1409374   0.2441174   0.0000000), wk =   0.0277778
        k(   23) = (   0.1409370   0.3254901   0.0000000), wk =   0.0277778
        k(   24) = (   0.1409366   0.4068627   0.0000000), wk =   0.0277778
        k(   25) = (   0.1409362   0.4882354   0.0000000), wk =   0.0277778
        k(   26) = (   0.1409404  -0.4068641   0.0000000), wk =   0.0277778
        k(   27) = (   0.1409400  -0.3254914   0.0000000), wk =   0.0277778
        k(   28) = (   0.1409396  -0.2441187   0.0000000), wk =   0.0277778
        k(   29) = (   0.1409392  -0.1627460   0.0000000), wk =   0.0277778
        k(   30) = (   0.1409389  -0.0813733   0.0000000), wk =   0.0277778
        k(   31) = (   0.1409385  -0.0000007   0.0000000), wk =   0.0277778
        k(   32) = (   0.2114072   0.1220580   0.0000000), wk =   0.0277778
        k(   33) = (   0.2114068   0.2034307   0.0000000), wk =   0.0277778
        k(   34) = (   0.2114064   0.2848034   0.0000000), wk =   0.0277778
        k(   35) = (   0.2114060   0.3661761   0.0000000), wk =   0.0277778
        k(   36) = (   0.2114057   0.4475488   0.0000000), wk =   0.0277778
        k(   37) = (   0.2114053   0.5289214   0.0000000), wk =   0.0277778
        k(   38) = (   0.2114094  -0.3661780   0.0000000), wk =   0.0277778
        k(   39) = (   0.2114091  -0.2848054   0.0000000), wk =   0.0277778
        k(   40) = (   0.2114087  -0.2034327   0.0000000), wk =   0.0277778
        k(   41) = (   0.2114083  -0.1220600   0.0000000), wk =   0.0277778
        k(   42) = (   0.2114079  -0.0406873   0.0000000), wk =   0.0277778
        k(   43) = (   0.2114075   0.0406854   0.0000000), wk =   0.0277778
        k(   44) = (   0.2818762   0.1627441   0.0000000), wk =   0.0277778
        k(   45) = (   0.2818758   0.2441167   0.0000000), wk =   0.0277778
        k(   46) = (   0.2818755   0.3254894   0.0000000), wk =   0.0277778
        k(   47) = (   0.2818751   0.4068621   0.0000000), wk =   0.0277778
        k(   48) = (   0.2818747   0.4882348   0.0000000), wk =   0.0277778
        k(   49) = (   0.2818743   0.5696074   0.0000000), wk =   0.0277778
        k(   50) = (   0.2818785  -0.3254920   0.0000000), wk =   0.0277778
        k(   51) = (   0.2818781  -0.2441193   0.0000000), wk =   0.0277778
        k(   52) = (   0.2818777  -0.1627467   0.0000000), wk =   0.0277778
        k(   53) = (   0.2818773  -0.0813740   0.0000000), wk =   0.0277778
        k(   54) = (   0.2818770  -0.0000013   0.0000000), wk =   0.0277778
        k(   55) = (   0.2818766   0.0813714   0.0000000), wk =   0.0277778
        k(   56) = (   0.3523453   0.2034301   0.0000000), wk =   0.0277778
        k(   57) = (   0.3523449   0.2848027   0.0000000), wk =   0.0277778
        k(   58) = (   0.3523445   0.3661754   0.0000000), wk =   0.0277778
        k(   59) = (   0.3523441   0.4475481   0.0000000), wk =   0.0277778
        k(   60) = (   0.3523438   0.5289208   0.0000000), wk =   0.0277778
        k(   61) = (   0.3523434   0.6102935   0.0000000), wk =   0.0277778
        k(   62) = (   0.3523475  -0.2848060   0.0000000), wk =   0.0277778
        k(   63) = (   0.3523472  -0.2034333   0.0000000), wk =   0.0277778
        k(   64) = (   0.3523468  -0.1220607   0.0000000), wk =   0.0277778
        k(   65) = (   0.3523464  -0.0406880   0.0000000), wk =   0.0277778
        k(   66) = (   0.3523460   0.0406847   0.0000000), wk =   0.0277778
        k(   67) = (   0.3523456   0.1220574   0.0000000), wk =   0.0277778
        k(   68) = (  -0.4228143  -0.2441161   0.0000000), wk =   0.0138889
        k(   69) = (  -0.4228147  -0.1627434   0.0000000), wk =   0.0277778
        k(   70) = (  -0.4228151  -0.0813707   0.0000000), wk =   0.0277778
        k(   71) = (  -0.4228155   0.0000020   0.0000000), wk =   0.0277778
        k(   72) = (  -0.4228158   0.0813746   0.0000000), wk =   0.0277778
        k(   73) = (  -0.4228162   0.1627473   0.0000000), wk =   0.0277778
        k(   74) = (  -0.4228121  -0.7323522   0.0000000), wk =   0.0138889

     Dense  grid:   167647 G-vectors     FFT dimensions: (  45,  45, 216)

     Smooth grid:    77961 G-vectors     FFT dimensions: (  36,  36, 180)

     Estimated max dynamical RAM per process >       1.20 GB

     Estimated total dynamical RAM >       2.39 GB

     Check: negative core charge=   -0.000002

     Initial potential from superposition of free atoms

     starting charge  119.99679, renormalised to  120.00000
     Starting wfcs are   80 randomized atomic wfcs

     total cpu time spent up to now is       13.0 secs

     Self-consistent Calculation

     iteration #  1     ecut=    60.00 Ry     beta= 0.70
     CG style diagonalization
     ethr =  1.00E-02,  avg # of iterations =  2.2

     total cpu time spent up to now is       53.7 secs

     total energy              =   -2754.44506139 Ry
     estimated scf accuracy    <       5.49923666 Ry

     iteration #  2     ecut=    60.00 Ry     beta= 0.70
     CG style diagonalization
     c_bands:  1 eigenvalues not converged
     c_bands:  1 eigenvalues not converged
     c_bands:  1 eigenvalues not converged
     c_bands:  1 eigenvalues not converged
     c_bands:  1 eigenvalues not converged
     ethr =  4.58E-03,  avg # of iterations =  4.0

     total cpu time spent up to now is      112.6 secs

     total energy              =   -2743.84619988 Ry
     estimated scf accuracy    <     436.53059103 Ry

     iteration #  3     ecut=    60.00 Ry     beta= 0.70
     CG style diagonalization
     ethr =  4.58E-03,  avg # of iterations =  4.7

     total cpu time spent up to now is      185.6 secs

     total energy              =   -2752.76631058 Ry
     estimated scf accuracy    <      92.96194265 Ry

     iteration #  4     ecut=    60.00 Ry     beta= 0.70
     CG style diagonalization
     ethr =  4.58E-03,  avg # of iterations =  3.8

     total cpu time spent up to now is      241.4 secs

     total energy              =   -2757.39568043 Ry
     estimated scf accuracy    <      20.02709742 Ry

     iteration #  5     ecut=    60.00 Ry     beta= 0.70
     CG style diagonalization
     ethr =  4.58E-03,  avg # of iterations =  3.4

     total cpu time spent up to now is      290.1 secs

     total energy              =   -2758.43351971 Ry
     estimated scf accuracy    <       4.36053234 Ry

     iteration #  6     ecut=    60.00 Ry     beta= 0.70
     CG style diagonalization
     ethr =  3.63E-03,  avg # of iterations =  3.1

     total cpu time spent up to now is      333.2 secs

     total energy              =   -2758.60720864 Ry
     estimated scf accuracy    <       0.88384940 Ry

     iteration #  7     ecut=    60.00 Ry     beta= 0.70
     CG style diagonalization
     ethr =  7.37E-04,  avg # of iterations =  3.3

     total cpu time spent up to now is      379.4 secs

     total energy              =   -2758.64656282 Ry
     estimated scf accuracy    <       0.67961858 Ry

     iteration #  8     ecut=    60.00 Ry     beta= 0.70
     CG style diagonalization
     ethr =  5.66E-04,  avg # of iterations =  3.2

     total cpu time spent up to now is      424.7 secs

     total energy              =   -2758.64743192 Ry
     estimated scf accuracy    <       0.27443659 Ry

     iteration #  9     ecut=    60.00 Ry     beta= 0.70
     CG style diagonalization
     ethr =  2.29E-04,  avg # of iterations =  3.3

     total cpu time spent up to now is      471.1 secs

     total energy              =   -2758.65994438 Ry
     estimated scf accuracy    <       0.42025711 Ry

     iteration # 10     ecut=    60.00 Ry     beta= 0.70
     CG style diagonalization
     ethr =  2.29E-04,  avg # of iterations =  3.2

     total cpu time spent up to now is      515.8 secs

     total energy              =   -2758.67423450 Ry
     estimated scf accuracy    <       0.06849888 Ry

     iteration # 11     ecut=    60.00 Ry     beta= 0.70
     CG style diagonalization
     c_bands:  1 eigenvalues not converged
     c_bands:  1 eigenvalues not converged
     ethr =  5.71E-05,  avg # of iterations =  3.3

     negative rho (up, down):  1.079E-07 0.000E+00

     total cpu time spent up to now is      563.6 secs

     total energy              =   -2758.67564690 Ry
     estimated scf accuracy    <       0.00518680 Ry

     iteration # 12     ecut=    60.00 Ry     beta= 0.70
     CG style diagonalization
     c_bands:  1 eigenvalues not converged
     c_bands:  1 eigenvalues not converged
     c_bands:  1 eigenvalues not converged
     c_bands:  1 eigenvalues not converged
     c_bands:  1 eigenvalues not converged
     c_bands:  1 eigenvalues not converged
     c_bands:  1 eigenvalues not converged
     c_bands:  1 eigenvalues not converged
     c_bands:  1 eigenvalues not converged
     c_bands:  1 eigenvalues not converged
     c_bands:  1 eigenvalues not converged
     ethr =  4.32E-06,  avg # of iterations =  4.6

     total cpu time spent up to now is      633.3 secs

     total energy              =   -2758.67794044 Ry
     estimated scf accuracy    <       0.01298586 Ry

     iteration # 13     ecut=    60.00 Ry     beta= 0.70
     CG style diagonalization
     ethr =  4.32E-06,  avg # of iterations =  3.4
     Minimization algorithm failed to find Fermi energy: reverting to bisection
     Possible cause: smearing is larger than the electronic band-gap.

     total cpu time spent up to now is      682.0 secs

     total energy              =   -2758.67856912 Ry
     estimated scf accuracy    <       0.00469677 Ry

     iteration # 14     ecut=    60.00 Ry     beta= 0.70
     CG style diagonalization
     c_bands:  1 eigenvalues not converged
     ethr =  3.91E-06,  avg # of iterations =  3.2

     total cpu time spent up to now is      726.4 secs

     total energy              =   -2758.67860634 Ry
     estimated scf accuracy    <       0.00189918 Ry

     iteration # 15     ecut=    60.00 Ry     beta= 0.70
     CG style diagonalization
     c_bands:  1 eigenvalues not converged
     c_bands:  1 eigenvalues not converged
     c_bands:  1 eigenvalues not converged
     ethr =  1.58E-06,  avg # of iterations =  3.2

     total cpu time spent up to now is      771.4 secs

     total energy              =   -2758.67855236 Ry
     estimated scf accuracy    <       0.00131997 Ry

     iteration # 16     ecut=    60.00 Ry     beta= 0.70
     CG style diagonalization
     ethr =  1.10E-06,  avg # of iterations =  3.2

     total cpu time spent up to now is      814.9 secs

     total energy              =   -2758.67859670 Ry
     estimated scf accuracy    <       0.00028779 Ry

     iteration # 17     ecut=    60.00 Ry     beta= 0.70
     CG style diagonalization
     c_bands:  1 eigenvalues not converged
     c_bands:  1 eigenvalues not converged
     ethr =  2.40E-07,  avg # of iterations =  3.3

     total cpu time spent up to now is      861.4 secs

     total energy              =   -2758.67862483 Ry
     estimated scf accuracy    <       0.00007175 Ry

     iteration # 18     ecut=    60.00 Ry     beta= 0.70
     CG style diagonalization
     c_bands:  1 eigenvalues not converged
     ethr =  5.98E-08,  avg # of iterations =  3.3

     total cpu time spent up to now is      907.0 secs

     total energy              =   -2758.67863247 Ry
     estimated scf accuracy    <       0.00001419 Ry

     iteration # 19     ecut=    60.00 Ry     beta= 0.70
     CG style diagonalization
     ethr =  1.18E-08,  avg # of iterations =  3.3

     total cpu time spent up to now is      952.9 secs

     total energy              =   -2758.67863373 Ry
     estimated scf accuracy    <       0.00000666 Ry

     iteration # 20     ecut=    60.00 Ry     beta= 0.70
     CG style diagonalization
     ethr =  5.55E-09,  avg # of iterations =  3.2

     total cpu time spent up to now is      997.9 secs

     total energy              =   -2758.67863439 Ry
     estimated scf accuracy    <       0.00000514 Ry

     iteration # 21     ecut=    60.00 Ry     beta= 0.70
     CG style diagonalization
     ethr =  4.28E-09,  avg # of iterations =  3.1

     total cpu time spent up to now is     1040.5 secs

     total energy              =   -2758.67863465 Ry
     estimated scf accuracy    <       0.00000152 Ry

     iteration # 22     ecut=    60.00 Ry     beta= 0.70
     CG style diagonalization
     ethr =  1.27E-09,  avg # of iterations =  3.2

     total cpu time spent up to now is     1084.5 secs

     total energy              =   -2758.67863476 Ry
     estimated scf accuracy    <       0.00000008 Ry

     iteration # 23     ecut=    60.00 Ry     beta= 0.70
     CG style diagonalization
     ethr =  6.90E-11,  avg # of iterations =  3.9

     total cpu time spent up to now is     1140.8 secs

     total energy              =   -2758.67863482 Ry
     estimated scf accuracy    <       0.00000021 Ry

     iteration # 24     ecut=    60.00 Ry     beta= 0.70
     CG style diagonalization
     ethr =  6.90E-11,  avg # of iterations =  3.1

     total cpu time spent up to now is     1183.9 secs

     total energy              =   -2758.67863482 Ry
     estimated scf accuracy    <       0.00000017 Ry

     iteration # 25     ecut=    60.00 Ry     beta= 0.70
     CG style diagonalization
     ethr =  6.90E-11,  avg # of iterations =  3.0

     total cpu time spent up to now is     1225.2 secs

     total energy              =   -2758.67863482 Ry
     estimated scf accuracy    <       0.00000002 Ry

     iteration # 26     ecut=    60.00 Ry     beta= 0.70
     CG style diagonalization
     ethr =  1.63E-11,  avg # of iterations =  3.1

     total cpu time spent up to now is     1267.8 secs

     total energy              =   -2758.67863483 Ry
     estimated scf accuracy    <       0.00000003 Ry

     iteration # 27     ecut=    60.00 Ry     beta= 0.70
     CG style diagonalization
     ethr =  1.63E-11,  avg # of iterations =  3.1

     total cpu time spent up to now is     1311.1 secs

     total energy              =   -2758.67863483 Ry
     estimated scf accuracy    <          1.5E-09 Ry

     iteration # 28     ecut=    60.00 Ry     beta= 0.70
     CG style diagonalization
     ethr =  1.22E-12,  avg # of iterations =  3.6

     total cpu time spent up to now is     1362.9 secs

     total energy              =   -2758.67863483 Ry
     estimated scf accuracy    <          1.8E-09 Ry

     iteration # 29     ecut=    60.00 Ry     beta= 0.70
     CG style diagonalization
     ethr =  1.22E-12,  avg # of iterations =  3.2

     total cpu time spent up to now is     1406.8 secs

     total energy              =   -2758.67863483 Ry
     estimated scf accuracy    <          6.7E-10 Ry

     iteration # 30     ecut=    60.00 Ry     beta= 0.70
     CG style diagonalization
     ethr =  5.58E-13,  avg # of iterations =  3.2

     total cpu time spent up to now is     1450.5 secs

     total energy              =   -2758.67863483 Ry
     estimated scf accuracy    <          2.5E-10 Ry

     iteration # 31     ecut=    60.00 Ry     beta= 0.70
     CG style diagonalization
     ethr =  2.07E-13,  avg # of iterations =  3.4

     total cpu time spent up to now is     1497.7 secs

     total energy              =   -2758.67863483 Ry
     estimated scf accuracy    <          3.6E-10 Ry

     iteration # 32     ecut=    60.00 Ry     beta= 0.70
     CG style diagonalization
     ethr =  2.07E-13,  avg # of iterations =  3.2

     total cpu time spent up to now is     1542.0 secs

     total energy              =   -2758.67863483 Ry
     estimated scf accuracy    <          7.4E-11 Ry

     iteration # 33     ecut=    60.00 Ry     beta= 0.70
     CG style diagonalization
     ethr =  1.00E-13,  avg # of iterations =  3.1

     total cpu time spent up to now is     1584.2 secs

     total energy              =   -2758.67863483 Ry
     estimated scf accuracy    <          1.6E-11 Ry

     iteration # 34     ecut=    60.00 Ry     beta= 0.70
     CG style diagonalization
     ethr =  1.00E-13,  avg # of iterations =  3.0

     total cpu time spent up to now is     1624.8 secs

     total energy              =   -2758.67863483 Ry
     estimated scf accuracy    <          4.8E-12 Ry

     iteration # 35     ecut=    60.00 Ry     beta= 0.70
     CG style diagonalization
     ethr =  1.00E-13,  avg # of iterations =  3.0

     total cpu time spent up to now is     1665.3 secs

     total energy              =   -2758.67863483 Ry
     estimated scf accuracy    <          3.3E-12 Ry

     iteration # 36     ecut=    60.00 Ry     beta= 0.70
     CG style diagonalization
     ethr =  1.00E-13,  avg # of iterations =  3.0

     total cpu time spent up to now is     1705.9 secs

     total energy              =   -2758.67863483 Ry
     estimated scf accuracy    <          1.2E-11 Ry

     iteration # 37     ecut=    60.00 Ry     beta= 0.70
     CG style diagonalization
     ethr =  1.00E-13,  avg # of iterations =  3.0

     total cpu time spent up to now is     1746.4 secs

     total energy              =   -2758.67863483 Ry
     estimated scf accuracy    <          1.6E-12 Ry

     iteration # 38     ecut=    60.00 Ry     beta= 0.70
     CG style diagonalization
     ethr =  1.00E-13,  avg # of iterations =  3.0

     total cpu time spent up to now is     1786.9 secs

     End of self-consistent calculation

          k = 0.0000 0.0000 0.0000 (  9677 PWs)   bands (ev):

   -61.4435 -60.9165 -60.6766 -60.5287 -27.8076 -27.6564 -27.6564 -27.3840
   -27.3766 -27.0930 -27.0930 -27.0601 -27.0601 -26.8756 -26.7650 -26.7650
   -13.2395 -13.2276 -13.2276 -13.2207 -13.2207 -13.2162 -13.2028 -12.7427
   -12.7218 -12.7218 -12.6912 -12.6912 -12.6647 -12.6507 -12.4222 -12.4016
   -12.4012 -12.4012 -12.3992 -12.3992 -12.3836 -12.3461 -12.3173 -12.3173
   -12.2789 -12.2789 -12.2516 -12.2343  -4.7367  -3.3956  -2.2322   1.5566
     3.0728   3.1089   3.1091   5.1615   5.1616   5.1999   6.4806   6.4807
     6.8830   6.8832   7.2247   7.5255   8.3159   8.3161   8.6364   9.1614
     9.1711   9.1712   9.4214   9.4216   9.5201  10.5393  10.9662  10.9676

          k =-0.0000 0.0814 0.0000 (  9680 PWs)   bands (ev):

   -61.4430 -60.9161 -60.6757 -60.5286 -27.8055 -27.6678 -27.6591 -27.3816
   -27.3746 -27.1038 -27.0956 -27.0801 -27.0656 -26.8776 -26.7685 -26.7657
   -13.2392 -13.2279 -13.2276 -13.2208 -13.2204 -13.2157 -13.2036 -12.7424
   -12.7221 -12.7218 -12.6913 -12.6910 -12.6642 -12.6515 -12.4214 -12.4015
   -12.4010 -12.4009 -12.3993 -12.3990 -12.3846 -12.3456 -12.3178 -12.3174
   -12.2790 -12.2786 -12.2511 -12.2351  -4.6295  -3.3197  -2.2263   1.6927
     2.8064   3.1712   3.3459   4.8273   5.1773   5.4867   5.9519   6.3249
     6.7269   7.0705   7.4095   7.6039   8.1579   8.3361   8.4640   8.8811
     9.2750   9.2930   9.4224   9.6461   9.7399  10.7831  10.8848  10.9781

          k =-0.0000 0.1627 0.0000 (  9710 PWs)   bands (ev):

   -61.4418 -60.9149 -60.6733 -60.5284 -27.7998 -27.6988 -27.6665 -27.3766
   -27.3693 -27.1331 -27.1289 -27.1028 -27.0803 -26.8888 -26.7763 -26.7679
   -13.2385 -13.2288 -13.2278 -13.2211 -13.2197 -13.2140 -13.2056 -12.7417
   -12.7232 -12.7222 -12.6915 -12.6903 -12.6626 -12.6535 -12.4193 -12.4024
   -12.4007 -12.3999 -12.3991 -12.3983 -12.3870 -12.3446 -12.3191 -12.3179
   -12.2792 -12.2777 -12.2493 -12.2373  -4.3289  -3.1114  -2.2140   2.0319
     2.6175   3.3323   3.4799   4.5749   5.0490   5.1898   5.6548   6.0969
     6.4000   7.3441   7.4458   7.4929   7.9814   8.5271   8.5489   8.6892
     9.3228   9.3548   9.6230   9.8917   9.9969  11.0088  11.0510  11.1783

          k =-0.0000 0.2441 0.0000 (  9742 PWs)   bands (ev):

   -61.4402 -60.9133 -60.6700 -60.5281 -27.7921 -27.7406 -27.6766 -27.3711
   -27.3654 -27.1857 -27.1727 -27.1125 -27.1000 -26.9095 -26.7863 -26.7712
   -13.2376 -13.2302 -13.2281 -13.2214 -13.2188 -13.2115 -13.2083 -12.7407
   -12.7246 -12.7225 -12.6916 -12.6893 -12.6604 -12.6562 -12.4165 -12.4039
   -12.4009 -12.3995 -12.3974 -12.3970 -12.3901 -12.3432 -12.3209 -12.3185
   -12.2795 -12.2765 -12.2467 -12.2401  -3.9049  -2.8259  -2.1854   2.1225
     2.9053   3.4324   3.5184   4.1990   4.6000   5.1432   5.4814   5.9749
     6.0514   7.1933   7.3518   7.9229   7.9282   8.7169   8.7656   8.9502
     9.3794   9.5216   9.8161   9.8416  10.4567  11.0206  11.3044  11.7125

          k =-0.0000 0.3255 0.0000 (  9768 PWs)   bands (ev):

   -61.4385 -60.9117 -60.6666 -60.5278 -27.7859 -27.7806 -27.6867 -27.3712
   -27.3657 -27.2301 -27.2122 -27.1223 -27.1192 -26.9293 -26.7984 -26.7750
   -13.2367 -13.2314 -13.2286 -13.2216 -13.2178 -13.2108 -13.2091 -12.7397
   -12.7259 -12.7229 -12.6918 -12.6884 -12.6588 -12.6582 -12.4142 -12.4052
   -12.4016 -12.3991 -12.3957 -12.3951 -12.3926 -12.3419 -12.3225 -12.3191
   -12.2797 -12.2752 -12.2443 -12.2430  -3.4973  -2.5386  -2.0776   1.8771
     3.1161   3.5000   3.6409   3.9184   4.6502   5.0709   5.1706   5.7086
     5.9836   7.2531   7.4421   7.8868   8.4774   8.8031   9.0216   9.4501
     9.4878   9.8084   9.9470  10.1821  10.6236  10.9341  11.5236  11.9489

          k =-0.0000 0.4069 0.0000 (  9758 PWs)   bands (ev):

   -61.4373 -60.9105 -60.6641 -60.5276 -27.8122 -27.7789 -27.6941 -27.3846
   -27.3623 -27.2530 -27.2409 -27.1330 -27.1294 -26.9405 -26.8099 -26.7779
   -13.2360 -13.2323 -13.2290 -13.2217 -13.2170 -13.2125 -13.2073 -12.7389
   -12.7269 -12.7232 -12.6918 -12.6876 -12.6606 -12.6565 -12.4126 -12.4061
   -12.4025 -12.3986 -12.3952 -12.3933 -12.3932 -12.3409 -12.3237 -12.3196
   -12.2798 -12.2743 -12.2449 -12.2423  -3.2667  -2.3101  -1.8622   1.5165
     2.8243   3.6780   3.7272   4.2128   4.6179   4.9803   5.0260   5.4888
     6.0510   7.3876   7.7915   7.9453   8.7731   8.9981   9.2780   9.5464
     9.8922  10.1836  10.2601  10.5072  10.6117  10.9232  11.6416  11.8273

          k = 0.0000-0.4882 0.0000 (  9778 PWs)   bands (ev):

   -61.4369 -60.9101 -60.6632 -60.5276 -27.8231 -27.7771 -27.6968 -27.3918
   -27.3611 -27.2594 -27.2514 -27.1380 -27.1320 -26.9434 -26.8149 -26.7791
   -13.2358 -13.2327 -13.2292 -13.2218 -13.2169 -13.2131 -13.2065 -12.7387
   -12.7272 -12.7233 -12.6919 -12.6874 -12.6613 -12.6558 -12.4122 -12.4065
   -12.4029 -12.3985 -12.3954 -12.3933 -12.3924 -12.3406 -12.3241 -12.3199
   -12.2799 -12.2741 -12.2457 -12.2416  -3.2085  -2.2204  -1.7282   1.3239
     2.7337   3.6802   3.7898   4.3400   4.6100   4.9102   5.0118   5.4329
     6.0876   7.5154   7.9365   8.0292   8.7783   9.2599   9.3639   9.5944
    10.0673  10.2082  10.4682  10.6080  10.7085  11.0235  11.6575  11.7011

          k = 0.0705 0.0407 0.0000 (  9680 PWs)   bands (ev):

   -61.4430 -60.9161 -60.6757 -60.5286 -27.8055 -27.6678 -27.6591 -27.3816
   -27.3746 -27.1037 -27.0956 -27.0801 -27.0655 -26.8776 -26.7685 -26.7657
   -13.2392 -13.2279 -13.2276 -13.2208 -13.2204 -13.2157 -13.2036 -12.7424
   -12.7221 -12.7218 -12.6913 -12.6910 -12.6642 -12.6515 -12.4214 -12.4015
   -12.4010 -12.4009 -12.3993 -12.3990 -12.3846 -12.3456 -12.3178 -12.3174
   -12.2790 -12.2786 -12.2511 -12.2351  -4.6295  -3.3197  -2.2263   1.6927
     2.8064   3.1713   3.3458   4.8272   5.1775   5.4867   5.9518   6.3251
     6.7268   7.0707   7.4095   7.6038   8.1578   8.3363   8.4639   8.8811
     9.2749   9.2931   9.4224   9.6460   9.7398  10.7832  10.8838  10.9780

          k = 0.0705 0.1221 0.0000 (  9690 PWs)   bands (ev):

   -61.4422 -60.9153 -60.6741 -60.5285 -27.8016 -27.6884 -27.6648 -27.3780
   -27.3709 -27.1232 -27.1125 -27.1010 -27.0777 -26.8842 -26.7734 -26.7679
   -13.2387 -13.2285 -13.2277 -13.2209 -13.2200 -13.2145 -13.2050 -12.7419
   -12.7228 -12.7220 -12.6914 -12.6905 -12.6631 -12.6529 -12.4199 -12.4020
   -12.4008 -12.4002 -12.3992 -12.3985 -12.3863 -12.3449 -12.3186 -12.3178
   -12.2791 -12.2780 -12.2498 -12.2366  -4.4253  -3.1775  -2.2178   1.9433
     2.6319   3.2808   3.4728   4.6316   5.1133   5.3818   5.6585   6.0114
     6.6758   7.0342   7.5399   7.6540   8.0293   8.3951   8.4774   8.7596
     9.1698   9.3491   9.5311   9.8996  10.1420  10.7888  11.0282  11.0638

          k = 0.0705 0.2034 0.0000 (  9719 PWs)   bands (ev):

   -61.4408 -60.9139 -60.6712 -60.5282 -27.7949 -27.7233 -27.6750 -27.3729
   -27.3657 -27.1614 -27.1562 -27.1109 -27.0996 -26.8994 -26.7821 -26.7712
   -13.2379 -13.2296 -13.2280 -13.2212 -13.2192 -13.2124 -13.2073 -12.7410
   -12.7240 -12.7224 -12.6915 -12.6897 -12.6612 -12.6552 -12.4175 -12.4032
   -12.4009 -12.3996 -12.3981 -12.3975 -12.3891 -12.3437 -12.3201 -12.3183
   -12.2793 -12.2770 -12.2477 -12.2391  -4.0600  -2.9295  -2.2016   2.2327
     2.6269   3.4144   3.5588   4.4507   4.6159   5.1173   5.6090   5.7654
     6.4154   7.0123   7.5761   7.7398   7.9153   8.5522   8.7650   8.8512
     9.1771   9.4861   9.6955  10.1122  10.3736  10.9447  11.2286  11.3901

          k = 0.0705 0.2848 0.0000 (  9753 PWs)   bands (ev):

   -61.4391 -60.9123 -60.6678 -60.5279 -27.7874 -27.7629 -27.6869 -27.3680
   -27.3655 -27.2090 -27.1942 -27.1230 -27.1223 -26.9183 -26.7950 -26.7738
   -13.2370 -13.2309 -13.2284 -13.2214 -13.2183 -13.2101 -13.2099 -12.7401
   -12.7254 -12.7228 -12.6916 -12.6888 -12.6591 -12.6578 -12.4149 -12.4046
   -12.4013 -12.3992 -12.3962 -12.3960 -12.3919 -12.3423 -12.3218 -12.3190
   -12.2794 -12.2758 -12.2452 -12.2419  -3.6350  -2.6423  -2.1416   2.0984
     3.1229   3.2950   3.7017   3.9584   4.6212   5.0020   5.3015   5.5983
     6.2043   7.1566   7.4356   7.8404   8.1076   8.7511   9.0813   9.2313
     9.3423   9.7505   9.9354  10.1011  10.6018  11.0288  11.5124  11.7332

          k = 0.0705 0.3662 0.0000 (  9754 PWs)   bands (ev):

   -61.4377 -60.9109 -60.6649 -60.5277 -27.7976 -27.7804 -27.6972 -27.3751
   -27.3634 -27.2412 -27.2268 -27.1413 -27.1322 -26.9326 -26.8087 -26.7764
   -13.2362 -13.2319 -13.2289 -13.2215 -13.2175 -13.2120 -13.2079 -12.7392
   -12.7264 -12.7232 -12.6917 -12.6880 -12.6600 -12.6571 -12.4129 -12.4057
   -12.4021 -12.3988 -12.3954 -12.3939 -12.3934 -12.3411 -12.3232 -12.3196
   -12.2795 -12.2748 -12.2443 -12.2429  -3.3158  -2.3827  -1.9730   1.7873
     2.9671   3.4806   3.7970   4.0801   4.5905   4.8963   5.1062   5.4564
     6.0923   7.3457   7.6301   7.8234   8.5702   8.8321   9.3652   9.4110
     9.6842  10.0938  10.2710  10.3883  10.6001  10.9786  11.6792  11.8330

          k = 0.0705 0.4475 0.0000 (  9737 PWs)   bands (ev):

   -61.4369 -60.9101 -60.6632 -60.5276 -27.8169 -27.7769 -27.7031 -27.3854
   -27.3610 -27.2554 -27.2456 -27.1509 -27.1379 -26.9391 -26.8180 -26.7781
   -13.2357 -13.2324 -13.2292 -13.2215 -13.2170 -13.2131 -13.2066 -12.7387
   -12.7270 -12.7234 -12.6917 -12.6876 -12.6612 -12.6558 -12.4118 -12.4062
   -12.4028 -12.3985 -12.3956 -12.3934 -12.3924 -12.3405 -12.3239 -12.3199
   -12.2795 -12.2743 -12.2456 -12.2415  -3.1881  -2.2178  -1.7680   1.4771
     2.7950   3.5924   3.8464   4.3022   4.5055   4.8775   5.0400   5.3571
     6.1076   7.4890   7.8640   7.9510   8.8377   8.9819   9.4774   9.5161
    10.0098  10.3526  10.3937  10.5598  10.6684  11.0386  11.6152  11.8701

          k = 0.0705-0.4476 0.0000 (  9737 PWs)   bands (ev):

   -61.4369 -60.9101 -60.6632 -60.5276 -27.8169 -27.7769 -27.7031 -27.3854
   -27.3610 -27.2554 -27.2456 -27.1509 -27.1379 -26.9391 -26.8180 -26.7781
   -13.2357 -13.2324 -13.2292 -13.2215 -13.2170 -13.2131 -13.2066 -12.7387
   -12.7270 -12.7234 -12.6917 -12.6876 -12.6612 -12.6558 -12.4118 -12.4062
   -12.4028 -12.3985 -12.3956 -12.3934 -12.3924 -12.3405 -12.3239 -12.3199
   -12.2795 -12.2743 -12.2456 -12.2415  -3.1881  -2.2178  -1.7680   1.4771
     2.7950   3.5923   3.8464   4.3022   4.5055   4.8774   5.0401   5.3571
     6.1076   7.4890   7.8640   7.9510   8.8377   8.9819   9.4775   9.5161
    10.0097  10.3526  10.3937  10.5598  10.6683  11.0385  11.6150  11.8682

          k = 0.0705-0.3662 0.0000 (  9754 PWs)   bands (ev):

   -61.4377 -60.9109 -60.6649 -60.5277 -27.7976 -27.7804 -27.6972 -27.3751
   -27.3634 -27.2412 -27.2268 -27.1413 -27.1322 -26.9326 -26.8087 -26.7764
   -13.2362 -13.2319 -13.2289 -13.2215 -13.2175 -13.2120 -13.2079 -12.7392
   -12.7264 -12.7232 -12.6917 -12.6880 -12.6600 -12.6571 -12.4129 -12.4057
   -12.4021 -12.3988 -12.3954 -12.3939 -12.3934 -12.3411 -12.3232 -12.3196
   -12.2795 -12.2748 -12.2443 -12.2429  -3.3158  -2.3827  -1.9730   1.7873
     2.9671   3.4806   3.7970   4.0801   4.5905   4.8963   5.1062   5.4564
     6.0923   7.3457   7.6301   7.8234   8.5701   8.8321   9.3653   9.4110
     9.6842  10.0937  10.2710  10.3883  10.6002  10.9785  11.6771  11.8327

          k = 0.0705-0.2848 0.0000 (  9753 PWs)   bands (ev):

   -61.4391 -60.9123 -60.6678 -60.5279 -27.7874 -27.7629 -27.6869 -27.3680
   -27.3655 -27.2090 -27.1942 -27.1230 -27.1223 -26.9183 -26.7950 -26.7738
   -13.2370 -13.2309 -13.2284 -13.2214 -13.2183 -13.2101 -13.2099 -12.7401
   -12.7254 -12.7228 -12.6916 -12.6888 -12.6591 -12.6578 -12.4149 -12.4046
   -12.4013 -12.3992 -12.3962 -12.3960 -12.3919 -12.3423 -12.3218 -12.3190
   -12.2794 -12.2758 -12.2452 -12.2419  -3.6350  -2.6423  -2.1416   2.0984
     3.1229   3.2950   3.7017   3.9584   4.6212   5.0020   5.3015   5.5983
     6.2043   7.1566   7.4356   7.8404   8.1075   8.7510   9.0813   9.2313
     9.3424   9.7506   9.9354  10.1011  10.6017  11.0282  11.5100  11.7342

          k = 0.0705-0.2034 0.0000 (  9719 PWs)   bands (ev):

   -61.4408 -60.9139 -60.6712 -60.5282 -27.7949 -27.7233 -27.6750 -27.3729
   -27.3657 -27.1614 -27.1563 -27.1109 -27.0996 -26.8994 -26.7821 -26.7712
   -13.2379 -13.2296 -13.2280 -13.2212 -13.2192 -13.2124 -13.2073 -12.7410
   -12.7240 -12.7224 -12.6915 -12.6897 -12.6612 -12.6552 -12.4175 -12.4032
   -12.4009 -12.3996 -12.3981 -12.3975 -12.3891 -12.3437 -12.3201 -12.3183
   -12.2793 -12.2770 -12.2477 -12.2391  -4.0600  -2.9294  -2.2016   2.2327
     2.6269   3.4144   3.5588   4.4507   4.6159   5.1173   5.6090   5.7654
     6.4153   7.0123   7.5761   7.7398   7.9153   8.5522   8.7650   8.8512
     9.1771   9.4862   9.6955  10.1122  10.3737  10.9445  11.2284  11.3909

          k = 0.0705-0.1221 0.0000 (  9690 PWs)   bands (ev):

   -61.4422 -60.9153 -60.6741 -60.5285 -27.8016 -27.6884 -27.6648 -27.3780
   -27.3709 -27.1233 -27.1125 -27.1010 -27.0777 -26.8842 -26.7734 -26.7680
   -13.2387 -13.2285 -13.2277 -13.2209 -13.2200 -13.2145 -13.2050 -12.7419
   -12.7228 -12.7220 -12.6914 -12.6905 -12.6631 -12.6529 -12.4199 -12.4020
   -12.4008 -12.4002 -12.3992 -12.3985 -12.3863 -12.3449 -12.3186 -12.3178
   -12.2791 -12.2780 -12.2498 -12.2366  -4.4253  -3.1775  -2.2178   1.9433
     2.6319   3.2808   3.4728   4.6316   5.1133   5.3818   5.6585   6.0114
     6.6758   7.0341   7.5399   7.6540   8.0293   8.3951   8.4774   8.7596
     9.1698   9.3492   9.5310   9.8995  10.1422  10.7889  11.0261  11.0668

          k = 0.0705-0.0407 0.0000 (  9680 PWs)   bands (ev):

   -61.4430 -60.9161 -60.6757 -60.5286 -27.8055 -27.6678 -27.6591 -27.3816
   -27.3746 -27.1037 -27.0956 -27.0801 -27.0656 -26.8776 -26.7685 -26.7657
   -13.2392 -13.2279 -13.2276 -13.2208 -13.2204 -13.2157 -13.2036 -12.7424
   -12.7221 -12.7218 -12.6913 -12.6910 -12.6642 -12.6515 -12.4214 -12.4015
   -12.4010 -12.4009 -12.3993 -12.3990 -12.3846 -12.3456 -12.3178 -12.3174
   -12.2790 -12.2786 -12.2511 -12.2351  -4.6295  -3.3197  -2.2263   1.6927
     2.8064   3.1713   3.3458   4.8273   5.1774   5.4867   5.9518   6.3250
     6.7268   7.0706   7.4095   7.6039   8.1578   8.3362   8.4640   8.8811
     9.2749   9.2930   9.4224   9.6460   9.7399  10.7828  10.8839  10.9782

          k = 0.1409 0.0814 0.0000 (  9710 PWs)   bands (ev):

   -61.4418 -60.9149 -60.6733 -60.5284 -27.7998 -27.6988 -27.6665 -27.3766
   -27.3693 -27.1331 -27.1289 -27.1028 -27.0803 -26.8888 -26.7763 -26.7679
   -13.2385 -13.2288 -13.2278 -13.2211 -13.2197 -13.2140 -13.2056 -12.7417
   -12.7232 -12.7222 -12.6915 -12.6903 -12.6626 -12.6535 -12.4193 -12.4024
   -12.4007 -12.3999 -12.3991 -12.3983 -12.3870 -12.3446 -12.3191 -12.3179
   -12.2792 -12.2777 -12.2493 -12.2373  -4.3290  -3.1114  -2.2140   2.0319
     2.6174   3.3324   3.4798   4.5748   5.0489   5.1899   5.6548   6.0971
     6.3999   7.3441   7.4460   7.4929   7.9814   8.5272   8.5488   8.6892
     9.3228   9.3549   9.6230   9.8916   9.9969  11.0068  11.0485  11.1785

          k = 0.1409 0.1627 0.0000 (  9719 PWs)   bands (ev):

   -61.4408 -60.9139 -60.6712 -60.5282 -27.7949 -27.7233 -27.6750 -27.3729
   -27.3657 -27.1614 -27.1562 -27.1109 -27.0996 -26.8994 -26.7821 -26.7712
   -13.2379 -13.2296 -13.2280 -13.2212 -13.2192 -13.2124 -13.2073 -12.7410
   -12.7240 -12.7224 -12.6915 -12.6897 -12.6612 -12.6552 -12.4175 -12.4032
   -12.4009 -12.3996 -12.3981 -12.3975 -12.3891 -12.3437 -12.3201 -12.3183
   -12.2793 -12.2770 -12.2477 -12.2391  -4.0600  -2.9295  -2.2016   2.2327
     2.6269   3.4144   3.5588   4.4507   4.6158   5.1174   5.6090   5.7654
     6.4153   7.0123   7.5761   7.7398   7.9153   8.5522   8.7651   8.8512
     9.1771   9.4860   9.6955  10.1122  10.3737  10.9443  11.2298  11.3925

          k = 0.1409 0.2441 0.0000 (  9742 PWs)   bands (ev):

   -61.4393 -60.9125 -60.6683 -60.5279 -27.7883 -27.7534 -27.6898 -27.3684
   -27.3637 -27.1939 -27.1850 -27.1335 -27.1249 -26.9114 -26.7948 -26.7737
   -13.2370 -13.2306 -13.2284 -13.2213 -13.2186 -13.2103 -13.2096 -12.7402
   -12.7251 -12.7229 -12.6915 -12.6891 -12.6593 -12.6575 -12.4151 -12.4042
   -12.4014 -12.3993 -12.3965 -12.3962 -12.3917 -12.3425 -12.3214 -12.3190
   -12.2793 -12.2762 -12.2454 -12.2416  -3.6861  -2.6783  -2.1625   2.2855
     2.8674   3.3569   3.7456   4.0340   4.5886   4.9802   5.2845   5.4638
     6.5661   6.8543   7.4870   7.8183   8.0478   8.6062   9.0889   9.2499
     9.3263   9.6171   9.9377  10.3678  10.4759  11.0547  11.4152  11.6812

          k = 0.1409 0.3255 0.0000 (  9773 PWs)   bands (ev):

   -61.4379 -60.9111 -60.6653 -60.5277 -27.7839 -27.7795 -27.7060 -27.3663
   -27.3640 -27.2217 -27.2122 -27.1649 -27.1404 -26.9225 -26.8119 -26.7747
   -13.2362 -13.2315 -13.2290 -13.2212 -13.2180 -13.2120 -13.2082 -12.7393
   -12.7260 -12.7234 -12.6914 -12.6885 -12.6599 -12.6574 -12.4129 -12.4051
   -12.4019 -12.3990 -12.3959 -12.3943 -12.3937 -12.3413 -12.3227 -12.3198
   -12.2791 -12.2755 -12.2442 -12.2432  -3.3378  -2.4187  -2.0463   2.1496
     3.0216   3.2619   3.8554   4.0020   4.5255   4.9198   4.9841   5.3002
     6.4260   7.1684   7.4024   7.8206   8.2888   8.8515   9.2932   9.3709
     9.6614  10.0544  10.2434  10.4473  10.5781  11.2390  11.5238  11.8375

          k = 0.1409 0.4069 0.0000 (  9773 PWs)   bands (ev):

   -61.4369 -60.9101 -60.6632 -60.5276 -27.8020 -27.7767 -27.7184 -27.3715
   -27.3610 -27.2431 -27.2315 -27.1815 -27.1523 -26.9302 -26.8258 -26.7757
   -13.2356 -13.2320 -13.2295 -13.2211 -13.2176 -13.2136 -13.2067 -12.7387
   -12.7266 -12.7239 -12.6913 -12.6881 -12.6615 -12.6559 -12.4113 -12.4056
   -12.4027 -12.3987 -12.3967 -12.3939 -12.3926 -12.3404 -12.3235 -12.3204
   -12.2789 -12.2750 -12.2459 -12.2416  -3.1452  -2.2101  -1.8499   1.8725
     2.8988   3.3921   3.8945   4.1156   4.5204   4.8060   4.8629   5.2628
     6.3699   7.3381   7.6672   7.8427   8.5896   8.9919   9.4162   9.5289
     9.7568  10.2885  10.5082  10.5610  10.6545  11.3167  11.4766  11.9559

          k = 0.1409 0.4882 0.0000 (  9782 PWs)   bands (ev):

   -61.4365 -60.9097 -60.6624 -60.5275 -27.8092 -27.7751 -27.7231 -27.3741
   -27.3599 -27.2515 -27.2384 -27.1859 -27.1567 -26.9330 -26.8311 -26.7762
   -13.2354 -13.2322 -13.2298 -13.2211 -13.2175 -13.2141 -13.2060 -12.7385
   -12.7267 -12.7241 -12.6913 -12.6879 -12.6621 -12.6553 -12.4109 -12.4057
   -12.4032 -12.3986 -12.3971 -12.3937 -12.3919 -12.3402 -12.3238 -12.3207
   -12.2789 -12.2748 -12.2465 -12.2409  -3.0955  -2.1302  -1.7368   1.7169
     2.8683   3.4672   3.8910   4.0999   4.5058   4.7929   4.9051   5.2184
     6.3715   7.4145   7.7592   7.9553   8.7266   9.0625   9.4818   9.5020
     9.8951  10.1658  10.5646  10.5813  10.7295  11.3773  11.5406  11.8647

          k = 0.1409-0.4069 0.0000 (  9773 PWs)   bands (ev):

   -61.4369 -60.9101 -60.6632 -60.5276 -27.8020 -27.7767 -27.7184 -27.3715
   -27.3610 -27.2431 -27.2315 -27.1815 -27.1523 -26.9302 -26.8258 -26.7757
   -13.2356 -13.2320 -13.2295 -13.2211 -13.2176 -13.2136 -13.2067 -12.7387
   -12.7266 -12.7239 -12.6913 -12.6881 -12.6615 -12.6559 -12.4113 -12.4056
   -12.4027 -12.3987 -12.3967 -12.3939 -12.3926 -12.3404 -12.3235 -12.3204
   -12.2789 -12.2750 -12.2459 -12.2416  -3.1452  -2.2101  -1.8499   1.8725
     2.8988   3.3921   3.8945   4.1156   4.5204   4.8060   4.8629   5.2628
     6.3698   7.3381   7.6672   7.8427   8.5896   8.9919   9.4162   9.5289
     9.7568  10.2886  10.5083  10.5611  10.6545  11.3160  11.4755  11.9547

          k = 0.1409-0.3255 0.0000 (  9773 PWs)   bands (ev):

   -61.4379 -60.9111 -60.6653 -60.5277 -27.7839 -27.7795 -27.7060 -27.3663
   -27.3640 -27.2217 -27.2122 -27.1649 -27.1404 -26.9225 -26.8119 -26.7747
   -13.2362 -13.2315 -13.2290 -13.2212 -13.2180 -13.2120 -13.2082 -12.7393
   -12.7260 -12.7234 -12.6914 -12.6885 -12.6599 -12.6574 -12.4129 -12.4051
   -12.4019 -12.3990 -12.3959 -12.3943 -12.3937 -12.3413 -12.3227 -12.3198
   -12.2791 -12.2755 -12.2442 -12.2432  -3.3378  -2.4187  -2.0463   2.1496
     3.0216   3.2619   3.8554   4.0020   4.5255   4.9198   4.9841   5.3002
     6.4259   7.1684   7.4024   7.8206   8.2888   8.8515   9.2932   9.3709
     9.6615  10.0545  10.2434  10.4474  10.5780  11.2387  11.5238  11.8364

          k = 0.1409-0.2441 0.0000 (  9742 PWs)   bands (ev):

   -61.4393 -60.9125 -60.6683 -60.5279 -27.7883 -27.7533 -27.6898 -27.3684
   -27.3637 -27.1939 -27.1850 -27.1335 -27.1249 -26.9114 -26.7948 -26.7737
   -13.2370 -13.2306 -13.2284 -13.2213 -13.2186 -13.2103 -13.2096 -12.7402
   -12.7251 -12.7229 -12.6915 -12.6891 -12.6593 -12.6575 -12.4151 -12.4042
   -12.4014 -12.3993 -12.3965 -12.3962 -12.3917 -12.3425 -12.3214 -12.3190
   -12.2793 -12.2762 -12.2454 -12.2416  -3.6861  -2.6783  -2.1625   2.2855
     2.8674   3.3569   3.7456   4.0340   4.5886   4.9802   5.2845   5.4638
     6.5661   6.8543   7.4870   7.8183   8.0478   8.6062   9.0889   9.2498
     9.3263   9.6172   9.9377  10.3678  10.4760  11.0547  11.4147  11.6804

          k = 0.1409-0.1627 0.0000 (  9719 PWs)   bands (ev):

   -61.4408 -60.9139 -60.6712 -60.5282 -27.7949 -27.7233 -27.6750 -27.3729
   -27.3657 -27.1614 -27.1562 -27.1109 -27.0996 -26.8994 -26.7821 -26.7712
   -13.2379 -13.2296 -13.2280 -13.2212 -13.2192 -13.2124 -13.2073 -12.7410
   -12.7240 -12.7224 -12.6915 -12.6897 -12.6612 -12.6552 -12.4175 -12.4032
   -12.4009 -12.3996 -12.3981 -12.3975 -12.3891 -12.3437 -12.3201 -12.3183
   -12.2793 -12.2770 -12.2477 -12.2391  -4.0600  -2.9295  -2.2016   2.2327
     2.6269   3.4144   3.5588   4.4507   4.6159   5.1173   5.6091   5.7654
     6.4153   7.0123   7.5761   7.7398   7.9153   8.5522   8.7651   8.8512
     9.1771   9.4861   9.6955  10.1122  10.3737  10.9446  11.2288  11.3918

          k = 0.1409-0.0814 0.0000 (  9710 PWs)   bands (ev):

   -61.4418 -60.9149 -60.6733 -60.5284 -27.7998 -27.6988 -27.6665 -27.3766
   -27.3693 -27.1331 -27.1289 -27.1028 -27.0803 -26.8888 -26.7763 -26.7679
   -13.2385 -13.2288 -13.2278 -13.2211 -13.2197 -13.2140 -13.2056 -12.7417
   -12.7232 -12.7222 -12.6915 -12.6903 -12.6626 -12.6535 -12.4193 -12.4024
   -12.4007 -12.3999 -12.3991 -12.3983 -12.3870 -12.3446 -12.3191 -12.3179
   -12.2792 -12.2777 -12.2493 -12.2373  -4.3290  -3.1114  -2.2140   2.0319
     2.6175   3.3324   3.4798   4.5748   5.0489   5.1898   5.6548   6.0970
     6.4000   7.3441   7.4459   7.4929   7.9814   8.5272   8.5489   8.6892
     9.3228   9.3548   9.6230   9.8916   9.9968  11.0085  11.0483  11.1781

          k = 0.1409-0.0000 0.0000 (  9690 PWs)   bands (ev):

   -61.4422 -60.9153 -60.6741 -60.5285 -27.8016 -27.6884 -27.6648 -27.3780
   -27.3709 -27.1232 -27.1125 -27.1010 -27.0777 -26.8842 -26.7734 -26.7679
   -13.2387 -13.2285 -13.2277 -13.2209 -13.2200 -13.2145 -13.2050 -12.7419
   -12.7228 -12.7220 -12.6914 -12.6905 -12.6631 -12.6529 -12.4199 -12.4020
   -12.4008 -12.4002 -12.3992 -12.3985 -12.3863 -12.3449 -12.3186 -12.3178
   -12.2791 -12.2780 -12.2498 -12.2366  -4.4253  -3.1775  -2.2178   1.9432
     2.6318   3.2809   3.4728   4.6315   5.1133   5.3818   5.6585   6.0114
     6.6758   7.0342   7.5399   7.6540   8.0292   8.3951   8.4774   8.7596
     9.1698   9.3491   9.5311   9.8996  10.1420  10.7887  11.0270  11.0639

          k = 0.2114 0.1221 0.0000 (  9742 PWs)   bands (ev):

   -61.4402 -60.9133 -60.6700 -60.5281 -27.7921 -27.7406 -27.6766 -27.3711
   -27.3654 -27.1857 -27.1727 -27.1125 -27.1000 -26.9095 -26.7863 -26.7712
   -13.2376 -13.2302 -13.2281 -13.2214 -13.2188 -13.2115 -13.2083 -12.7407
   -12.7246 -12.7225 -12.6916 -12.6893 -12.6604 -12.6562 -12.4165 -12.4039
   -12.4009 -12.3995 -12.3974 -12.3970 -12.3901 -12.3432 -12.3209 -12.3185
   -12.2795 -12.2765 -12.2467 -12.2401  -3.9050  -2.8259  -2.1854   2.1224
     2.9052   3.4323   3.5185   4.1989   4.5999   5.1433   5.4814   5.9751
     6.0514   7.1933   7.3518   7.9229   7.9283   8.7169   8.7656   8.9503
     9.3794   9.5217   9.8160   9.8417  10.4569  11.0205  11.3043  11.7178

          k = 0.2114 0.2034 0.0000 (  9753 PWs)   bands (ev):

   -61.4391 -60.9123 -60.6678 -60.5279 -27.7874 -27.7630 -27.6869 -27.3680
   -27.3655 -27.2090 -27.1942 -27.1230 -27.1223 -26.9183 -26.7950 -26.7738
   -13.2370 -13.2309 -13.2284 -13.2214 -13.2183 -13.2101 -13.2099 -12.7401
   -12.7254 -12.7228 -12.6916 -12.6888 -12.6591 -12.6578 -12.4149 -12.4046
   -12.4013 -12.3992 -12.3962 -12.3960 -12.3919 -12.3423 -12.3218 -12.3190
   -12.2794 -12.2758 -12.2452 -12.2419  -3.6351  -2.6424  -2.1416   2.0983
     3.1229   3.2949   3.7017   3.9584   4.6212   5.0021   5.3015   5.5984
     6.2044   7.1566   7.4356   7.8403   8.1075   8.7510   9.0813   9.2313
     9.3424   9.7506   9.9355  10.1010  10.6016  11.0286  11.5118  11.7376

          k = 0.2114 0.2848 0.0000 (  9773 PWs)   bands (ev):

   -61.4379 -60.9111 -60.6653 -60.5277 -27.7839 -27.7795 -27.7060 -27.3663
   -27.3640 -27.2217 -27.2122 -27.1648 -27.1404 -26.9225 -26.8118 -26.7747
   -13.2362 -13.2315 -13.2290 -13.2212 -13.2180 -13.2120 -13.2082 -12.7393
   -12.7260 -12.7234 -12.6914 -12.6885 -12.6599 -12.6574 -12.4129 -12.4051
   -12.4019 -12.3990 -12.3959 -12.3943 -12.3937 -12.3413 -12.3227 -12.3198
   -12.2791 -12.2755 -12.2442 -12.2432  -3.3378  -2.4188  -2.0464   2.1496
     3.0216   3.2619   3.8554   4.0020   4.5255   4.9198   4.9841   5.3002
     6.4260   7.1684   7.4024   7.8206   8.2888   8.8515   9.2932   9.3709
     9.6615  10.0544  10.2434  10.4474  10.5781  11.2386  11.5233  11.8359

          k = 0.2114 0.3662 0.0000 (  9756 PWs)   bands (ev):

   -61.4369 -60.9101 -60.6632 -60.5276 -27.7920 -27.7766 -27.7287 -27.3637
   -27.3610 -27.2276 -27.2220 -27.2065 -27.1619 -26.9255 -26.8305 -26.7743
   -13.2355 -13.2317 -13.2296 -13.2207 -13.2180 -13.2137 -13.2066 -12.7387
   -12.7262 -12.7241 -12.6910 -12.6884 -12.6616 -12.6558 -12.4111 -12.4052
   -12.4025 -12.3988 -12.3971 -12.3941 -12.3926 -12.3404 -12.3232 -12.3207
   -12.2785 -12.2754 -12.2460 -12.2415  -3.1225  -2.2042  -1.8930   2.2015
     2.8203   3.2862   3.8858   4.0749   4.5843   4.5980   4.8237   5.2689
     6.6018   7.2903   7.4225   7.8064   8.4239   9.0850   9.3559   9.4651
     9.7330  10.2441  10.4991  10.6173  10.6499  11.4384  11.5384  11.9388

          k = 0.2114 0.4475 0.0000 (  9761 PWs)   bands (ev):

   -61.4363 -60.9095 -60.6619 -60.5275 -27.7935 -27.7740 -27.7459 -27.3593
   -27.3584 -27.2461 -27.2238 -27.2179 -27.1781 -26.9280 -26.8421 -26.7739
   -13.2351 -13.2317 -13.2302 -13.2203 -13.2182 -13.2148 -13.2057 -12.7383
   -12.7262 -12.7247 -12.6907 -12.6884 -12.6626 -12.6549 -12.4100 -12.4050
   -12.4032 -12.3987 -12.3982 -12.3940 -12.3916 -12.3399 -12.3234 -12.3212
   -12.2779 -12.2756 -12.2471 -12.2405  -3.0282  -2.0708  -1.7545   2.1514
     2.8686   3.2023   3.8224   4.1170   4.3885   4.6716   4.8156   5.2323
     6.7222   7.4093   7.5959   7.8639   8.4399   9.1859   9.3514   9.4996
     9.6427  10.0210  10.5011  10.6787  10.8872  11.5024  11.7189  11.9165

          k = 0.2114 0.5289 0.0000 (  9761 PWs)   bands (ev):

   -61.4363 -60.9095 -60.6619 -60.5275 -27.7935 -27.7740 -27.7459 -27.3593
   -27.3584 -27.2461 -27.2238 -27.2179 -27.1781 -26.9280 -26.8421 -26.7739
   -13.2351 -13.2317 -13.2302 -13.2203 -13.2182 -13.2148 -13.2057 -12.7383
   -12.7262 -12.7247 -12.6907 -12.6884 -12.6626 -12.6549 -12.4100 -12.4050
   -12.4032 -12.3987 -12.3982 -12.3940 -12.3916 -12.3399 -12.3234 -12.3212
   -12.2779 -12.2756 -12.2471 -12.2405  -3.0282  -2.0708  -1.7544   2.1514
     2.8686   3.2023   3.8224   4.1170   4.3885   4.6716   4.8156   5.2323
     6.7222   7.4093   7.5959   7.8639   8.4399   9.1859   9.3515   9.4996
     9.6427  10.0211  10.5011  10.6787  10.8875  11.5027  11.7189  11.9165

          k = 0.2114-0.3662 0.0000 (  9756 PWs)   bands (ev):

   -61.4369 -60.9101 -60.6632 -60.5276 -27.7920 -27.7766 -27.7287 -27.3637
   -27.3610 -27.2276 -27.2220 -27.2065 -27.1619 -26.9255 -26.8305 -26.7743
   -13.2355 -13.2317 -13.2296 -13.2207 -13.2180 -13.2137 -13.2066 -12.7387
   -12.7262 -12.7241 -12.6910 -12.6884 -12.6616 -12.6558 -12.4111 -12.4052
   -12.4025 -12.3988 -12.3971 -12.3941 -12.3926 -12.3404 -12.3232 -12.3207
   -12.2785 -12.2754 -12.2460 -12.2415  -3.1225  -2.2042  -1.8930   2.2015
     2.8203   3.2862   3.8858   4.0749   4.5844   4.5979   4.8237   5.2689
     6.6018   7.2903   7.4225   7.8064   8.4239   9.0850   9.3559   9.4651
     9.7331  10.2441  10.4991  10.6173  10.6499  11.4383  11.5377  11.9343

          k = 0.2114-0.2848 0.0000 (  9773 PWs)   bands (ev):

   -61.4379 -60.9111 -60.6653 -60.5277 -27.7839 -27.7795 -27.7060 -27.3663
   -27.3640 -27.2217 -27.2122 -27.1649 -27.1404 -26.9225 -26.8118 -26.7747
   -13.2362 -13.2315 -13.2290 -13.2212 -13.2180 -13.2120 -13.2082 -12.7393
   -12.7260 -12.7234 -12.6914 -12.6885 -12.6599 -12.6574 -12.4129 -12.4051
   -12.4019 -12.3990 -12.3959 -12.3943 -12.3937 -12.3413 -12.3227 -12.3198
   -12.2791 -12.2755 -12.2442 -12.2432  -3.3378  -2.4187  -2.0463   2.1496
     3.0216   3.2619   3.8554   4.0020   4.5255   4.9198   4.9841   5.3002
     6.4259   7.1684   7.4024   7.8206   8.2888   8.8515   9.2932   9.3709
     9.6616  10.0544  10.2434  10.4474  10.5781  11.2387  11.5239  11.8387

          k = 0.2114-0.2034 0.0000 (  9753 PWs)   bands (ev):

   -61.4391 -60.9123 -60.6678 -60.5279 -27.7874 -27.7629 -27.6869 -27.3680
   -27.3655 -27.2090 -27.1942 -27.1230 -27.1223 -26.9183 -26.7950 -26.7738
   -13.2370 -13.2309 -13.2284 -13.2214 -13.2183 -13.2101 -13.2099 -12.7401
   -12.7254 -12.7228 -12.6916 -12.6888 -12.6591 -12.6578 -12.4149 -12.4046
   -12.4013 -12.3992 -12.3962 -12.3960 -12.3919 -12.3423 -12.3218 -12.3190
   -12.2794 -12.2758 -12.2452 -12.2419  -3.6351  -2.6423  -2.1416   2.0983
     3.1229   3.2950   3.7017   3.9584   4.6212   5.0020   5.3015   5.5983
     6.2043   7.1566   7.4356   7.8403   8.1075   8.7510   9.0814   9.2313
     9.3424   9.7506   9.9354  10.1011  10.6016  11.0282  11.5102  11.7304

          k = 0.2114-0.1221 0.0000 (  9742 PWs)   bands (ev):

   -61.4402 -60.9133 -60.6700 -60.5281 -27.7921 -27.7406 -27.6766 -27.3711
   -27.3654 -27.1857 -27.1727 -27.1125 -27.1000 -26.9095 -26.7863 -26.7712
   -13.2376 -13.2302 -13.2281 -13.2214 -13.2188 -13.2115 -13.2083 -12.7407
   -12.7246 -12.7225 -12.6916 -12.6893 -12.6604 -12.6562 -12.4165 -12.4039
   -12.4009 -12.3995 -12.3974 -12.3970 -12.3901 -12.3432 -12.3209 -12.3185
   -12.2795 -12.2765 -12.2467 -12.2401  -3.9050  -2.8259  -2.1854   2.1225
     2.9052   3.4323   3.5185   4.1989   4.5999   5.1433   5.4814   5.9750
     6.0514   7.1933   7.3518   7.9229   7.9283   8.7169   8.7656   8.9503
     9.3795   9.5216   9.8160   9.8417  10.4566  11.0206  11.3054  11.7188

          k = 0.2114-0.0407 0.0000 (  9719 PWs)   bands (ev):

   -61.4408 -60.9139 -60.6712 -60.5282 -27.7949 -27.7233 -27.6750 -27.3729
   -27.3657 -27.1614 -27.1562 -27.1109 -27.0996 -26.8994 -26.7821 -26.7712
   -13.2379 -13.2296 -13.2280 -13.2212 -13.2192 -13.2124 -13.2073 -12.7410
   -12.7240 -12.7224 -12.6915 -12.6897 -12.6612 -12.6552 -12.4175 -12.4032
   -12.4009 -12.3996 -12.3981 -12.3975 -12.3890 -12.3437 -12.3201 -12.3183
   -12.2793 -12.2770 -12.2477 -12.2391  -4.0600  -2.9295  -2.2016   2.2327
     2.6269   3.4144   3.5588   4.4507   4.6158   5.1174   5.6090   5.7654
     6.4154   7.0123   7.5762   7.7399   7.9153   8.5522   8.7650   8.8512
     9.1771   9.4861   9.6955  10.1122  10.3736  10.9443  11.2276  11.3893

          k = 0.2114 0.0407 0.0000 (  9719 PWs)   bands (ev):

   -61.4408 -60.9139 -60.6712 -60.5282 -27.7949 -27.7233 -27.6750 -27.3729
   -27.3657 -27.1614 -27.1562 -27.1109 -27.0996 -26.8994 -26.7821 -26.7712
   -13.2379 -13.2296 -13.2280 -13.2212 -13.2192 -13.2124 -13.2073 -12.7410
   -12.7240 -12.7224 -12.6915 -12.6897 -12.6612 -12.6552 -12.4175 -12.4032
   -12.4009 -12.3996 -12.3981 -12.3975 -12.3890 -12.3437 -12.3201 -12.3183
   -12.2793 -12.2770 -12.2477 -12.2391  -4.0600  -2.9295  -2.2016   2.2327
     2.6269   3.4144   3.5588   4.4507   4.6158   5.1174   5.6090   5.7655
     6.4154   7.0123   7.5762   7.7399   7.9153   8.5522   8.7651   8.8512
     9.1771   9.4860   9.6955  10.1123  10.3736  10.9444  11.2281  11.3918

          k = 0.2819 0.1627 0.0000 (  9766 PWs)   bands (ev):

   -61.4385 -60.9117 -60.6666 -60.5278 -27.7859 -27.7806 -27.6867 -27.3712
   -27.3658 -27.2301 -27.2122 -27.1223 -27.1192 -26.9293 -26.7984 -26.7750
   -13.2367 -13.2314 -13.2286 -13.2216 -13.2178 -13.2108 -13.2091 -12.7397
   -12.7259 -12.7229 -12.6918 -12.6884 -12.6588 -12.6582 -12.4142 -12.4052
   -12.4016 -12.3991 -12.3957 -12.3951 -12.3925 -12.3419 -12.3225 -12.3191
   -12.2797 -12.2752 -12.2443 -12.2430  -3.4973  -2.5386  -2.0776   1.8770
     3.1160   3.4999   3.6410   3.9184   4.6501   5.0710   5.1706   5.7086
     5.9838   7.2531   7.4421   7.8867   8.4774   8.8031   9.0216   9.4501
     9.4878   9.8085   9.9469  10.1821  10.6237  10.9341  11.5211  11.9494

          k = 0.2819 0.2441 0.0000 (  9754 PWs)   bands (ev):

   -61.4377 -60.9109 -60.6649 -60.5277 -27.7976 -27.7804 -27.6972 -27.3751
   -27.3634 -27.2412 -27.2268 -27.1412 -27.1322 -26.9326 -26.8087 -26.7764
   -13.2361 -13.2319 -13.2289 -13.2215 -13.2175 -13.2120 -13.2079 -12.7392
   -12.7264 -12.7232 -12.6917 -12.6880 -12.6600 -12.6571 -12.4129 -12.4057
   -12.4021 -12.3988 -12.3954 -12.3939 -12.3934 -12.3411 -12.3232 -12.3196
   -12.2795 -12.2748 -12.2443 -12.2429  -3.3158  -2.3828  -1.9731   1.7872
     2.9670   3.4806   3.7970   4.0801   4.5905   4.8963   5.1062   5.4565
     6.0924   7.3457   7.6301   7.8234   8.5701   8.8321   9.3653   9.4110
     9.6842  10.0938  10.2710  10.3883  10.6001  10.9786  11.6784  11.8382

          k = 0.2819 0.3255 0.0000 (  9773 PWs)   bands (ev):

   -61.4369 -60.9101 -60.6632 -60.5276 -27.8020 -27.7768 -27.7184 -27.3715
   -27.3610 -27.2431 -27.2315 -27.1815 -27.1523 -26.9302 -26.8258 -26.7757
   -13.2356 -13.2320 -13.2295 -13.2211 -13.2176 -13.2136 -13.2067 -12.7387
   -12.7266 -12.7239 -12.6913 -12.6881 -12.6615 -12.6559 -12.4113 -12.4056
   -12.4027 -12.3987 -12.3967 -12.3939 -12.3926 -12.3404 -12.3235 -12.3204
   -12.2789 -12.2750 -12.2459 -12.2416  -3.1452  -2.2102  -1.8499   1.8724
     2.8988   3.3921   3.8945   4.1156   4.5204   4.8060   4.8630   5.2629
     6.3699   7.3381   7.6672   7.8427   8.5896   8.9919   9.4162   9.5289
     9.7568  10.2886  10.5083  10.5610  10.6545  11.3164  11.4764  11.9550

          k = 0.2819 0.4069 0.0000 (  9761 PWs)   bands (ev):

   -61.4363 -60.9095 -60.6619 -60.5275 -27.7935 -27.7740 -27.7459 -27.3593
   -27.3584 -27.2461 -27.2238 -27.2179 -27.1782 -26.9280 -26.8421 -26.7739
   -13.2351 -13.2317 -13.2302 -13.2203 -13.2182 -13.2148 -13.2057 -12.7383
   -12.7262 -12.7247 -12.6907 -12.6884 -12.6626 -12.6549 -12.4100 -12.4050
   -12.4032 -12.3987 -12.3982 -12.3940 -12.3916 -12.3399 -12.3234 -12.3212
   -12.2779 -12.2756 -12.2471 -12.2405  -3.0282  -2.0709  -1.7545   2.1514
     2.8686   3.2023   3.8223   4.1170   4.3885   4.6716   4.8156   5.2323
     6.7222   7.4093   7.5959   7.8639   8.4398   9.1859   9.3514   9.4996
     9.6426  10.0210  10.5011  10.6787  10.8873  11.5025  11.7192  11.9162

          k = 0.2819 0.4882 0.0000 (  9738 PWs)   bands (ev):

   -61.4360 -60.9092 -60.6614 -60.5275 -27.7756 -27.7729 -27.7708 -27.3585
   -27.3484 -27.2573 -27.2257 -27.2088 -27.1997 -26.9275 -26.8486 -26.7731
   -13.2349 -13.2310 -13.2309 -13.2196 -13.2189 -13.2152 -13.2053 -12.7381
   -12.7256 -12.7255 -12.6903 -12.6887 -12.6629 -12.6544 -12.4095 -12.4043
   -12.4037 -12.3989 -12.3987 -12.3941 -12.3911 -12.3397 -12.3233 -12.3216
   -12.2770 -12.2764 -12.2475 -12.2399  -2.9871  -2.0153  -1.7217   2.4535
     2.7908   2.9676   3.8543   4.1487   4.1998   4.6901   4.8213   5.2148
     6.9065   7.5379   7.5869   7.8834   8.2543   9.1211   9.3934   9.4664
     9.5301   9.8042  10.4448  10.7601  11.0686  11.5187  11.8585  11.9679

          k = 0.2819 0.5696 0.0000 (  9761 PWs)   bands (ev):

   -61.4363 -60.9095 -60.6619 -60.5275 -27.7935 -27.7740 -27.7459 -27.3593
   -27.3584 -27.2461 -27.2238 -27.2179 -27.1781 -26.9280 -26.8421 -26.7739
   -13.2351 -13.2317 -13.2302 -13.2203 -13.2182 -13.2148 -13.2057 -12.7383
   -12.7262 -12.7247 -12.6907 -12.6884 -12.6626 -12.6549 -12.4100 -12.4050
   -12.4032 -12.3987 -12.3982 -12.3940 -12.3916 -12.3399 -12.3234 -12.3212
   -12.2779 -12.2756 -12.2471 -12.2405  -3.0282  -2.0708  -1.7545   2.1514
     2.8686   3.2023   3.8224   4.1170   4.3885   4.6716   4.8156   5.2323
     6.7222   7.4093   7.5959   7.8639   8.4399   9.1859   9.3515   9.4996
     9.6426  10.0211  10.5011  10.6787  10.8873  11.5026  11.7185  11.9154

          k = 0.2819-0.3255 0.0000 (  9773 PWs)   bands (ev):

   -61.4369 -60.9101 -60.6632 -60.5276 -27.8020 -27.7768 -27.7184 -27.3715
   -27.3610 -27.2431 -27.2315 -27.1815 -27.1523 -26.9302 -26.8258 -26.7757
   -13.2356 -13.2320 -13.2295 -13.2211 -13.2176 -13.2136 -13.2067 -12.7387
   -12.7266 -12.7239 -12.6913 -12.6881 -12.6615 -12.6559 -12.4113 -12.4056
   -12.4027 -12.3987 -12.3967 -12.3939 -12.3926 -12.3404 -12.3235 -12.3204
   -12.2789 -12.2750 -12.2459 -12.2416  -3.1452  -2.2101  -1.8499   1.8725
     2.8988   3.3921   3.8945   4.1156   4.5204   4.8060   4.8630   5.2628
     6.3699   7.3381   7.6672   7.8427   8.5896   8.9919   9.4162   9.5289
     9.7568  10.2887  10.5082  10.5611  10.6546  11.3159  11.4761  11.9562

          k = 0.2819-0.2441 0.0000 (  9754 PWs)   bands (ev):

   -61.4377 -60.9109 -60.6649 -60.5277 -27.7976 -27.7804 -27.6972 -27.3751
   -27.3634 -27.2412 -27.2268 -27.1413 -27.1322 -26.9326 -26.8087 -26.7764
   -13.2362 -13.2319 -13.2289 -13.2215 -13.2175 -13.2120 -13.2079 -12.7392
   -12.7264 -12.7232 -12.6917 -12.6880 -12.6600 -12.6571 -12.4129 -12.4057
   -12.4021 -12.3988 -12.3954 -12.3939 -12.3934 -12.3411 -12.3232 -12.3196
   -12.2795 -12.2748 -12.2443 -12.2429  -3.3158  -2.3828  -1.9731   1.7872
     2.9671   3.4806   3.7970   4.0801   4.5905   4.8963   5.1062   5.4565
     6.0923   7.3457   7.6301   7.8234   8.5701   8.8321   9.3653   9.4110
     9.6842  10.0938  10.2710  10.3883  10.6002  10.9784  11.6796  11.8335

          k = 0.2819-0.1627 0.0000 (  9768 PWs)   bands (ev):

   -61.4385 -60.9117 -60.6666 -60.5278 -27.7859 -27.7806 -27.6867 -27.3712
   -27.3658 -27.2301 -27.2122 -27.1223 -27.1192 -26.9293 -26.7984 -26.7750
   -13.2367 -13.2314 -13.2286 -13.2216 -13.2178 -13.2108 -13.2091 -12.7397
   -12.7259 -12.7229 -12.6918 -12.6884 -12.6588 -12.6582 -12.4142 -12.4052
   -12.4016 -12.3991 -12.3957 -12.3951 -12.3926 -12.3419 -12.3225 -12.3191
   -12.2797 -12.2752 -12.2443 -12.2430  -3.4973  -2.5386  -2.0776   1.8770
     3.1160   3.4999   3.6409   3.9184   4.6502   5.0710   5.1706   5.7086
     5.9837   7.2531   7.4421   7.8867   8.4774   8.8031   9.0216   9.4501
     9.4878   9.8085   9.9470  10.1821  10.6236  10.9342  11.5239  11.9490

          k = 0.2819-0.0814 0.0000 (  9753 PWs)   bands (ev):

   -61.4391 -60.9123 -60.6678 -60.5279 -27.7874 -27.7629 -27.6869 -27.3680
   -27.3655 -27.2090 -27.1942 -27.1230 -27.1223 -26.9182 -26.7950 -26.7738
   -13.2370 -13.2309 -13.2284 -13.2214 -13.2183 -13.2101 -13.2099 -12.7401
   -12.7254 -12.7228 -12.6916 -12.6888 -12.6591 -12.6578 -12.4149 -12.4046
   -12.4013 -12.3992 -12.3962 -12.3960 -12.3919 -12.3423 -12.3218 -12.3190
   -12.2794 -12.2758 -12.2452 -12.2419  -3.6351  -2.6424  -2.1416   2.0984
     3.1229   3.2950   3.7017   3.9584   4.6212   5.0020   5.3015   5.5983
     6.2044   7.1566   7.4356   7.8404   8.1076   8.7510   9.0813   9.2313
     9.3423   9.7506   9.9355  10.1012  10.6017  11.0290  11.5120  11.7407

          k = 0.2819-0.0000 0.0000 (  9742 PWs)   bands (ev):

   -61.4393 -60.9125 -60.6683 -60.5279 -27.7883 -27.7534 -27.6897 -27.3685
   -27.3637 -27.1939 -27.1850 -27.1335 -27.1249 -26.9114 -26.7948 -26.7737
   -13.2370 -13.2306 -13.2284 -13.2213 -13.2186 -13.2103 -13.2096 -12.7402
   -12.7251 -12.7229 -12.6915 -12.6891 -12.6593 -12.6575 -12.4151 -12.4042
   -12.4014 -12.3993 -12.3965 -12.3962 -12.3917 -12.3425 -12.3214 -12.3190
   -12.2793 -12.2762 -12.2454 -12.2416  -3.6862  -2.6783  -2.1625   2.2855
     2.8674   3.3569   3.7456   4.0340   4.5885   4.9802   5.2845   5.4639
     6.5661   6.8543   7.4870   7.8183   8.0479   8.6062   9.0890   9.2498
     9.3262   9.6171   9.9377  10.3678  10.4760  11.0550  11.4145  11.6815

          k = 0.2819 0.0814 0.0000 (  9753 PWs)   bands (ev):

   -61.4391 -60.9123 -60.6678 -60.5279 -27.7874 -27.7630 -27.6869 -27.3680
   -27.3655 -27.2090 -27.1942 -27.1230 -27.1223 -26.9182 -26.7950 -26.7738
   -13.2370 -13.2309 -13.2284 -13.2214 -13.2183 -13.2101 -13.2099 -12.7401
   -12.7254 -12.7228 -12.6916 -12.6888 -12.6591 -12.6578 -12.4149 -12.4046
   -12.4013 -12.3992 -12.3962 -12.3960 -12.3919 -12.3423 -12.3218 -12.3190
   -12.2794 -12.2758 -12.2452 -12.2419  -3.6351  -2.6424  -2.1416   2.0983
     3.1229   3.2950   3.7017   3.9584   4.6212   5.0021   5.3015   5.5984
     6.2044   7.1566   7.4357   7.8403   8.1076   8.7510   9.0813   9.2314
     9.3424   9.7505   9.9354  10.1010  10.6016  11.0284  11.5143  11.7370

          k = 0.3523 0.2034 0.0000 (  9758 PWs)   bands (ev):

   -61.4373 -60.9105 -60.6641 -60.5276 -27.8122 -27.7789 -27.6941 -27.3846
   -27.3623 -27.2530 -27.2409 -27.1330 -27.1294 -26.9405 -26.8099 -26.7779
   -13.2360 -13.2323 -13.2290 -13.2217 -13.2170 -13.2125 -13.2073 -12.7390
   -12.7269 -12.7232 -12.6918 -12.6876 -12.6606 -12.6565 -12.4126 -12.4061
   -12.4025 -12.3986 -12.3952 -12.3933 -12.3932 -12.3409 -12.3236 -12.3196
   -12.2798 -12.2743 -12.2449 -12.2423  -3.2667  -2.3102  -1.8622   1.5165
     2.8243   3.6782   3.7271   4.2127   4.6179   4.9802   5.0262   5.4888
     6.0512   7.3876   7.7915   7.9453   8.7731   8.9980   9.2780   9.5463
     9.8922  10.1836  10.2600  10.5071  10.6117  10.9232  11.6404  11.8277

          k = 0.3523 0.2848 0.0000 (  9737 PWs)   bands (ev):

   -61.4369 -60.9101 -60.6632 -60.5276 -27.8170 -27.7770 -27.7031 -27.3854
   -27.3610 -27.2554 -27.2456 -27.1509 -27.1379 -26.9391 -26.8180 -26.7781
   -13.2357 -13.2325 -13.2292 -13.2215 -13.2170 -13.2131 -13.2066 -12.7387
   -12.7270 -12.7234 -12.6917 -12.6876 -12.6612 -12.6558 -12.4118 -12.4062
   -12.4028 -12.3985 -12.3956 -12.3934 -12.3924 -12.3405 -12.3239 -12.3199
   -12.2795 -12.2743 -12.2456 -12.2415  -3.1882  -2.2179  -1.7681   1.4770
     2.7950   3.5924   3.8464   4.3021   4.5056   4.8774   5.0401   5.3572
     6.1077   7.4890   7.8639   7.9510   8.8377   8.9818   9.4774   9.5160
    10.0097  10.3527  10.3937  10.5597  10.6683  11.0386  11.6152  11.8639

          k = 0.3523 0.3662 0.0000 (  9782 PWs)   bands (ev):

   -61.4365 -60.9097 -60.6624 -60.5275 -27.8092 -27.7751 -27.7231 -27.3741
   -27.3599 -27.2515 -27.2384 -27.1858 -27.1567 -26.9330 -26.8311 -26.7762
   -13.2354 -13.2322 -13.2298 -13.2211 -13.2175 -13.2141 -13.2061 -12.7385
   -12.7267 -12.7241 -12.6913 -12.6879 -12.6621 -12.6553 -12.4109 -12.4057
   -12.4032 -12.3986 -12.3971 -12.3937 -12.3919 -12.3402 -12.3238 -12.3207
   -12.2789 -12.2748 -12.2465 -12.2409  -3.0955  -2.1302  -1.7369   1.7168
     2.8682   3.4672   3.8910   4.1000   4.5058   4.7930   4.9051   5.2184
     6.3715   7.4145   7.7592   7.9552   8.7266   9.0625   9.4818   9.5020
     9.8951  10.1657  10.5646  10.5812  10.7296  11.3770  11.5407  11.8642

          k = 0.3523 0.4475 0.0000 (  9761 PWs)   bands (ev):

   -61.4363 -60.9095 -60.6619 -60.5275 -27.7935 -27.7740 -27.7459 -27.3593
   -27.3584 -27.2461 -27.2238 -27.2179 -27.1782 -26.9280 -26.8421 -26.7739
   -13.2351 -13.2317 -13.2302 -13.2203 -13.2182 -13.2148 -13.2057 -12.7383
   -12.7262 -12.7247 -12.6907 -12.6884 -12.6626 -12.6549 -12.4100 -12.4050
   -12.4032 -12.3987 -12.3982 -12.3940 -12.3916 -12.3399 -12.3234 -12.3212
   -12.2779 -12.2756 -12.2471 -12.2405  -3.0282  -2.0709  -1.7545   2.1514
     2.8686   3.2023   3.8223   4.1170   4.3885   4.6716   4.8156   5.2323
     6.7222   7.4093   7.5959   7.8639   8.4398   9.1859   9.3514   9.4996
     9.6426  10.0209  10.5010  10.6786  10.8873  11.5024  11.7195  11.9143

          k = 0.3523 0.5289 0.0000 (  9761 PWs)   bands (ev):

   -61.4363 -60.9095 -60.6619 -60.5275 -27.7935 -27.7740 -27.7459 -27.3593
   -27.3584 -27.2461 -27.2238 -27.2179 -27.1782 -26.9280 -26.8421 -26.7739
   -13.2351 -13.2317 -13.2302 -13.2203 -13.2182 -13.2148 -13.2057 -12.7383
   -12.7262 -12.7247 -12.6907 -12.6884 -12.6626 -12.6549 -12.4100 -12.4050
   -12.4032 -12.3987 -12.3982 -12.3940 -12.3916 -12.3399 -12.3234 -12.3212
   -12.2779 -12.2756 -12.2471 -12.2405  -3.0282  -2.0709  -1.7545   2.1514
     2.8686   3.2023   3.8223   4.1170   4.3885   4.6716   4.8156   5.2323
     6.7222   7.4094   7.5959   7.8639   8.4399   9.1859   9.3514   9.4996
     9.6427  10.0209  10.5010  10.6788  10.8872  11.5024  11.7199  11.9138

          k = 0.3523 0.6103 0.0000 (  9782 PWs)   bands (ev):

   -61.4365 -60.9097 -60.6624 -60.5275 -27.8092 -27.7751 -27.7231 -27.3741
   -27.3599 -27.2515 -27.2384 -27.1859 -27.1567 -26.9330 -26.8311 -26.7762
   -13.2354 -13.2322 -13.2298 -13.2211 -13.2175 -13.2141 -13.2060 -12.7385
   -12.7267 -12.7241 -12.6913 -12.6879 -12.6621 -12.6553 -12.4109 -12.4057
   -12.4032 -12.3986 -12.3971 -12.3937 -12.3919 -12.3402 -12.3238 -12.3207
   -12.2789 -12.2748 -12.2465 -12.2409  -3.0955  -2.1302  -1.7369   1.7168
     2.8682   3.4672   3.8910   4.1000   4.5058   4.7929   4.9051   5.2184
     6.3715   7.4145   7.7592   7.9552   8.7266   9.0625   9.4818   9.5020
     9.8951  10.1658  10.5647  10.5813  10.7295  11.3773  11.5408  11.8662

          k = 0.3523-0.2848 0.0000 (  9737 PWs)   bands (ev):

   -61.4369 -60.9101 -60.6632 -60.5276 -27.8170 -27.7770 -27.7031 -27.3854
   -27.3610 -27.2554 -27.2456 -27.1509 -27.1379 -26.9391 -26.8180 -26.7781
   -13.2357 -13.2325 -13.2292 -13.2215 -13.2170 -13.2131 -13.2066 -12.7387
   -12.7270 -12.7234 -12.6917 -12.6876 -12.6612 -12.6558 -12.4118 -12.4062
   -12.4028 -12.3985 -12.3956 -12.3934 -12.3924 -12.3405 -12.3239 -12.3199
   -12.2795 -12.2743 -12.2456 -12.2415  -3.1882  -2.2178  -1.7681   1.4770
     2.7950   3.5924   3.8464   4.3022   4.5055   4.8774   5.0401   5.3572
     6.1076   7.4890   7.8639   7.9510   8.8377   8.9818   9.4775   9.5160
    10.0097  10.3527  10.3937  10.5597  10.6684  11.0386  11.6147  11.8681

          k = 0.3523-0.2034 0.0000 (  9758 PWs)   bands (ev):

   -61.4373 -60.9105 -60.6641 -60.5276 -27.8122 -27.7789 -27.6941 -27.3846
   -27.3623 -27.2530 -27.2409 -27.1330 -27.1294 -26.9405 -26.8099 -26.7779
   -13.2360 -13.2323 -13.2290 -13.2217 -13.2170 -13.2125 -13.2073 -12.7390
   -12.7269 -12.7232 -12.6918 -12.6876 -12.6606 -12.6565 -12.4126 -12.4061
   -12.4025 -12.3986 -12.3952 -12.3933 -12.3932 -12.3409 -12.3236 -12.3196
   -12.2798 -12.2743 -12.2449 -12.2423  -3.2667  -2.3102  -1.8622   1.5165
     2.8243   3.6781   3.7272   4.2127   4.6179   4.9803   5.0261   5.4888
     6.0511   7.3876   7.7915   7.9453   8.7731   8.9980   9.2780   9.5463
     9.8922  10.1836  10.2600  10.5070  10.6116  10.9232  11.6392  11.8270

          k = 0.3523-0.1221 0.0000 (  9754 PWs)   bands (ev):

   -61.4377 -60.9109 -60.6649 -60.5277 -27.7976 -27.7804 -27.6972 -27.3751
   -27.3634 -27.2412 -27.2268 -27.1413 -27.1322 -26.9326 -26.8087 -26.7764
   -13.2362 -13.2319 -13.2289 -13.2215 -13.2175 -13.2120 -13.2079 -12.7392
   -12.7264 -12.7232 -12.6917 -12.6880 -12.6600 -12.6571 -12.4129 -12.4057
   -12.4021 -12.3988 -12.3954 -12.3939 -12.3934 -12.3411 -12.3232 -12.3196
   -12.2795 -12.2748 -12.2443 -12.2429  -3.3158  -2.3828  -1.9731   1.7872
     2.9671   3.4806   3.7970   4.0800   4.5905   4.8963   5.1062   5.4565
     6.0924   7.3457   7.6301   7.8234   8.5702   8.8321   9.3652   9.4109
     9.6843  10.0938  10.2709  10.3883  10.6001  10.9783  11.6771  11.8336

          k = 0.3523-0.0407 0.0000 (  9773 PWs)   bands (ev):

   -61.4379 -60.9111 -60.6653 -60.5277 -27.7839 -27.7795 -27.7060 -27.3663
   -27.3640 -27.2217 -27.2122 -27.1649 -27.1404 -26.9225 -26.8119 -26.7747
   -13.2362 -13.2315 -13.2290 -13.2212 -13.2180 -13.2120 -13.2083 -12.7393
   -12.7260 -12.7234 -12.6914 -12.6885 -12.6599 -12.6574 -12.4129 -12.4051
   -12.4019 -12.3990 -12.3959 -12.3943 -12.3937 -12.3413 -12.3227 -12.3198
   -12.2791 -12.2755 -12.2442 -12.2432  -3.3378  -2.4188  -2.0464   2.1496
     3.0216   3.2619   3.8554   4.0020   4.5255   4.9198   4.9841   5.3002
     6.4260   7.1684   7.4024   7.8206   8.2888   8.8515   9.2932   9.3709
     9.6613  10.0543  10.2434  10.4473  10.5780  11.2386  11.5234  11.8375

          k = 0.3523 0.0407 0.0000 (  9773 PWs)   bands (ev):

   -61.4379 -60.9111 -60.6653 -60.5277 -27.7839 -27.7795 -27.7060 -27.3663
   -27.3640 -27.2217 -27.2122 -27.1648 -27.1404 -26.9225 -26.8118 -26.7747
   -13.2362 -13.2315 -13.2290 -13.2212 -13.2180 -13.2120 -13.2083 -12.7393
   -12.7260 -12.7234 -12.6914 -12.6885 -12.6599 -12.6574 -12.4129 -12.4051
   -12.4019 -12.3990 -12.3959 -12.3943 -12.3937 -12.3413 -12.3227 -12.3198
   -12.2791 -12.2755 -12.2442 -12.2432  -3.3378  -2.4188  -2.0464   2.1496
     3.0216   3.2619   3.8554   4.0020   4.5255   4.9198   4.9841   5.3002
     6.4260   7.1684   7.4024   7.8206   8.2888   8.8515   9.2932   9.3709
     9.6614  10.0543  10.2434  10.4474  10.5780  11.2389  11.5234  11.8357

          k = 0.3523 0.1221 0.0000 (  9754 PWs)   bands (ev):

   -61.4377 -60.9109 -60.6649 -60.5277 -27.7976 -27.7804 -27.6972 -27.3751
   -27.3634 -27.2412 -27.2268 -27.1412 -27.1322 -26.9326 -26.8087 -26.7764
   -13.2361 -13.2319 -13.2289 -13.2215 -13.2175 -13.2120 -13.2079 -12.7392
   -12.7264 -12.7232 -12.6917 -12.6880 -12.6600 -12.6571 -12.4129 -12.4057
   -12.4021 -12.3988 -12.3954 -12.3939 -12.3934 -12.3411 -12.3232 -12.3196
   -12.2795 -12.2748 -12.2443 -12.2429  -3.3158  -2.3828  -1.9731   1.7872
     2.9670   3.4806   3.7970   4.0800   4.5905   4.8963   5.1062   5.4565
     6.0924   7.3457   7.6301   7.8234   8.5702   8.8321   9.3652   9.4109
     9.6842  10.0937  10.2709  10.3883  10.6000  10.9784  11.6793  11.8328

          k =-0.4228-0.2441 0.0000 (  9778 PWs)   bands (ev):

   -61.4369 -60.9101 -60.6632 -60.5276 -27.8231 -27.7771 -27.6968 -27.3918
   -27.3611 -27.2594 -27.2514 -27.1380 -27.1320 -26.9434 -26.8148 -26.7790
   -13.2358 -13.2327 -13.2292 -13.2218 -13.2169 -13.2131 -13.2065 -12.7387
   -12.7272 -12.7233 -12.6919 -12.6874 -12.6613 -12.6558 -12.4121 -12.4065
   -12.4029 -12.3985 -12.3954 -12.3933 -12.3924 -12.3406 -12.3241 -12.3199
   -12.2799 -12.2741 -12.2457 -12.2416  -3.2086  -2.2204  -1.7282   1.3238
     2.7336   3.6804   3.7897   4.3400   4.6100   4.9101   5.0120   5.4329
     6.0878   7.5153   7.9365   8.0291   8.7782   9.2597   9.3638   9.5944
    10.0673  10.2082  10.4682  10.6079  10.7085  11.0235  11.6586  11.7008

          k =-0.4228-0.1627 0.0000 (  9739 PWs)   bands (ev):

   -61.4369 -60.9101 -60.6632 -60.5276 -27.8170 -27.7770 -27.7031 -27.3854
   -27.3610 -27.2554 -27.2456 -27.1509 -27.1379 -26.9391 -26.8180 -26.7781
   -13.2357 -13.2325 -13.2292 -13.2215 -13.2170 -13.2131 -13.2066 -12.7387
   -12.7270 -12.7234 -12.6917 -12.6876 -12.6612 -12.6558 -12.4118 -12.4062
   -12.4028 -12.3985 -12.3956 -12.3934 -12.3924 -12.3405 -12.3239 -12.3199
   -12.2795 -12.2743 -12.2456 -12.2415  -3.1882  -2.2179  -1.7681   1.4770
     2.7950   3.5924   3.8464   4.3021   4.5055   4.8775   5.0401   5.3572
     6.1077   7.4890   7.8639   7.9510   8.8377   8.9818   9.4774   9.5160
    10.0097  10.3527  10.3936  10.5596  10.6683  11.0386  11.6149  11.8662

          k =-0.4228-0.0814 0.0000 (  9773 PWs)   bands (ev):

   -61.4369 -60.9101 -60.6632 -60.5276 -27.8020 -27.7768 -27.7184 -27.3715
   -27.3610 -27.2431 -27.2315 -27.1815 -27.1523 -26.9302 -26.8258 -26.7757
   -13.2356 -13.2320 -13.2295 -13.2211 -13.2176 -13.2136 -13.2067 -12.7387
   -12.7266 -12.7239 -12.6913 -12.6881 -12.6615 -12.6559 -12.4113 -12.4056
   -12.4027 -12.3987 -12.3967 -12.3939 -12.3926 -12.3404 -12.3235 -12.3204
   -12.2789 -12.2750 -12.2459 -12.2416  -3.1452  -2.2102  -1.8499   1.8725
     2.8988   3.3922   3.8945   4.1156   4.5204   4.8060   4.8630   5.2629
     6.3699   7.3381   7.6672   7.8427   8.5896   8.9919   9.4162   9.5288
     9.7567  10.2885  10.5082  10.5610  10.6544  11.3160  11.4766  11.9510

          k =-0.4228 0.0000 0.0000 (  9756 PWs)   bands (ev):

   -61.4369 -60.9101 -60.6632 -60.5276 -27.7920 -27.7766 -27.7287 -27.3637
   -27.3610 -27.2276 -27.2220 -27.2065 -27.1619 -26.9255 -26.8305 -26.7743
   -13.2355 -13.2317 -13.2296 -13.2207 -13.2180 -13.2137 -13.2066 -12.7387
   -12.7262 -12.7241 -12.6910 -12.6884 -12.6616 -12.6558 -12.4111 -12.4052
   -12.4025 -12.3988 -12.3971 -12.3941 -12.3926 -12.3404 -12.3232 -12.3207
   -12.2785 -12.2754 -12.2460 -12.2415  -3.1225  -2.2042  -1.8930   2.2015
     2.8204   3.2862   3.8857   4.0749   4.5843   4.5980   4.8237   5.2689
     6.6018   7.2904   7.4225   7.8064   8.4239   9.0850   9.3559   9.4651
     9.7329  10.2439  10.4991  10.6170  10.6498  11.4390  11.5377  11.9380

          k =-0.4228 0.0814 0.0000 (  9773 PWs)   bands (ev):

   -61.4369 -60.9101 -60.6632 -60.5276 -27.8020 -27.7768 -27.7184 -27.3715
   -27.3610 -27.2431 -27.2315 -27.1815 -27.1523 -26.9302 -26.8258 -26.7757
   -13.2356 -13.2320 -13.2295 -13.2211 -13.2176 -13.2136 -13.2067 -12.7387
   -12.7266 -12.7239 -12.6913 -12.6881 -12.6615 -12.6559 -12.4113 -12.4056
   -12.4027 -12.3987 -12.3967 -12.3939 -12.3926 -12.3404 -12.3235 -12.3204
   -12.2789 -12.2750 -12.2459 -12.2416  -3.1452  -2.2102  -1.8499   1.8725
     2.8988   3.3922   3.8945   4.1156   4.5204   4.8060   4.8630   5.2629
     6.3699   7.3381   7.6672   7.8427   8.5896   8.9919   9.4162   9.5288
     9.7567  10.2885  10.5082  10.5609  10.6544  11.3160  11.4760  11.9530

          k =-0.4228 0.1627 0.0000 (  9739 PWs)   bands (ev):

   -61.4369 -60.9101 -60.6632 -60.5276 -27.8170 -27.7770 -27.7031 -27.3854
   -27.3610 -27.2554 -27.2456 -27.1509 -27.1379 -26.9391 -26.8180 -26.7781
   -13.2357 -13.2325 -13.2292 -13.2215 -13.2170 -13.2131 -13.2066 -12.7387
   -12.7270 -12.7234 -12.6917 -12.6876 -12.6612 -12.6558 -12.4118 -12.4062
   -12.4028 -12.3985 -12.3956 -12.3934 -12.3924 -12.3405 -12.3239 -12.3199
   -12.2795 -12.2743 -12.2456 -12.2415  -3.1882  -2.2179  -1.7681   1.4770
     2.7950   3.5924   3.8464   4.3021   4.5055   4.8775   5.0401   5.3572
     6.1077   7.4890   7.8639   7.9510   8.8377   8.9819   9.4774   9.5160
    10.0098  10.3526  10.3935  10.5596  10.6683  11.0386  11.6157  11.8682

          k =-0.4228-0.7324 0.0000 (  9778 PWs)   bands (ev):

   -61.4369 -60.9101 -60.6632 -60.5276 -27.8231 -27.7771 -27.6968 -27.3918
   -27.3611 -27.2594 -27.2514 -27.1380 -27.1320 -26.9434 -26.8148 -26.7791
   -13.2358 -13.2327 -13.2292 -13.2218 -13.2169 -13.2131 -13.2065 -12.7387
   -12.7272 -12.7233 -12.6919 -12.6874 -12.6613 -12.6558 -12.4121 -12.4065
   -12.4029 -12.3985 -12.3954 -12.3933 -12.3924 -12.3406 -12.3241 -12.3199
   -12.2799 -12.2741 -12.2457 -12.2416  -3.2085  -2.2204  -1.7282   1.3239
     2.7336   3.6803   3.7897   4.3400   4.6100   4.9102   5.0120   5.4329
     6.0877   7.5153   7.9365   8.0292   8.7782   9.2598   9.3639   9.5944
    10.0673  10.2082  10.4681  10.6080  10.7085  11.0236  11.6571  11.7014

     the Fermi energy is     7.9489 ev

!    total energy              =   -2758.67863483 Ry
     estimated scf accuracy    <          6.4E-14 Ry
     smearing contrib. (-TS)   =      -0.00001737 Ry
     internal energy E=F+TS    =   -2758.67861745 Ry

     The total energy is F=E-TS. E is the sum of the following terms:
     one-electron contribution =   -6915.46555099 Ry
     hartree contribution      =    3548.40278740 Ry
     xc contribution           =    -280.57717897 Ry
     ewald contribution        =     888.96132511 Ry

     convergence has been achieved in  38 iterations

     Forces acting on atoms (cartesian axes, Ry/au):

     atom    1 type  1   force =    -0.00000077   -0.00000187    0.04982275
     atom    2 type  2   force =     0.00000226    0.00000541   -0.07968764
     atom    3 type  1   force =    -0.00000253   -0.00000606    0.10701084
     atom    4 type  2   force =     0.00000011    0.00000026    0.05473582
     atom    5 type  1   force =    -0.00000011   -0.00000023    0.03487336
     atom    6 type  2   force =    -0.00000043   -0.00000101    0.01805039
[...]
    -8.7488  -8.7482  -8.7399  -8.7393  -8.7190  -8.7184  -8.7067  -8.7061
    -8.6780  -8.6774  -8.6681  -8.6675  -1.5340  -1.1341  -0.5141   4.1883
     4.9177   5.2267   5.4634   6.2616   6.4621   6.6708   6.9870   7.3659
     8.6750   9.9942  10.0664  10.1604  11.7622  11.8937  12.4109  13.0875
    13.4138  13.5450  13.7114  14.1832  14.4638  14.6951  15.2122  16.0237

          k = 0.3168 0.0000 0.0000 (  7689 PWs)   bands (ev):

   -57.5143 -57.5017 -57.0104 -57.0098 -24.2928 -24.2532 -24.2004 -24.0341
   -23.9414 -23.9123 -23.6178 -23.6056 -23.5285 -23.5216 -23.3031 -23.3015
    -9.2059  -9.1998  -9.1971  -9.1922  -9.1912  -9.1879  -9.1866  -9.1846
    -9.1843  -9.1829  -9.1784  -9.1777  -9.1734  -9.1705  -8.7655  -8.7649
    -8.7478  -8.7472  -8.7399  -8.7393  -8.7189  -8.7183  -8.7077  -8.7070
    -8.6792  -8.6786  -8.6672  -8.6665  -1.5959  -1.1412  -0.5621   4.4855
     5.0107   5.1556   5.2787   6.4540   6.4584   6.6661   6.7679   7.2245
     9.3525   9.4471  10.0430  10.2925  11.4520  11.5332  12.1591  13.0929
    13.3783  13.5429  13.6956  14.5936  14.5992  14.8498  15.3706  15.6490

          k = 0.3168 0.0915 0.0000 (  7693 PWs)   bands (ev):

   -57.5127 -57.5006 -57.0091 -57.0085 -24.2938 -24.2907 -24.2171 -24.0447
   -23.9376 -23.8889 -23.6212 -23.6095 -23.5619 -23.5499 -23.2917 -23.2911
    -9.2095  -9.1987  -9.1945  -9.1908  -9.1902  -9.1891  -9.1866  -9.1856
    -9.1843  -9.1813  -9.1794  -9.1774  -9.1761  -9.1677  -8.7652  -8.7646
    -8.7488  -8.7482  -8.7399  -8.7393  -8.7190  -8.7184  -8.7067  -8.7061
    -8.6780  -8.6774  -8.6681  -8.6675  -1.5340  -1.1341  -0.5141   4.1883
     4.9177   5.2267   5.4634   6.2616   6.4621   6.6708   6.9870   7.3659
     8.6750   9.9942  10.0664  10.1604  11.7622  11.8937  12.4109  13.0874
    13.4138  13.5450  13.7114  14.1832  14.4638  14.6951  15.2122  16.0237

          k = 0.3960 0.2286 0.0000 (  7730 PWs)   bands (ev):

   -57.4992 -57.4915 -56.9986 -56.9981 -24.4733 -24.4218 -24.1845 -24.0681
   -23.9722 -23.9048 -23.7220 -23.7118 -23.6211 -23.6013 -23.3156 -23.3147
    -9.2150  -9.1992  -9.1959  -9.1955  -9.1950  -9.1906  -9.1830  -9.1800
    -9.1790  -9.1781  -9.1762  -9.1759  -9.1738  -9.1666  -8.7614  -8.7608
    -8.7545  -8.7538  -8.7417  -8.7411  -8.7191  -8.7184  -8.7018  -8.7011
    -8.6768  -8.6762  -8.6678  -8.6672  -1.3198  -0.7724   0.0989   3.1965
     4.2035   5.6527   5.8338   6.0607   6.2795   6.7816   6.8347   7.1077
     8.4796   9.8793  10.8617  10.9630  12.2083  13.2384  13.4496  13.7254
    13.8629  14.1045  14.4483  14.7395  14.8656  15.1503  15.2324  16.2230

          k = 0.3960 0.3201 0.0000 (  7736 PWs)   bands (ev):

   -57.4957 -57.4895 -56.9961 -56.9955 -24.4902 -24.4375 -24.1618 -24.0808
   -24.0002 -23.9452 -23.7322 -23.7262 -23.6180 -23.6042 -23.3473 -23.3469
    -9.2139  -9.1985  -9.1975  -9.1970  -9.1955  -9.1907  -9.1841  -9.1794
    -9.1775  -9.1767  -9.1764  -9.1747  -9.1727  -9.1681  -8.7600  -8.7594
    -8.7550  -8.7544  -8.7428  -8.7421  -8.7186  -8.7180  -8.7015  -8.7009
    -8.6794  -8.6788  -8.6653  -8.6647  -1.2522  -0.6667   0.2928   3.0456
     4.2085   5.6888   5.8970   6.0159   6.2730   6.5743   6.8104   6.9034
     8.6292   9.9884  11.0318  11.0507  12.3468  13.1640  13.3508  13.5817
    14.0736  14.5903  14.9420  15.0900  15.1389  15.2007  15.6322  16.0791

          k = 0.3960 0.4116 0.0000 (  7732 PWs)   bands (ev):

   -57.4925 -57.4879 -56.9939 -56.9933 -24.4578 -24.4065 -24.1355 -24.1296
   -24.0315 -24.0290 -23.7105 -23.7038 -23.6116 -23.6078 -23.4183 -23.4151
    -9.2095  -9.1996  -9.1981  -9.1940  -9.1935  -9.1896  -9.1875  -9.1819
    -9.1795  -9.1760  -9.1757  -9.1742  -9.1724  -9.1721  -8.7580  -8.7574
    -8.7541  -8.7535  -8.7446  -8.7439  -8.7174  -8.7168  -8.7030  -8.7024
    -8.6826  -8.6820  -8.6633  -8.6627  -1.0144  -0.5547   0.2203   3.3260
     4.3683   5.6855   5.9038   5.9705   6.1610   6.2767   6.5093   6.9391
     9.0681   9.9964  10.9096  10.9709  12.4837  13.1212  13.1313  13.6753
    13.9175  14.2184  14.6601  14.8692  15.2131  15.4117  16.3368  16.7412

          k = 0.3960 0.5030 0.0000 (  7741 PWs)   bands (ev):

   -57.4905 -57.4872 -56.9926 -56.9920 -24.3912 -24.3510 -24.2079 -24.1521
   -24.0892 -24.0361 -23.6668 -23.6589 -23.6125 -23.6089 -23.4951 -23.4882
    -9.2040  -9.1996  -9.1977  -9.1933  -9.1917  -9.1894  -9.1867  -9.1854
    -9.1821  -9.1785  -9.1761  -9.1752  -9.1736  -9.1722  -8.7565  -8.7559
    -8.7523  -8.7517  -8.7467  -8.7461  -8.7160  -8.7154  -8.7050  -8.7043
    -8.6849  -8.6843  -8.6623  -8.6616  -0.6766  -0.4924  -0.0610   3.8915
     4.5512   5.3000   5.4924   6.0932   6.1740   6.2840   6.5228   6.7785
     9.7885  10.0788  10.6073  10.7269  12.2174  12.9392  13.1663  13.3782
    13.8505  14.0183  14.3557  14.6994  15.1391  15.3235  16.7570  17.0604

          k = 0.3960 0.5945 0.0000 (  7741 PWs)   bands (ev):

   -57.4905 -57.4872 -56.9926 -56.9920 -24.3912 -24.3510 -24.2079 -24.1521
   -24.0892 -24.0361 -23.6668 -23.6589 -23.6125 -23.6089 -23.4951 -23.4882
    -9.2040  -9.1996  -9.1977  -9.1933  -9.1917  -9.1894  -9.1867  -9.1854
    -9.1821  -9.1785  -9.1761  -9.1752  -9.1736  -9.1722  -8.7565  -8.7559
    -8.7523  -8.7517  -8.7467  -8.7461  -8.7160  -8.7154  -8.7050  -8.7043
    -8.6849  -8.6843  -8.6623  -8.6616  -0.6766  -0.4924  -0.0610   3.8915
     4.5512   5.3000   5.4924   6.0932   6.1740   6.2840   6.5228   6.7785
     9.7885  10.0788  10.6073  10.7269  12.2174  12.9392  13.1663  13.3782
    13.8505  14.0183  14.3557  14.6994  15.1391  15.3235  16.7570  17.0609

          k = 0.3960 0.6859 0.0000 (  7732 PWs)   bands (ev):

   -57.4925 -57.4879 -56.9939 -56.9933 -24.4578 -24.4065 -24.1355 -24.1296
   -24.0315 -24.0290 -23.7105 -23.7038 -23.6116 -23.6078 -23.4183 -23.4151
    -9.2095  -9.1996  -9.1981  -9.1940  -9.1935  -9.1896  -9.1875  -9.1819
    -9.1795  -9.1760  -9.1757  -9.1742  -9.1724  -9.1721  -8.7580  -8.7574
    -8.7541  -8.7535  -8.7446  -8.7439  -8.7174  -8.7168  -8.7030  -8.7024
    -8.6826  -8.6820  -8.6633  -8.6627  -1.0144  -0.5547   0.2203   3.3260
     4.3683   5.6855   5.9038   5.9705   6.1610   6.2767   6.5093   6.9391
     9.0681   9.9964  10.9096  10.9709  12.4837  13.1212  13.1313  13.6753
    13.9175  14.2184  14.6601  14.8692  15.2131  15.4117  16.3368  16.7404

          k = 0.3960-0.3201 0.0000 (  7736 PWs)   bands (ev):

   -57.4957 -57.4895 -56.9961 -56.9955 -24.4902 -24.4375 -24.1618 -24.0808
   -24.0002 -23.9452 -23.7322 -23.7262 -23.6180 -23.6042 -23.3473 -23.3469
    -9.2139  -9.1985  -9.1975  -9.1970  -9.1955  -9.1907  -9.1841  -9.1794
    -9.1775  -9.1767  -9.1764  -9.1747  -9.1727  -9.1681  -8.7600  -8.7594
    -8.7550  -8.7544  -8.7428  -8.7421  -8.7186  -8.7180  -8.7015  -8.7009
    -8.6794  -8.6788  -8.6653  -8.6647  -1.2522  -0.6667   0.2928   3.0456
     4.2085   5.6888   5.8970   6.0159   6.2730   6.5743   6.8104   6.9034
     8.6292   9.9884  11.0318  11.0507  12.3468  13.1640  13.3508  13.5817
    14.0736  14.5903  14.9420  15.0900  15.1389  15.2006  15.6321  16.0793

          k = 0.3960-0.2286 0.0000 (  7730 PWs)   bands (ev):

   -57.4992 -57.4915 -56.9986 -56.9981 -24.4733 -24.4218 -24.1845 -24.0681
   -23.9722 -23.9048 -23.7220 -23.7118 -23.6211 -23.6013 -23.3156 -23.3147
    -9.2150  -9.1992  -9.1959  -9.1955  -9.1950  -9.1906  -9.1830  -9.1800
    -9.1790  -9.1781  -9.1762  -9.1759  -9.1738  -9.1666  -8.7614  -8.7608
    -8.7545  -8.7538  -8.7417  -8.7411  -8.7191  -8.7184  -8.7018  -8.7011
    -8.6768  -8.6762  -8.6678  -8.6672  -1.3198  -0.7724   0.0989   3.1965
     4.2035   5.6527   5.8338   6.0607   6.2795   6.7816   6.8347   7.1077
     8.4796   9.8793  10.8617  10.9630  12.2083  13.2384  13.4495  13.7254
    13.8629  14.1045  14.4483  14.7395  14.8656  15.1503  15.2324  16.2228

          k = 0.3960-0.1372 0.0000 (  7716 PWs)   bands (ev):

   -57.5022 -57.4933 -57.0009 -57.0003 -24.4151 -24.3708 -24.2003 -24.0614
   -23.9790 -23.9245 -23.6774 -23.6692 -23.6162 -23.5997 -23.3270 -23.3265
    -9.2123  -9.1982  -9.1938  -9.1934  -9.1932  -9.1884  -9.1858  -9.1825
    -9.1811  -9.1800  -9.1782  -9.1767  -9.1747  -9.1679  -8.7618  -8.7612
    -8.7528  -8.7522  -8.7416  -8.7410  -8.7189  -8.7183  -8.7034  -8.7028
    -8.6754  -8.6748  -8.6699  -8.6693  -1.2136  -0.8441  -0.2184   3.6671
     4.3708   5.5107   5.9598   6.1201   6.2281   6.6104   6.8133   7.0315
     8.5890   9.9610  10.5334  10.5968  12.1602  12.7243  12.8387  13.3496
    13.7868  14.1264  14.5453  14.7068  14.7304  14.9441  15.3537  16.2582

          k = 0.3960-0.0457 0.0000 (  7693 PWs)   bands (ev):

   -57.5038 -57.4944 -57.0021 -57.0015 -24.3461 -24.3260 -24.2127 -24.0516
   -24.0056 -23.9709 -23.6266 -23.6223 -23.6091 -23.6007 -23.3602 -23.3573
    -9.2072  -9.1975  -9.1934  -9.1923  -9.1907  -9.1887  -9.1866  -9.1841
    -9.1835  -9.1808  -9.1801  -9.1775  -9.1752  -9.1706  -8.7617  -8.7611
    -8.7511  -8.7505  -8.7420  -8.7413  -8.7185  -8.7179  -8.7051  -8.7044
    -8.6752  -8.6746  -8.6709  -8.6703  -0.9962  -0.8702  -0.5430   4.2872
     4.5822   5.3147   5.7671   6.1171   6.2832   6.5306   6.5945   6.8850
     9.1091   9.8654  10.1742  10.3554  11.9682  12.1851  12.3026  13.2152
    13.8466  13.9921  14.4960  14.8923  15.0087  15.0910  16.0103  16.2393

          k = 0.3960 0.0457 0.0000 (  7693 PWs)   bands (ev):

   -57.5038 -57.4944 -57.0021 -57.0015 -24.3461 -24.3260 -24.2127 -24.0516
   -24.0056 -23.9709 -23.6266 -23.6223 -23.6091 -23.6007 -23.3602 -23.3573
    -9.2072  -9.1975  -9.1934  -9.1923  -9.1907  -9.1887  -9.1866  -9.1841
    -9.1835  -9.1808  -9.1801  -9.1775  -9.1752  -9.1706  -8.7617  -8.7611
    -8.7511  -8.7505  -8.7420  -8.7413  -8.7185  -8.7179  -8.7051  -8.7044
    -8.6752  -8.6746  -8.6709  -8.6703  -0.9962  -0.8702  -0.5430   4.2872
     4.5822   5.3147   5.7671   6.1171   6.2832   6.5306   6.5945   6.8850
     9.1091   9.8654  10.1742  10.3554  11.9682  12.1851  12.3026  13.2152
    13.8466  13.9921  14.4960  14.8923  15.0087  15.0910  16.0103  16.2395

          k = 0.3960 0.1372 0.0000 (  7716 PWs)   bands (ev):

   -57.5022 -57.4933 -57.0009 -57.0003 -24.4151 -24.3708 -24.2003 -24.0614
   -23.9790 -23.9245 -23.6774 -23.6692 -23.6162 -23.5997 -23.3270 -23.3265
    -9.2123  -9.1982  -9.1938  -9.1934  -9.1932  -9.1884  -9.1858  -9.1825
    -9.1811  -9.1800  -9.1782  -9.1767  -9.1747  -9.1679  -8.7618  -8.7612
    -8.7528  -8.7522  -8.7416  -8.7410  -8.7189  -8.7183  -8.7034  -8.7028
    -8.6754  -8.6748  -8.6699  -8.6693  -1.2136  -0.8441  -0.2184   3.6671
     4.3708   5.5107   5.9598   6.1201   6.2281   6.6104   6.8133   7.0315
     8.5890   9.9610  10.5334  10.5968  12.1602  12.7243  12.8387  13.3496
    13.7868  14.1264  14.5453  14.7068  14.7304  14.9441  15.3537  16.2583

          k =-0.4752-0.2744 0.0000 (  7704 PWs)   bands (ev):

   -57.4957 -57.4895 -56.9961 -56.9955 -24.5149 -24.4603 -24.1639 -24.0785
   -23.9835 -23.9142 -23.7471 -23.7462 -23.6217 -23.6038 -23.3248 -23.3239
    -9.2158  -9.1988  -9.1981  -9.1974  -9.1968  -9.1917  -9.1826  -9.1774
    -9.1771  -9.1762  -9.1754  -9.1747  -9.1721  -9.1665  -8.7605  -8.7599
    -8.7557  -8.7550  -8.7422  -8.7415  -8.7189  -8.7183  -8.7006  -8.7000
    -8.6788  -8.6782  -8.6651  -8.6645  -1.3523  -0.6865   0.4435   2.8017
     4.1294   5.6154   5.9696   5.9872   6.2178   6.8147   6.8525   6.9527
     8.5501   9.9518  11.1678  11.2122  12.2974  13.5108  13.5945  13.7601
    14.0277  14.3866  14.8034  15.2927  15.3294  15.3361  15.6593  15.7637

          k =-0.4752-0.1829 0.0000 (  7736 PWs)   bands (ev):

   -57.4957 -57.4895 -56.9961 -56.9955 -24.4902 -24.4375 -24.1618 -24.0808
   -24.0002 -23.9452 -23.7322 -23.7262 -23.6180 -23.6042 -23.3473 -23.3469
    -9.2139  -9.1985  -9.1975  -9.1970  -9.1955  -9.1907  -9.1841  -9.1794
    -9.1775  -9.1767  -9.1764  -9.1747  -9.1727  -9.1681  -8.7600  -8.7594
    -8.7550  -8.7544  -8.7428  -8.7421  -8.7186  -8.7180  -8.7015  -8.7009
    -8.6794  -8.6788  -8.6653  -8.6647  -1.2522  -0.6667   0.2928   3.0456
     4.2085   5.6888   5.8970   6.0159   6.2730   6.5743   6.8104   6.9034
     8.6292   9.9884  11.0318  11.0507  12.3468  13.1640  13.3508  13.5817
    14.0736  14.5903  14.9420  15.0900  15.1389  15.2006  15.6321  16.0791

          k =-0.4752-0.0915 0.0000 (  7729 PWs)   bands (ev):

   -57.4957 -57.4895 -56.9961 -56.9955 -24.4276 -24.3850 -24.1653 -24.0977
   -24.0299 -24.0100 -23.6877 -23.6817 -23.6121 -23.6066 -23.4027 -23.3995
    -9.2089  -9.1983  -9.1961  -9.1943  -9.1930  -9.1890  -9.1862  -9.1844
    -9.1802  -9.1773  -9.1768  -9.1754  -9.1747  -9.1707  -8.7590  -8.7584
    -8.7534  -8.7527  -8.7438  -8.7432  -8.7178  -8.7172  -8.7035  -8.7029
    -8.6806  -8.6800  -8.6654  -8.6648  -0.9783  -0.6284  -0.0608   3.6328
     4.4171   5.5238   5.9365   6.1136   6.2603   6.3418   6.4321   6.8440
     9.0587   9.9766  10.6363  10.7221  12.3929  12.6203  13.0667  13.2079
    13.8873  14.3699  14.8506  15.1092  15.1563  15.3448  16.2032  16.4687

          k =-0.4752-0.0000 0.0000 (  7725 PWs)   bands (ev):

   -57.4958 -57.4895 -56.9961 -56.9955 -24.3760 -24.3610 -24.1801 -24.0910
   -24.0869 -24.0203 -23.6519 -23.6512 -23.6128 -23.6102 -23.4391 -23.4331
    -9.2050  -9.1966  -9.1964  -9.1951  -9.1904  -9.1902  -9.1854  -9.1849
    -9.1821  -9.1796  -9.1771  -9.1770  -9.1751  -9.1714  -8.7585  -8.7578
    -8.7523  -8.7516  -8.7446  -8.7439  -8.7173  -8.7167  -8.7046  -8.7040
    -8.6812  -8.6806  -8.6655  -8.6649  -0.6746  -0.6468  -0.3601   4.0819
     4.5462   5.2907   5.7635   6.1352   6.1540   6.3058   6.5497   6.7094
     9.5582   9.9500  10.2293  10.5235  12.1265  12.5315  12.8168  13.1921
    13.9373  14.2799  14.7872  15.1533  15.1743  15.2827  16.6207  16.7548

          k =-0.4752 0.0915 0.0000 (  7729 PWs)   bands (ev):

   -57.4957 -57.4895 -56.9961 -56.9955 -24.4276 -24.3850 -24.1653 -24.0977
   -24.0299 -24.0100 -23.6877 -23.6817 -23.6121 -23.6066 -23.4027 -23.3995
    -9.2089  -9.1983  -9.1961  -9.1943  -9.1930  -9.1890  -9.1862  -9.1844
    -9.1802  -9.1773  -9.1768  -9.1754  -9.1747  -9.1707  -8.7590  -8.7584
    -8.7534  -8.7527  -8.7438  -8.7432  -8.7178  -8.7172  -8.7035  -8.7029
    -8.6806  -8.6800  -8.6654  -8.6648  -0.9783  -0.6284  -0.0608   3.6328
     4.4171   5.5238   5.9365   6.1136   6.2603   6.3418   6.4321   6.8440
     9.0587   9.9766  10.6363  10.7221  12.3929  12.6203  13.0667  13.2079
    13.8873  14.3699  14.8506  15.1092  15.1563  15.3449  16.2030  16.4687

          k =-0.4752 0.1829 0.0000 (  7736 PWs)   bands (ev):

   -57.4957 -57.4895 -56.9961 -56.9955 -24.4902 -24.4375 -24.1618 -24.0808
   -24.0002 -23.9452 -23.7322 -23.7262 -23.6180 -23.6042 -23.3473 -23.3469
    -9.2139  -9.1985  -9.1975  -9.1970  -9.1955  -9.1907  -9.1841  -9.1794
    -9.1775  -9.1767  -9.1764  -9.1747  -9.1727  -9.1681  -8.7600  -8.7594
    -8.7550  -8.7544  -8.7428  -8.7421  -8.7186  -8.7180  -8.7015  -8.7009
    -8.6794  -8.6788  -8.6653  -8.6647  -1.2522  -0.6667   0.2928   3.0456
     4.2085   5.6888   5.8970   6.0159   6.2730   6.5743   6.8104   6.9034
     8.6292   9.9884  11.0318  11.0507  12.3468  13.1640  13.3508  13.5817
    14.0736  14.5903  14.9420  15.0900  15.1389  15.2007  15.6321  16.0792

          k =-0.4752-0.8231 0.0000 (  7704 PWs)   bands (ev):

   -57.4957 -57.4895 -56.9961 -56.9955 -24.5149 -24.4603 -24.1639 -24.0785
   -23.9835 -23.9142 -23.7471 -23.7462 -23.6217 -23.6038 -23.3248 -23.3239
    -9.2158  -9.1988  -9.1981  -9.1974  -9.1968  -9.1917  -9.1826  -9.1774
    -9.1771  -9.1762  -9.1754  -9.1747  -9.1721  -9.1665  -8.7605  -8.7599
    -8.7557  -8.7550  -8.7422  -8.7415  -8.7189  -8.7182  -8.7006  -8.7000
    -8.6788  -8.6782  -8.6651  -8.6645  -1.3523  -0.6865   0.4435   2.8017
     4.1294   5.6154   5.9696   5.9872   6.2178   6.8147   6.8525   6.9527
     8.5501   9.9518  11.1677  11.2122  12.2974  13.5108  13.5945  13.7601
    14.0277  14.3866  14.8034  15.2927  15.3294  15.3361  15.6593  15.7637

     the Fermi energy is    11.0476 ev

!    total energy              =   -2759.16326701 Ry
     estimated scf accuracy    <          7.0E-15 Ry
     smearing contrib. (-TS)   =      -0.00001272 Ry
     internal energy E=F+TS    =   -2759.16325429 Ry

     The total energy is F=E-TS. E is the sum of the following terms:
     one-electron contribution =   -8668.81263399 Ry
     hartree contribution      =    4440.40128810 Ry
     xc contribution           =    -282.39220992 Ry
     ewald contribution        =    1751.64030152 Ry

     convergence has been achieved in  40 iterations

     Forces acting on atoms (cartesian axes, Ry/au):

     atom    1 type  1   force =     0.00000009    0.00000025   -0.00055196
     atom    2 type  2   force =     0.00000001    0.00000003    0.00040198
     atom    3 type  1   force =    -0.00000004   -0.00000011   -0.00046426
     atom    4 type  2   force =    -0.00000008   -0.00000018    0.00011866
     atom    5 type  1   force =    -0.00000004   -0.00000008    0.00016256
     atom    6 type  2   force =     0.00000002    0.00000005   -0.00011724
     atom    7 type  1   force =     0.00000003    0.00000003    0.00045026

     Total force =     0.000969     Total SCF correction =     0.000001


     Computing stress (Cartesian axis) and pressure

          total   stress  (Ry/bohr**3)                   (kbar)     P=       -9.95
  -0.00006470   0.00000000  -0.00000000           -9.52        0.00       -0.00
   0.00000000  -0.00006470  -0.00000000            0.00       -9.52       -0.00
  -0.00000000  -0.00000000  -0.00007359           -0.00       -0.00      -10.83


     Writing output data file /scratch/as3359/Ta4C3_loop/Ta.save/
 
     init_run     :     40.59s CPU     23.07s WALL (       2 calls)
     electrons    :  70311.60s CPU  35763.94s WALL (      14 calls)
     update_pot   :     88.23s CPU     53.31s WALL (      12 calls)
     forces       :    116.60s CPU     59.63s WALL (      14 calls)
     stress       :    426.14s CPU    217.02s WALL (      14 calls)

     Called by init_run:
     wfcinit      :     26.85s CPU     13.82s WALL (       2 calls)
     potinit      :      3.37s CPU      1.70s WALL (       2 calls)
     hinit0       :      9.09s CPU      6.70s WALL (       2 calls)

     Called by electrons:
     c_bands      :  66582.04s CPU  33776.73s WALL (     580 calls)
     sum_band     :   3287.53s CPU   1716.53s WALL (     580 calls)
     v_of_rho     :     65.77s CPU     33.75s WALL (     594 calls)
     newd         :    361.59s CPU    229.45s WALL (     594 calls)
     mix_rho      :     15.34s CPU      7.91s WALL (     580 calls)

     Called by c_bands:
     init_us_2    :    242.01s CPU    121.39s WALL (   88060 calls)
     ccgdiagg     :  59994.20s CPU  30422.37s WALL (   45511 calls)
     wfcrot       :   6335.46s CPU   3220.07s WALL (   44623 calls)

     Called by *cgdiagg:
     h_psi        :  38443.23s CPU  19532.01s WALL (10395222 calls)
     s_psi        :  11381.88s CPU   5747.80s WALL (20745821 calls)

     Called by h_psi:
     h_psi:calbec :   6861.05s CPU   3490.08s WALL (10395222 calls)
     vloc_psi     :  24791.74s CPU  12618.62s WALL (10395222 calls)
     add_vuspsi   :   6344.55s CPU   3205.27s WALL (10395222 calls)
     hs_1psi      :  39005.02s CPU  19779.48s WALL (10350599 calls)
     s_1psi       :  11135.02s CPU   5615.45s WALL (10350599 calls)

     General routines
     calbec       :  12498.87s CPU   6353.25s WALL (20793921 calls)
     fft          :     35.17s CPU     18.01s WALL (    8056 calls)
     ffts         :      2.16s CPU      1.11s WALL (    1174 calls)
     fftw         :  22660.19s CPU  11540.14s WALL (30219518 calls)
     interpolate  :      4.30s CPU      2.20s WALL (     594 calls)
 
     Parallel routines
 
     PWSCF        :     19h43m CPU     10h 2m WALL

 
   This run was terminated on:  21:31:24   7Apr2022            

=------------------------------------------------------------------------------=
   JOB DONE.
=------------------------------------------------------------------------------=
