
     Program PWSCF v.6.8 starts on  8Apr2022 at 17:59:32 

     This program is part of the open-source Quantum ESPRESSO suite
     for quantum simulation of materials; please cite
         "P. Giannozzi et al., J. Phys.:Condens. Matter 21 395502 (2009);
         "P. Giannozzi et al., J. Phys.:Condens. Matter 29 465901 (2017);
         "P. Giannozzi et al., J. Chem. Phys. 152 154105 (2020);
          URL http://www.quantum-espresso.org", 
     in publications or presentations arising from this work. More details at
     http://www.quantum-espresso.org/quote

     Parallel version (MPI & OpenMP), running on       4 processor cores
     Number of MPI processes:                 2
     Threads/MPI process:                     2

     MPI processes distributed on     1 nodes
     R & G space division:  proc/nbgrp/npool/nimage =       2
     125297 MiB available memory on the printing compute node when the environment starts
 
     Reading input from Ta4C3.vcrelax.in

     Current dimensions of program PWSCF are:
     Max number of different atomic species (ntypx) = 10
     Max number of k-points (npk) =  40000
     Max angular momentum in pseudopotentials (lmaxx) =  4
     file Ta.pbesol-spfn-rrkjus_psl.1.0.0.UPF: wavefunction(s)  5S 5P renormalized
     Message from routine setup:
     using ibrav=0 with symmetry is DISCOURAGED, use correct ibrav instead

     Subspace diagonalization in iterative solution of the eigenvalue problem:
     a serial algorithm will be used

 
     Parallelization info
     --------------------
     sticks:   dense  smooth     PW     G-vecs:    dense   smooth      PW
     Min         351     279     81                43085    30807    5029
     Max         352     280     82                43096    30828    5050
     Sum         703     559    163                86181    61635   10079
 
     Using Slab Decomposition
 


     bravais-lattice index     =            0
     lattice parameter (alat)  =       5.5500  a.u.
     unit-cell volume          =     983.3123 (a.u.)^3
     number of atoms/cell      =            7
     number of atomic types    =            2
     number of electrons       =       120.00
     number of Kohn-Sham states=           72
     kinetic-energy cutoff     =      60.0000  Ry
     charge density cutoff     =     300.0000  Ry
     scf convergence threshold =      1.0E-12
     mixing beta               =       0.7000
     number of iterations used =            8  plain     mixing
     energy convergence thresh.=      1.0E-04
     force convergence thresh. =      1.0E-03
     press convergence thresh. =      5.0E-01
     Exchange-correlation= PBESOL
                           (   1   4  10   8   0   0   0)
     nstep                     =           50


     celldm(1)=   5.550000  celldm(2)=   0.000000  celldm(3)=   0.000000
     celldm(4)=   0.000000  celldm(5)=   0.000000  celldm(6)=   0.000000

     crystal axes: (cart. coord. in units of alat)
               a(1) = (   1.052120  -0.000000   0.000000 )  
               a(2) = (  -0.526060   0.911163   0.000000 )  
               a(3) = (   0.000000   0.000000   6.000000 )  

     reciprocal axes: (cart. coord. in units 2 pi/alat)
               b(1) = (  0.950462  0.548749  0.000000 )  
               b(2) = (  0.000000  1.097498  0.000000 )  
               b(3) = (  0.000000  0.000000  0.166667 )  


     PseudoPot. # 1 for Ta read from file:
     /shared/home/as3359/pseudo/Ta.pbesol-spfn-rrkjus_psl.1.0.0.UPF
     MD5 check sum: f099565ffaca9b150a52e9412a28e20b
     Pseudo is Ultrasoft + core correction, Zval = 27.0
     Generated using &quot;atomic&quot; code by A. Dal Corso  v.6.3
     Using radial grid of 1273 points,  8 beta functions with: 
                l(1) =   0
                l(2) =   0
                l(3) =   1
                l(4) =   1
                l(5) =   2
                l(6) =   2
                l(7) =   3
                l(8) =   3
     Q(r) pseudized with 0 coefficients 


     PseudoPot. # 2 for C  read from file:
     /shared/home/as3359/pseudo/C.pbesol-n-rrkjus_psl.1.0.0.UPF
     MD5 check sum: 05995be603a8a7c99da3dc4413f31573
     Pseudo is Ultrasoft + core correction, Zval =  4.0
     Generated using &quot;atomic&quot; code by A. Dal Corso  v.6.3MaX
     Using radial grid of 1073 points,  4 beta functions with: 
                l(1) =   0
                l(2) =   0
                l(3) =   1
                l(4) =   1
     Q(r) pseudized with 0 coefficients 


     atomic species   valence    mass     pseudopotential
        Ta            27.00   180.94788     Ta( 1.00)
        C              4.00    12.01070     C ( 1.00)

      6 Sym. Ops. (no inversion) found



   Cartesian axes

     site n.     atom                  positions (alat units)
         1           Ta  tau(   1) = (  -0.0000003   0.6074414  -0.1694839  )
         2           C   tau(   2) = (  -0.0000001  -0.0000004   0.2265492  )
         3           Ta  tau(   3) = (   0.5260598   0.3037210   0.6692330  )
         4           C   tau(   4) = (  -0.0000000   0.6074422   1.1220733  )
         5           Ta  tau(   5) = (   0.0000001   0.0000002   1.5750179  )
         6           C   tau(   6) = (   0.5260599   0.3037212   2.0174996  )
         7           Ta  tau(   7) = (   0.0000000   0.6074423   2.4136776  )

     number of k points=    19  Marzari-Vanderbilt smearing, width (Ry)=  0.0050
                       cart. coord. in units 2pi/alat
        k(    1) = (   0.0000000   0.0000000   0.0000000), wk =   0.0138889
        k(    2) = (   0.0000000   0.0914582   0.0000000), wk =   0.0833333
        k(    3) = (   0.0000000   0.1829164   0.0000000), wk =   0.0833333
        k(    4) = (   0.0000000   0.2743746   0.0000000), wk =   0.0833333
        k(    5) = (   0.0000001   0.3658328   0.0000000), wk =   0.0833333
        k(    6) = (   0.0000001   0.4572910   0.0000000), wk =   0.0833333
        k(    7) = (  -0.0000001  -0.5487492   0.0000000), wk =   0.0416667
        k(    8) = (   0.0792052   0.1371873   0.0000000), wk =   0.0833333
        k(    9) = (   0.0792052   0.2286455   0.0000000), wk =   0.1666667
        k(   10) = (   0.0792052   0.3201037   0.0000000), wk =   0.1666667
        k(   11) = (   0.0792052   0.4115619   0.0000000), wk =   0.1666667
        k(   12) = (   0.0792053   0.5030201   0.0000000), wk =   0.1666667
        k(   13) = (   0.1584104   0.2743746   0.0000000), wk =   0.0833333
        k(   14) = (   0.1584104   0.3658328   0.0000000), wk =   0.1666667
        k(   15) = (   0.1584104   0.4572910   0.0000000), wk =   0.1666667
        k(   16) = (   0.1584104   0.5487492   0.0000000), wk =   0.0833333
        k(   17) = (   0.2376156   0.4115619   0.0000000), wk =   0.0833333
        k(   18) = (   0.2376156   0.5030201   0.0000000), wk =   0.1666667
        k(   19) = (   0.3168208   0.5487493   0.0000000), wk =   0.0277778

     Dense  grid:    86181 G-vectors     FFT dimensions: (  36,  36, 192)

     Smooth grid:    61635 G-vectors     FFT dimensions: (  30,  30, 180)

     Estimated max dynamical RAM per process >     517.37 MB

     Estimated total dynamical RAM >       1.01 GB

     Check: negative core charge=   -0.000003

     Initial potential from superposition of free atoms

     starting charge  119.99679, renormalised to  120.00000

     negative rho (up, down):  3.118E-05 0.000E+00
     Starting wfcs are   80 randomized atomic wfcs

     total cpu time spent up to now is        5.7 secs

     Self-consistent Calculation

     iteration #  1     ecut=    60.00 Ry     beta= 0.70
     CG style diagonalization
     ethr =  1.00E-02,  avg # of iterations =  2.2

     negative rho (up, down):  9.187E-07 0.000E+00

     total cpu time spent up to now is       12.4 secs

     total energy              =   -2756.48407917 Ry
     estimated scf accuracy    <       3.80032514 Ry

     iteration #  2     ecut=    60.00 Ry     beta= 0.70
     CG style diagonalization
     ethr =  3.17E-03,  avg # of iterations =  4.0

     total cpu time spent up to now is       22.3 secs

     total energy              =   -2746.14311875 Ry
     estimated scf accuracy    <     224.87344261 Ry

     iteration #  3     ecut=    60.00 Ry     beta= 0.70
     CG style diagonalization
     ethr =  3.17E-03,  avg # of iterations =  4.6

     total cpu time spent up to now is       34.0 secs

     total energy              =   -2757.58955456 Ry
     estimated scf accuracy    <      11.45653219 Ry

     iteration #  4     ecut=    60.00 Ry     beta= 0.70
     CG style diagonalization
     ethr =  3.17E-03,  avg # of iterations =  3.5

     total cpu time spent up to now is       42.4 secs

     total energy              =   -2758.76311973 Ry
     estimated scf accuracy    <       4.55318371 Ry

     iteration #  5     ecut=    60.00 Ry     beta= 0.70
     CG style diagonalization
     ethr =  3.17E-03,  avg # of iterations =  3.1

     total cpu time spent up to now is       49.8 secs

     total energy              =   -2758.97404060 Ry
     estimated scf accuracy    <       6.27054469 Ry

     iteration #  6     ecut=    60.00 Ry     beta= 0.70
     CG style diagonalization
     ethr =  3.17E-03,  avg # of iterations =  3.0

     total cpu time spent up to now is       56.8 secs

     total energy              =   -2759.15363100 Ry
     estimated scf accuracy    <       0.17857210 Ry

     iteration #  7     ecut=    60.00 Ry     beta= 0.70
     CG style diagonalization
     ethr =  1.49E-04,  avg # of iterations =  3.5

     total cpu time spent up to now is       65.4 secs

     total energy              =   -2759.16559100 Ry
     estimated scf accuracy    <       0.09888712 Ry

     iteration #  8     ecut=    60.00 Ry     beta= 0.70
     CG style diagonalization
     ethr =  8.24E-05,  avg # of iterations =  3.3

     total cpu time spent up to now is       73.3 secs

     total energy              =   -2759.16200582 Ry
     estimated scf accuracy    <       0.10698535 Ry

     iteration #  9     ecut=    60.00 Ry     beta= 0.70
     CG style diagonalization
     ethr =  8.24E-05,  avg # of iterations =  3.1

     total cpu time spent up to now is       80.7 secs

     total energy              =   -2759.16533298 Ry
     estimated scf accuracy    <       0.05558118 Ry

     iteration # 10     ecut=    60.00 Ry     beta= 0.70
     CG style diagonalization
     ethr =  4.63E-05,  avg # of iterations =  3.2

     total cpu time spent up to now is       88.4 secs

     total energy              =   -2759.16609686 Ry
     estimated scf accuracy    <       0.02502764 Ry

     iteration # 11     ecut=    60.00 Ry     beta= 0.70
     CG style diagonalization
     ethr =  2.09E-05,  avg # of iterations =  3.3

     negative rho (up, down):  3.598E-06 0.000E+00

     total cpu time spent up to now is       96.1 secs

     total energy              =   -2759.16384480 Ry
     estimated scf accuracy    <       0.01617114 Ry

     iteration # 12     ecut=    60.00 Ry     beta= 0.70
     CG style diagonalization
     ethr =  1.35E-05,  avg # of iterations =  3.2

     negative rho (up, down):  1.752E-06 0.000E+00

     total cpu time spent up to now is      103.6 secs

     total energy              =   -2759.16122985 Ry
     estimated scf accuracy    <       0.00773083 Ry

     iteration # 13     ecut=    60.00 Ry     beta= 0.70
     CG style diagonalization
     ethr =  6.44E-06,  avg # of iterations =  3.5

     negative rho (up, down):  6.576E-06 0.000E+00

     total cpu time spent up to now is      112.0 secs

     total energy              =   -2759.16289003 Ry
     estimated scf accuracy    <       0.00386132 Ry

     iteration # 14     ecut=    60.00 Ry     beta= 0.70
     CG style diagonalization
     ethr =  3.22E-06,  avg # of iterations =  3.4

     negative rho (up, down):  1.050E-05 0.000E+00

     total cpu time spent up to now is      120.3 secs

     total energy              =   -2759.16333067 Ry
     estimated scf accuracy    <       0.00035643 Ry

     iteration # 15     ecut=    60.00 Ry     beta= 0.70
     CG style diagonalization
     ethr =  2.97E-07,  avg # of iterations =  3.3

     negative rho (up, down):  1.992E-05 0.000E+00

     total cpu time spent up to now is      128.2 secs

     total energy              =   -2759.16338815 Ry
     estimated scf accuracy    <       0.00004641 Ry

     iteration # 16     ecut=    60.00 Ry     beta= 0.70
     CG style diagonalization
     ethr =  3.87E-08,  avg # of iterations =  3.6

     negative rho (up, down):  1.869E-05 0.000E+00

     total cpu time spent up to now is      137.1 secs

     total energy              =   -2759.16340560 Ry
     estimated scf accuracy    <       0.00019497 Ry

     iteration # 17     ecut=    60.00 Ry     beta= 0.70
     CG style diagonalization
     ethr =  3.87E-08,  avg # of iterations =  3.1

     negative rho (up, down):  1.901E-05 0.000E+00

     total cpu time spent up to now is      144.3 secs

     total energy              =   -2759.16340881 Ry
     estimated scf accuracy    <       0.00004310 Ry

     iteration # 18     ecut=    60.00 Ry     beta= 0.70
     CG style diagonalization
     ethr =  3.59E-08,  avg # of iterations =  3.0

     negative rho (up, down):  1.932E-05 0.000E+00

     total cpu time spent up to now is      151.3 secs

     total energy              =   -2759.16340910 Ry
     estimated scf accuracy    <       0.00000845 Ry

     iteration # 19     ecut=    60.00 Ry     beta= 0.70
     CG style diagonalization
     ethr =  7.04E-09,  avg # of iterations =  3.1

     negative rho (up, down):  2.040E-05 0.000E+00

     total cpu time spent up to now is      158.6 secs

     total energy              =   -2759.16340863 Ry
     estimated scf accuracy    <       0.00000261 Ry

     iteration # 20     ecut=    60.00 Ry     beta= 0.70
     CG style diagonalization
     ethr =  2.18E-09,  avg # of iterations =  3.4

     negative rho (up, down):  2.102E-05 0.000E+00

     total cpu time spent up to now is      166.8 secs

     total energy              =   -2759.16340942 Ry
     estimated scf accuracy    <       0.00000037 Ry

     iteration # 21     ecut=    60.00 Ry     beta= 0.70
     CG style diagonalization
     ethr =  3.08E-10,  avg # of iterations =  3.7

     negative rho (up, down):  2.129E-05 0.000E+00

     total cpu time spent up to now is      175.9 secs

     total energy              =   -2759.16340963 Ry
     estimated scf accuracy    <       0.00000021 Ry

     iteration # 22     ecut=    60.00 Ry     beta= 0.70
     CG style diagonalization
     ethr =  1.75E-10,  avg # of iterations =  3.3

     negative rho (up, down):  2.137E-05 0.000E+00

     total cpu time spent up to now is      183.8 secs

     total energy              =   -2759.16340965 Ry
     estimated scf accuracy    <       0.00000010 Ry

     iteration # 23     ecut=    60.00 Ry     beta= 0.70
     CG style diagonalization
     ethr =  7.93E-11,  avg # of iterations =  3.2

     negative rho (up, down):  2.146E-05 0.000E+00

     total cpu time spent up to now is      191.3 secs

     total energy              =   -2759.16340964 Ry
     estimated scf accuracy    <       0.00000004 Ry

     iteration # 24     ecut=    60.00 Ry     beta= 0.70
     CG style diagonalization
     ethr =  2.97E-11,  avg # of iterations =  3.3

     negative rho (up, down):  2.153E-05 0.000E+00

     total cpu time spent up to now is      199.2 secs

     total energy              =   -2759.16340965 Ry
     estimated scf accuracy    <          5.4E-09 Ry

     iteration # 25     ecut=    60.00 Ry     beta= 0.70
     CG style diagonalization
     ethr =  4.49E-12,  avg # of iterations =  3.9

     negative rho (up, down):  2.158E-05 0.000E+00

     total cpu time spent up to now is      208.8 secs

     total energy              =   -2759.16340965 Ry
     estimated scf accuracy    <          9.3E-09 Ry

     iteration # 26     ecut=    60.00 Ry     beta= 0.70
     CG style diagonalization
     ethr =  4.49E-12,  avg # of iterations =  3.1

     negative rho (up, down):  2.157E-05 0.000E+00

     total cpu time spent up to now is      216.0 secs

     total energy              =   -2759.16340965 Ry
     estimated scf accuracy    <          5.8E-09 Ry

     iteration # 27     ecut=    60.00 Ry     beta= 0.70
     CG style diagonalization
     ethr =  4.49E-12,  avg # of iterations =  3.0

     negative rho (up, down):  2.157E-05 0.000E+00

     total cpu time spent up to now is      223.1 secs

     total energy              =   -2759.16340965 Ry
     estimated scf accuracy    <          1.5E-09 Ry

     iteration # 28     ecut=    60.00 Ry     beta= 0.70
     CG style diagonalization
     ethr =  1.22E-12,  avg # of iterations =  3.2

     negative rho (up, down):  2.156E-05 0.000E+00

     total cpu time spent up to now is      230.8 secs

     total energy              =   -2759.16340965 Ry
     estimated scf accuracy    <          7.3E-10 Ry

     iteration # 29     ecut=    60.00 Ry     beta= 0.70
     CG style diagonalization
     ethr =  6.07E-13,  avg # of iterations =  3.6

     negative rho (up, down):  2.157E-05 0.000E+00

     total cpu time spent up to now is      239.4 secs

     total energy              =   -2759.16340965 Ry
     estimated scf accuracy    <          2.4E-10 Ry

     iteration # 30     ecut=    60.00 Ry     beta= 0.70
     CG style diagonalization
     ethr =  1.97E-13,  avg # of iterations =  3.2

     negative rho (up, down):  2.157E-05 0.000E+00

     total cpu time spent up to now is      246.9 secs

     total energy              =   -2759.16340965 Ry
     estimated scf accuracy    <          5.9E-11 Ry

     iteration # 31     ecut=    60.00 Ry     beta= 0.70
     CG style diagonalization
     ethr =  1.00E-13,  avg # of iterations =  3.2

     negative rho (up, down):  2.157E-05 0.000E+00

     total cpu time spent up to now is      254.3 secs

     total energy              =   -2759.16340965 Ry
     estimated scf accuracy    <          6.9E-11 Ry

     iteration # 32     ecut=    60.00 Ry     beta= 0.70
     CG style diagonalization
     ethr =  1.00E-13,  avg # of iterations =  3.1

     negative rho (up, down):  2.157E-05 0.000E+00

     total cpu time spent up to now is      261.5 secs

     total energy              =   -2759.16340965 Ry
     estimated scf accuracy    <          1.0E-11 Ry

     iteration # 33     ecut=    60.00 Ry     beta= 0.70
     CG style diagonalization
     ethr =  1.00E-13,  avg # of iterations =  3.0

     negative rho (up, down):  2.157E-05 0.000E+00

     total cpu time spent up to now is      268.5 secs

     total energy              =   -2759.16340965 Ry
     estimated scf accuracy    <          2.2E-12 Ry

     iteration # 34     ecut=    60.00 Ry     beta= 0.70
     CG style diagonalization
     ethr =  1.00E-13,  avg # of iterations =  3.0

     negative rho (up, down):  2.157E-05 0.000E+00

     total cpu time spent up to now is      275.5 secs

     End of self-consistent calculation

          k = 0.0000 0.0000 0.0000 (  7661 PWs)   bands (ev):

   -57.5333 -57.5146 -57.0349 -57.0344 -24.4306 -24.1726 -23.7961 -23.7961
   -23.7683 -23.7682 -23.6665 -23.5988 -23.1865 -23.1865 -23.1861 -23.1861
    -9.2121  -9.2065  -9.1927  -9.1919  -9.1919  -9.1824  -9.1823  -9.1805
    -9.1683  -9.1683  -9.1594  -9.1594  -9.1449  -9.1445  -8.7780  -8.7774
    -8.7370  -8.7369  -8.7364  -8.7363  -8.7183  -8.7183  -8.7177  -8.7177
    -8.7034  -8.7029  -8.6456  -8.6450  -3.2807  -2.1279  -0.3680   2.7752
     4.6482   6.0492   6.0492   6.8016   6.8016   7.4263   8.7883   8.7883
     9.4695  10.2476  10.2476  10.2838  10.3512  11.4215  11.4215  12.0986
    12.2168  12.2168  13.2651  13.2652  13.6354  13.9619  13.9620  14.5451

          k = 0.0000 0.0915 0.0000 (  7723 PWs)   bands (ev):

   -57.5303 -57.5121 -57.0324 -57.0318 -24.4151 -24.1680 -23.8419 -23.8241
   -23.8091 -23.7767 -23.6515 -23.5985 -23.2284 -23.2276 -23.1960 -23.1956
    -9.2097  -9.2043  -9.1929  -9.1912  -9.1906  -9.1827  -9.1814  -9.1795
    -9.1698  -9.1689  -9.1608  -9.1597  -9.1478  -9.1474  -8.7767  -8.7762
    -8.7385  -8.7379  -8.7374  -8.7368  -8.7188  -8.7182  -8.7173  -8.7167
    -8.7011  -8.7006  -8.6485  -8.6479  -3.1134  -2.0117  -0.3664   2.9831
     4.6246   6.0860   6.1309   6.3443   6.8389   7.5963   8.1648   8.6273
     9.4788   9.9597  10.2494  10.4640  10.4666  11.2411  11.4411  11.7184
    12.3697  12.8865  13.3123  13.3928  13.5786  14.1056  14.1549  14.8565

          k = 0.0000 0.1829 0.0000 (  7721 PWs)   bands (ev):

   -57.5220 -57.5055 -57.0254 -57.0249 -24.3722 -24.1652 -23.9720 -23.9344
   -23.8432 -23.8006 -23.6342 -23.5995 -23.3410 -23.3375 -23.2218 -23.2214
    -9.2027  -9.1984  -9.1941  -9.1875  -9.1870  -9.1832  -9.1787  -9.1767
    -9.1731  -9.1703  -9.1644  -9.1615  -9.1545  -9.1532  -8.7734  -8.7728
    -8.7423  -8.7417  -8.7384  -8.7378  -8.7197  -8.7191  -8.7144  -8.7138
    -8.6943  -8.6937  -8.6551  -8.6545  -2.6435  -1.7073  -0.3982   3.5356
     4.6871   5.6050   6.1355   6.3138   6.8964   7.0445   7.5750   8.3173
     8.9663   9.7977  10.0131  10.4531  11.0580  11.2023  11.7782  11.8188
    12.5091  13.1807  13.4938  13.6221  13.8240  14.2702  14.4592  15.4851

          k = 0.0000 0.2744 0.0000 (  7712 PWs)   bands (ev):

   -57.5105 -57.4965 -57.0159 -57.0154 -24.3135 -24.2191 -24.1342 -24.0242
   -23.8878 -23.8347 -23.6247 -23.6042 -23.4889 -23.4797 -23.2568 -23.2563
    -9.2002  -9.1927  -9.1878  -9.1837  -9.1821  -9.1806  -9.1781  -9.1763
    -9.1724  -9.1722  -9.1686  -9.1675  -9.1629  -9.1562  -8.7691  -8.7685
    -8.7473  -8.7467  -8.7399  -8.7392  -8.7204  -8.7198  -8.7103  -8.7097
    -8.6850  -8.6845  -8.6639  -8.6633  -1.9725  -1.3404  -0.4753   4.0568
     4.9820   5.1972   5.6114   6.3989   6.4171   6.8959   7.2220   8.1861
     8.2028   9.8556   9.9205  10.2865  11.6819  11.9176  12.0765  12.4714
    12.9806  13.1740  13.6130  13.7190  14.1551  14.5937  14.7575  16.0684

          k = 0.0000 0.3658 0.0000 (  7708 PWs)   bands (ev):

   -57.4987 -57.4878 -57.0064 -57.0058 -24.3517 -24.3147 -24.2194 -24.0471
   -23.9312 -23.8694 -23.6388 -23.6340 -23.6119 -23.5871 -23.2917 -23.2909
    -9.2031  -9.1898  -9.1832  -9.1803  -9.1803  -9.1798  -9.1768  -9.1751
    -9.1747  -9.1712  -9.1688  -9.1676  -9.1674  -9.1569  -8.7651  -8.7645
    -8.7522  -8.7515  -8.7415  -8.7409  -8.7205  -8.7199  -8.7062  -8.7056
    -8.6757  -8.6751  -8.6722  -8.6716  -1.3815  -1.0475  -0.3843   3.8629
     4.5813   5.3759   5.8051   6.1330   6.2515   6.8754   6.9053   7.5471
     8.3113   9.7988  10.2833  10.4983  12.0686  12.6311  12.8743  13.2429
    13.4315  13.7922  13.9186  13.9716  14.1092  14.8349  15.0716  16.4073

          k = 0.0000 0.4573 0.0000 (  7730 PWs)   bands (ev):

   -57.4896 -57.4819 -56.9994 -56.9988 -24.4637 -24.4123 -24.1776 -24.0618
   -23.9623 -23.8950 -23.7228 -23.7122 -23.6212 -23.6009 -23.3171 -23.3161
    -9.2056  -9.1897  -9.1861  -9.1859  -9.1852  -9.1813  -9.1735  -9.1704
    -9.1692  -9.1685  -9.1668  -9.1664  -9.1645  -9.1571  -8.7625  -8.7620
    -8.7556  -8.7550  -8.7429  -8.7423  -8.7204  -8.7198  -8.7031  -8.7025
    -8.6781  -8.6775  -8.6689  -8.6683  -1.3136  -0.7686   0.1050   3.2024
     4.2072   5.6585   5.8386   6.0667   6.2849   6.7838   6.8384   7.1117
     8.4855   9.8841  10.8551  10.9572  12.2097  13.2365  13.4463  13.7301
    13.8638  14.1109  14.4508  14.7466  14.8683  15.1506  15.2396  16.2251

          k =-0.0000-0.5487 0.0000 (  7704 PWs)   bands (ev):

   -57.4861 -57.4799 -56.9968 -56.9963 -24.5053 -24.4508 -24.1572 -24.0724
   -23.9736 -23.9044 -23.7473 -23.7464 -23.6220 -23.6036 -23.3263 -23.3253
    -9.2064  -9.1894  -9.1881  -9.1875  -9.1874  -9.1824  -9.1731  -9.1677
    -9.1675  -9.1666  -9.1659  -9.1653  -9.1627  -9.1570  -8.7616  -8.7610
    -8.7568  -8.7562  -8.7433  -8.7427  -8.7202  -8.7196  -8.7019  -8.7013
    -8.6801  -8.6795  -8.6663  -8.6657  -1.3460  -0.6828   0.4496   2.8079
     4.1328   5.6219   5.9742   5.9933   6.2225   6.8183   6.8555   6.9561
     8.5559   9.9576  11.1614  11.2054  12.2989  13.5066  13.5923  13.7611
    14.0314  14.3940  14.8088  15.3009  15.3368  15.3368  15.6613  15.7631

          k = 0.0792 0.1372 0.0000 (  7719 PWs)   bands (ev):

   -57.5246 -57.5076 -57.0276 -57.0271 -24.3859 -24.1637 -23.9247 -23.9078
   -23.8279 -23.8002 -23.6377 -23.5988 -23.3033 -23.3010 -23.2159 -23.2155
    -9.2048  -9.1999  -9.1934  -9.1907  -9.1867  -9.1828  -9.1801  -9.1772
    -9.1721  -9.1698  -9.1636  -9.1601  -9.1523  -9.1521  -8.7744  -8.7739
    -8.7411  -8.7405  -8.7381  -8.7374  -8.7194  -8.7188  -8.7154  -8.7148
    -8.6964  -8.6959  -8.6531  -8.6525  -2.7941  -1.8006  -0.3835   3.3709
     4.6477   5.7600   6.1527   6.3523   6.7637   7.4867   7.5896   8.1857
     9.5362   9.5752  10.3217  10.3647  10.6320  11.2233  11.5952  11.8325
    12.3480  13.2303  13.3834  13.8053  13.9536  14.1228  14.3767  14.8044

          k = 0.0792 0.2286 0.0000 (  7706 PWs)   bands (ev):

   -57.5147 -57.4998 -57.0194 -57.0188 -24.3342 -24.1838 -24.0718 -23.9964
   -23.8743 -23.8379 -23.6255 -23.6013 -23.4276 -23.4221 -23.2519 -23.2514
    -9.1981  -9.1947  -9.1919  -9.1871  -9.1831  -9.1810  -9.1777  -9.1759
    -9.1739  -9.1713  -9.1684  -9.1627  -9.1600  -9.1571  -8.7705  -8.7700
    -8.7453  -8.7447  -8.7394  -8.7388  -8.7201  -8.7195  -8.7119  -8.7113
    -8.6884  -8.6879  -8.6608  -8.6602  -2.2161  -1.4581  -0.4555   3.9946
     4.8306   5.2519   5.9016   6.4663   6.5984   6.8150   7.3190   7.7405
     9.0262   9.7542   9.9945  10.3349  11.1178  11.3080  12.1964  12.2907
    12.5462  13.3192  13.6759  13.9922  14.3331  14.4353  14.7127  15.2774

          k = 0.0792 0.3201 0.0000 (  7693 PWs)   bands (ev):

   -57.5030 -57.4910 -57.0099 -57.0093 -24.2857 -24.2818 -24.2088 -24.0373
   -23.9278 -23.8792 -23.6210 -23.6092 -23.5630 -23.5505 -23.2931 -23.2926
    -9.2001  -9.1891  -9.1850  -9.1813  -9.1805  -9.1795  -9.1770  -9.1759
    -9.1750  -9.1718  -9.1699  -9.1676  -9.1667  -9.1582  -8.7663  -8.7657
    -8.7500  -8.7493  -8.7411  -8.7405  -8.7203  -8.7198  -8.7081  -8.7075
    -8.6791  -8.6785  -8.6694  -8.6689  -1.5277  -1.1304  -0.5079   4.1938
     4.9220   5.2311   5.4671   6.2674   6.4675   6.6745   6.9907   7.3721
     8.6790   9.9910  10.0654  10.1595  11.7616  11.8950  12.4129  13.0881
    13.4153  13.5460  13.7151  14.1877  14.4661  14.6986  15.2183  16.0270

          k = 0.0792 0.4116 0.0000 (  7716 PWs)   bands (ev):

   -57.4925 -57.4837 -57.0016 -57.0011 -24.4056 -24.3615 -24.1933 -24.0546
   -23.9694 -23.9148 -23.6784 -23.6699 -23.6161 -23.5991 -23.3284 -23.3280
    -9.2029  -9.1887  -9.1843  -9.1839  -9.1834  -9.1788  -9.1764  -9.1728
    -9.1714  -9.1703  -9.1686  -9.1673  -9.1654  -9.1584  -8.7629  -8.7624
    -8.7540  -8.7533  -8.7428  -8.7422  -8.7202  -8.7196  -8.7048  -8.7042
    -8.6767  -8.6761  -8.6710  -8.6704  -1.2075  -0.8403  -0.2120   3.6727
     4.3748   5.5159   5.9651   6.1252   6.2338   6.6141   6.8161   7.0368
     8.5932   9.9643  10.5278  10.5919  12.1607  12.7277  12.8371  13.3526
    13.7880  14.1283  14.5504  14.7091  14.7341  14.9467  15.3594  16.2613

          k = 0.0792 0.5030 0.0000 (  7736 PWs)   bands (ev):

   -57.4861 -57.4799 -56.9968 -56.9963 -24.4807 -24.4281 -24.1550 -24.0742
   -23.9907 -23.9355 -23.7327 -23.7265 -23.6181 -23.6039 -23.3487 -23.3483
    -9.2046  -9.1888  -9.1877  -9.1874  -9.1860  -9.1813  -9.1747  -9.1699
    -9.1678  -9.1672  -9.1667  -9.1653  -9.1632  -9.1586  -8.7611  -8.7605
    -8.7562  -8.7556  -8.7439  -8.7433  -8.7200  -8.7194  -8.7029  -8.7023
    -8.6807  -8.6802  -8.6664  -8.6658  -1.2460  -0.6630   0.2990   3.0518
     4.2121   5.6954   5.9017   6.0216   6.2782   6.5777   6.8142   6.9069
     8.6337   9.9930  11.0253  11.0444  12.3487  13.1633  13.3477  13.5850
    14.0791  14.5948  14.9454  15.0977  15.1413  15.2048  15.6339  16.0802

          k = 0.1584 0.2744 0.0000 (  7689 PWs)   bands (ev):

   -57.5046 -57.4921 -57.0111 -57.0106 -24.2851 -24.2448 -24.1915 -24.0263
   -23.9316 -23.9028 -23.6173 -23.6049 -23.5298 -23.5226 -23.3046 -23.3030
    -9.1965  -9.1904  -9.1874  -9.1827  -9.1812  -9.1786  -9.1770  -9.1752
    -9.1749  -9.1732  -9.1691  -9.1678  -9.1637  -9.1611  -8.7666  -8.7661
    -8.7490  -8.7484  -8.7411  -8.7405  -8.7203  -8.7197  -8.7090  -8.7084
    -8.6803  -8.6798  -8.6685  -8.6679  -1.5896  -1.1376  -0.5559   4.4916
     5.0160   5.1587   5.2817   6.4596   6.4621   6.6692   6.7747   7.2307
     9.3527   9.4483  10.0419  10.2922  11.4502  11.5326  12.1623  13.0929
    13.3804  13.5457  13.6986  14.5962  14.6016  14.8556  15.3745  15.6535

          k = 0.1584 0.3658 0.0000 (  7693 PWs)   bands (ev):

   -57.4942 -57.4848 -57.0029 -57.0023 -24.3368 -24.3167 -24.2055 -24.0440
   -23.9962 -23.9616 -23.6275 -23.6230 -23.6090 -23.6003 -23.3617 -23.3587
    -9.1978  -9.1880  -9.1839  -9.1826  -9.1811  -9.1793  -9.1769  -9.1746
    -9.1737  -9.1711  -9.1704  -9.1681  -9.1659  -9.1612  -8.7628  -8.7622
    -8.7523  -8.7516  -8.7431  -8.7425  -8.7199  -8.7193  -8.7064  -8.7058
    -8.6765  -8.6759  -8.6721  -8.6715  -0.9905  -0.8665  -0.5361   4.2928
     4.5869   5.3199   5.7718   6.1215   6.2868   6.5356   6.6005   6.8902
     9.1102   9.8635  10.1737  10.3536  11.9674  12.1887  12.3010  13.2177
    13.8486  13.9942  14.5012  14.8934  15.0102  15.0979  16.0155  16.2425

          k = 0.1584 0.4573 0.0000 (  7729 PWs)   bands (ev):

   -57.4861 -57.4798 -56.9968 -56.9963 -24.4181 -24.3756 -24.1580 -24.0895
   -24.0212 -24.0012 -23.6885 -23.6823 -23.6121 -23.6064 -23.4041 -23.4008
    -9.1995  -9.1886  -9.1862  -9.1847  -9.1836  -9.1795  -9.1768  -9.1749
    -9.1707  -9.1675  -9.1671  -9.1660  -9.1653  -9.1613  -8.7601  -8.7595
    -8.7545  -8.7539  -8.7450  -8.7444  -8.7191  -8.7186  -8.7049  -8.7043
    -8.6819  -8.6813  -8.6665  -8.6660  -0.9725  -0.6248  -0.0541   3.6389
     4.4211   5.5298   5.9418   6.1179   6.2650   6.3477   6.4376   6.8474
     9.0604   9.9770  10.6317  10.7179  12.3949  12.6220  13.0650  13.2117
    13.8901  14.3741  14.8574  15.1093  15.1630  15.3456  16.2083  16.4709

          k = 0.1584 0.5487 0.0000 (  7732 PWs)   bands (ev):

   -57.4829 -57.4783 -56.9946 -56.9941 -24.4482 -24.3970 -24.1284 -24.1212
   -24.0223 -24.0210 -23.7112 -23.7042 -23.6117 -23.6078 -23.4197 -23.4164
    -9.2001  -9.1897  -9.1883  -9.1845  -9.1840  -9.1802  -9.1782  -9.1724
    -9.1702  -9.1665  -9.1664  -9.1643  -9.1627  -9.1627  -8.7591  -8.7585
    -8.7552  -8.7546  -8.7457  -8.7451  -8.7187  -8.7182  -8.7044  -8.7038
    -8.6839  -8.6833  -8.6644  -8.6638  -1.0084  -0.5511   0.2268   3.3324
     4.3720   5.6916   5.9078   5.9762   6.1696   6.2808   6.5123   6.9430
     9.0703   9.9975  10.9037  10.9654  12.4864  13.1203  13.1312  13.6784
    13.9227  14.2249  14.6651  14.8757  15.2141  15.4120  16.3428  16.7416

          k = 0.2376 0.4116 0.0000 (  7725 PWs)   bands (ev):

   -57.4861 -57.4798 -56.9968 -56.9963 -24.3663 -24.3517 -24.1724 -24.0822
   -24.0780 -24.0124 -23.6527 -23.6520 -23.6128 -23.6101 -23.4405 -23.4344
    -9.1956  -9.1871  -9.1866  -9.1854  -9.1809  -9.1808  -9.1759  -9.1756
    -9.1726  -9.1701  -9.1675  -9.1673  -9.1657  -9.1619  -8.7596  -8.7590
    -8.7534  -8.7528  -8.7457  -8.7451  -8.7187  -8.7181  -8.7059  -8.7054
    -8.6825  -8.6820  -8.6666  -8.6661  -0.6699  -0.6431  -0.3522   4.0878
     4.5509   5.2965   5.7674   6.1419   6.1577   6.3112   6.5569   6.7123
     9.5567   9.9467  10.2288  10.5219  12.1294  12.5317  12.8167  13.1937
    13.9409  14.2836  14.7938  15.1609  15.1739  15.2830  16.6259  16.7589

          k = 0.2376 0.5030 0.0000 (  7741 PWs)   bands (ev):

   -57.4808 -57.4776 -56.9933 -56.9928 -24.3816 -24.3416 -24.1988 -24.1431
   -24.0816 -24.0285 -23.6678 -23.6596 -23.6127 -23.6090 -23.4964 -23.4892
    -9.1945  -9.1897  -9.1877  -9.1840  -9.1823  -9.1799  -9.1773  -9.1759
    -9.1727  -9.1691  -9.1670  -9.1656  -9.1636  -9.1625  -8.7576  -8.7570
    -8.7535  -8.7528  -8.7479  -8.7473  -8.7173  -8.7168  -8.7063  -8.7057
    -8.6862  -8.6856  -8.6634  -8.6628  -0.6713  -0.4887  -0.0537   3.8977
     4.5556   5.3055   5.4971   6.1004   6.1791   6.2904   6.5263   6.7826
     9.7874  10.0757  10.6035  10.7237  12.2208  12.9432  13.1661  13.3792
    13.8549  14.0251  14.3605  14.7047  15.1392  15.3228  16.7615  17.0605

          k = 0.3168 0.5487 0.0000 (  7767 PWs)   bands (ev):

   -57.4779 -57.4777 -56.9921 -56.9915 -24.3166 -24.2855 -24.2852 -24.2227
   -24.0517 -24.0515 -23.6330 -23.6327 -23.6147 -23.6088 -23.5505 -23.5503
    -9.1909  -9.1900  -9.1899  -9.1821  -9.1820  -9.1807  -9.1771  -9.1770
    -9.1731  -9.1710  -9.1670  -9.1669  -9.1626  -9.1624  -8.7567  -8.7561
    -8.7514  -8.7508  -8.7506  -8.7500  -8.7162  -8.7157  -8.7075  -8.7069
    -8.6879  -8.6873  -8.6623  -8.6617  -0.4454  -0.4447  -0.1765   4.3846
     4.3847   5.1235   5.1778   6.1504   6.1507   6.4253   6.6119   6.6120
    10.2334  10.2334  10.6711  10.6715  12.1072  13.0553  13.0559  13.1281
    13.6332  14.1367  14.1372  14.5105  15.1298  15.1303  16.8654  17.4429

     the Fermi energy is    11.0501 ev

!    total energy              =   -2759.16340965 Ry
     estimated scf accuracy    <          1.9E-13 Ry
     smearing contrib. (-TS)   =      -0.00017241 Ry
     internal energy E=F+TS    =   -2759.16323724 Ry

     The total energy is F=E-TS. E is the sum of the following terms:
     one-electron contribution =   -8668.84762817 Ry
     hartree contribution      =    4440.43662360 Ry
     xc contribution           =    -282.39253357 Ry
     ewald contribution        =    1751.64030090 Ry

     convergence has been achieved in  34 iterations

     negative rho (up, down):  2.157E-05 0.000E+00

     Forces acting on atoms (cartesian axes, Ry/au):

     atom    1 type  1   force =    -0.00000000   -0.00000000   -0.00091199
     atom    2 type  2   force =     0.00000000    0.00000000    0.00056430
     atom    3 type  1   force =     0.00000000    0.00000000   -0.00005686
     atom    4 type  2   force =     0.00000000    0.00000000    0.00016536
     atom    5 type  1   force =     0.00000000    0.00000000   -0.00022194
     atom    6 type  2   force =    -0.00000000   -0.00000000   -0.00037039
     atom    7 type  1   force =     0.00000000    0.00000000    0.00083152

     Total force =     0.001435     Total SCF correction =     0.000004


     Computing stress (Cartesian axis) and pressure


     negative rho (up, down):  2.157E-05 0.000E+00
          total   stress  (Ry/bohr**3)                   (kbar)     P=      -10.37
  -0.00006793  -0.00000000  -0.00000000           -9.99       -0.00       -0.00
  -0.00000000  -0.00006793  -0.00000000           -0.00       -9.99       -0.00
   0.00000000   0.00000000  -0.00007565            0.00        0.00      -11.13


     BFGS Geometry Optimization
     Energy error            =      0.0E+00 Ry
     Gradient error          =      9.1E-04 Ry/Bohr
     Cell gradient error     =      1.0E+01 kbar

     number of scf cycles    =   1
     number of bfgs steps    =   0

     enthalpy           new  =   -2759.1634096493 Ry

     new trust radius        =       0.0106512802 bohr
     new conv_thr            =            1.0E-12 Ry

     new unit-cell volume =    979.97514 a.u.^3 (   145.21733 Ang^3 )
     density =      8.68847 g/cm^3

CELL_PARAMETERS (alat=  5.55000000)
   1.050332890  -0.000000171   0.000000000
  -0.525166593   0.909615670   0.000000000
   0.000000000   0.000000000   6.000000000

ATOMIC_POSITIONS (crystal)
Ta            0.3333327624        0.6666660003       -0.0282747015
C            -0.0000003331       -0.0000003858        0.0377751524
Ta            0.6666666943        0.3333333674        0.1115371224
C             0.3333335058        0.6666668642        0.1870171802
Ta            0.0000001824        0.0000002059        0.2624963115
C             0.6666669195        0.3333336265        0.3362388030
Ta            0.3333336019        0.6666669885        0.4023045758



 %%%%%%%%%%%%%%%%%%%%%%%%%%%%%%%%%%%%%%%%%%%%%%%%%%%%%%%%%%%%%%%%%%%%%%%%%%%%%%
     Error in routine checkallsym (2):
     not orthogonal operation
 %%%%%%%%%%%%%%%%%%%%%%%%%%%%%%%%%%%%%%%%%%%%%%%%%%%%%%%%%%%%%%%%%%%%%%%%%%%%%%

     stopping ...
