
     Program PWSCF v.6.8 starts on  8Apr2022 at 18: 4:15 

     This program is part of the open-source Quantum ESPRESSO suite
     for quantum simulation of materials; please cite
         "P. Giannozzi et al., J. Phys.:Condens. Matter 21 395502 (2009);
         "P. Giannozzi et al., J. Phys.:Condens. Matter 29 465901 (2017);
         "P. Giannozzi et al., J. Chem. Phys. 152 154105 (2020);
          URL http://www.quantum-espresso.org", 
     in publications or presentations arising from this work. More details at
     http://www.quantum-espresso.org/quote

     Parallel version (MPI & OpenMP), running on       4 processor cores
     Number of MPI processes:                 2
     Threads/MPI process:                     2

     MPI processes distributed on     1 nodes
     R & G space division:  proc/nbgrp/npool/nimage =       2
     125195 MiB available memory on the printing compute node when the environment starts
 
     Reading input from Ta4C3.relax.in
Warning: card  &CELL ignored
Warning: card     CELL_DYNAMICS='BFGS', CELL_DOFREE ='2DXY' ignored
Warning: card  / ignored

     Current dimensions of program PWSCF are:
     Max number of different atomic species (ntypx) = 10
     Max number of k-points (npk) =  40000
     Max angular momentum in pseudopotentials (lmaxx) =  4

     File /scratch/as3359/Ta4C3_loop/Ta.update deleted, as requested

     File /scratch/as3359/Ta4C3_loop/Ta.bfgs deleted, as requested
     file Ta.pbesol-spfn-rrkjus_psl.1.0.0.UPF: wavefunction(s)  5S 5P renormalized

     Subspace diagonalization in iterative solution of the eigenvalue problem:
     a serial algorithm will be used

 
     Parallelization info
     --------------------
     sticks:   dense  smooth     PW     G-vecs:    dense   smooth      PW
     Min         351     279     81                42925    30711    5013
     Max         352     280     82                42932    30732    5030
     Sum         703     559    163                85857    61443   10043
 
     Using Slab Decomposition
 


     bravais-lattice index     =            0
     lattice parameter (alat)  =       5.5500  a.u.
     unit-cell volume          =     979.9751 (a.u.)^3
     number of atoms/cell      =            7
     number of atomic types    =            2
     number of electrons       =       120.00
     number of Kohn-Sham states=           72
     kinetic-energy cutoff     =      60.0000  Ry
     charge density cutoff     =     300.0000  Ry
     scf convergence threshold =      1.0E-12
     mixing beta               =       0.7000
     number of iterations used =            8  plain     mixing
     energy convergence thresh.=      1.0E-04
     force convergence thresh. =      1.0E-03
     Exchange-correlation= PBESOL
                           (   1   4  10   8   0   0   0)
     nstep                     =           50


     celldm(1)=   5.550000  celldm(2)=   0.000000  celldm(3)=   0.000000
     celldm(4)=   0.000000  celldm(5)=   0.000000  celldm(6)=   0.000000

     crystal axes: (cart. coord. in units of alat)
               a(1) = (   1.050333  -0.000000   0.000000 )  
               a(2) = (  -0.525167   0.909616   0.000000 )  
               a(3) = (   0.000000   0.000000   6.000000 )  

     reciprocal axes: (cart. coord. in units 2 pi/alat)
               b(1) = (  0.952079  0.549683  0.000000 )  
               b(2) = (  0.000000  1.099366  0.000000 )  
               b(3) = (  0.000000  0.000000  0.166667 )  


     PseudoPot. # 1 for Ta read from file:
     /shared/home/as3359/pseudo/Ta.pbesol-spfn-rrkjus_psl.1.0.0.UPF
     MD5 check sum: f099565ffaca9b150a52e9412a28e20b
     Pseudo is Ultrasoft + core correction, Zval = 27.0
     Generated using &quot;atomic&quot; code by A. Dal Corso  v.6.3
     Using radial grid of 1273 points,  8 beta functions with: 
                l(1) =   0
                l(2) =   0
                l(3) =   1
                l(4) =   1
                l(5) =   2
                l(6) =   2
                l(7) =   3
                l(8) =   3
     Q(r) pseudized with 0 coefficients 


     PseudoPot. # 2 for C  read from file:
     /shared/home/as3359/pseudo/C.pbesol-n-rrkjus_psl.1.0.0.UPF
     MD5 check sum: 05995be603a8a7c99da3dc4413f31573
     Pseudo is Ultrasoft + core correction, Zval =  4.0
     Generated using &quot;atomic&quot; code by A. Dal Corso  v.6.3MaX
     Using radial grid of 1073 points,  4 beta functions with: 
                l(1) =   0
                l(2) =   0
                l(3) =   1
                l(4) =   1
     Q(r) pseudized with 0 coefficients 


     atomic species   valence    mass     pseudopotential
        Ta            27.00   180.94788     Ta( 1.00)
        C              4.00    12.01070     C ( 1.00)

     No symmetry found



   Cartesian axes

     site n.     atom                  positions (alat units)
         1           Ta  tau(   1) = (  -0.0000003   0.6074414  -0.1694839  )
         2           C   tau(   2) = (  -0.0000001  -0.0000004   0.2265492  )
         3           Ta  tau(   3) = (   0.5260598   0.3037210   0.6692330  )
         4           C   tau(   4) = (   0.0000000   0.6074422   1.1220733  )
         5           Ta  tau(   5) = (   0.0000001   0.0000002   1.5750179  )
         6           C   tau(   6) = (   0.5260599   0.3037212   2.0174996  )
         7           Ta  tau(   7) = (   0.0000000   0.6074423   2.4136776  )

     number of k points=    74  Marzari-Vanderbilt smearing, width (Ry)=  0.0010
                       cart. coord. in units 2pi/alat
        k(    1) = (   0.0000000   0.0000000   0.0000000), wk =   0.0138889
        k(    2) = (   0.0000000   0.0916138   0.0000000), wk =   0.0277778
        k(    3) = (   0.0000000   0.1832276   0.0000000), wk =   0.0277778
        k(    4) = (   0.0000000   0.2748414   0.0000000), wk =   0.0277778
        k(    5) = (   0.0000001   0.3664552   0.0000000), wk =   0.0277778
        k(    6) = (   0.0000001   0.4580690   0.0000000), wk =   0.0277778
        k(    7) = (  -0.0000001  -0.5496828   0.0000000), wk =   0.0138889
        k(    8) = (   0.0793399   0.1374207   0.0000000), wk =   0.0277778
        k(    9) = (   0.0793400   0.2290345   0.0000000), wk =   0.0277778
        k(   10) = (   0.0793400   0.3206483   0.0000000), wk =   0.0277778
        k(   11) = (   0.0793400   0.4122621   0.0000000), wk =   0.0277778
        k(   12) = (   0.0793400   0.5038759   0.0000000), wk =   0.0277778
        k(   13) = (   0.1586799   0.2748414   0.0000000), wk =   0.0277778
        k(   14) = (   0.1586799   0.3664552   0.0000000), wk =   0.0277778
        k(   15) = (   0.1586799   0.4580690   0.0000000), wk =   0.0277778
        k(   16) = (   0.1586799   0.5496828   0.0000000), wk =   0.0277778
        k(   17) = (   0.2380198   0.4122621   0.0000000), wk =   0.0277778
        k(   18) = (   0.2380199   0.5038759   0.0000000), wk =   0.0277778
        k(   19) = (   0.3173598   0.5496828   0.0000000), wk =   0.0277778
        k(   20) = (  -0.0793399   0.0458069   0.0000000), wk =   0.0277778
        k(   21) = (   0.0793399   0.0458069   0.0000000), wk =   0.0277778
        k(   22) = (  -0.1586798   0.0916138   0.0000000), wk =   0.0277778
        k(   23) = (   0.1586799   0.0916138   0.0000000), wk =   0.0277778
        k(   24) = (  -0.2380198   0.1374206   0.0000000), wk =   0.0277778
        k(   25) = (   0.2380198   0.1374207   0.0000000), wk =   0.0277778
        k(   26) = (  -0.3173597   0.1832275   0.0000000), wk =   0.0277778
        k(   27) = (   0.3173597   0.1832276   0.0000000), wk =   0.0277778
        k(   28) = (  -0.3966996   0.2290344   0.0000000), wk =   0.0277778
        k(   29) = (   0.3966997   0.2290345   0.0000000), wk =   0.0277778
        k(   30) = (   0.4760395  -0.2748413   0.0000000), wk =   0.0138889
        k(   31) = (  -0.4760396  -0.2748415   0.0000000), wk =   0.0138889
        k(   32) = (  -0.0793399   0.1374207   0.0000000), wk =   0.0277778
        k(   33) = (   0.1586799   0.0000000   0.0000000), wk =   0.0277778
        k(   34) = (  -0.0793399   0.2290345   0.0000000), wk =   0.0277778
        k(   35) = (  -0.1586798   0.1832276   0.0000000), wk =   0.0277778
        k(   36) = (   0.2380198   0.0458069   0.0000000), wk =   0.0277778
        k(   37) = (  -0.1586799  -0.1832276   0.0000000), wk =   0.0277778
        k(   38) = (   0.2380198  -0.0458069   0.0000000), wk =   0.0277778
        k(   39) = (  -0.0793399   0.3206483   0.0000000), wk =   0.0277778
        k(   40) = (  -0.2380197   0.2290344   0.0000000), wk =   0.0277778
        k(   41) = (   0.3173597   0.0916138   0.0000000), wk =   0.0277778
        k(   42) = (  -0.2380198  -0.2290345   0.0000000), wk =   0.0277778
        k(   43) = (   0.3173597  -0.0916137   0.0000000), wk =   0.0277778
        k(   44) = (  -0.0793399   0.4122621   0.0000000), wk =   0.0277778
        k(   45) = (  -0.3173597   0.2748413   0.0000000), wk =   0.0277778
        k(   46) = (   0.3966997   0.1374208   0.0000000), wk =   0.0277778
        k(   47) = (  -0.3173597  -0.2748414   0.0000000), wk =   0.0277778
        k(   48) = (   0.3966996  -0.1374206   0.0000000), wk =   0.0277778
        k(   49) = (  -0.0793398   0.5038758   0.0000000), wk =   0.0277778
        k(   50) = (  -0.3966996   0.3206482   0.0000000), wk =   0.0277778
        k(   51) = (   0.4760396   0.1832277   0.0000000), wk =   0.0277778
        k(   52) = (  -0.3966997  -0.3206483   0.0000000), wk =   0.0277778
        k(   53) = (   0.4760395  -0.1832275   0.0000000), wk =   0.0277778
        k(   54) = (  -0.1586798   0.2748414   0.0000000), wk =   0.0277778
        k(   55) = (   0.3173597   0.0000001   0.0000000), wk =   0.0277778
        k(   56) = (  -0.1586798   0.3664551   0.0000000), wk =   0.0277778
        k(   57) = (  -0.2380197   0.3206482   0.0000000), wk =   0.0277778
        k(   58) = (   0.3966996   0.0458070   0.0000000), wk =   0.0277778
        k(   59) = (  -0.2380198  -0.3206483   0.0000000), wk =   0.0277778
        k(   60) = (   0.3966996  -0.0458068   0.0000000), wk =   0.0277778
        k(   61) = (  -0.1586798   0.4580689   0.0000000), wk =   0.0277778
        k(   62) = (  -0.3173596   0.3664551   0.0000000), wk =   0.0277778
        k(   63) = (   0.4760396   0.0916139   0.0000000), wk =   0.0277778
        k(   64) = (  -0.3173598  -0.3664552   0.0000000), wk =   0.0277778
        k(   65) = (   0.4760395  -0.0916137   0.0000000), wk =   0.0277778
        k(   66) = (  -0.3966996   0.4122620   0.0000000), wk =   0.0277778
        k(   67) = (   0.5553795   0.1374208   0.0000000), wk =   0.0277778
        k(   68) = (  -0.2380197   0.4122620   0.0000000), wk =   0.0277778
        k(   69) = (   0.4760396   0.0000001   0.0000000), wk =   0.0277778
        k(   70) = (  -0.2380197   0.5038758   0.0000000), wk =   0.0277778
        k(   71) = (  -0.3173596   0.4580689   0.0000000), wk =   0.0277778
        k(   72) = (   0.5553795   0.0458070   0.0000000), wk =   0.0277778
        k(   73) = (  -0.3173598  -0.4580690   0.0000000), wk =   0.0277778
        k(   74) = (   0.5553795  -0.0458068   0.0000000), wk =   0.0277778

     Dense  grid:    85857 G-vectors     FFT dimensions: (  36,  36, 192)

     Smooth grid:    61443 G-vectors     FFT dimensions: (  30,  30, 180)

     Estimated max dynamical RAM per process >     741.29 MB

     Estimated total dynamical RAM >       1.45 GB

     Check: negative core charge=   -0.000003

     Initial potential from superposition of free atoms

     starting charge  119.99679, renormalised to  120.00000

     negative rho (up, down):  3.653E-05 0.000E+00
     Starting wfcs are   80 randomized atomic wfcs

     total cpu time spent up to now is        9.2 secs

     Self-consistent Calculation

     iteration #  1     ecut=    60.00 Ry     beta= 0.70
     CG style diagonalization
     ethr =  1.00E-02,  avg # of iterations =  2.2

     negative rho (up, down):  1.321E-06 0.000E+00

     total cpu time spent up to now is       34.5 secs

     total energy              =   -2756.49572886 Ry
     estimated scf accuracy    <       3.78903453 Ry

     iteration #  2     ecut=    60.00 Ry     beta= 0.70
     CG style diagonalization
     c_bands:  1 eigenvalues not converged
     c_bands:  1 eigenvalues not converged
     ethr =  3.16E-03,  avg # of iterations =  4.0

     total cpu time spent up to now is       71.6 secs

     total energy              =   -2746.32600797 Ry
     estimated scf accuracy    <     221.60464205 Ry

     iteration #  3     ecut=    60.00 Ry     beta= 0.70
     CG style diagonalization
     ethr =  3.16E-03,  avg # of iterations =  4.6

     total cpu time spent up to now is      116.3 secs

     total energy              =   -2757.58860472 Ry
     estimated scf accuracy    <      11.64900194 Ry

     iteration #  4     ecut=    60.00 Ry     beta= 0.70
     CG style diagonalization
     ethr =  3.16E-03,  avg # of iterations =  3.4

     total cpu time spent up to now is      147.7 secs

     total energy              =   -2758.94765284 Ry
     estimated scf accuracy    <       0.80099490 Ry

     iteration #  5     ecut=    60.00 Ry     beta= 0.70
     CG style diagonalization
     ethr =  6.67E-04,  avg # of iterations =  3.8

     total cpu time spent up to now is      182.8 secs

     total energy              =   -2758.95057146 Ry
     estimated scf accuracy    <       8.56459797 Ry

     iteration #  6     ecut=    60.00 Ry     beta= 0.70
     CG style diagonalization
     ethr =  6.67E-04,  avg # of iterations =  3.1
     Minimization algorithm failed to find Fermi energy: reverting to bisection
     Possible cause: smearing is larger than the electronic band-gap.

     total cpu time spent up to now is      210.7 secs

     total energy              =   -2759.16394542 Ry
     estimated scf accuracy    <       0.19712760 Ry

     iteration #  7     ecut=    60.00 Ry     beta= 0.70
     CG style diagonalization
     c_bands:  1 eigenvalues not converged
     ethr =  1.64E-04,  avg # of iterations =  3.2

     total cpu time spent up to now is      239.6 secs

     total energy              =   -2759.15546685 Ry
     estimated scf accuracy    <       0.08796640 Ry

     iteration #  8     ecut=    60.00 Ry     beta= 0.70
     CG style diagonalization
     ethr =  7.33E-05,  avg # of iterations =  3.3

     total cpu time spent up to now is      269.9 secs

     total energy              =   -2759.15676291 Ry
     estimated scf accuracy    <       0.04652836 Ry

     iteration #  9     ecut=    60.00 Ry     beta= 0.70
     CG style diagonalization
     ethr =  3.88E-05,  avg # of iterations =  3.4

     total cpu time spent up to now is      300.9 secs

     total energy              =   -2759.16270520 Ry
     estimated scf accuracy    <       0.04439317 Ry

     iteration # 10     ecut=    60.00 Ry     beta= 0.70
     CG style diagonalization
     ethr =  3.70E-05,  avg # of iterations =  3.1

     negative rho (up, down):  4.383E-07 0.000E+00

     total cpu time spent up to now is      328.5 secs

     total energy              =   -2759.16247028 Ry
     estimated scf accuracy    <       0.01022095 Ry

     iteration # 11     ecut=    60.00 Ry     beta= 0.70
     CG style diagonalization
     ethr =  8.52E-06,  avg # of iterations =  3.3

     negative rho (up, down):  1.454E-06 0.000E+00

     total cpu time spent up to now is      358.3 secs

     total energy              =   -2759.16311578 Ry
     estimated scf accuracy    <       0.00745441 Ry

     iteration # 12     ecut=    60.00 Ry     beta= 0.70
     CG style diagonalization
     ethr =  6.21E-06,  avg # of iterations =  3.2

     negative rho (up, down):  1.646E-06 0.000E+00

     total cpu time spent up to now is      387.5 secs

     total energy              =   -2759.16282704 Ry
     estimated scf accuracy    <       0.00273821 Ry

     iteration # 13     ecut=    60.00 Ry     beta= 0.70
     CG style diagonalization
     c_bands:  1 eigenvalues not converged
     ethr =  2.28E-06,  avg # of iterations =  3.4

     negative rho (up, down):  1.731E-05 0.000E+00

     total cpu time spent up to now is      418.0 secs

     total energy              =   -2759.16268387 Ry
     estimated scf accuracy    <       0.02448069 Ry

     iteration # 14     ecut=    60.00 Ry     beta= 0.70
     CG style diagonalization
     ethr =  2.28E-06,  avg # of iterations =  3.2

     negative rho (up, down):  2.469E-05 0.000E+00

     total cpu time spent up to now is      446.6 secs

     total energy              =   -2759.16297205 Ry
     estimated scf accuracy    <       0.01618346 Ry

     iteration # 15     ecut=    60.00 Ry     beta= 0.70
     CG style diagonalization
     ethr =  2.28E-06,  avg # of iterations =  3.0

     negative rho (up, down):  2.761E-05 0.000E+00

     total cpu time spent up to now is      473.3 secs

     total energy              =   -2759.16308986 Ry
     estimated scf accuracy    <       0.00027700 Ry

     iteration # 16     ecut=    60.00 Ry     beta= 0.70
     CG style diagonalization
     ethr =  2.31E-07,  avg # of iterations =  3.3

     negative rho (up, down):  2.665E-05 0.000E+00

     total cpu time spent up to now is      502.7 secs

     total energy              =   -2759.16310778 Ry
     estimated scf accuracy    <       0.00004069 Ry

     iteration # 17     ecut=    60.00 Ry     beta= 0.70
     CG style diagonalization
     ethr =  3.39E-08,  avg # of iterations =  3.3

     negative rho (up, down):  2.663E-05 0.000E+00

     total cpu time spent up to now is      532.8 secs

     total energy              =   -2759.16311123 Ry
     estimated scf accuracy    <       0.00001948 Ry

     iteration # 18     ecut=    60.00 Ry     beta= 0.70
     CG style diagonalization
     ethr =  1.62E-08,  avg # of iterations =  3.2

     negative rho (up, down):  2.730E-05 0.000E+00

     total cpu time spent up to now is      561.0 secs

     total energy              =   -2759.16311040 Ry
     estimated scf accuracy    <       0.00001935 Ry

     iteration # 19     ecut=    60.00 Ry     beta= 0.70
     CG style diagonalization
     ethr =  1.61E-08,  avg # of iterations =  3.0

     negative rho (up, down):  2.816E-05 0.000E+00

     total cpu time spent up to now is      587.9 secs

     total energy              =   -2759.16311118 Ry
     estimated scf accuracy    <       0.00000461 Ry

     iteration # 20     ecut=    60.00 Ry     beta= 0.70
     CG style diagonalization
     ethr =  3.84E-09,  avg # of iterations =  3.2

     negative rho (up, down):  2.911E-05 0.000E+00

     total cpu time spent up to now is      616.8 secs

     total energy              =   -2759.16311168 Ry
     estimated scf accuracy    <       0.00000229 Ry

     iteration # 21     ecut=    60.00 Ry     beta= 0.70
     CG style diagonalization
     ethr =  1.91E-09,  avg # of iterations =  3.2

     negative rho (up, down):  2.923E-05 0.000E+00

     total cpu time spent up to now is      645.8 secs

     total energy              =   -2759.16311139 Ry
     estimated scf accuracy    <       0.00000200 Ry

     iteration # 22     ecut=    60.00 Ry     beta= 0.70
     CG style diagonalization
     ethr =  1.67E-09,  avg # of iterations =  3.3

     negative rho (up, down):  2.950E-05 0.000E+00

     total cpu time spent up to now is      675.0 secs

     total energy              =   -2759.16311159 Ry
     estimated scf accuracy    <       0.00000070 Ry

     iteration # 23     ecut=    60.00 Ry     beta= 0.70
     CG style diagonalization
     ethr =  5.87E-10,  avg # of iterations =  3.2

     negative rho (up, down):  2.949E-05 0.000E+00

     total cpu time spent up to now is      703.2 secs

     total energy              =   -2759.16311164 Ry
     estimated scf accuracy    <       0.00000015 Ry

     iteration # 24     ecut=    60.00 Ry     beta= 0.70
     CG style diagonalization
     ethr =  1.24E-10,  avg # of iterations =  3.2

     negative rho (up, down):  2.949E-05 0.000E+00

     total cpu time spent up to now is      731.9 secs

     total energy              =   -2759.16311165 Ry
     estimated scf accuracy    <       0.00000014 Ry

     iteration # 25     ecut=    60.00 Ry     beta= 0.70
     CG style diagonalization
     ethr =  1.14E-10,  avg # of iterations =  3.0

     negative rho (up, down):  2.954E-05 0.000E+00

     total cpu time spent up to now is      758.6 secs

     total energy              =   -2759.16311165 Ry
     estimated scf accuracy    <       0.00000002 Ry

     iteration # 26     ecut=    60.00 Ry     beta= 0.70
     CG style diagonalization
     ethr =  1.80E-11,  avg # of iterations =  3.3

     negative rho (up, down):  2.959E-05 0.000E+00

     total cpu time spent up to now is      788.1 secs

     total energy              =   -2759.16311165 Ry
     estimated scf accuracy    <          2.3E-09 Ry

     iteration # 27     ecut=    60.00 Ry     beta= 0.70
     CG style diagonalization
     ethr =  1.93E-12,  avg # of iterations =  3.8

     negative rho (up, down):  2.962E-05 0.000E+00

     total cpu time spent up to now is      823.3 secs

     total energy              =   -2759.16311165 Ry
     estimated scf accuracy    <          3.5E-09 Ry

     iteration # 28     ecut=    60.00 Ry     beta= 0.70
     CG style diagonalization
     ethr =  1.93E-12,  avg # of iterations =  3.3

     negative rho (up, down):  2.962E-05 0.000E+00

     total cpu time spent up to now is      853.1 secs

     total energy              =   -2759.16311165 Ry
     estimated scf accuracy    <          7.6E-10 Ry

     iteration # 29     ecut=    60.00 Ry     beta= 0.70
     CG style diagonalization
     ethr =  6.37E-13,  avg # of iterations =  3.3

     negative rho (up, down):  2.962E-05 0.000E+00

     total cpu time spent up to now is      882.5 secs

     total energy              =   -2759.16311165 Ry
     estimated scf accuracy    <          6.0E-10 Ry

     iteration # 30     ecut=    60.00 Ry     beta= 0.70
     CG style diagonalization
     ethr =  5.03E-13,  avg # of iterations =  3.3

     negative rho (up, down):  2.962E-05 0.000E+00

     total cpu time spent up to now is      911.8 secs

     total energy              =   -2759.16311165 Ry
     estimated scf accuracy    <          8.6E-11 Ry

     iteration # 31     ecut=    60.00 Ry     beta= 0.70
     CG style diagonalization
     ethr =  1.00E-13,  avg # of iterations =  3.4

     negative rho (up, down):  2.962E-05 0.000E+00

     total cpu time spent up to now is      942.8 secs

     total energy              =   -2759.16311165 Ry
     estimated scf accuracy    <          2.0E-09 Ry

     iteration # 32     ecut=    60.00 Ry     beta= 0.70
     CG style diagonalization
     ethr =  1.00E-13,  avg # of iterations =  3.7

     negative rho (up, down):  2.962E-05 0.000E+00

     total cpu time spent up to now is      976.0 secs

     total energy              =   -2759.16311165 Ry
     estimated scf accuracy    <          1.2E-10 Ry

     iteration # 33     ecut=    60.00 Ry     beta= 0.70
     CG style diagonalization
     ethr =  1.00E-13,  avg # of iterations =  3.2

     negative rho (up, down):  2.962E-05 0.000E+00

     total cpu time spent up to now is     1004.3 secs

     total energy              =   -2759.16311165 Ry
     estimated scf accuracy    <          2.9E-10 Ry

     iteration # 34     ecut=    60.00 Ry     beta= 0.70
     CG style diagonalization
     ethr =  1.00E-13,  avg # of iterations =  3.0

     negative rho (up, down):  2.962E-05 0.000E+00

     total cpu time spent up to now is     1030.7 secs

     total energy              =   -2759.16311165 Ry
     estimated scf accuracy    <          1.2E-11 Ry

     iteration # 35     ecut=    60.00 Ry     beta= 0.70
     CG style diagonalization
     ethr =  1.00E-13,  avg # of iterations =  3.0

     negative rho (up, down):  2.962E-05 0.000E+00

     total cpu time spent up to now is     1057.1 secs

     total energy              =   -2759.16311165 Ry
     estimated scf accuracy    <          3.3E-11 Ry

     iteration # 36     ecut=    60.00 Ry     beta= 0.70
     CG style diagonalization
     ethr =  1.00E-13,  avg # of iterations =  3.0

     negative rho (up, down):  2.962E-05 0.000E+00

     total cpu time spent up to now is     1083.6 secs

     total energy              =   -2759.16311165 Ry
     estimated scf accuracy    <          6.7E-11 Ry

     iteration # 37     ecut=    60.00 Ry     beta= 0.70
     CG style diagonalization
     ethr =  1.00E-13,  avg # of iterations =  3.0

     negative rho (up, down):  2.962E-05 0.000E+00

     total cpu time spent up to now is     1110.2 secs

     total energy              =   -2759.16311165 Ry
     estimated scf accuracy    <          1.8E-12 Ry

     iteration # 38     ecut=    60.00 Ry     beta= 0.70
     CG style diagonalization
     ethr =  1.00E-13,  avg # of iterations =  3.0

     negative rho (up, down):  2.962E-05 0.000E+00

     total cpu time spent up to now is     1136.9 secs

     End of self-consistent calculation

          k = 0.0000 0.0000 0.0000 (  7649 PWs)   bands (ev):

   -57.4893 -57.4704 -56.9762 -56.9756 -24.3915 -24.1296 -23.7509 -23.7501
   -23.7227 -23.7225 -23.6127 -23.5458 -23.1254 -23.1250 -23.1244 -23.1240
    -9.1666  -9.1610  -9.1463  -9.1458  -9.1457  -9.1362  -9.1360  -9.1341
    -9.1217  -9.1215  -9.1126  -9.1125  -9.0985  -9.0981  -8.7178  -8.7172
    -8.6761  -8.6759  -8.6754  -8.6752  -8.6576  -8.6576  -8.6570  -8.6570
    -8.6429  -8.6423  -8.5840  -8.5833  -3.2630  -2.1019  -0.3383   2.7936
     4.6714   6.0823   6.0828   6.8379   6.8396   7.4508   8.8281   8.8286
     9.4932  10.2883  10.2913  10.3346  10.3976  11.4645  11.4785  12.1351
    12.2645  12.2660  13.3188  13.3237  13.6877  14.0091  14.0158  14.5993

          k = 0.0000 0.0916 0.0000 (  7675 PWs)   bands (ev):

   -57.4862 -57.4679 -56.9736 -56.9730 -24.3758 -24.1249 -23.7972 -23.7789
   -23.7635 -23.7310 -23.5979 -23.5453 -23.1675 -23.1664 -23.1346 -23.1345
    -9.1641  -9.1586  -9.1467  -9.1449  -9.1444  -9.1363  -9.1351  -9.1330
    -9.1232  -9.1221  -9.1140  -9.1129  -9.1013  -9.1009  -8.7165  -8.7159
    -8.6774  -8.6769  -8.6764  -8.6756  -8.6580  -8.6574  -8.6565  -8.6558
    -8.6405  -8.6399  -8.5866  -8.5860  -3.0947  -1.9849  -0.3368   3.0026
     4.6486   6.1187   6.1649   6.3773   6.8769   7.6221   8.2020   8.6660
     9.5075   9.9989  10.2976  10.5068  10.5100  11.2900  11.4891  11.7661
    12.4180  12.9381  13.3682  13.4387  13.6322  14.1563  14.2050  14.9161

          k = 0.0000 0.1832 0.0000 (  7681 PWs)   bands (ev):

   -57.4777 -57.4610 -56.9665 -56.9659 -24.3323 -24.1223 -23.9291 -23.8915
   -23.7981 -23.7554 -23.5803 -23.5459 -23.2821 -23.2786 -23.1609 -23.1607
    -9.1570  -9.1525  -9.1482  -9.1411  -9.1406  -9.1369  -9.1323  -9.1302
    -9.1266  -9.1235  -9.1177  -9.1148  -9.1081  -9.1067  -8.7132  -8.7126
    -8.6812  -8.6807  -8.6775  -8.6767  -8.6589  -8.6583  -8.6535  -8.6528
    -8.6336  -8.6330  -8.5934  -8.5928  -2.6220  -1.6788  -0.3698   3.5576
     4.7131   5.6363   6.1672   6.3489   6.9350   7.0748   7.5999   8.3538
     8.9970   9.8380  10.0592  10.4897  11.1056  11.2481  11.8305  11.8710
    12.5577  13.2332  13.5386  13.6799  13.8733  14.3213  14.5092  15.5494

          k = 0.0000 0.2748 0.0000 (  7694 PWs)   bands (ev):

   -57.4660 -57.4518 -56.9567 -56.9562 -24.2730 -24.1785 -24.0938 -23.9819
   -23.8434 -23.7900 -23.5702 -23.5499 -23.4327 -23.4237 -23.1966 -23.1962
    -9.1541  -9.1468  -9.1420  -9.1377  -9.1358  -9.1341  -9.1316  -9.1299
    -9.1259  -9.1258  -9.1219  -9.1212  -9.1166  -9.1095  -8.7088  -8.7082
    -8.6864  -8.6858  -8.6790  -8.6782  -8.6596  -8.6590  -8.6494  -8.6488
    -8.6242  -8.6237  -8.6024  -8.6018  -1.9474  -1.3108  -0.4489   4.0799
     5.0106   5.2277   5.6434   6.4324   6.4417   6.9343   7.2451   8.2221
     8.2309   9.9014   9.9681  10.3228  11.7254  11.9694  12.1290  12.5303
    13.0329  13.2262  13.6568  13.7762  14.2020  14.6479  14.8076  16.1366

          k = 0.0000 0.3665 0.0000 (  7696 PWs)   bands (ev):

   -57.4539 -57.4429 -56.9470 -56.9464 -24.3145 -24.2769 -24.1781 -24.0039
   -23.8874 -23.8253 -23.5845 -23.5796 -23.5575 -23.5332 -23.2321 -23.2315
    -9.1571  -9.1436  -9.1368  -9.1342  -9.1341  -9.1335  -9.1307  -9.1289
    -9.1283  -9.1247  -9.1225  -9.1212  -9.1208  -9.1102  -8.7048  -8.7041
    -8.6913  -8.6907  -8.6806  -8.6799  -8.6598  -8.6592  -8.6452  -8.6446
    -8.6147  -8.6141  -8.6110  -8.6103  -1.3560  -1.0177  -0.3571   3.8863
     4.6078   5.4042   5.8380   6.1527   6.2835   6.9125   6.9299   7.5715
     8.3495   9.8394  10.3359  10.5456  12.1118  12.6847  12.9317  13.2962
    13.4961  13.8485  13.9703  14.0359  14.1518  14.8919  15.1255  16.4789

          k = 0.0000 0.4581 0.0000 (  7710 PWs)   bands (ev):

   -57.4446 -57.4368 -56.9398 -56.9392 -24.4287 -24.3769 -24.1350 -24.0181
   -23.9191 -23.8513 -23.6712 -23.6607 -23.5656 -23.5459 -23.2579 -23.2571
    -9.1596  -9.1435  -9.1400  -9.1398  -9.1392  -9.1349  -9.1270  -9.1240
    -9.1230  -9.1220  -9.1203  -9.1199  -9.1178  -9.1103  -8.7022  -8.7015
    -8.6949  -8.6943  -8.6820  -8.6813  -8.6596  -8.6590  -8.6421  -8.6414
    -8.6169  -8.6162  -8.6078  -8.6072  -1.2924  -0.7382   0.1374   3.2233
     4.2325   5.6800   5.8596   6.0970   6.3171   6.8099   6.8749   7.1348
     8.5245   9.9205  10.9131  11.0141  12.2499  13.2925  13.5074  13.7910
    13.9086  14.1724  14.5216  14.8052  14.9331  15.2205  15.3021  16.2985

          k =-0.0000-0.5497 0.0000 (  7688 PWs)   bands (ev):

   -57.4410 -57.4348 -56.9372 -56.9366 -24.4710 -24.4161 -24.1142 -24.0286
   -23.9305 -23.8609 -23.6970 -23.6954 -23.5661 -23.5483 -23.2674 -23.2664
    -9.1605  -9.1432  -9.1423  -9.1416  -9.1410  -9.1359  -9.1266  -9.1215
    -9.1210  -9.1202  -9.1194  -9.1188  -9.1161  -9.1103  -8.7013  -8.7006
    -8.6960  -8.6954  -8.6825  -8.6817  -8.6594  -8.6588  -8.6409  -8.6402
    -8.6190  -8.6183  -8.6052  -8.6046  -1.3261  -0.6530   0.4858   2.8256
     4.1585   5.6345   6.0034   6.0232   6.2496   6.8538   6.8858   6.9784
     8.5950   9.9928  11.2192  11.2663  12.3399  13.5693  13.6525  13.8024
    14.0885  14.4636  14.8780  15.3731  15.4045  15.4068  15.7349  15.8420

          k = 0.0793 0.1374 0.0000 (  7679 PWs)   bands (ev):

   -57.4804 -57.4632 -56.9687 -56.9682 -24.3462 -24.1206 -23.8808 -23.8642
   -23.7830 -23.7551 -23.5840 -23.5453 -23.2442 -23.2417 -23.1544 -23.1543
    -9.1592  -9.1542  -9.1473  -9.1445  -9.1404  -9.1366  -9.1337  -9.1307
    -9.1254  -9.1232  -9.1168  -9.1132  -9.1059  -9.1056  -8.7142  -8.7136
    -8.6800  -8.6795  -8.6770  -8.6762  -8.6586  -8.6580  -8.6545  -8.6539
    -8.6358  -8.6352  -8.5914  -8.5907  -2.7737  -1.7725  -0.3543   3.3922
     4.6740   5.7919   6.1824   6.3877   6.7982   7.5230   7.6147   8.2238
     9.5717   9.6090  10.3711  10.4060  10.6739  11.2720  11.6394  11.8811
    12.3973  13.2821  13.4434  13.8563  14.0019  14.1726  14.4360  14.8532

          k = 0.0793 0.2290 0.0000 (  7681 PWs)   bands (ev):

   -57.4703 -57.4552 -56.9603 -56.9597 -24.2939 -24.1415 -24.0304 -23.9541
   -23.8300 -23.7933 -23.5712 -23.5473 -23.3706 -23.3651 -23.1913 -23.1910
    -9.1521  -9.1487  -9.1460  -9.1411  -9.1368  -9.1345  -9.1314  -9.1294
    -9.1272  -9.1248  -9.1219  -9.1160  -9.1137  -9.1105  -8.7103  -8.7096
    -8.6844  -8.6839  -8.6784  -8.6776  -8.6594  -8.6587  -8.6511  -8.6504
    -8.6276  -8.6271  -8.5993  -8.5986  -2.1924  -1.4284  -0.4280   4.0182
     4.8587   5.2828   5.9330   6.4951   6.6315   6.8505   7.3442   7.7739
     9.0590   9.7976  10.0350  10.3780  11.1615  11.3565  12.2479  12.3413
    12.5982  13.3696  13.7321  14.0392  14.3844  14.4872  14.7674  15.3390

          k = 0.0793 0.3206 0.0000 (  7669 PWs)   bands (ev):

   -57.4583 -57.4461 -56.9506 -56.9500 -24.2458 -24.2428 -24.1688 -23.9945
   -23.8842 -23.8352 -23.5661 -23.5544 -23.5086 -23.4962 -23.2334 -23.2331
    -9.1540  -9.1429  -9.1389  -9.1351  -9.1344  -9.1334  -9.1307  -9.1296
    -9.1284  -9.1254  -9.1234  -9.1213  -9.1200  -9.1115  -8.7060  -8.7053
    -8.6891  -8.6886  -8.6802  -8.6794  -8.6596  -8.6590  -8.6471  -8.6465
    -8.6182  -8.6176  -8.6081  -8.6074  -1.5008  -1.1005  -0.4820   4.2180
     4.9492   5.2608   5.4998   6.2933   6.4955   6.7108   7.0162   7.4002
     8.7143  10.0400  10.1107  10.1996  11.8094  11.9399  12.4646  13.1473
    13.4751  13.6025  13.7649  14.2372  14.5185  14.7527  15.2744  16.0951

          k = 0.0793 0.4123 0.0000 (  7696 PWs)   bands (ev):

   -57.4476 -57.4387 -56.9421 -56.9415 -24.3694 -24.3249 -24.1511 -24.0112
   -23.9263 -23.8713 -23.6258 -23.6174 -23.5609 -23.5444 -23.2695 -23.2692
    -9.1569  -9.1425  -9.1381  -9.1376  -9.1374  -9.1326  -9.1299  -9.1265
    -9.1252  -9.1240  -9.1222  -9.1207  -9.1187  -9.1117  -8.7026  -8.7019
    -8.6932  -8.6926  -8.6820  -8.6812  -8.6595  -8.6589  -8.6438  -8.6431
    -8.6155  -8.6148  -8.6099  -8.6094  -1.1838  -0.8094  -0.1829   3.6963
     4.3996   5.5445   5.9855   6.1578   6.2630   6.6493   6.8415   7.0606
     8.6319  10.0016  10.5832  10.6448  12.2029  12.7790  12.8910  13.4093
    13.8418  14.1919  14.6071  14.7727  14.7979  15.0082  15.4179  16.3337

          k = 0.0793 0.5039 0.0000 (  7703 PWs)   bands (ev):

   -57.4410 -57.4348 -56.9372 -56.9366 -24.4459 -24.3929 -24.1121 -24.0307
   -23.9479 -23.8923 -23.6816 -23.6754 -23.5624 -23.5487 -23.2901 -23.2899
    -9.1586  -9.1428  -9.1417  -9.1413  -9.1397  -9.1349  -9.1281  -9.1234
    -9.1215  -9.1207  -9.1203  -9.1187  -9.1166  -9.1119  -8.7007  -8.7000
    -8.6954  -8.6948  -8.6831  -8.6823  -8.6592  -8.6586  -8.6418  -8.6412
    -8.6195  -8.6189  -8.6052  -8.6046  -1.2250  -0.6326   0.3335   3.0713
     4.2375   5.7123   5.9294   6.0512   6.3065   6.6104   6.8395   6.9352
     8.6724  10.0292  11.0845  11.1025  12.3882  13.2185  13.4111  13.6328
    14.1391  14.6629  15.0010  15.1648  15.2169  15.2671  15.7062  16.1568

          k = 0.1587 0.2748 0.0000 (  7665 PWs)   bands (ev):

   -57.4600 -57.4473 -56.9519 -56.9513 -24.2446 -24.2045 -24.1516 -23.9837
   -23.8884 -23.8590 -23.5626 -23.5502 -23.4750 -23.4679 -23.2449 -23.2433
    -9.1504  -9.1442  -9.1414  -9.1363  -9.1354  -9.1321  -9.1307  -9.1287
    -9.1285  -9.1268  -9.1225  -9.1216  -9.1172  -9.1143  -8.7063  -8.7056
    -8.6881  -8.6876  -8.6802  -8.6793  -8.6596  -8.6589  -8.6481  -8.6474
    -8.6195  -8.6189  -8.6071  -8.6065  -1.5630  -1.1069  -0.5300   4.5169
     5.0440   5.1898   5.3121   6.4860   6.4938   6.7017   6.8007   7.2610
     9.3911   9.4884  10.0821  10.3368  11.5000  11.5773  12.2088  13.1501
    13.4408  13.5944  13.7494  14.6516  14.6562  14.9108  15.4389  15.7128

          k = 0.1587 0.3665 0.0000 (  7665 PWs)   bands (ev):

   -57.4493 -57.4398 -56.9434 -56.9428 -24.2991 -24.2791 -24.1636 -24.0012
   -23.9539 -23.9184 -23.5736 -23.5691 -23.5545 -23.5461 -23.3031 -23.3003
    -9.1517  -9.1418  -9.1375  -9.1365  -9.1348  -9.1329  -9.1307  -9.1282
    -9.1276  -9.1248  -9.1241  -9.1214  -9.1192  -9.1144  -8.7024  -8.7018
    -8.6914  -8.6909  -8.6823  -8.6815  -8.6591  -8.6585  -8.6454  -8.6448
    -8.6153  -8.6147  -8.6110  -8.6104  -0.9618  -0.8355  -0.5111   4.3192
     4.6121   5.3501   5.8027   6.1463   6.3189   6.5647   6.6263   6.9162
     9.1490   9.9070  10.2203  10.3988  12.0181  12.2301  12.3536  13.2702
    13.9005  14.0473  14.5676  14.9556  15.0724  15.1613  16.0812  16.3057

          k = 0.1587 0.4581 0.0000 (  7703 PWs)   bands (ev):

   -57.4410 -57.4347 -56.9372 -56.9366 -24.3821 -24.3394 -24.1154 -24.0473
   -23.9793 -23.9581 -23.6365 -23.6302 -23.5565 -23.5510 -23.3466 -23.3433
    -9.1534  -9.1426  -9.1402  -9.1385  -9.1373  -9.1331  -9.1304  -9.1284
    -9.1243  -9.1214  -9.1207  -9.1194  -9.1187  -9.1146  -8.6997  -8.6990
    -8.6937  -8.6932  -8.6842  -8.6834  -8.6584  -8.6578  -8.6439  -8.6432
    -8.6208  -8.6201  -8.6054  -8.6048  -0.9483  -0.5933  -0.0234   3.6617
     4.4465   5.5598   5.9640   6.1480   6.2908   6.3802   6.4618   6.8746
     9.1001  10.0174  10.6858  10.7702  12.4366  12.6764  13.1233  13.2629
    13.9392  14.4301  14.9274  15.1798  15.2263  15.4124  16.2716  16.5482

          k = 0.1587 0.5497 0.0000 (  7708 PWs)   bands (ev):

   -57.4377 -57.4332 -56.9349 -56.9344 -24.4129 -24.3614 -24.0853 -24.0791
   -23.9804 -23.9781 -23.6596 -23.6527 -23.5560 -23.5522 -23.3626 -23.3594
    -9.1540  -9.1439  -9.1423  -9.1382  -9.1378  -9.1338  -9.1317  -9.1259
    -9.1236  -9.1200  -9.1197  -9.1181  -9.1162  -9.1160  -8.6987  -8.6980
    -8.6945  -8.6939  -8.6850  -8.6842  -8.6580  -8.6574  -8.6434  -8.6427
    -8.6228  -8.6222  -8.6032  -8.6026  -0.9856  -0.5200   0.2606   3.3525
     4.3982   5.7209   5.9372   5.9940   6.1965   6.3095   6.5396   6.9730
     9.1085  10.0376  10.9605  11.0210  12.5271  13.1783  13.1948  13.7270
    13.9783  14.2885  14.7323  14.9318  15.2733  15.4807  16.4128  16.8222

          k = 0.2380 0.4123 0.0000 (  7697 PWs)   bands (ev):

   -57.4411 -57.4347 -56.9372 -56.9366 -24.3296 -24.3143 -24.1303 -24.0412
   -24.0368 -23.9689 -23.6007 -23.5992 -23.5573 -23.5546 -23.3833 -23.3773
    -9.1494  -9.1409  -9.1406  -9.1393  -9.1345  -9.1343  -9.1296  -9.1292
    -9.1261  -9.1236  -9.1212  -9.1208  -9.1192  -9.1153  -8.6991  -8.6984
    -8.6927  -8.6921  -8.6849  -8.6841  -8.6579  -8.6573  -8.6450  -8.6443
    -8.6214  -8.6208  -8.6054  -8.6048  -0.6417  -0.6121  -0.3245   4.1116
     4.5786   5.3249   5.7951   6.1644   6.1886   6.3419   6.5822   6.7393
     9.6025   9.9927  10.2745  10.5655  12.1773  12.5828  12.8684  13.2489
    13.9854  14.3334  14.8660  15.2248  15.2401  15.3522  16.6979  16.8403

          k = 0.2380 0.5039 0.0000 (  7717 PWs)   bands (ev):

   -57.4357 -57.4324 -56.9336 -56.9330 -24.3450 -24.3047 -24.1586 -24.1026
   -24.0393 -23.9853 -23.6153 -23.6072 -23.5568 -23.5532 -23.4406 -23.4337
    -9.1484  -9.1438  -9.1419  -9.1375  -9.1359  -9.1336  -9.1309  -9.1294
    -9.1262  -9.1225  -9.1201  -9.1191  -9.1175  -9.1160  -8.6971  -8.6965
    -8.6927  -8.6921  -8.6871  -8.6863  -8.6566  -8.6559  -8.6453  -8.6447
    -8.6251  -8.6245  -8.6022  -8.6016  -0.6445  -0.4570  -0.0242   3.9206
     4.5814   5.3352   5.5252   6.1253   6.2073   6.3134   6.5548   6.8099
     9.8328  10.1227  10.6543  10.7725  12.2684  12.9959  13.2285  13.4384
    13.9090  14.0764  14.4139  14.7604  15.1994  15.3900  16.8384  17.1422

          k = 0.3174 0.5497 0.0000 (  7743 PWs)   bands (ev):

   -57.4328 -57.4325 -56.9323 -56.9317 -24.2788 -24.2475 -24.2469 -24.1841
   -24.0093 -24.0078 -23.5795 -23.5792 -23.5587 -23.5530 -23.4964 -23.4960
    -9.1447  -9.1442  -9.1441  -9.1359  -9.1357  -9.1342  -9.1307  -9.1305
    -9.1266  -9.1245  -9.1201  -9.1200  -9.1165  -9.1163  -8.6962  -8.6955
    -8.6907  -8.6900  -8.6898  -8.6892  -8.6555  -8.6548  -8.6465  -8.6459
    -8.6268  -8.6262  -8.6010  -8.6004  -0.4136  -0.4128  -0.1518   4.4085
     4.4092   5.1527   5.2060   6.1782   6.1795   6.4447   6.6401   6.6404
    10.2852  10.2855  10.7178  10.7186  12.1570  13.1102  13.1138  13.1934
    13.6928  14.1793  14.1836  14.5596  15.1922  15.1929  16.9460  17.5243

          k =-0.0793 0.0458 0.0000 (  7675 PWs)   bands (ev):

   -57.4862 -57.4679 -56.9736 -56.9730 -24.3758 -24.1249 -23.7972 -23.7789
   -23.7635 -23.7311 -23.5979 -23.5453 -23.1673 -23.1665 -23.1350 -23.1341
    -9.1641  -9.1586  -9.1467  -9.1449  -9.1444  -9.1363  -9.1351  -9.1330
    -9.1232  -9.1221  -9.1140  -9.1129  -9.1013  -9.1009  -8.7165  -8.7159
    -8.6775  -8.6767  -8.6763  -8.6758  -8.6581  -8.6574  -8.6565  -8.6558
    -8.6405  -8.6399  -8.5866  -8.5860  -3.0947  -1.9849  -0.3368   3.0026
     4.6486   6.1187   6.1649   6.3773   6.8769   7.6221   8.2020   8.6659
     9.5075   9.9989  10.2976  10.5068  10.5100  11.2900  11.4891  11.7661
    12.4180  12.9381  13.3682  13.4388  13.6322  14.1564  14.2051  14.9142

          k = 0.0793 0.0458 0.0000 (  7675 PWs)   bands (ev):

   -57.4862 -57.4679 -56.9736 -56.9730 -24.3758 -24.1249 -23.7966 -23.7788
   -23.7640 -23.7313 -23.5979 -23.5453 -23.1680 -23.1672 -23.1341 -23.1337
    -9.1641  -9.1586  -9.1466  -9.1449  -9.1444  -9.1364  -9.1350  -9.1330
    -9.1230  -9.1223  -9.1140  -9.1128  -9.1013  -9.1009  -8.7165  -8.7159
    -8.6776  -8.6769  -8.6763  -8.6756  -8.6581  -8.6574  -8.6565  -8.6558
    -8.6405  -8.6399  -8.5866  -8.5860  -3.0948  -1.9849  -0.3366   3.0026
     4.6493   6.1163   6.1644   6.3802   6.8753   7.6221   8.2018   8.6681
     9.5082  10.0010  10.2977  10.5052  10.5097  11.2833  11.4951  11.7595
    12.4213  12.9403  13.3677  13.4453  13.6249  14.1573  14.2096  14.9094

          k =-0.1587 0.0916 0.0000 (  7681 PWs)   bands (ev):

   -57.4777 -57.4610 -56.9665 -56.9659 -24.3323 -24.1223 -23.9291 -23.8915
   -23.7981 -23.7554 -23.5803 -23.5459 -23.2820 -23.2786 -23.1612 -23.1604
    -9.1570  -9.1525  -9.1482  -9.1411  -9.1406  -9.1369  -9.1323  -9.1302
    -9.1266  -9.1235  -9.1177  -9.1148  -9.1081  -9.1067  -8.7132  -8.7126
    -8.6814  -8.6806  -8.6773  -8.6768  -8.6590  -8.6583  -8.6535  -8.6528
    -8.6336  -8.6330  -8.5934  -8.5928  -2.6220  -1.6788  -0.3698   3.5576
     4.7131   5.6363   6.1672   6.3489   6.9350   7.0748   7.5999   8.3538
     8.9970   9.8380  10.0592  10.4897  11.1056  11.2481  11.8305  11.8710
    12.5577  13.2332  13.5386  13.6799  13.8733  14.3213  14.5090  15.5705

          k = 0.1587 0.0916 0.0000 (  7681 PWs)   bands (ev):

   -57.4777 -57.4610 -56.9665 -56.9659 -24.3323 -24.1221 -23.9285 -23.8914
   -23.7985 -23.7557 -23.5803 -23.5459 -23.2827 -23.2793 -23.1604 -23.1599
    -9.1570  -9.1526  -9.1481  -9.1411  -9.1407  -9.1370  -9.1322  -9.1302
    -9.1265  -9.1236  -9.1177  -9.1147  -9.1081  -9.1067  -8.7132  -8.7125
    -8.6814  -8.6807  -8.6773  -8.6766  -8.6590  -8.6583  -8.6535  -8.6528
    -8.6336  -8.6330  -8.5934  -8.5928  -2.6225  -1.6787  -0.3690   3.5576
     4.7146   5.6364   6.1643   6.3478   6.9328   7.0752   7.6025   8.3587
     8.9987   9.8383  10.0603  10.4849  11.1024  11.2459  11.8330  11.8657
    12.5616  13.2333  13.5379  13.6803  13.8790  14.3246  14.5088  15.5384

          k =-0.2380 0.1374 0.0000 (  7694 PWs)   bands (ev):

   -57.4660 -57.4518 -56.9568 -56.9562 -24.2730 -24.1785 -24.0938 -23.9819
   -23.8434 -23.7901 -23.5702 -23.5499 -23.4327 -23.4238 -23.1969 -23.1960
    -9.1541  -9.1468  -9.1420  -9.1377  -9.1358  -9.1341  -9.1316  -9.1299
    -9.1259  -9.1258  -9.1219  -9.1212  -9.1166  -9.1095  -8.7088  -8.7082
    -8.6865  -8.6857  -8.6789  -8.6783  -8.6597  -8.6590  -8.6494  -8.6488
    -8.6243  -8.6236  -8.6024  -8.6018  -1.9474  -1.3108  -0.4489   4.0799
     5.0106   5.2277   5.6434   6.4324   6.4417   6.9343   7.2451   8.2221
     8.2309   9.9014   9.9681  10.3228  11.7254  11.9694  12.1290  12.5303
    13.0329  13.2262  13.6568  13.7762  14.2020  14.6479  14.8076  16.1366

          k = 0.2380 0.1374 0.0000 (  7694 PWs)   bands (ev):

   -57.4660 -57.4518 -56.9567 -56.9562 -24.2731 -24.1782 -24.0932 -23.9820
   -23.8438 -23.7903 -23.5702 -23.5499 -23.4334 -23.4244 -23.1961 -23.1955
    -9.1542  -9.1468  -9.1419  -9.1377  -9.1358  -9.1341  -9.1315  -9.1298
    -9.1259  -9.1258  -9.1220  -9.1212  -9.1166  -9.1095  -8.7088  -8.7081
    -8.6865  -8.6858  -8.6788  -8.6782  -8.6597  -8.6590  -8.6494  -8.6488
    -8.6242  -8.6236  -8.6024  -8.6018  -1.9487  -1.3108  -0.4469   4.0797
     5.0128   5.2278   5.6401   6.4314   6.4400   6.9323   7.2504   8.2258
     8.2353   9.8991   9.9679  10.3154  11.7259  11.9669  12.1261  12.5325
    13.0347  13.2274  13.6587  13.7770  14.2013  14.6496  14.8097  16.1272

          k =-0.3174 0.1832 0.0000 (  7696 PWs)   bands (ev):

   -57.4539 -57.4429 -56.9470 -56.9464 -24.3145 -24.2768 -24.1781 -24.0039
   -23.8874 -23.8253 -23.5845 -23.5797 -23.5575 -23.5332 -23.2323 -23.2313
    -9.1571  -9.1436  -9.1368  -9.1342  -9.1341  -9.1335  -9.1307  -9.1289
    -9.1283  -9.1247  -9.1225  -9.1212  -9.1208  -9.1102  -8.7048  -8.7041
    -8.6914  -8.6906  -8.6805  -8.6800  -8.6599  -8.6591  -8.6452  -8.6446
    -8.6148  -8.6141  -8.6109  -8.6103  -1.3560  -1.0177  -0.3571   3.8863
     4.6078   5.4042   5.8380   6.1527   6.2835   6.9125   6.9299   7.5715
     8.3495   9.8394  10.3359  10.5456  12.1118  12.6847  12.9317  13.2962
    13.4961  13.8485  13.9703  14.0359  14.1518  14.8919  15.1255  16.4789

          k = 0.3174 0.1832 0.0000 (  7696 PWs)   bands (ev):

   -57.4539 -57.4429 -56.9470 -56.9464 -24.3143 -24.2759 -24.1787 -24.0038
   -23.8878 -23.8256 -23.5847 -23.5799 -23.5581 -23.5336 -23.2315 -23.2308
    -9.1572  -9.1437  -9.1368  -9.1342  -9.1340  -9.1335  -9.1307  -9.1289
    -9.1284  -9.1247  -9.1224  -9.1213  -9.1208  -9.1101  -8.7047  -8.7041
    -8.6915  -8.6908  -8.6805  -8.6798  -8.6599  -8.6592  -8.6452  -8.6446
    -8.6147  -8.6141  -8.6109  -8.6103  -1.3582  -1.0180  -0.3537   3.8868
     4.6060   5.4043   5.8377   6.1516   6.2817   6.9114   6.9368   7.5744
     8.3554   9.8309  10.3352  10.5413  12.1124  12.6824  12.9312  13.3007
    13.4976  13.8466  13.9685  14.0368  14.1557  14.8924  15.1242  16.4716

          k =-0.3967 0.2290 0.0000 (  7710 PWs)   bands (ev):

   -57.4446 -57.4368 -56.9398 -56.9392 -24.4287 -24.3769 -24.1350 -24.0181
   -23.9191 -23.8514 -23.6711 -23.6608 -23.5656 -23.5459 -23.2581 -23.2570
    -9.1596  -9.1435  -9.1400  -9.1398  -9.1392  -9.1349  -9.1270  -9.1241
    -9.1230  -9.1220  -9.1203  -9.1199  -9.1178  -9.1103  -8.7022  -8.7016
    -8.6950  -8.6942  -8.6819  -8.6813  -8.6597  -8.6589  -8.6421  -8.6415
    -8.6169  -8.6163  -8.6078  -8.6072  -1.2924  -0.7382   0.1374   3.2233
     4.2325   5.6800   5.8596   6.0970   6.3171   6.8099   6.8749   7.1348
     8.5245   9.9205  10.9131  11.0141  12.2499  13.2925  13.5074  13.7910
    13.9086  14.1724  14.5216  14.8052  14.9331  15.2205  15.3021  16.2985

          k = 0.3967 0.2290 0.0000 (  7710 PWs)   bands (ev):

   -57.4446 -57.4368 -56.9398 -56.9392 -24.4285 -24.3758 -24.1362 -24.0178
   -23.9194 -23.8517 -23.6715 -23.6611 -23.5659 -23.5462 -23.2574 -23.2564
    -9.1596  -9.1436  -9.1400  -9.1398  -9.1392  -9.1348  -9.1271  -9.1241
    -9.1230  -9.1219  -9.1202  -9.1200  -9.1178  -9.1102  -8.7021  -8.7015
    -8.6950  -8.6944  -8.6819  -8.6812  -8.6597  -8.6590  -8.6421  -8.6415
    -8.6169  -8.6162  -8.6078  -8.6072  -1.2933  -0.7390   0.1398   3.2246
     4.2296   5.6829   5.8563   6.0957   6.3138   6.8191   6.8737   7.1391
     8.5300   9.9083  10.9128  11.0127  12.2501  13.2909  13.5099  13.7911
    13.9111  14.1716  14.5222  14.8064  14.9317  15.2215  15.2998  16.2944

          k = 0.4760-0.2748 0.0000 (  7688 PWs)   bands (ev):

   -57.4410 -57.4348 -56.9372 -56.9366 -24.4710 -24.4161 -24.1142 -24.0286
   -23.9305 -23.8609 -23.6968 -23.6956 -23.5661 -23.5483 -23.2675 -23.2663
    -9.1605  -9.1432  -9.1423  -9.1416  -9.1410  -9.1359  -9.1266  -9.1215
    -9.1210  -9.1202  -9.1194  -9.1188  -9.1161  -9.1103  -8.7012  -8.7006
    -8.6961  -8.6953  -8.6824  -8.6818  -8.6595  -8.6588  -8.6409  -8.6402
    -8.6190  -8.6184  -8.6052  -8.6045  -1.3261  -0.6530   0.4858   2.8256
     4.1585   5.6345   6.0034   6.0231   6.2496   6.8538   6.8858   6.9784
     8.5950   9.9928  11.2192  11.2663  12.3399  13.5693  13.6525  13.8024
    14.0885  14.4636  14.8780  15.3731  15.4045  15.4068  15.7348  15.8420

          k =-0.4760-0.2748 0.0000 (  7688 PWs)   bands (ev):

   -57.4411 -57.4347 -56.9372 -56.9366 -24.4707 -24.4151 -24.1157 -24.0280
   -23.9309 -23.8612 -23.6966 -23.6963 -23.5664 -23.5486 -23.2668 -23.2658
    -9.1605  -9.1434  -9.1422  -9.1416  -9.1410  -9.1358  -9.1267  -9.1215
    -9.1208  -9.1202  -9.1195  -9.1188  -9.1160  -9.1102  -8.7012  -8.7005
    -8.6962  -8.6955  -8.6824  -8.6817  -8.6595  -8.6589  -8.6409  -8.6402
    -8.6190  -8.6183  -8.6052  -8.6045  -1.3266  -0.6535   0.4873   2.8274
     4.1552   5.6372   6.0018   6.0218   6.2455   6.8527   6.8941   6.9835
     8.6004   9.9794  11.2197  11.2661  12.3400  13.5707  13.6520  13.8041
    14.0881  14.4631  14.8783  15.3737  15.4015  15.4052  15.7366  15.8404

          k =-0.0793 0.1374 0.0000 (  7679 PWs)   bands (ev):

   -57.4804 -57.4632 -56.9688 -56.9682 -24.3461 -24.1207 -23.8810 -23.8647
   -23.7824 -23.7549 -23.5840 -23.5454 -23.2434 -23.2411 -23.1553 -23.1548
    -9.1592  -9.1542  -9.1473  -9.1445  -9.1404  -9.1365  -9.1338  -9.1307
    -9.1255  -9.1230  -9.1167  -9.1133  -9.1059  -9.1056  -8.7142  -8.7136
    -8.6800  -8.6793  -8.6771  -8.6764  -8.6586  -8.6580  -8.6545  -8.6539
    -8.6358  -8.6352  -8.5914  -8.5907  -2.7734  -1.7725  -0.3548   3.3923
     4.6727   5.7914   6.1850   6.3868   6.8044   7.5181   7.6143   8.2205
     9.5681   9.6127  10.3692  10.4060  10.6754  11.2717  11.6479  11.8818
    12.3923  13.2885  13.4342  13.8658  14.0026  14.1674  14.4198  14.8675

          k = 0.1587 0.0000 0.0000 (  7679 PWs)   bands (ev):

   -57.4804 -57.4632 -56.9688 -56.9682 -24.3462 -24.1206 -23.8808 -23.8641
   -23.7830 -23.7551 -23.5840 -23.5453 -23.2441 -23.2418 -23.1548 -23.1540
    -9.1592  -9.1542  -9.1473  -9.1445  -9.1404  -9.1366  -9.1337  -9.1307
    -9.1254  -9.1232  -9.1168  -9.1132  -9.1059  -9.1056  -8.7142  -8.7136
    -8.6802  -8.6794  -8.6769  -8.6764  -8.6586  -8.6580  -8.6545  -8.6539
    -8.6358  -8.6352  -8.5914  -8.5907  -2.7737  -1.7725  -0.3543   3.3922
     4.6740   5.7919   6.1824   6.3877   6.7982   7.5230   7.6146   8.2238
     9.5717   9.6090  10.3711  10.4060  10.6739  11.2720  11.6394  11.8811
    12.3973  13.2821  13.4434  13.8562  14.0020  14.1725  14.4363  14.8530

          k =-0.0793 0.2290 0.0000 (  7681 PWs)   bands (ev):

   -57.4703 -57.4552 -56.9603 -56.9597 -24.2939 -24.1418 -24.0305 -23.9543
   -23.8295 -23.7931 -23.5712 -23.5474 -23.3700 -23.3647 -23.1918 -23.1914
    -9.1521  -9.1487  -9.1459  -9.1411  -9.1367  -9.1345  -9.1314  -9.1295
    -9.1273  -9.1247  -9.1218  -9.1161  -9.1137  -9.1105  -8.7103  -8.7097
    -8.6844  -8.6838  -8.6785  -8.6777  -8.6594  -8.6588  -8.6511  -8.6504
    -8.6277  -8.6271  -8.5993  -8.5986  -2.1920  -1.4285  -0.4287   4.0184
     4.8577   5.2818   5.9358   6.5016   6.6280   6.8487   7.3431   7.7713
     9.0602   9.7934  10.0373  10.3758  11.1647  11.3600  12.2419  12.3462
    12.5950  13.3754  13.7277  14.0380  14.3875  14.4924  14.7611  15.3405

          k =-0.1587 0.1832 0.0000 (  7681 PWs)   bands (ev):

   -57.4703 -57.4552 -56.9603 -56.9597 -24.2939 -24.1418 -24.0305 -23.9543
   -23.8295 -23.7931 -23.5712 -23.5474 -23.3700 -23.3647 -23.1919 -23.1913
    -9.1521  -9.1488  -9.1459  -9.1411  -9.1367  -9.1345  -9.1314  -9.1295
    -9.1273  -9.1247  -9.1218  -9.1161  -9.1137  -9.1105  -8.7103  -8.7097
    -8.6844  -8.6837  -8.6784  -8.6778  -8.6594  -8.6587  -8.6511  -8.6504
    -8.6277  -8.6271  -8.5993  -8.5986  -2.1920  -1.4285  -0.4287   4.0184
     4.8577   5.2818   5.9358   6.5016   6.6280   6.8487   7.3431   7.7713
     9.0602   9.7934  10.0373  10.3758  11.1647  11.3600  12.2419  12.3462
    12.5950  13.3754  13.7277  14.0380  14.3874  14.4923  14.7611  15.3403

          k = 0.2380 0.0458 0.0000 (  7681 PWs)   bands (ev):

   -57.4703 -57.4552 -56.9603 -56.9597 -24.2940 -24.1414 -24.0301 -23.9542
   -23.8301 -23.7934 -23.5713 -23.5473 -23.3709 -23.3655 -23.1912 -23.1904
    -9.1522  -9.1488  -9.1459  -9.1411  -9.1369  -9.1345  -9.1313  -9.1293
    -9.1273  -9.1248  -9.1219  -9.1161  -9.1137  -9.1105  -8.7103  -8.7096
    -8.6846  -8.6838  -8.6783  -8.6777  -8.6594  -8.6588  -8.6511  -8.6504
    -8.6277  -8.6270  -8.5992  -8.5986  -2.1929  -1.4284  -0.4273   4.0180
     4.8598   5.2827   5.9314   6.4984   6.6269   6.8488   7.3467   7.7770
     9.0614   9.7967  10.0352  10.3725  11.1629  11.3555  12.2438  12.3434
    12.5991  13.3717  13.7307  14.0400  14.3890  14.4894  14.7673  15.3327

          k =-0.1587-0.1832 0.0000 (  7681 PWs)   bands (ev):

   -57.4703 -57.4552 -56.9603 -56.9597 -24.2940 -24.1414 -24.0301 -23.9542
   -23.8301 -23.7934 -23.5713 -23.5473 -23.3709 -23.3654 -23.1910 -23.1907
    -9.1522  -9.1488  -9.1459  -9.1411  -9.1369  -9.1345  -9.1313  -9.1293
    -9.1273  -9.1248  -9.1219  -9.1161  -9.1137  -9.1105  -8.7103  -8.7096
    -8.6845  -8.6839  -8.6784  -8.6776  -8.6594  -8.6588  -8.6511  -8.6504
    -8.6276  -8.6271  -8.5993  -8.5986  -2.1929  -1.4284  -0.4273   4.0180
     4.8598   5.2827   5.9314   6.4985   6.6269   6.8488   7.3467   7.7770
     9.0614   9.7967  10.0352  10.3725  11.1629  11.3555  12.2438  12.3434
    12.5991  13.3717  13.7307  14.0400  14.3890  14.4894  14.7673  15.3325

          k = 0.2380-0.0458 0.0000 (  7681 PWs)   bands (ev):

   -57.4703 -57.4552 -56.9603 -56.9597 -24.2939 -24.1415 -24.0304 -23.9541
   -23.8300 -23.7933 -23.5712 -23.5473 -23.3705 -23.3651 -23.1916 -23.1907
    -9.1521  -9.1487  -9.1460  -9.1411  -9.1368  -9.1345  -9.1314  -9.1294
    -9.1272  -9.1248  -9.1219  -9.1160  -9.1137  -9.1105  -8.7103  -8.7096
    -8.6845  -8.6837  -8.6783  -8.6778  -8.6594  -8.6587  -8.6511  -8.6504
    -8.6277  -8.6270  -8.5992  -8.5986  -2.1924  -1.4284  -0.4280   4.0182
     4.8587   5.2828   5.9330   6.4951   6.6315   6.8505   7.3441   7.7739
     9.0590   9.7976  10.0350  10.3780  11.1615  11.3565  12.2479  12.3413
    12.5982  13.3696  13.7321  14.0393  14.3844  14.4871  14.7675  15.3392

          k =-0.0793 0.3206 0.0000 (  7669 PWs)   bands (ev):

   -57.4583 -57.4462 -56.9506 -56.9500 -24.2458 -24.2431 -24.1689 -23.9944
   -23.8840 -23.8351 -23.5660 -23.5544 -23.5082 -23.4960 -23.2337 -23.2333
    -9.1540  -9.1430  -9.1388  -9.1352  -9.1343  -9.1334  -9.1307  -9.1296
    -9.1284  -9.1254  -9.1235  -9.1212  -9.1201  -9.1115  -8.7060  -8.7053
    -8.6891  -8.6885  -8.6802  -8.6795  -8.6596  -8.6590  -8.6471  -8.6465
    -8.6182  -8.6176  -8.6081  -8.6074  -1.5004  -1.1007  -0.4825   4.2183
     4.9501   5.2595   5.4999   6.2914   6.5002   6.7081   7.0141   7.4032
     8.7123  10.0381  10.1099  10.2003  11.8147  11.9424  12.4604  13.1431
    13.4735  13.5978  13.7701  14.2398  14.5210  14.7561  15.2715  16.0967

          k =-0.2380 0.2290 0.0000 (  7669 PWs)   bands (ev):

   -57.4583 -57.4462 -56.9506 -56.9500 -24.2458 -24.2431 -24.1689 -23.9944
   -23.8840 -23.8351 -23.5660 -23.5544 -23.5082 -23.4960 -23.2339 -23.2332
    -9.1540  -9.1430  -9.1388  -9.1352  -9.1343  -9.1334  -9.1307  -9.1296
    -9.1283  -9.1254  -9.1235  -9.1212  -9.1201  -9.1115  -8.7060  -8.7054
    -8.6892  -8.6884  -8.6801  -8.6795  -8.6597  -8.6590  -8.6471  -8.6465
    -8.6182  -8.6176  -8.6080  -8.6074  -1.5004  -1.1007  -0.4825   4.2183
     4.9501   5.2595   5.4999   6.2914   6.5002   6.7081   7.0141   7.4032
     8.7123  10.0381  10.1099  10.2003  11.8147  11.9424  12.4604  13.1431
    13.4735  13.5978  13.7701  14.2398  14.5210  14.7561  15.2715  16.0967

          k = 0.3174 0.0916 0.0000 (  7669 PWs)   bands (ev):

   -57.4584 -57.4461 -56.9506 -56.9500 -24.2457 -24.2425 -24.1687 -23.9945
   -23.8844 -23.8354 -23.5661 -23.5543 -23.5091 -23.4968 -23.2332 -23.2324
    -9.1541  -9.1431  -9.1388  -9.1351  -9.1344  -9.1333  -9.1307  -9.1296
    -9.1284  -9.1254  -9.1235  -9.1212  -9.1201  -9.1114  -8.7059  -8.7053
    -8.6893  -8.6885  -8.6800  -8.6794  -8.6597  -8.6590  -8.6471  -8.6465
    -8.6182  -8.6176  -8.6080  -8.6074  -1.5025  -1.1005  -0.4798   4.2179
     4.9500   5.2600   5.4992   6.2916   6.4958   6.7065   7.0212   7.4053
     8.7175  10.0375  10.1063  10.1965  11.8101  11.9417  12.4626  13.1465
    13.4731  13.5983  13.7720  14.2391  14.5205  14.7539  15.2751  16.0890

          k =-0.2380-0.2290 0.0000 (  7669 PWs)   bands (ev):

   -57.4584 -57.4461 -56.9506 -56.9500 -24.2457 -24.2425 -24.1687 -23.9945
   -23.8844 -23.8354 -23.5661 -23.5543 -23.5091 -23.4968 -23.2330 -23.2326
    -9.1541  -9.1431  -9.1388  -9.1351  -9.1344  -9.1333  -9.1307  -9.1296
    -9.1284  -9.1254  -9.1235  -9.1212  -9.1201  -9.1114  -8.7059  -8.7053
    -8.6892  -8.6886  -8.6801  -8.6793  -8.6597  -8.6590  -8.6471  -8.6465
    -8.6182  -8.6176  -8.6081  -8.6074  -1.5025  -1.1005  -0.4798   4.2179
     4.9500   5.2600   5.4992   6.2916   6.4958   6.7065   7.0212   7.4053
     8.7175  10.0375  10.1063  10.1965  11.8101  11.9417  12.4626  13.1465
    13.4731  13.5983  13.7720  14.2391  14.5205  14.7538  15.2751  16.0888

          k = 0.3174-0.0916 0.0000 (  7669 PWs)   bands (ev):

   -57.4583 -57.4461 -56.9506 -56.9500 -24.2458 -24.2428 -24.1688 -23.9945
   -23.8842 -23.8352 -23.5661 -23.5544 -23.5085 -23.4963 -23.2337 -23.2328
    -9.1540  -9.1429  -9.1389  -9.1351  -9.1344  -9.1334  -9.1307  -9.1296
    -9.1284  -9.1254  -9.1234  -9.1213  -9.1200  -9.1115  -8.7060  -8.7053
    -8.6892  -8.6884  -8.6800  -8.6795  -8.6597  -8.6590  -8.6471  -8.6465
    -8.6182  -8.6176  -8.6080  -8.6074  -1.5008  -1.1005  -0.4820   4.2180
     4.9492   5.2608   5.4998   6.2933   6.4955   6.7108   7.0162   7.4002
     8.7143  10.0399  10.1107  10.1996  11.8094  11.9399  12.4646  13.1473
    13.4751  13.6025  13.7649  14.2372  14.5185  14.7527  15.2743  16.0953

          k =-0.0793 0.4123 0.0000 (  7696 PWs)   bands (ev):

   -57.4476 -57.4387 -56.9421 -56.9415 -24.3696 -24.3251 -24.1511 -24.0111
   -23.9262 -23.8713 -23.6256 -23.6172 -23.5609 -23.5444 -23.2696 -23.2693
    -9.1569  -9.1425  -9.1380  -9.1377  -9.1373  -9.1325  -9.1299  -9.1265
    -9.1251  -9.1239  -9.1222  -9.1207  -9.1188  -9.1117  -8.7026  -8.7019
    -8.6932  -8.6926  -8.6820  -8.6812  -8.6595  -8.6589  -8.6438  -8.6431
    -8.6155  -8.6148  -8.6099  -8.6094  -1.1840  -0.8094  -0.1826   3.6957
     4.4008   5.5428   5.9857   6.1594   6.2615   6.6473   6.8406   7.0662
     8.6280  10.0030  10.5819  10.6443  12.2071  12.7780  12.8944  13.4003
    13.8423  14.1921  14.6012  14.7790  14.7994  15.0090  15.4190  16.3342

          k =-0.3174 0.2748 0.0000 (  7696 PWs)   bands (ev):

   -57.4476 -57.4387 -56.9421 -56.9415 -24.3696 -24.3251 -24.1511 -24.0111
   -23.9262 -23.8713 -23.6256 -23.6173 -23.5609 -23.5444 -23.2698 -23.2691
    -9.1569  -9.1425  -9.1380  -9.1377  -9.1373  -9.1325  -9.1299  -9.1265
    -9.1251  -9.1239  -9.1222  -9.1208  -9.1188  -9.1117  -8.7026  -8.7019
    -8.6932  -8.6925  -8.6819  -8.6813  -8.6595  -8.6588  -8.6438  -8.6431
    -8.6155  -8.6149  -8.6100  -8.6093  -1.1840  -0.8094  -0.1826   3.6957
     4.4008   5.5428   5.9857   6.1594   6.2615   6.6473   6.8406   7.0662
     8.6280  10.0030  10.5819  10.6443  12.2071  12.7780  12.8944  13.4003
    13.8423  14.1921  14.6012  14.7790  14.7994  15.0090  15.4190  16.3342

          k = 0.3967 0.1374 0.0000 (  7696 PWs)   bands (ev):

   -57.4476 -57.4387 -56.9421 -56.9415 -24.3693 -24.3240 -24.1519 -24.0111
   -23.9265 -23.8716 -23.6261 -23.6177 -23.5612 -23.5446 -23.2691 -23.2685
    -9.1569  -9.1426  -9.1381  -9.1376  -9.1373  -9.1325  -9.1299  -9.1265
    -9.1252  -9.1239  -9.1222  -9.1207  -9.1188  -9.1116  -8.7025  -8.7019
    -8.6933  -8.6926  -8.6818  -8.6812  -8.6595  -8.6589  -8.6438  -8.6431
    -8.6155  -8.6148  -8.6099  -8.6093  -1.1852  -0.8101  -0.1801   3.6967
     4.3986   5.5436   5.9843   6.1577   6.2601   6.6467   6.8490   7.0669
     8.6343   9.9937  10.5816  10.6431  12.2051  12.7824  12.8899  13.4035
    13.8410  14.1925  14.6085  14.7760  14.7984  15.0077  15.4183  16.3291

          k =-0.3174-0.2748 0.0000 (  7696 PWs)   bands (ev):

   -57.4476 -57.4387 -56.9421 -56.9415 -24.3693 -24.3240 -24.1519 -24.0111
   -23.9265 -23.8716 -23.6261 -23.6177 -23.5612 -23.5447 -23.2689 -23.2686
    -9.1569  -9.1426  -9.1381  -9.1376  -9.1373  -9.1325  -9.1299  -9.1265
    -9.1252  -9.1239  -9.1222  -9.1207  -9.1188  -9.1116  -8.7025  -8.7019
    -8.6933  -8.6927  -8.6819  -8.6811  -8.6596  -8.6589  -8.6438  -8.6431
    -8.6155  -8.6148  -8.6099  -8.6093  -1.1852  -0.8101  -0.1801   3.6967
     4.3986   5.5436   5.9843   6.1577   6.2601   6.6467   6.8491   7.0669
     8.6343   9.9937  10.5816  10.6431  12.2051  12.7824  12.8899  13.4035
    13.8410  14.1925  14.6085  14.7759  14.7984  15.0077  15.4183  16.3291

          k = 0.3967-0.1374 0.0000 (  7696 PWs)   bands (ev):

   -57.4476 -57.4387 -56.9421 -56.9415 -24.3694 -24.3249 -24.1511 -24.0112
   -23.9263 -23.8713 -23.6258 -23.6174 -23.5609 -23.5444 -23.2697 -23.2689
    -9.1569  -9.1425  -9.1381  -9.1376  -9.1373  -9.1326  -9.1299  -9.1265
    -9.1252  -9.1240  -9.1222  -9.1207  -9.1187  -9.1117  -8.7026  -8.7019
    -8.6933  -8.6925  -8.6818  -8.6813  -8.6595  -8.6588  -8.6438  -8.6431
    -8.6155  -8.6149  -8.6100  -8.6093  -1.1838  -0.8094  -0.1829   3.6963
     4.3996   5.5445   5.9855   6.1578   6.2630   6.6493   6.8415   7.0606
     8.6319  10.0016  10.5832  10.6448  12.2029  12.7790  12.8910  13.4093
    13.8418  14.1919  14.6071  14.7727  14.7979  15.0082  15.4179  16.3336

          k =-0.0793 0.5039 0.0000 (  7703 PWs)   bands (ev):

   -57.4410 -57.4348 -56.9372 -56.9366 -24.4460 -24.3930 -24.1121 -24.0306
   -23.9479 -23.8924 -23.6815 -23.6754 -23.5624 -23.5487 -23.2901 -23.2900
    -9.1586  -9.1428  -9.1417  -9.1412  -9.1397  -9.1349  -9.1281  -9.1233
    -9.1215  -9.1207  -9.1203  -9.1187  -9.1166  -9.1119  -8.7007  -8.7001
    -8.6954  -8.6948  -8.6831  -8.6823  -8.6592  -8.6586  -8.6418  -8.6412
    -8.6195  -8.6189  -8.6052  -8.6046  -1.2251  -0.6327   0.3338   3.0709
     4.2381   5.7119   5.9278   6.0511   6.3085   6.6089   6.8371   6.9400
     8.6703  10.0299  11.0843  11.1024  12.3893  13.2187  13.4117  13.6299
    14.1398  14.6637  14.9997  15.1660  15.2128  15.2679  15.7078  16.1581

          k =-0.3967 0.3206 0.0000 (  7703 PWs)   bands (ev):

   -57.4410 -57.4348 -56.9372 -56.9366 -24.4460 -24.3930 -24.1121 -24.0306
   -23.9479 -23.8924 -23.6815 -23.6755 -23.5624 -23.5486 -23.2904 -23.2897
    -9.1586  -9.1428  -9.1417  -9.1412  -9.1397  -9.1349  -9.1281  -9.1234
    -9.1215  -9.1207  -9.1203  -9.1187  -9.1166  -9.1119  -8.7007  -8.7001
    -8.6955  -8.6947  -8.6830  -8.6824  -8.6593  -8.6585  -8.6418  -8.6412
    -8.6195  -8.6189  -8.6053  -8.6046  -1.2251  -0.6327   0.3338   3.0709
     4.2381   5.7119   5.9278   6.0511   6.3085   6.6089   6.8371   6.9400
     8.6703  10.0299  11.0844  11.1024  12.3893  13.2187  13.4117  13.6299
    14.1398  14.6637  14.9997  15.1660  15.2129  15.2679  15.7078  16.1582

          k = 0.4760 0.1832 0.0000 (  7703 PWs)   bands (ev):

   -57.4411 -57.4347 -56.9372 -56.9366 -24.4457 -24.3919 -24.1134 -24.0303
   -23.9481 -23.8927 -23.6817 -23.6759 -23.5626 -23.5489 -23.2896 -23.2892
    -9.1586  -9.1428  -9.1417  -9.1414  -9.1397  -9.1349  -9.1282  -9.1233
    -9.1215  -9.1207  -9.1204  -9.1187  -9.1166  -9.1118  -8.7006  -8.7000
    -8.6956  -8.6949  -8.6829  -8.6823  -8.6593  -8.6586  -8.6418  -8.6412
    -8.6195  -8.6189  -8.6052  -8.6046  -1.2255  -0.6330   0.3349   3.0725
     4.2355   5.7151   5.9249   6.0497   6.3036   6.6106   6.8443   6.9433
     8.6758  10.0191  11.0841  11.1025  12.3901  13.2178  13.4117  13.6316
    14.1382  14.6601  15.0037  15.1661  15.2140  15.2667  15.7092  16.1550

          k =-0.3967-0.3206 0.0000 (  7703 PWs)   bands (ev):

   -57.4411 -57.4347 -56.9372 -56.9366 -24.4457 -24.3919 -24.1134 -24.0303
   -23.9481 -23.8927 -23.6817 -23.6759 -23.5626 -23.5489 -23.2896 -23.2892
    -9.1586  -9.1428  -9.1417  -9.1413  -9.1397  -9.1349  -9.1282  -9.1233
    -9.1215  -9.1207  -9.1204  -9.1187  -9.1166  -9.1118  -8.7006  -8.7000
    -8.6955  -8.6949  -8.6829  -8.6823  -8.6593  -8.6586  -8.6418  -8.6412
    -8.6195  -8.6189  -8.6052  -8.6046  -1.2255  -0.6330   0.3349   3.0725
     4.2355   5.7151   5.9249   6.0497   6.3036   6.6106   6.8443   6.9433
     8.6758  10.0191  11.0841  11.1025  12.3901  13.2178  13.4117  13.6316
    14.1382  14.6601  15.0037  15.1661  15.2140  15.2667  15.7092  16.1550

          k = 0.4760-0.1832 0.0000 (  7703 PWs)   bands (ev):

   -57.4410 -57.4348 -56.9372 -56.9366 -24.4459 -24.3929 -24.1121 -24.0307
   -23.9479 -23.8924 -23.6815 -23.6755 -23.5624 -23.5486 -23.2904 -23.2896
    -9.1586  -9.1428  -9.1417  -9.1413  -9.1397  -9.1349  -9.1281  -9.1234
    -9.1215  -9.1207  -9.1203  -9.1187  -9.1166  -9.1119  -8.7007  -8.7001
    -8.6955  -8.6947  -8.6830  -8.6824  -8.6592  -8.6585  -8.6418  -8.6412
    -8.6195  -8.6189  -8.6053  -8.6046  -1.2250  -0.6326   0.3335   3.0713
     4.2375   5.7123   5.9294   6.0512   6.3065   6.6104   6.8395   6.9352
     8.6724  10.0292  11.0845  11.1025  12.3882  13.2185  13.4111  13.6328
    14.1391  14.6629  15.0010  15.1648  15.2168  15.2671  15.7062  16.1568

          k =-0.1587 0.2748 0.0000 (  7665 PWs)   bands (ev):

   -57.4600 -57.4473 -56.9519 -56.9513 -24.2445 -24.2052 -24.1518 -23.9837
   -23.8877 -23.8588 -23.5626 -23.5502 -23.4742 -23.4673 -23.2456 -23.2440
    -9.1504  -9.1441  -9.1414  -9.1363  -9.1354  -9.1323  -9.1307  -9.1287
    -9.1284  -9.1268  -9.1225  -9.1216  -9.1172  -9.1144  -8.7063  -8.7057
    -8.6881  -8.6874  -8.6802  -8.6795  -8.6596  -8.6589  -8.6480  -8.6474
    -8.6195  -8.6189  -8.6071  -8.6065  -1.5618  -1.1072  -0.5314   4.5182
     5.0421   5.1884   5.3145   6.4841   6.4939   6.7066   6.8003   7.2566
     9.3906   9.4868  10.0810  10.3356  11.5062  11.5817  12.2060  13.1445
    13.4417  13.5954  13.7501  14.6505  14.6552  14.9147  15.4386  15.7157

          k = 0.3174 0.0000 0.0000 (  7665 PWs)   bands (ev):

   -57.4600 -57.4473 -56.9519 -56.9513 -24.2446 -24.2045 -24.1516 -23.9837
   -23.8884 -23.8590 -23.5626 -23.5502 -23.4750 -23.4679 -23.2450 -23.2432
    -9.1504  -9.1442  -9.1414  -9.1364  -9.1354  -9.1322  -9.1307  -9.1287
    -9.1285  -9.1268  -9.1225  -9.1216  -9.1172  -9.1143  -8.7063  -8.7057
    -8.6882  -8.6874  -8.6800  -8.6795  -8.6596  -8.6589  -8.6481  -8.6474
    -8.6195  -8.6188  -8.6071  -8.6065  -1.5630  -1.1069  -0.5300   4.5169
     5.0441   5.1897   5.3122   6.4858   6.4940   6.7017   6.8007   7.2610
     9.3911   9.4884  10.0821  10.3368  11.5000  11.5773  12.2088  13.1501
    13.4408  13.5944  13.7494  14.6517  14.6561  14.9108  15.4389  15.7129

          k =-0.1587 0.3665 0.0000 (  7665 PWs)   bands (ev):

   -57.4493 -57.4398 -56.9434 -56.9428 -24.2997 -24.2794 -24.1634 -24.0008
   -23.9534 -23.9187 -23.5731 -23.5687 -23.5544 -23.5461 -23.3037 -23.3008
    -9.1518  -9.1417  -9.1376  -9.1364  -9.1349  -9.1329  -9.1307  -9.1281
    -9.1276  -9.1249  -9.1241  -9.1215  -9.1192  -9.1145  -8.7024  -8.7018
    -8.6914  -8.6908  -8.6823  -8.6816  -8.6591  -8.6585  -8.6454  -8.6448
    -8.6153  -8.6147  -8.6110  -8.6104  -0.9617  -0.8356  -0.5112   4.3184
     4.6140   5.3489   5.8032   6.1460   6.3181   6.5612   6.6289   6.9180
     9.1475   9.9055  10.2187  10.3979  12.0242  12.2256  12.3608  13.2656
    13.8974  14.0481  14.5673  14.9562  15.0726  15.1608  16.0807  16.3121

          k =-0.2380 0.3206 0.0000 (  7665 PWs)   bands (ev):

   -57.4493 -57.4398 -56.9434 -56.9428 -24.2997 -24.2794 -24.1634 -24.0008
   -23.9534 -23.9187 -23.5731 -23.5687 -23.5544 -23.5461 -23.3037 -23.3007
    -9.1518  -9.1417  -9.1376  -9.1364  -9.1349  -9.1329  -9.1307  -9.1281
    -9.1276  -9.1249  -9.1241  -9.1215  -9.1192  -9.1145  -8.7024  -8.7018
    -8.6914  -8.6907  -8.6823  -8.6816  -8.6591  -8.6585  -8.6454  -8.6448
    -8.6153  -8.6147  -8.6110  -8.6104  -0.9617  -0.8356  -0.5112   4.3184
     4.6140   5.3489   5.8032   6.1460   6.3181   6.5612   6.6289   6.9180
     9.1475   9.9055  10.2187  10.3979  12.0242  12.2256  12.3608  13.2656
    13.8974  14.0481  14.5673  14.9562  15.0726  15.1607  16.0811  16.3124

          k = 0.3967 0.0458 0.0000 (  7665 PWs)   bands (ev):

   -57.4493 -57.4398 -56.9434 -56.9428 -24.2993 -24.2784 -24.1639 -24.0014
   -23.9537 -23.9187 -23.5735 -23.5692 -23.5549 -23.5463 -23.3029 -23.2999
    -9.1517  -9.1418  -9.1375  -9.1364  -9.1349  -9.1329  -9.1306  -9.1282
    -9.1276  -9.1248  -9.1241  -9.1215  -9.1192  -9.1144  -8.7024  -8.7017
    -8.6916  -8.6908  -8.6821  -8.6815  -8.6591  -8.6585  -8.6454  -8.6448
    -8.6153  -8.6147  -8.6110  -8.6104  -0.9635  -0.8355  -0.5091   4.3184
     4.6134   5.3486   5.8034   6.1452   6.3169   6.5652   6.6258   6.9216
     9.1510   9.9040  10.2192  10.3976  12.0179  12.2320  12.3544  13.2673
    13.8964  14.0499  14.5692  14.9563  15.0740  15.1593  16.0817  16.3069

          k =-0.2380-0.3206 0.0000 (  7665 PWs)   bands (ev):

   -57.4493 -57.4398 -56.9434 -56.9428 -24.2993 -24.2784 -24.1639 -24.0014
   -23.9537 -23.9187 -23.5736 -23.5691 -23.5549 -23.5463 -23.3029 -23.3000
    -9.1517  -9.1418  -9.1375  -9.1364  -9.1349  -9.1329  -9.1306  -9.1282
    -9.1276  -9.1248  -9.1241  -9.1215  -9.1192  -9.1144  -8.7024  -8.7017
    -8.6915  -8.6909  -8.6822  -8.6814  -8.6591  -8.6585  -8.6454  -8.6448
    -8.6153  -8.6147  -8.6110  -8.6104  -0.9635  -0.8355  -0.5091   4.3184
     4.6134   5.3486   5.8034   6.1452   6.3169   6.5652   6.6258   6.9216
     9.1510   9.9040  10.2192  10.3975  12.0178  12.2320  12.3544  13.2673
    13.8964  14.0499  14.5692  14.9563  15.0740  15.1593  16.0821  16.3066

          k = 0.3967-0.0458 0.0000 (  7665 PWs)   bands (ev):

   -57.4493 -57.4398 -56.9434 -56.9428 -24.2992 -24.2791 -24.1636 -24.0012
   -23.9539 -23.9184 -23.5736 -23.5692 -23.5545 -23.5461 -23.3032 -23.3002
    -9.1517  -9.1418  -9.1375  -9.1365  -9.1348  -9.1329  -9.1307  -9.1282
    -9.1276  -9.1248  -9.1241  -9.1214  -9.1192  -9.1144  -8.7024  -8.7018
    -8.6916  -8.6908  -8.6821  -8.6816  -8.6591  -8.6585  -8.6454  -8.6448
    -8.6153  -8.6147  -8.6110  -8.6104  -0.9618  -0.8356  -0.5111   4.3192
     4.6121   5.3501   5.8027   6.1463   6.3189   6.5647   6.6262   6.9162
     9.1490   9.9070  10.2203  10.3988  12.0181  12.2301  12.3536  13.2702
    13.9005  14.0473  14.5676  14.9556  15.0724  15.1614  16.0814  16.3057

          k =-0.1587 0.4581 0.0000 (  7703 PWs)   bands (ev):

   -57.4410 -57.4348 -56.9372 -56.9366 -24.3824 -24.3396 -24.1154 -24.0467
   -23.9784 -23.9591 -23.6362 -23.6301 -23.5565 -23.5511 -23.3468 -23.3436
    -9.1535  -9.1426  -9.1402  -9.1384  -9.1373  -9.1331  -9.1303  -9.1284
    -9.1242  -9.1213  -9.1208  -9.1194  -9.1187  -9.1147  -8.6997  -8.6990
    -8.6937  -8.6931  -8.6842  -8.6835  -8.6584  -8.6578  -8.6439  -8.6432
    -8.6208  -8.6201  -8.6054  -8.6048  -0.9489  -0.5935  -0.0223   3.6603
     4.4485   5.5574   5.9658   6.1449   6.2934   6.3778   6.4645   6.8752
     9.0976  10.0180  10.6844  10.7694  12.4373  12.6814  13.1264  13.2587
    13.9363  14.4297  14.9262  15.1769  15.2243  15.4144  16.2748  16.5507

          k =-0.3174 0.3665 0.0000 (  7703 PWs)   bands (ev):

   -57.4410 -57.4348 -56.9372 -56.9366 -24.3824 -24.3396 -24.1154 -24.0467
   -23.9784 -23.9591 -23.6361 -23.6301 -23.5565 -23.5510 -23.3469 -23.3435
    -9.1535  -9.1426  -9.1402  -9.1384  -9.1373  -9.1331  -9.1303  -9.1284
    -9.1242  -9.1213  -9.1208  -9.1194  -9.1187  -9.1147  -8.6997  -8.6990
    -8.6938  -8.6930  -8.6841  -8.6835  -8.6584  -8.6577  -8.6438  -8.6432
    -8.6207  -8.6201  -8.6054  -8.6048  -0.9489  -0.5935  -0.0223   3.6603
     4.4485   5.5574   5.9658   6.1449   6.2934   6.3778   6.4645   6.8752
     9.0976  10.0180  10.6844  10.7694  12.4373  12.6814  13.1264  13.2587
    13.9363  14.4297  14.9262  15.1769  15.2243  15.4144  16.2744  16.5503

          k = 0.4760 0.0916 0.0000 (  7703 PWs)   bands (ev):

   -57.4411 -57.4347 -56.9372 -56.9366 -24.3821 -24.3385 -24.1161 -24.0477
   -23.9787 -23.9586 -23.6365 -23.6307 -23.5568 -23.5512 -23.3461 -23.3428
    -9.1534  -9.1426  -9.1402  -9.1385  -9.1372  -9.1332  -9.1303  -9.1283
    -9.1243  -9.1214  -9.1207  -9.1194  -9.1187  -9.1145  -8.6996  -8.6990
    -8.6939  -8.6932  -8.6840  -8.6834  -8.6584  -8.6578  -8.6439  -8.6432
    -8.6207  -8.6201  -8.6054  -8.6048  -0.9489  -0.5935  -0.0222   3.6616
     4.4473   5.5574   5.9637   6.1449   6.2926   6.3764   6.4657   6.8814
     9.1017  10.0139  10.6848  10.7687  12.4400  12.6776  13.1243  13.2582
    13.9356  14.4294  14.9274  15.1784  15.2261  15.4133  16.2783  16.5469

          k =-0.3174-0.3665 0.0000 (  7703 PWs)   bands (ev):

   -57.4411 -57.4347 -56.9372 -56.9366 -24.3821 -24.3385 -24.1161 -24.0477
   -23.9787 -23.9586 -23.6366 -23.6306 -23.5568 -23.5513 -23.3461 -23.3428
    -9.1534  -9.1426  -9.1402  -9.1385  -9.1372  -9.1332  -9.1303  -9.1283
    -9.1243  -9.1214  -9.1207  -9.1194  -9.1187  -9.1145  -8.6996  -8.6990
    -8.6938  -8.6932  -8.6841  -8.6834  -8.6584  -8.6578  -8.6438  -8.6432
    -8.6207  -8.6201  -8.6054  -8.6048  -0.9489  -0.5935  -0.0222   3.6616
     4.4473   5.5574   5.9637   6.1449   6.2926   6.3764   6.4657   6.8814
     9.1017  10.0139  10.6848  10.7687  12.4400  12.6776  13.1243  13.2582
    13.9356  14.4294  14.9273  15.1784  15.2261  15.4133  16.2785  16.5470

          k = 0.4760-0.0916 0.0000 (  7703 PWs)   bands (ev):

   -57.4410 -57.4347 -56.9372 -56.9366 -24.3821 -24.3393 -24.1154 -24.0473
   -23.9793 -23.9581 -23.6364 -23.6303 -23.5566 -23.5510 -23.3466 -23.3433
    -9.1534  -9.1426  -9.1402  -9.1385  -9.1373  -9.1331  -9.1304  -9.1284
    -9.1243  -9.1214  -9.1207  -9.1194  -9.1187  -9.1146  -8.6996  -8.6990
    -8.6939  -8.6931  -8.6841  -8.6835  -8.6584  -8.6577  -8.6439  -8.6432
    -8.6207  -8.6201  -8.6054  -8.6047  -0.9483  -0.5933  -0.0234   3.6617
     4.4465   5.5598   5.9640   6.1480   6.2908   6.3802   6.4618   6.8746
     9.1001  10.0174  10.6858  10.7702  12.4366  12.6764  13.1233  13.2629
    13.9392  14.4301  14.9274  15.1798  15.2263  15.4124  16.2718  16.5484

          k =-0.3967 0.4123 0.0000 (  7708 PWs)   bands (ev):

   -57.4377 -57.4332 -56.9349 -56.9343 -24.4129 -24.3613 -24.0853 -24.0791
   -23.9804 -23.9781 -23.6595 -23.6527 -23.5560 -23.5521 -23.3626 -23.3594
    -9.1540  -9.1439  -9.1423  -9.1382  -9.1378  -9.1338  -9.1317  -9.1259
    -9.1236  -9.1200  -9.1197  -9.1181  -9.1162  -9.1160  -8.6987  -8.6980
    -8.6946  -8.6938  -8.6849  -8.6843  -8.6580  -8.6573  -8.6434  -8.6427
    -8.6228  -8.6222  -8.6033  -8.6026  -0.9856  -0.5200   0.2606   3.3525
     4.3982   5.7209   5.9372   5.9940   6.1965   6.3095   6.5396   6.9730
     9.1085  10.0376  10.9605  11.0210  12.5270  13.1784  13.1947  13.7270
    13.9783  14.2885  14.7323  14.9318  15.2734  15.4807  16.4131  16.8223

          k = 0.5554 0.1374 0.0000 (  7708 PWs)   bands (ev):

   -57.4378 -57.4331 -56.9349 -56.9343 -24.4127 -24.3603 -24.0868 -24.0793
   -23.9806 -23.9777 -23.6597 -23.6532 -23.5562 -23.5525 -23.3619 -23.3587
    -9.1540  -9.1438  -9.1423  -9.1382  -9.1379  -9.1337  -9.1318  -9.1258
    -9.1237  -9.1201  -9.1197  -9.1181  -9.1162  -9.1159  -8.6986  -8.6980
    -8.6946  -8.6939  -8.6848  -8.6842  -8.6580  -8.6574  -8.6434  -8.6427
    -8.6228  -8.6222  -8.6032  -8.6026  -0.9857  -0.5199   0.2606   3.3533
     4.3981   5.7200   5.9361   5.9924   6.1934   6.3114   6.5426   6.9782
     9.1115  10.0330  10.9599  11.0205  12.5309  13.1749  13.1944  13.7260
    13.9787  14.2846  14.7308  14.9336  15.2742  15.4791  16.4214  16.8203

          k =-0.2380 0.4123 0.0000 (  7697 PWs)   bands (ev):

   -57.4410 -57.4347 -56.9372 -56.9366 -24.3301 -24.3150 -24.1302 -24.0399
   -24.0359 -23.9700 -23.5997 -23.5990 -23.5573 -23.5546 -23.3840 -23.3780
    -9.1495  -9.1408  -9.1405  -9.1394  -9.1345  -9.1343  -9.1295  -9.1291
    -9.1261  -9.1236  -9.1210  -9.1209  -9.1191  -9.1154  -8.6991  -8.6985
    -8.6926  -8.6920  -8.6849  -8.6843  -8.6579  -8.6573  -8.6450  -8.6443
    -8.6214  -8.6208  -8.6054  -8.6048  -0.6433  -0.6125  -0.3222   4.1092
     4.5808   5.3253   5.7960   6.1609   6.1895   6.3442   6.5797   6.7399
     9.6004   9.9923  10.2718  10.5666  12.1767  12.5871  12.8722  13.2474
    13.9863  14.3308  14.8655  15.2221  15.2376  15.3541  16.6973  16.8392

          k = 0.4760 0.0000 0.0000 (  7697 PWs)   bands (ev):

   -57.4411 -57.4347 -56.9372 -56.9366 -24.3296 -24.3143 -24.1303 -24.0411
   -24.0369 -23.9689 -23.6005 -23.5995 -23.5574 -23.5545 -23.3834 -23.3773
    -9.1494  -9.1409  -9.1406  -9.1393  -9.1345  -9.1343  -9.1296  -9.1292
    -9.1261  -9.1236  -9.1212  -9.1208  -9.1192  -9.1152  -8.6991  -8.6985
    -8.6928  -8.6920  -8.6848  -8.6842  -8.6579  -8.6573  -8.6450  -8.6443
    -8.6214  -8.6208  -8.6054  -8.6048  -0.6418  -0.6120  -0.3245   4.1116
     4.5786   5.3249   5.7951   6.1643   6.1886   6.3419   6.5822   6.7393
     9.6025   9.9927  10.2745  10.5655  12.1773  12.5828  12.8684  13.2489
    13.9854  14.3334  14.8660  15.2248  15.2402  15.3522  16.6977  16.8398

          k =-0.2380 0.5039 0.0000 (  7717 PWs)   bands (ev):

   -57.4356 -57.4324 -56.9336 -56.9330 -24.3453 -24.3050 -24.1586 -24.1021
   -24.0384 -23.9860 -23.6150 -23.6069 -23.5568 -23.5532 -23.4409 -23.4340
    -9.1485  -9.1438  -9.1419  -9.1376  -9.1359  -9.1335  -9.1308  -9.1294
    -9.1262  -9.1225  -9.1201  -9.1191  -9.1175  -9.1161  -8.6971  -8.6965
    -8.6926  -8.6920  -8.6872  -8.6864  -8.6566  -8.6559  -8.6453  -8.6447
    -8.6251  -8.6245  -8.6022  -8.6016  -0.6452  -0.4573  -0.0230   3.9191
     4.5829   5.3340   5.5268   6.1243   6.2082   6.3121   6.5552   6.8103
     9.8313  10.1226  10.6535  10.7725  12.2702  12.9963  13.2287  13.4389
    13.9073  14.0785  14.4121  14.7598  15.1983  15.3908  16.8380  17.1429

          k =-0.3174 0.4581 0.0000 (  7717 PWs)   bands (ev):

   -57.4356 -57.4324 -56.9336 -56.9330 -24.3453 -24.3050 -24.1586 -24.1021
   -24.0384 -23.9860 -23.6150 -23.6069 -23.5569 -23.5532 -23.4409 -23.4339
    -9.1485  -9.1438  -9.1419  -9.1376  -9.1359  -9.1335  -9.1308  -9.1295
    -9.1262  -9.1225  -9.1201  -9.1191  -9.1175  -9.1161  -8.6971  -8.6965
    -8.6927  -8.6920  -8.6871  -8.6865  -8.6566  -8.6559  -8.6453  -8.6447
    -8.6251  -8.6245  -8.6022  -8.6015  -0.6452  -0.4573  -0.0230   3.9191
     4.5829   5.3340   5.5268   6.1243   6.2082   6.3121   6.5552   6.8103
     9.8313  10.1226  10.6535  10.7725  12.2702  12.9963  13.2287  13.4389
    13.9073  14.0785  14.4121  14.7598  15.1983  15.3908  16.8388  17.1421

          k = 0.5554 0.0458 0.0000 (  7717 PWs)   bands (ev):

   -57.4357 -57.4324 -56.9336 -56.9330 -24.3450 -24.3040 -24.1589 -24.1032
   -24.0397 -23.9848 -23.6154 -23.6075 -23.5570 -23.5534 -23.4402 -23.4332
    -9.1484  -9.1438  -9.1419  -9.1377  -9.1359  -9.1336  -9.1308  -9.1294
    -9.1263  -9.1225  -9.1201  -9.1191  -9.1175  -9.1160  -8.6971  -8.6965
    -8.6928  -8.6921  -8.6870  -8.6864  -8.6566  -8.6560  -8.6453  -8.6447
    -8.6251  -8.6245  -8.6022  -8.6015  -0.6444  -0.4569  -0.0245   3.9201
     4.5834   5.3332   5.5255   6.1235   6.2089   6.3126   6.5544   6.8130
     9.8342  10.1226  10.6533  10.7713  12.2704  12.9969  13.2266  13.4384
    13.9080  14.0737  14.4137  14.7607  15.1996  15.3902  16.8409  17.1444

          k =-0.3174-0.4581 0.0000 (  7717 PWs)   bands (ev):

   -57.4357 -57.4324 -56.9336 -56.9330 -24.3450 -24.3040 -24.1589 -24.1032
   -24.0397 -23.9848 -23.6155 -23.6075 -23.5570 -23.5534 -23.4402 -23.4333
    -9.1484  -9.1438  -9.1419  -9.1377  -9.1359  -9.1336  -9.1308  -9.1294
    -9.1263  -9.1225  -9.1201  -9.1191  -9.1175  -9.1160  -8.6971  -8.6965
    -8.6928  -8.6921  -8.6870  -8.6863  -8.6566  -8.6560  -8.6453  -8.6447
    -8.6251  -8.6245  -8.6022  -8.6015  -0.6444  -0.4569  -0.0245   3.9201
     4.5834   5.3332   5.5255   6.1235   6.2089   6.3126   6.5544   6.8130
     9.8342  10.1226  10.6533  10.7713  12.2704  12.9969  13.2266  13.4384
    13.9080  14.0737  14.4137  14.7607  15.1996  15.3902  16.8411  17.1436

          k = 0.5554-0.0458 0.0000 (  7717 PWs)   bands (ev):

   -57.4357 -57.4324 -56.9336 -56.9330 -24.3451 -24.3047 -24.1585 -24.1026
   -24.0393 -23.9853 -23.6153 -23.6072 -23.5569 -23.5532 -23.4407 -23.4336
    -9.1484  -9.1439  -9.1418  -9.1375  -9.1359  -9.1336  -9.1309  -9.1294
    -9.1262  -9.1225  -9.1202  -9.1191  -9.1175  -9.1160  -8.6971  -8.6965
    -8.6928  -8.6920  -8.6870  -8.6865  -8.6566  -8.6559  -8.6453  -8.6447
    -8.6251  -8.6245  -8.6022  -8.6015  -0.6445  -0.4570  -0.0242   3.9206
     4.5814   5.3352   5.5252   6.1253   6.2073   6.3134   6.5548   6.8099
     9.8328  10.1227  10.6543  10.7725  12.2684  12.9959  13.2285  13.4384
    13.9090  14.0764  14.4139  14.7604  15.1994  15.3900  16.8387  17.1416

     the Fermi energy is    11.0995 ev

!    total energy              =   -2759.16311165 Ry
     estimated scf accuracy    <          4.8E-13 Ry
     smearing contrib. (-TS)   =      -0.00001429 Ry
[...]
    13.4423  13.5899  13.7456  14.6474  14.6479  14.9079  15.4331  15.7082

          k = 0.3174 0.0000 0.0000 (  7665 PWs)   bands (ev):

   -57.4632 -57.4506 -56.9536 -56.9535 -24.2464 -24.2069 -24.1542 -23.9862
   -23.8910 -23.8618 -23.5649 -23.5526 -23.4753 -23.4685 -23.2458 -23.2442
    -9.1537  -9.1475  -9.1448  -9.1397  -9.1388  -9.1356  -9.1341  -9.1321
    -9.1318  -9.1302  -9.1259  -9.1250  -9.1206  -9.1177  -8.7084  -8.7083
    -8.6903  -8.6901  -8.6822  -8.6822  -8.6616  -8.6614  -8.6501  -8.6500
    -8.6213  -8.6212  -8.6090  -8.6089  -1.5626  -1.1057  -0.5302   4.5191
     5.0442   5.1911   5.3167   6.4869   6.4958   6.7081   6.8021   7.2614
     9.3901   9.4905  10.0789  10.3392  11.5044  11.5785  12.2056  13.1464
    13.4429  13.5913  13.7460  14.6475  14.6488  14.9077  15.4340  15.7083

          k =-0.1587 0.3665 0.0000 (  7665 PWs)   bands (ev):

   -57.4526 -57.4431 -56.9451 -56.9451 -24.3018 -24.2815 -24.1654 -24.0034
   -23.9565 -23.9215 -23.5744 -23.5702 -23.5565 -23.5481 -23.3038 -23.3010
    -9.1550  -9.1451  -9.1409  -9.1398  -9.1382  -9.1363  -9.1341  -9.1316
    -9.1310  -9.1283  -9.1275  -9.1248  -9.1226  -9.1178  -8.7046  -8.7044
    -8.6936  -8.6935  -8.6844  -8.6842  -8.6611  -8.6610  -8.6474  -8.6473
    -8.6172  -8.6171  -8.6129  -8.6128  -0.9617  -0.8340  -0.5104   4.3208
     4.6155   5.3491   5.8038   6.1471   6.3206   6.5664   6.6281   6.9204
     9.1519   9.9052  10.2224  10.3982  12.0219  12.2231  12.3580  13.2619
    13.8928  14.0456  14.5675  14.9520  15.0688  15.1574  16.0768  16.3008

          k =-0.2380 0.3206 0.0000 (  7665 PWs)   bands (ev):

   -57.4526 -57.4431 -56.9451 -56.9451 -24.3018 -24.2815 -24.1654 -24.0034
   -23.9565 -23.9215 -23.5744 -23.5702 -23.5565 -23.5481 -23.3038 -23.3010
    -9.1550  -9.1451  -9.1409  -9.1398  -9.1382  -9.1363  -9.1341  -9.1316
    -9.1310  -9.1283  -9.1275  -9.1248  -9.1226  -9.1178  -8.7046  -8.7045
    -8.6936  -8.6935  -8.6844  -8.6843  -8.6611  -8.6610  -8.6474  -8.6473
    -8.6172  -8.6171  -8.6129  -8.6128  -0.9617  -0.8340  -0.5104   4.3208
     4.6155   5.3491   5.8038   6.1471   6.3206   6.5664   6.6281   6.9204
     9.1519   9.9052  10.2224  10.3982  12.0219  12.2231  12.3580  13.2619
    13.8928  14.0456  14.5675  14.9520  15.0688  15.1574  16.0768  16.3009

          k = 0.3967 0.0458 0.0000 (  7665 PWs)   bands (ev):

   -57.4526 -57.4431 -56.9451 -56.9451 -24.3019 -24.2815 -24.1654 -24.0034
   -23.9564 -23.9214 -23.5743 -23.5700 -23.5565 -23.5482 -23.3039 -23.3011
    -9.1551  -9.1451  -9.1409  -9.1398  -9.1382  -9.1363  -9.1340  -9.1316
    -9.1310  -9.1283  -9.1275  -9.1248  -9.1226  -9.1178  -8.7045  -8.7044
    -8.6937  -8.6935  -8.6843  -8.6842  -8.6611  -8.6610  -8.6474  -8.6473
    -8.6172  -8.6171  -8.6129  -8.6128  -0.9617  -0.8339  -0.5104   4.3206
     4.6151   5.3489   5.8036   6.1463   6.3199   6.5666   6.6278   6.9203
     9.1519   9.9059  10.2221  10.3973  12.0214  12.2247  12.3576  13.2631
    13.8933  14.0455  14.5683  14.9524  15.0700  15.1573  16.0775  16.3016

          k =-0.2380-0.3206 0.0000 (  7665 PWs)   bands (ev):

   -57.4526 -57.4431 -56.9451 -56.9451 -24.3019 -24.2815 -24.1654 -24.0034
   -23.9564 -23.9214 -23.5743 -23.5700 -23.5565 -23.5482 -23.3039 -23.3011
    -9.1551  -9.1451  -9.1409  -9.1398  -9.1382  -9.1363  -9.1340  -9.1316
    -9.1310  -9.1283  -9.1275  -9.1248  -9.1226  -9.1178  -8.7046  -8.7044
    -8.6936  -8.6935  -8.6844  -8.6842  -8.6611  -8.6610  -8.6474  -8.6473
    -8.6172  -8.6171  -8.6129  -8.6128  -0.9617  -0.8339  -0.5104   4.3206
     4.6151   5.3489   5.8036   6.1463   6.3199   6.5666   6.6278   6.9203
     9.1519   9.9059  10.2221  10.3973  12.0214  12.2247  12.3576  13.2631
    13.8933  14.0455  14.5683  14.9524  15.0700  15.1573  16.0775  16.3016

          k = 0.3967-0.0458 0.0000 (  7665 PWs)   bands (ev):

   -57.4526 -57.4431 -56.9451 -56.9451 -24.3019 -24.2815 -24.1654 -24.0034
   -23.9565 -23.9214 -23.5743 -23.5701 -23.5565 -23.5481 -23.3039 -23.3011
    -9.1551  -9.1451  -9.1409  -9.1398  -9.1382  -9.1363  -9.1340  -9.1316
    -9.1310  -9.1282  -9.1275  -9.1248  -9.1226  -9.1178  -8.7045  -8.7044
    -8.6937  -8.6935  -8.6843  -8.6842  -8.6611  -8.6610  -8.6474  -8.6473
    -8.6172  -8.6171  -8.6129  -8.6128  -0.9617  -0.8339  -0.5104   4.3206
     4.6150   5.3491   5.8041   6.1463   6.3200   6.5668   6.6280   6.9203
     9.1518   9.9057  10.2221  10.3975  12.0210  12.2242  12.3573  13.2632
    13.8931  14.0459  14.5684  14.9519  15.0699  15.1575  16.0771  16.3010

          k =-0.1587 0.4581 0.0000 (  7703 PWs)   bands (ev):

   -57.4443 -57.4380 -56.9389 -56.9389 -24.3847 -24.3417 -24.1175 -24.0496
   -23.9814 -23.9614 -23.6372 -23.6314 -23.5586 -23.5532 -23.3471 -23.3439
    -9.1568  -9.1460  -9.1436  -9.1419  -9.1406  -9.1365  -9.1337  -9.1318
    -9.1277  -9.1248  -9.1241  -9.1228  -9.1221  -9.1179  -8.7018  -8.7017
    -8.6959  -8.6958  -8.6863  -8.6862  -8.6604  -8.6603  -8.6459  -8.6458
    -8.6227  -8.6226  -8.6073  -8.6072  -0.9478  -0.5914  -0.0224   3.6625
     4.4490   5.5576   5.9647   6.1474   6.2936   6.3772   6.4654   6.8799
     9.1028  10.0163  10.6878  10.7711  12.4321  12.6797  13.1253  13.2549
    13.9302  14.4266  14.9260  15.1745  15.2229  15.4095  16.2726  16.5444

          k =-0.3174 0.3665 0.0000 (  7703 PWs)   bands (ev):

   -57.4443 -57.4380 -56.9390 -56.9389 -24.3847 -24.3417 -24.1175 -24.0496
   -23.9814 -23.9614 -23.6372 -23.6314 -23.5586 -23.5532 -23.3471 -23.3439
    -9.1568  -9.1460  -9.1436  -9.1419  -9.1406  -9.1365  -9.1337  -9.1318
    -9.1277  -9.1248  -9.1241  -9.1228  -9.1221  -9.1179  -8.7018  -8.7017
    -8.6960  -8.6958  -8.6863  -8.6862  -8.6604  -8.6603  -8.6459  -8.6458
    -8.6227  -8.6226  -8.6073  -8.6072  -0.9478  -0.5914  -0.0224   3.6625
     4.4490   5.5576   5.9647   6.1474   6.2936   6.3772   6.4654   6.8799
     9.1028  10.0163  10.6878  10.7711  12.4321  12.6797  13.1253  13.2549
    13.9302  14.4266  14.9260  15.1745  15.2229  15.4095  16.2726  16.5442

          k = 0.4760 0.0916 0.0000 (  7703 PWs)   bands (ev):

   -57.4443 -57.4380 -56.9390 -56.9389 -24.3848 -24.3418 -24.1175 -24.0495
   -23.9814 -23.9612 -23.6370 -23.6312 -23.5587 -23.5533 -23.3472 -23.3440
    -9.1568  -9.1460  -9.1436  -9.1418  -9.1406  -9.1364  -9.1337  -9.1317
    -9.1276  -9.1248  -9.1241  -9.1228  -9.1221  -9.1180  -8.7018  -8.7017
    -8.6960  -8.6958  -8.6863  -8.6862  -8.6604  -8.6603  -8.6459  -8.6458
    -8.6227  -8.6226  -8.6073  -8.6072  -0.9477  -0.5913  -0.0224   3.6624
     4.4485   5.5575   5.9640   6.1474   6.2931   6.3769   6.4650   6.8796
     9.1026  10.0163  10.6878  10.7708  12.4337  12.6798  13.1251  13.2555
    13.9309  14.4261  14.9265  15.1748  15.2232  15.4099  16.2734  16.5449

          k =-0.3174-0.3665 0.0000 (  7703 PWs)   bands (ev):

   -57.4443 -57.4380 -56.9390 -56.9389 -24.3848 -24.3418 -24.1175 -24.0495
   -23.9814 -23.9612 -23.6370 -23.6312 -23.5587 -23.5533 -23.3472 -23.3440
    -9.1568  -9.1460  -9.1436  -9.1418  -9.1406  -9.1364  -9.1337  -9.1317
    -9.1276  -9.1248  -9.1241  -9.1228  -9.1221  -9.1180  -8.7018  -8.7017
    -8.6960  -8.6958  -8.6863  -8.6861  -8.6604  -8.6603  -8.6459  -8.6458
    -8.6227  -8.6226  -8.6073  -8.6072  -0.9477  -0.5913  -0.0224   3.6624
     4.4485   5.5575   5.9640   6.1474   6.2931   6.3769   6.4650   6.8796
     9.1026  10.0163  10.6878  10.7708  12.4337  12.6798  13.1251  13.2555
    13.9309  14.4261  14.9265  15.1748  15.2232  15.4099  16.2734  16.5449

          k = 0.4760-0.0916 0.0000 (  7703 PWs)   bands (ev):

   -57.4443 -57.4380 -56.9390 -56.9389 -24.3847 -24.3417 -24.1175 -24.0495
   -23.9815 -23.9613 -23.6372 -23.6313 -23.5586 -23.5532 -23.3471 -23.3440
    -9.1568  -9.1460  -9.1436  -9.1419  -9.1406  -9.1365  -9.1337  -9.1317
    -9.1276  -9.1248  -9.1241  -9.1228  -9.1220  -9.1180  -8.7018  -8.7017
    -8.6960  -8.6958  -8.6863  -8.6862  -8.6604  -8.6603  -8.6459  -8.6458
    -8.6227  -8.6226  -8.6073  -8.6072  -0.9477  -0.5914  -0.0224   3.6624
     4.4486   5.5577   5.9643   6.1477   6.2934   6.3773   6.4654   6.8798
     9.1026  10.0161  10.6877  10.7709  12.4317  12.6796  13.1249  13.2559
    13.9308  14.4266  14.9265  15.1748  15.2232  15.4096  16.2727  16.5448

          k =-0.3967 0.4123 0.0000 (  7708 PWs)   bands (ev):

   -57.4410 -57.4364 -56.9367 -56.9366 -24.4153 -24.3636 -24.0877 -24.0814
   -23.9832 -23.9806 -23.6604 -23.6539 -23.5580 -23.5543 -23.3630 -23.3599
    -9.1574  -9.1473  -9.1457  -9.1416  -9.1412  -9.1371  -9.1351  -9.1292
    -9.1270  -9.1235  -9.1231  -9.1216  -9.1196  -9.1193  -8.7008  -8.7007
    -8.6967  -8.6965  -8.6870  -8.6869  -8.6600  -8.6598  -8.6454  -8.6453
    -8.6247  -8.6246  -8.6051  -8.6050  -0.9846  -0.5177   0.2612   3.3535
     4.3993   5.7203   5.9392   5.9914   6.1942   6.3118   6.5422   6.9770
     9.1121  10.0353  10.9632  11.0229  12.5212  13.1765  13.1967  13.7213
    13.9757  14.2858  14.7312  14.9298  15.2662  15.4763  16.4146  16.8186

          k = 0.5554 0.1374 0.0000 (  7708 PWs)   bands (ev):

   -57.4410 -57.4364 -56.9367 -56.9366 -24.4154 -24.3637 -24.0878 -24.0813
   -23.9831 -23.9805 -23.6602 -23.6537 -23.5581 -23.5544 -23.3630 -23.3599
    -9.1574  -9.1473  -9.1457  -9.1416  -9.1412  -9.1371  -9.1350  -9.1292
    -9.1270  -9.1235  -9.1231  -9.1216  -9.1196  -9.1194  -8.7008  -8.7007
    -8.6967  -8.6966  -8.6870  -8.6869  -8.6600  -8.6599  -8.6454  -8.6453
    -8.6247  -8.6246  -8.6051  -8.6050  -0.9845  -0.5176   0.2612   3.3534
     4.3990   5.7202   5.9391   5.9908   6.1939   6.3118   6.5414   6.9767
     9.1119  10.0352  10.9633  11.0229  12.5232  13.1763  13.1973  13.7220
    13.9753  14.2853  14.7312  14.9302  15.2662  15.4764  16.4153  16.8190

          k =-0.2380 0.4123 0.0000 (  7697 PWs)   bands (ev):

   -57.4443 -57.4380 -56.9389 -56.9389 -24.3323 -24.3170 -24.1323 -24.0432
   -24.0392 -23.9718 -23.6009 -23.6003 -23.5593 -23.5566 -23.3841 -23.3783
    -9.1528  -9.1442  -9.1440  -9.1427  -9.1379  -9.1377  -9.1330  -9.1325
    -9.1295  -9.1270  -9.1246  -9.1242  -9.1225  -9.1187  -8.7013  -8.7012
    -8.6948  -8.6947  -8.6870  -8.6869  -8.6600  -8.6598  -8.6470  -8.6469
    -8.6233  -8.6232  -8.6073  -8.6072  -0.6408  -0.6103  -0.3241   4.1123
     4.5811   5.3245   5.7971   6.1633   6.1901   6.3420   6.5815   6.7417
     9.6062   9.9952  10.2752  10.5660  12.1738  12.5853  12.8693  13.2447
    13.9784  14.3269  14.8657  15.2202  15.2355  15.3498  16.6927  16.8379

          k = 0.4760 0.0000 0.0000 (  7697 PWs)   bands (ev):

   -57.4443 -57.4380 -56.9390 -56.9389 -24.3324 -24.3171 -24.1323 -24.0432
   -24.0391 -23.9717 -23.6008 -23.6002 -23.5593 -23.5567 -23.3842 -23.3783
    -9.1528  -9.1442  -9.1440  -9.1427  -9.1379  -9.1377  -9.1329  -9.1325
    -9.1295  -9.1270  -9.1246  -9.1242  -9.1226  -9.1187  -8.7013  -8.7012
    -8.6949  -8.6947  -8.6870  -8.6869  -8.6600  -8.6598  -8.6470  -8.6469
    -8.6233  -8.6232  -8.6073  -8.6072  -0.6408  -0.6101  -0.3241   4.1121
     4.5805   5.3246   5.7973   6.1634   6.1896   6.3415   6.5814   6.7415
     9.6059   9.9954  10.2750  10.5654  12.1752  12.5841  12.8684  13.2466
    13.9789  14.3270  14.8661  15.2199  15.2366  15.3501  16.6931  16.8386

          k =-0.2380 0.5039 0.0000 (  7717 PWs)   bands (ev):

   -57.4390 -57.4357 -56.9354 -56.9353 -24.3476 -24.3072 -24.1612 -24.1053
   -24.0413 -23.9877 -23.6159 -23.6080 -23.5588 -23.5553 -23.4412 -23.4344
    -9.1518  -9.1472  -9.1453  -9.1410  -9.1393  -9.1369  -9.1342  -9.1328
    -9.1296  -9.1259  -9.1235  -9.1225  -9.1210  -9.1195  -8.6993  -8.6992
    -8.6949  -8.6947  -8.6892  -8.6891  -8.6586  -8.6585  -8.6474  -8.6472
    -8.6270  -8.6269  -8.6041  -8.6040  -0.6433  -0.4548  -0.0237   3.9210
     4.5841   5.3337   5.5264   6.1238   6.2086   6.3117   6.5552   6.8123
     9.8363  10.1254  10.6559  10.7730  12.2689  12.9960  13.2294  13.4381
    13.9028  14.0728  14.4086  14.7576  15.1921  15.3861  16.8369  17.1412

          k =-0.3174 0.4581 0.0000 (  7717 PWs)   bands (ev):

   -57.4390 -57.4357 -56.9354 -56.9353 -24.3476 -24.3072 -24.1612 -24.1053
   -24.0413 -23.9877 -23.6159 -23.6080 -23.5588 -23.5553 -23.4412 -23.4344
    -9.1518  -9.1472  -9.1453  -9.1410  -9.1393  -9.1369  -9.1342  -9.1328
    -9.1296  -9.1259  -9.1235  -9.1225  -9.1210  -9.1195  -8.6993  -8.6992
    -8.6949  -8.6947  -8.6892  -8.6891  -8.6586  -8.6585  -8.6473  -8.6472
    -8.6270  -8.6269  -8.6041  -8.6040  -0.6433  -0.4548  -0.0237   3.9210
     4.5841   5.3337   5.5264   6.1238   6.2086   6.3117   6.5552   6.8123
     9.8363  10.1254  10.6559  10.7730  12.2689  12.9960  13.2294  13.4381
    13.9028  14.0728  14.4086  14.7576  15.1921  15.3861  16.8369  17.1410

          k = 0.5554 0.0458 0.0000 (  7717 PWs)   bands (ev):

   -57.4390 -57.4357 -56.9354 -56.9353 -24.3477 -24.3072 -24.1611 -24.1052
   -24.0413 -23.9876 -23.6157 -23.6079 -23.5588 -23.5553 -23.4413 -23.4345
    -9.1518  -9.1472  -9.1453  -9.1409  -9.1393  -9.1369  -9.1342  -9.1328
    -9.1296  -9.1259  -9.1235  -9.1225  -9.1210  -9.1195  -8.6993  -8.6992
    -8.6949  -8.6947  -8.6892  -8.6891  -8.6586  -8.6585  -8.6474  -8.6472
    -8.6270  -8.6269  -8.6041  -8.6040  -0.6433  -0.4547  -0.0238   3.9208
     4.5837   5.3336   5.5265   6.1236   6.2085   6.3115   6.5547   6.8121
     9.8359  10.1252  10.6560  10.7729  12.2698  12.9958  13.2306  13.4374
    13.9036  14.0725  14.4086  14.7582  15.1920  15.3862  16.8374  17.1415

          k =-0.3174-0.4581 0.0000 (  7717 PWs)   bands (ev):

   -57.4390 -57.4357 -56.9354 -56.9353 -24.3477 -24.3072 -24.1611 -24.1052
   -24.0413 -23.9876 -23.6157 -23.6079 -23.5588 -23.5553 -23.4413 -23.4345
    -9.1518  -9.1472  -9.1453  -9.1409  -9.1393  -9.1369  -9.1342  -9.1328
    -9.1296  -9.1259  -9.1235  -9.1225  -9.1210  -9.1195  -8.6993  -8.6992
    -8.6949  -8.6948  -8.6892  -8.6891  -8.6586  -8.6585  -8.6473  -8.6472
    -8.6270  -8.6269  -8.6041  -8.6040  -0.6433  -0.4547  -0.0238   3.9208
     4.5837   5.3336   5.5265   6.1236   6.2085   6.3115   6.5547   6.8121
     9.8359  10.1252  10.6560  10.7729  12.2698  12.9958  13.2306  13.4374
    13.9036  14.0725  14.4086  14.7582  15.1920  15.3862  16.8375  17.1413

          k = 0.5554-0.0458 0.0000 (  7717 PWs)   bands (ev):

   -57.4390 -57.4357 -56.9354 -56.9353 -24.3477 -24.3072 -24.1612 -24.1052
   -24.0413 -23.9877 -23.6158 -23.6080 -23.5588 -23.5553 -23.4413 -23.4345
    -9.1518  -9.1472  -9.1453  -9.1410  -9.1393  -9.1369  -9.1342  -9.1328
    -9.1296  -9.1259  -9.1235  -9.1225  -9.1210  -9.1195  -8.6993  -8.6992
    -8.6949  -8.6947  -8.6892  -8.6891  -8.6586  -8.6585  -8.6474  -8.6472
    -8.6270  -8.6269  -8.6041  -8.6040  -0.6433  -0.4548  -0.0237   3.9209
     4.5837   5.3337   5.5266   6.1238   6.2084   6.3117   6.5551   6.8122
     9.8362  10.1252  10.6558  10.7729  12.2693  12.9952  13.2307  13.4375
    13.9035  14.0727  14.4088  14.7581  15.1920  15.3862  16.8370  17.1413

     the Fermi energy is    11.1022 ev

!    total energy              =   -2759.16314128 Ry
     estimated scf accuracy    <          9.0E-15 Ry
     smearing contrib. (-TS)   =      -0.00001538 Ry
     internal energy E=F+TS    =   -2759.16312590 Ry

     The total energy is F=E-TS. E is the sum of the following terms:
     one-electron contribution =   -8679.74226647 Ry
     hartree contribution      =    4446.09778321 Ry
     xc contribution           =    -282.41463529 Ry
     ewald contribution        =    1756.89599265 Ry

     convergence has been achieved in  23 iterations

     negative rho (up, down):  2.937E-05 0.000E+00

     Forces acting on atoms (cartesian axes, Ry/au):

     atom    1 type  1   force =     0.00025073   -0.00002607   -0.00053239
     atom    2 type  2   force =    -0.00013534   -0.00005462   -0.00072736
     atom    3 type  1   force =    -0.00015003    0.00010558   -0.00041932
     atom    4 type  2   force =     0.00003852   -0.00006763   -0.00002260
     atom    5 type  1   force =    -0.00001766    0.00018203    0.00045654
     atom    6 type  2   force =     0.00011584    0.00009076    0.00072576
     atom    7 type  1   force =    -0.00010206   -0.00023005    0.00051936

     Total force =     0.001496     Total SCF correction =     0.000001


     Computing stress (Cartesian axis) and pressure


     negative rho (up, down):  2.937E-05 0.000E+00
          total   stress  (Ry/bohr**3)                   (kbar)     P=       -4.91
  -0.00001726  -0.00000032  -0.00000097           -2.54       -0.05       -0.14
  -0.00000032  -0.00001689  -0.00000056           -0.05       -2.49       -0.08
  -0.00000097  -0.00000056  -0.00006597           -0.14       -0.08       -9.70

     Energy error            =      9.7E-06 Ry
     Gradient error          =      7.3E-04 Ry/Bohr

     bfgs converged in   3 scf cycles and   2 bfgs steps
     (criteria: energy <  1.0E-04 Ry, force <  1.0E-03 Ry/Bohr)

     End of BFGS Geometry Optimization

     Final energy             =   -2759.1631412780 Ry

     File /scratch/as3359/Ta4C3_loop/Ta.bfgs deleted, as requested
Begin final coordinates

ATOMIC_POSITIONS (alat)
Ta            0.0000408956        0.6070318020       -0.1703335963
C             0.0002511341        0.0005928393        0.2265443638
Ta            0.5255276513        0.3037199489        0.6690179839
C             0.0002771084        0.6069602646        1.1221242715
Ta            0.0002681444        0.0004611417        1.5751488834
C             0.5254190326        0.3037991788        2.0175711117
Ta            0.0003354337        0.6072027247        2.4144936820
End final coordinates



     Writing output data file /scratch/as3359/Ta4C3_loop/Ta.save/
 
     init_run     :     17.04s CPU      9.05s WALL (       1 calls)
     electrons    :   4899.96s CPU   2492.49s WALL (       3 calls)
     update_pot   :      2.57s CPU      1.28s WALL (       2 calls)
     forces       :     12.69s CPU      6.45s WALL (       3 calls)
     stress       :     58.47s CPU     29.58s WALL (       3 calls)

     Called by init_run:
     wfcinit      :     13.88s CPU      7.11s WALL (       1 calls)
     potinit      :      0.80s CPU      0.40s WALL (       1 calls)
     hinit0       :      1.92s CPU      1.26s WALL (       1 calls)

     Called by electrons:
     c_bands      :   4535.41s CPU   2303.29s WALL (      84 calls)
     sum_band     :    337.25s CPU    173.38s WALL (      84 calls)
     v_of_rho     :      4.33s CPU      2.20s WALL (      85 calls)
     newd         :     22.38s CPU     13.36s WALL (      85 calls)
     mix_rho      :      1.09s CPU      0.56s WALL (      84 calls)

     Called by c_bands:
     init_us_2    :     24.09s CPU     12.10s WALL (   12950 calls)
     ccgdiagg     :   3879.16s CPU   1970.60s WALL (    6216 calls)
     wfcrot       :    642.06s CPU    325.26s WALL (    5920 calls)

     Called by *cgdiagg:
     h_psi        :   2575.50s CPU   1308.58s WALL ( 1049105 calls)
     s_psi        :    811.00s CPU    411.36s WALL ( 2092290 calls)

     Called by h_psi:
     h_psi:calbec :    411.62s CPU    208.66s WALL ( 1049105 calls)
     vloc_psi     :   1712.44s CPU    871.31s WALL ( 1049105 calls)
     add_vuspsi   :    420.71s CPU    213.71s WALL ( 1049105 calls)
     hs_1psi      :   2439.27s CPU   1238.41s WALL ( 1043185 calls)
     s_1psi       :    795.10s CPU    402.43s WALL ( 1043185 calls)

     General routines
     calbec       :    822.27s CPU    418.02s WALL ( 2099616 calls)
     fft          :      2.66s CPU      1.36s WALL (    1178 calls)
     ffts         :      0.19s CPU      0.10s WALL (     169 calls)
     fftw         :   1736.18s CPU    883.54s WALL ( 3387586 calls)
     interpolate  :      0.31s CPU      0.16s WALL (      85 calls)
 
     Parallel routines
 
     PWSCF        :      1h23m CPU  42m20.91s WALL

 
   This run was terminated on:  18:46:35   8Apr2022            

=------------------------------------------------------------------------------=
   JOB DONE.
=------------------------------------------------------------------------------=
