
     Program PWSCF v.6.8 starts on 21Apr2022 at 22:22:57 

     This program is part of the open-source Quantum ESPRESSO suite
     for quantum simulation of materials; please cite
         "P. Giannozzi et al., J. Phys.:Condens. Matter 21 395502 (2009);
         "P. Giannozzi et al., J. Phys.:Condens. Matter 29 465901 (2017);
         "P. Giannozzi et al., J. Chem. Phys. 152 154105 (2020);
          URL http://www.quantum-espresso.org", 
     in publications or presentations arising from this work. More details at
     http://www.quantum-espresso.org/quote

     Parallel version (MPI & OpenMP), running on       4 processor cores
     Number of MPI processes:                 2
     Threads/MPI process:                     2

     MPI processes distributed on     1 nodes
     R & G space division:  proc/nbgrp/npool/nimage =       2
     124780 MiB available memory on the printing compute node when the environment starts
 
     Reading input from Ta2CH2.relax.in
Warning: card  &CELL ignored
Warning: card     CELL_DYNAMICS='BFGS', CELL_DOFREE ='2DXY' ignored
Warning: card  / ignored

     Current dimensions of program PWSCF are:
     Max number of different atomic species (ntypx) = 10
     Max number of k-points (npk) =  40000
     Max angular momentum in pseudopotentials (lmaxx) =  4
     file Ta.pbesol-spfn-rrkjus_psl.1.0.0.UPF: wavefunction(s)  5S 5P renormalized
     Message from routine setup:
     using ibrav=0 with symmetry is DISCOURAGED, use correct ibrav instead

     Subspace diagonalization in iterative solution of the eigenvalue problem:
     a serial algorithm will be used

 
     Parallelization info
     --------------------
     sticks:   dense  smooth     PW     G-vecs:    dense   smooth      PW
     Min         831     330     99               258578    65398   10523
     Max         832     331    100               258579    65409   10536
     Sum        1663     661    199               517157   130807   21059
 
     Using Slab Decomposition
 


     bravais-lattice index     =            0
     lattice parameter (alat)  =       5.5500  a.u.
     unit-cell volume          =    1653.2347 (a.u.)^3
     number of atoms/cell      =            5
     number of atomic types    =            3
     number of electrons       =        60.00
     number of Kohn-Sham states=           36
     kinetic-energy cutoff     =      70.0000  Ry
     charge density cutoff     =     700.0000  Ry
     scf convergence threshold =      1.0E-12
     mixing beta               =       0.7000
     number of iterations used =            8  plain     mixing
     energy convergence thresh.=      1.0E-04
     force convergence thresh. =      1.0E-03
     Exchange-correlation= PBESOL
                           (   1   4  10   8   0   0   0)
     nstep                     =           50


     celldm(1)=   5.550000  celldm(2)=   0.000000  celldm(3)=   0.000000
     celldm(4)=   0.000000  celldm(5)=   0.000000  celldm(6)=   0.000000

     crystal axes: (cart. coord. in units of alat)
               a(1) = (   1.056726   0.000000   0.000000 )  
               a(2) = (  -0.528363   0.915152   0.000000 )  
               a(3) = (   0.000000   0.000000  10.000000 )  

     reciprocal axes: (cart. coord. in units 2 pi/alat)
               b(1) = (  0.946319  0.546358  0.000000 )  
               b(2) = (  0.000000  1.092715  0.000000 )  
               b(3) = (  0.000000  0.000000  0.100000 )  


     PseudoPot. # 1 for Ta read from file:
     /shared/home/as3359/pseudo/Ta.pbesol-spfn-rrkjus_psl.1.0.0.UPF
     MD5 check sum: f099565ffaca9b150a52e9412a28e20b
     Pseudo is Ultrasoft + core correction, Zval = 27.0
     Generated using &quot;atomic&quot; code by A. Dal Corso  v.6.3
     Using radial grid of 1273 points,  8 beta functions with: 
                l(1) =   0
                l(2) =   0
                l(3) =   1
                l(4) =   1
                l(5) =   2
                l(6) =   2
                l(7) =   3
                l(8) =   3
     Q(r) pseudized with 0 coefficients 


     PseudoPot. # 2 for C  read from file:
     /shared/home/as3359/pseudo/C.pbesol-n-rrkjus_psl.1.0.0.UPF
     MD5 check sum: 05995be603a8a7c99da3dc4413f31573
     Pseudo is Ultrasoft + core correction, Zval =  4.0
     Generated using &quot;atomic&quot; code by A. Dal Corso  v.6.3MaX
     Using radial grid of 1073 points,  4 beta functions with: 
                l(1) =   0
                l(2) =   0
                l(3) =   1
                l(4) =   1
     Q(r) pseudized with 0 coefficients 


     PseudoPot. # 3 for H  read from file:
     /shared/home/as3359/pseudo/H.pbesol-rrkjus_psl.0.1.UPF
     MD5 check sum: 1dbb1a5c48b1283557b8117eb856a7ca
     Pseudo is Ultrasoft, Zval =  1.0
     Generated using "atomic" code by A. Dal Corso  v.5.0.2 svn rev. 9415
     Using radial grid of  929 points,  2 beta functions with: 
                l(1) =   0
                l(2) =   0
     Q(r) pseudized with 0 coefficients 


     atomic species   valence    mass     pseudopotential
        Ta            27.00   180.94788     Ta( 1.00)
        C              4.00    12.01070     C ( 1.00)
        H              1.00     1.00000     H ( 1.00)

      6 Sym. Ops. (no inversion) found



   Cartesian axes

     site n.     atom                  positions (alat units)
         1           C   tau(   1) = (   0.0000000   0.0000000   0.0000000  )
         2           Ta  tau(   2) = (   0.5283631   0.3050506  -0.4210085  )
         3           Ta  tau(   3) = (   0.0000000   0.6101011   0.3928174  )
         4           H   tau(   4) = (   0.0000000   0.6101011   1.0011320  )
         5           H   tau(   5) = (   0.0000000   0.6101011  -0.7569043  )

     number of k points=    19  Marzari-Vanderbilt smearing, width (Ry)=  0.0010
                       cart. coord. in units 2pi/alat
        k(    1) = (   0.0000000   0.0000000   0.0000000), wk =   0.0138889
        k(    2) = (   0.0000000   0.0910596   0.0000000), wk =   0.0833333
        k(    3) = (   0.0000000   0.1821192   0.0000000), wk =   0.0833333
        k(    4) = (   0.0000000   0.2731788   0.0000000), wk =   0.0833333
        k(    5) = (   0.0000000   0.3642383   0.0000000), wk =   0.0833333
        k(    6) = (   0.0000000   0.4552979   0.0000000), wk =   0.0833333
        k(    7) = (   0.0000000  -0.5463575   0.0000000), wk =   0.0416667
        k(    8) = (   0.0788599   0.1365894   0.0000000), wk =   0.0833333
        k(    9) = (   0.0788599   0.2276490   0.0000000), wk =   0.1666667
        k(   10) = (   0.0788599   0.3187085   0.0000000), wk =   0.1666667
        k(   11) = (   0.0788599   0.4097681   0.0000000), wk =   0.1666667
        k(   12) = (   0.0788599   0.5008277   0.0000000), wk =   0.1666667
        k(   13) = (   0.1577198   0.2731788   0.0000000), wk =   0.0833333
        k(   14) = (   0.1577198   0.3642383   0.0000000), wk =   0.1666667
        k(   15) = (   0.1577198   0.4552979   0.0000000), wk =   0.1666667
        k(   16) = (   0.1577198   0.5463575   0.0000000), wk =   0.0833333
        k(   17) = (   0.2365797   0.4097681   0.0000000), wk =   0.0833333
        k(   18) = (   0.2365797   0.5008277   0.0000000), wk =   0.1666667
        k(   19) = (   0.3154397   0.5463575   0.0000000), wk =   0.0277778

     Dense  grid:   517157 G-vectors     FFT dimensions: (  50,  50, 480)

     Smooth grid:   130807 G-vectors     FFT dimensions: (  32,  32, 300)

     Estimated max dynamical RAM per process >       2.51 GB

     Estimated total dynamical RAM >       5.03 GB

     Initial potential from superposition of free atoms

     starting charge   59.99840, renormalised to   60.00000

     negative rho (up, down):  4.825E-05 0.000E+00
     Starting wfcs are   40 randomized atomic wfcs

     total cpu time spent up to now is       10.0 secs

     Self-consistent Calculation

     iteration #  1     ecut=    70.00 Ry     beta= 0.70
     Davidson diagonalization with overlap
     ethr =  1.00E-02,  avg # of iterations =  2.2
     Minimization algorithm failed to find Fermi energy: reverting to bisection
     Possible cause: smearing is larger than the electronic band-gap.

     negative rho (up, down):  2.048E-05 0.000E+00

     total cpu time spent up to now is       16.3 secs

     total energy              =   -1374.92978308 Ry
     estimated scf accuracy    <       1.19232755 Ry

     iteration #  2     ecut=    70.00 Ry     beta= 0.70
     Davidson diagonalization with overlap
     ethr =  1.99E-03,  avg # of iterations =  8.9

     negative rho (up, down):  7.605E-05 0.000E+00

     total cpu time spent up to now is       24.6 secs

     total energy              =   -1370.37126751 Ry
     estimated scf accuracy    <      84.72808941 Ry

     iteration #  3     ecut=    70.00 Ry     beta= 0.70
     Davidson diagonalization with overlap
     ethr =  1.99E-03,  avg # of iterations =  8.6

     negative rho (up, down):  4.315E-05 0.000E+00

     total cpu time spent up to now is       33.2 secs

     total energy              =   -1375.11310114 Ry
     estimated scf accuracy    <       7.63007793 Ry

     iteration #  4     ecut=    70.00 Ry     beta= 0.70
     Davidson diagonalization with overlap
     ethr =  1.99E-03,  avg # of iterations =  3.5

     negative rho (up, down):  1.867E-05 0.000E+00

     total cpu time spent up to now is       39.7 secs

     total energy              =   -1375.61467537 Ry
     estimated scf accuracy    <       0.30631433 Ry

     iteration #  5     ecut=    70.00 Ry     beta= 0.70
     Davidson diagonalization with overlap
     ethr =  5.11E-04,  avg # of iterations =  3.3

     negative rho (up, down):  3.577E-05 0.000E+00

     total cpu time spent up to now is       46.0 secs

     total energy              =   -1375.63217210 Ry
     estimated scf accuracy    <       0.18679860 Ry

     iteration #  6     ecut=    70.00 Ry     beta= 0.70
     Davidson diagonalization with overlap
     ethr =  3.11E-04,  avg # of iterations =  3.4
     Minimization algorithm failed to find Fermi energy: reverting to bisection
     Possible cause: smearing is larger than the electronic band-gap.

     negative rho (up, down):  3.800E-05 0.000E+00

     total cpu time spent up to now is       52.1 secs

     total energy              =   -1375.62843334 Ry
     estimated scf accuracy    <       0.05700822 Ry

     iteration #  7     ecut=    70.00 Ry     beta= 0.70
     Davidson diagonalization with overlap
     ethr =  9.50E-05,  avg # of iterations =  5.4

     negative rho (up, down):  4.642E-05 0.000E+00

     total cpu time spent up to now is       58.4 secs

     total energy              =   -1375.62659210 Ry
     estimated scf accuracy    <       0.01964443 Ry

     iteration #  8     ecut=    70.00 Ry     beta= 0.70
     Davidson diagonalization with overlap
     ethr =  3.27E-05,  avg # of iterations =  7.2

     negative rho (up, down):  5.036E-05 0.000E+00

     total cpu time spent up to now is       65.0 secs

     total energy              =   -1375.62641862 Ry
     estimated scf accuracy    <       0.00854336 Ry

     iteration #  9     ecut=    70.00 Ry     beta= 0.70
     Davidson diagonalization with overlap
     ethr =  1.42E-05,  avg # of iterations =  4.7

     negative rho (up, down):  5.406E-05 0.000E+00

     total cpu time spent up to now is       71.4 secs

     total energy              =   -1375.62679519 Ry
     estimated scf accuracy    <       0.00028915 Ry

     iteration # 10     ecut=    70.00 Ry     beta= 0.70
     Davidson diagonalization with overlap
     ethr =  4.82E-07,  avg # of iterations =  7.5

     negative rho (up, down):  4.863E-04 0.000E+00

     total cpu time spent up to now is       78.7 secs

     total energy              =   -1375.62686584 Ry
     estimated scf accuracy    <       0.00003116 Ry

     iteration # 11     ecut=    70.00 Ry     beta= 0.70
     Davidson diagonalization with overlap
     ethr =  5.19E-08,  avg # of iterations =  2.5

     negative rho (up, down):  6.725E-05 0.000E+00

     total cpu time spent up to now is       85.0 secs

     total energy              =   -1375.62685977 Ry
     estimated scf accuracy    <       0.00003442 Ry

     iteration # 12     ecut=    70.00 Ry     beta= 0.70
     Davidson diagonalization with overlap
     ethr =  5.19E-08,  avg # of iterations =  4.1

     negative rho (up, down):  6.908E-05 0.000E+00

     total cpu time spent up to now is       91.3 secs

     total energy              =   -1375.62686260 Ry
     estimated scf accuracy    <       0.00000134 Ry

     iteration # 13     ecut=    70.00 Ry     beta= 0.70
     Davidson diagonalization with overlap
     ethr =  2.24E-09,  avg # of iterations =  3.1

     negative rho (up, down):  7.001E-05 0.000E+00

     total cpu time spent up to now is       97.8 secs

     total energy              =   -1375.62686288 Ry
     estimated scf accuracy    <       0.00000011 Ry

     iteration # 14     ecut=    70.00 Ry     beta= 0.70
     Davidson diagonalization with overlap
     ethr =  1.78E-10,  avg # of iterations =  3.4

     negative rho (up, down):  7.060E-05 0.000E+00

     total cpu time spent up to now is      104.4 secs

     total energy              =   -1375.62686291 Ry
     estimated scf accuracy    <       0.00000003 Ry

     iteration # 15     ecut=    70.00 Ry     beta= 0.70
     Davidson diagonalization with overlap
     ethr =  5.16E-11,  avg # of iterations =  1.9

     negative rho (up, down):  7.077E-05 0.000E+00

     total cpu time spent up to now is      110.4 secs

     total energy              =   -1375.62686291 Ry
     estimated scf accuracy    <          8.0E-09 Ry

     iteration # 16     ecut=    70.00 Ry     beta= 0.70
     Davidson diagonalization with overlap
     ethr =  1.34E-11,  avg # of iterations =  1.9

     negative rho (up, down):  7.067E-05 0.000E+00

     total cpu time spent up to now is      116.4 secs

     total energy              =   -1375.62686291 Ry
     estimated scf accuracy    <          1.2E-09 Ry

     iteration # 17     ecut=    70.00 Ry     beta= 0.70
     Davidson diagonalization with overlap
     ethr =  2.01E-12,  avg # of iterations =  2.4

     negative rho (up, down):  7.072E-05 0.000E+00

     total cpu time spent up to now is      122.7 secs

     total energy              =   -1375.62686291 Ry
     estimated scf accuracy    <          5.4E-11 Ry

     iteration # 18     ecut=    70.00 Ry     beta= 0.70
     Davidson diagonalization with overlap
     ethr =  1.00E-13,  avg # of iterations =  4.8

     negative rho (up, down):  7.073E-05 0.000E+00

     total cpu time spent up to now is      129.9 secs

     total energy              =   -1375.62686291 Ry
     estimated scf accuracy    <          3.0E-11 Ry

     iteration # 19     ecut=    70.00 Ry     beta= 0.70
     Davidson diagonalization with overlap
     ethr =  1.00E-13,  avg # of iterations =  1.8

     negative rho (up, down):  7.073E-05 0.000E+00

     total cpu time spent up to now is      135.8 secs

     total energy              =   -1375.62686291 Ry
     estimated scf accuracy    <          7.2E-12 Ry

     iteration # 20     ecut=    70.00 Ry     beta= 0.70
     Davidson diagonalization with overlap
     ethr =  1.00E-13,  avg # of iterations =  2.0

     negative rho (up, down):  7.073E-05 0.000E+00

     total cpu time spent up to now is      141.8 secs

     End of self-consistent calculation

          k = 0.0000 0.0000 0.0000 ( 16413 PWs)   bands (ev):

   -69.1288 -68.4466 -35.8964 -35.3387 -35.3387 -34.8721 -34.7643 -34.7643
   -20.8117 -20.7806 -20.7806 -20.7694 -20.7694 -20.7543 -20.7049 -20.1272
   -20.0882 -20.0882 -20.0677 -20.0367 -20.0281 -20.0281 -13.8608  -9.0829
    -5.3763  -5.0785  -5.0784  -3.8789  -1.8283  -1.0554  -1.0554   0.8709
     0.8709   2.2169   2.2169   2.3423

          k = 0.0000 0.0911 0.0000 ( 16359 PWs)   bands (ev):

   -69.1262 -68.4442 -35.8874 -35.3846 -35.3489 -34.8669 -34.8045 -34.7733
   -20.8101 -20.7814 -20.7802 -20.7703 -20.7690 -20.7523 -20.7073 -20.1248
   -20.0885 -20.0872 -20.0702 -20.0355 -20.0294 -20.0284 -13.7364  -8.9038
    -5.8762  -5.0322  -4.8192  -3.7442  -1.8149  -1.3777  -0.8902   0.4510
     0.7629   2.1029   2.4196   3.0561

          k = 0.0000 0.1821 0.0000 ( 16319 PWs)   bands (ev):

   -69.1192 -68.4374 -35.8638 -35.5056 -35.3767 -34.9128 -34.8549 -34.7980
   -20.8060 -20.7836 -20.7793 -20.7723 -20.7678 -20.7469 -20.7139 -20.1183
   -20.0891 -20.0847 -20.0766 -20.0330 -20.0322 -20.0291 -13.4067  -8.4592
    -6.4094  -4.9361  -4.8314  -3.4513  -2.2894  -1.4426  -0.4440  -0.0312
     0.7787   2.0828   2.7271   3.6524

          k = 0.0000 0.2732 0.0000 ( 16302 PWs)   bands (ev):

   -69.1097 -68.4282 -35.8358 -35.6619 -35.4144 -35.0536 -34.8432 -34.8315
   -20.8011 -20.7869 -20.7793 -20.7739 -20.7652 -20.7391 -20.7224 -20.1095
   -20.0900 -20.0874 -20.0790 -20.0376 -20.0299 -20.0276 -12.9913  -8.1028
    -6.4396  -5.1411  -4.8782  -3.3579  -2.7056  -1.1403  -0.2006   0.1649
     1.2934   2.1035   2.8856   4.2685

          k = 0.0000 0.3642 0.0000 ( 16350 PWs)   bands (ev):

   -69.1002 -68.4189 -35.8478 -35.7772 -35.4518 -35.1852 -34.8648 -34.8341
   -20.7980 -20.7901 -20.7802 -20.7738 -20.7620 -20.7310 -20.7303 -20.1011
   -20.0960 -20.0904 -20.0754 -20.0420 -20.0306 -20.0228 -12.6394  -8.0435
    -5.9490  -5.5112  -4.8962  -3.6842  -2.4715  -0.8045   0.0736   0.9089
     2.0106   2.2334   2.9425   4.5311

          k = 0.0000 0.4553 0.0000 ( 16362 PWs)   bands (ev):

   -69.0932 -68.4122 -35.9405 -35.7806 -35.4790 -35.2729 -34.8890 -34.8286
   -20.7975 -20.7917 -20.7814 -20.7724 -20.7595 -20.7356 -20.7248 -20.1024
   -20.0965 -20.0892 -20.0725 -20.0451 -20.0311 -20.0191 -12.4396  -7.9955
    -6.1118  -5.1443  -4.9471  -3.9624  -2.0858  -0.4624   0.5054   1.6736
     1.8660   2.7947   3.4593   4.3636

          k = 0.0000-0.5464 0.0000 ( 16338 PWs)   bands (ev):

   -69.0906 -68.4097 -35.9786 -35.7790 -35.4889 -35.3024 -34.8979 -34.8269
   -20.7978 -20.7920 -20.7819 -20.7716 -20.7586 -20.7374 -20.7225 -20.1048
   -20.0957 -20.0880 -20.0714 -20.0462 -20.0313 -20.0178 -12.3813  -7.9524
    -6.2680  -4.9719  -4.9119  -4.0641  -1.8925  -0.2936   0.6833   1.8370
     2.0206   2.8608   4.0041   4.3156

          k = 0.0789 0.1366 0.0000 ( 16349 PWs)   bands (ev):

   -69.1214 -68.4395 -35.8711 -35.4653 -35.3706 -34.8772 -34.8576 -34.7925
   -20.8072 -20.7829 -20.7796 -20.7718 -20.7682 -20.7486 -20.7119 -20.1204
   -20.0888 -20.0855 -20.0746 -20.0333 -20.0317 -20.0290 -13.5090  -8.5851
    -6.2962  -5.0606  -4.6959  -3.5273  -2.0235  -1.6145  -0.6016   0.2625
     0.4980   2.3232   2.5340   3.5010

          k = 0.0789 0.2276 0.0000 ( 16299 PWs)   bands (ev):

   -69.1132 -68.4315 -35.8447 -35.5976 -35.4102 -34.9950 -34.8474 -34.8266
   -20.8026 -20.7856 -20.7793 -20.7736 -20.7662 -20.7420 -20.7195 -20.1127
   -20.0893 -20.0851 -20.0799 -20.0356 -20.0301 -20.0293 -13.1346  -8.1428
    -6.5570  -5.2215  -4.6935  -3.2524  -2.5468  -1.4394  -0.5327   0.2878
     0.8548   2.2961   2.9658   4.0733

          k = 0.0789 0.3187 0.0000 ( 16348 PWs)   bands (ev):

   -69.1037 -68.4223 -35.8259 -35.7364 -35.4554 -35.1249 -34.8675 -34.8358
   -20.7982 -20.7888 -20.7800 -20.7744 -20.7634 -20.7341 -20.7278 -20.1040
   -20.0928 -20.0897 -20.0775 -20.0399 -20.0311 -20.0246 -12.7499  -7.9487
    -6.2537  -5.4751  -4.8867  -3.2671  -2.5928  -1.1428  -0.4800   0.7809
     1.6362   2.3116   3.2167   4.6538

          k = 0.0789 0.4098 0.0000 ( 16363 PWs)   bands (ev):

   -69.0954 -68.4143 -35.8895 -35.7781 -35.4937 -35.2296 -34.9009 -34.8290
   -20.7963 -20.7909 -20.7812 -20.7734 -20.7609 -20.7346 -20.7268 -20.1006
   -20.0970 -20.0894 -20.0743 -20.0436 -20.0319 -20.0205 -12.4788  -7.8973
    -6.0345  -5.4244  -5.0669  -3.5444  -2.2126  -0.8217   0.0232   1.1272
     2.1071   3.0208   3.2435   4.5485

          k = 0.0789 0.5008 0.0000 ( 16357 PWs)   bands (ev):

   -69.0906 -68.4097 -35.9561 -35.7747 -35.5153 -35.2855 -34.9200 -34.8256
   -20.7966 -20.7913 -20.7822 -20.7720 -20.7595 -20.7382 -20.7225 -20.1049
   -20.0947 -20.0878 -20.0723 -20.0456 -20.0323 -20.0180 -12.3566  -7.8244
    -6.2550  -5.2261  -4.9678  -3.7328  -1.8801  -0.4895   0.4923   1.1033
     2.5710   3.1024   3.8276   4.4294

          k = 0.1577 0.2732 0.0000 ( 16304 PWs)   bands (ev):

   -69.1049 -68.4236 -35.8241 -35.7037 -35.4693 -35.0922 -34.8791 -34.8360
   -20.7980 -20.7883 -20.7801 -20.7747 -20.7639 -20.7352 -20.7271 -20.1050
   -20.0917 -20.0889 -20.0787 -20.0387 -20.0318 -20.0253 -12.7887  -7.8304
    -6.4760  -5.5072  -4.8291  -2.9117  -2.5824  -1.5323  -0.7907   0.7928
     1.5337   2.2448   3.6557   4.7265

          k = 0.1577 0.3642 0.0000 ( 16360 PWs)   bands (ev):

   -69.0967 -68.4156 -35.8415 -35.7665 -35.5325 -35.1812 -34.9331 -34.8282
   -20.7941 -20.7904 -20.7815 -20.7746 -20.7620 -20.7345 -20.7280 -20.0999
   -20.0970 -20.0883 -20.0764 -20.0418 -20.0334 -20.0213 -12.4878  -7.6460
    -6.2724  -5.5219  -5.1629  -2.8395  -2.2691  -1.5746  -0.4566   0.9883
     2.1058   2.6963   4.1650   4.8065

          k = 0.1577 0.4553 0.0000 ( 16370 PWs)   bands (ev):

   -69.0906 -68.4097 -35.9013 -35.7652 -35.5785 -35.2431 -34.9728 -34.8232
   -20.7938 -20.7899 -20.7831 -20.7730 -20.7613 -20.7398 -20.7227 -20.1051
   -20.0927 -20.0871 -20.0745 -20.0440 -20.0346 -20.0184 -12.3065  -7.5014
    -6.3162  -5.5271  -5.1159  -3.0513  -1.8641  -1.1610  -0.0006   0.9678
     2.2301   3.3098   4.2719   4.6240

          k = 0.1577 0.5464 0.0000 ( 16374 PWs)   bands (ev):

   -69.0884 -68.4075 -35.9260 -35.7624 -35.5950 -35.2652 -34.9872 -34.8216
   -20.7941 -20.7893 -20.7838 -20.7718 -20.7613 -20.7416 -20.7207 -20.1071
   -20.0916 -20.0861 -20.0738 -20.0449 -20.0350 -20.0174 -12.2498  -7.4260
    -6.3883  -5.6107  -4.9561  -3.1476  -1.6894  -0.8576   0.1477   1.0234
     2.2216   3.2817   4.2402   4.4830

          k = 0.2366 0.4098 0.0000 ( 16374 PWs)   bands (ev):

   -69.0906 -68.4097 -35.8651 -35.7584 -35.6210 -35.2136 -35.0076 -34.8221
   -20.7919 -20.7893 -20.7836 -20.7738 -20.7621 -20.7406 -20.7227 -20.1052
   -20.0917 -20.0864 -20.0760 -20.0429 -20.0361 -20.0187 -12.2811  -7.2595
    -6.4695  -5.5725  -5.2230  -2.3543  -1.9845  -1.7904  -0.1781   0.9219
     2.0908   3.2794   4.3655   4.8247

          k = 0.2366 0.5008 0.0000 ( 16396 PWs)   bands (ev):

   -69.0871 -68.4063 -35.8667 -35.7508 -35.6851 -35.2247 -35.0595 -34.8189
   -20.7915 -20.7870 -20.7855 -20.7718 -20.7637 -20.7441 -20.7196 -20.1084
   -20.0885 -20.0850 -20.0759 -20.0433 -20.0380 -20.0172 -12.1721  -6.9719
    -6.5407  -5.8779  -5.0294  -2.4195  -1.6149  -1.4164  -0.0832   1.0546
     1.7390   2.9780   4.3099   4.6673

          k = 0.3154 0.5464 0.0000 ( 16386 PWs)   bands (ev):

   -69.0859 -68.4051 -35.7929 -35.7865 -35.7431 -35.1971 -35.1137 -34.8173
   -20.7894 -20.7880 -20.7853 -20.7702 -20.7661 -20.7457 -20.7185 -20.1096
   -20.0863 -20.0844 -20.0769 -20.0416 -20.0406 -20.0168 -12.1209  -6.6779
    -6.5291  -6.1769  -5.0048  -2.0956  -1.4985  -1.4692  -0.1442   1.0985
     1.3815   2.6681   4.2649   4.8984

     the Fermi energy is    -0.5384 ev

!    total energy              =   -1375.62686291 Ry
     estimated scf accuracy    <          2.0E-13 Ry
     smearing contrib. (-TS)   =      -0.00002098 Ry
     internal energy E=F+TS    =   -1375.62684193 Ry

     The total energy is F=E-TS. E is the sum of the following terms:
     one-electron contribution =  -11040.96289168 Ry
     hartree contribution      =    5548.06826930 Ry
     xc contribution           =    -140.20602401 Ry
     ewald contribution        =    4257.47380446 Ry

     convergence has been achieved in  20 iterations

     negative rho (up, down):  7.073E-05 0.000E+00

     Forces acting on atoms (cartesian axes, Ry/au):

     atom    1 type  2   force =     0.00000000    0.00000000   -0.00029847
     atom    2 type  1   force =     0.00000000   -0.00000000    0.00084001
     atom    3 type  1   force =     0.00000000    0.00000000    0.00003943
     atom    4 type  3   force =     0.00000000    0.00000000   -0.00007242
     atom    5 type  3   force =     0.00000000    0.00000000   -0.00050855

     Total force =     0.001030     Total SCF correction =     0.000001


     Computing stress (Cartesian axis) and pressure


     negative rho (up, down):  7.073E-05 0.000E+00
          total   stress  (Ry/bohr**3)                   (kbar)     P=       -0.03
   0.00000192  -0.00000000   0.00000000            0.28       -0.00        0.00
  -0.00000000   0.00000192   0.00000000           -0.00        0.28        0.00
  -0.00000000  -0.00000000  -0.00000452           -0.00       -0.00       -0.67


     BFGS Geometry Optimization
     Energy error            =      0.0E+00 Ry
     Gradient error          =      8.4E-04 Ry/Bohr

     bfgs converged in   1 scf cycles and   0 bfgs steps
     (criteria: energy <  1.0E-04 Ry, force <  1.0E-03 Ry/Bohr)

     End of BFGS Geometry Optimization

     Final energy             =   -1375.6268629117 Ry
Begin final coordinates

ATOMIC_POSITIONS (alat)
C             0.0000000000        0.0000000000        0.0000000000
Ta            0.5283631000        0.3050506000       -0.4210085000
Ta           -0.0000000000        0.6101011000        0.3928174000
H            -0.0000000000        0.6101011000        1.0011320000
H            -0.0000000000        0.6101011000       -0.7569043000
End final coordinates



     Writing output data file /scratch/as3359/Ta2CH2-VCrelax/Ta.save/
 
     init_run     :     15.10s CPU      9.74s WALL (       1 calls)
     electrons    :    240.73s CPU    131.86s WALL (       1 calls)
     forces       :      9.34s CPU      4.94s WALL (       1 calls)
     stress       :     25.68s CPU     13.66s WALL (       1 calls)

     Called by init_run:
     wfcinit      :      2.75s CPU      1.42s WALL (       1 calls)
     potinit      :      3.63s CPU      1.84s WALL (       1 calls)
     hinit0       :      6.61s CPU      5.06s WALL (       1 calls)

     Called by electrons:
     c_bands      :    125.45s CPU     63.69s WALL (      20 calls)
     sum_band     :     67.34s CPU     38.87s WALL (      20 calls)
     v_of_rho     :      7.05s CPU      3.70s WALL (      21 calls)
     newd         :     40.92s CPU     25.80s WALL (      21 calls)
     mix_rho      :      1.40s CPU      0.73s WALL (      20 calls)

     Called by c_bands:
     init_us_2    :      3.25s CPU      1.63s WALL (     817 calls)
     cegterg      :    114.58s CPU     58.20s WALL (     380 calls)

     Called by *egterg:
     cdiaghg      :      4.10s CPU      2.09s WALL (    1947 calls)
     h_psi        :     89.95s CPU     45.82s WALL (    1966 calls)
     s_psi        :      4.03s CPU      2.03s WALL (    1966 calls)
     g_psi        :      0.58s CPU      0.29s WALL (    1567 calls)

     Called by h_psi:
     h_psi:calbec :      3.86s CPU      1.94s WALL (    1966 calls)
     vloc_psi     :     80.64s CPU     41.14s WALL (    1966 calls)
     add_vuspsi   :      4.74s CPU      2.38s WALL (    1966 calls)

     General routines
     calbec       :      5.30s CPU      2.67s WALL (    2441 calls)
     fft          :      4.59s CPU      2.36s WALL (     296 calls)
     ffts         :      0.14s CPU      0.08s WALL (      41 calls)
     fftw         :     82.89s CPU     42.32s WALL (   81938 calls)
     interpolate  :      0.46s CPU      0.24s WALL (      21 calls)
 
     Parallel routines
 
     PWSCF        :   4m51.86s CPU   2m41.21s WALL

 
   This run was terminated on:  22:25:38  21Apr2022            

=------------------------------------------------------------------------------=
   JOB DONE.
=------------------------------------------------------------------------------=
