
     Program PWSCF v.6.8 starts on 21Apr2022 at 21: 3: 7 

     This program is part of the open-source Quantum ESPRESSO suite
     for quantum simulation of materials; please cite
         "P. Giannozzi et al., J. Phys.:Condens. Matter 21 395502 (2009);
         "P. Giannozzi et al., J. Phys.:Condens. Matter 29 465901 (2017);
         "P. Giannozzi et al., J. Chem. Phys. 152 154105 (2020);
          URL http://www.quantum-espresso.org", 
     in publications or presentations arising from this work. More details at
     http://www.quantum-espresso.org/quote

     Parallel version (MPI & OpenMP), running on       4 processor cores
     Number of MPI processes:                 2
     Threads/MPI process:                     2

     MPI processes distributed on     1 nodes
     R & G space division:  proc/nbgrp/npool/nimage =       2
     125252 MiB available memory on the printing compute node when the environment starts
 
     Reading input from Ta2CH2.vcrelax.in

     Current dimensions of program PWSCF are:
     Max number of different atomic species (ntypx) = 10
     Max number of k-points (npk) =  40000
     Max angular momentum in pseudopotentials (lmaxx) =  4
     file Ta.pbesol-spfn-rrkjus_psl.1.0.0.UPF: wavefunction(s)  5S 5P renormalized
     Message from routine setup:
     using ibrav=0 with symmetry is DISCOURAGED, use correct ibrav instead

     Subspace diagonalization in iterative solution of the eigenvalue problem:
     a serial algorithm will be used

 
     Parallelization info
     --------------------
     sticks:   dense  smooth     PW     G-vecs:    dense   smooth      PW
     Min         807     324     98               250741    63556   10218
     Max         808     325    101               250768    63579   10229
     Sum        1615     649    199               501509   127135   20447
 
     Using Slab Decomposition
 


     bravais-lattice index     =            0
     lattice parameter (alat)  =       5.5500  a.u.
     unit-cell volume          =    1603.2166 (a.u.)^3
     number of atoms/cell      =            5
     number of atomic types    =            3
     number of electrons       =        60.00
     number of Kohn-Sham states=           36
     kinetic-energy cutoff     =      70.0000  Ry
     charge density cutoff     =     700.0000  Ry
     scf convergence threshold =      1.0E-12
     mixing beta               =       0.7000
     number of iterations used =            8  plain     mixing
     energy convergence thresh.=      1.0E-04
     force convergence thresh. =      1.0E-03
     press convergence thresh. =      5.0E-01
     Exchange-correlation= PBESOL
                           (   1   4  10   8   0   0   0)
     nstep                     =           50


     celldm(1)=   5.550000  celldm(2)=   0.000000  celldm(3)=   0.000000
     celldm(4)=   0.000000  celldm(5)=   0.000000  celldm(6)=   0.000000

     crystal axes: (cart. coord. in units of alat)
               a(1) = (   1.040618   0.000000   0.000000 )  
               a(2) = (  -0.520309   0.901202   0.000000 )  
               a(3) = (   0.000000   0.000000  10.000000 )  

     reciprocal axes: (cart. coord. in units 2 pi/alat)
               b(1) = (  0.960967  0.554815  0.000000 )  
               b(2) = (  0.000000  1.109630  0.000000 )  
               b(3) = (  0.000000  0.000000  0.100000 )  


     PseudoPot. # 1 for Ta read from file:
     /shared/home/as3359/pseudo/Ta.pbesol-spfn-rrkjus_psl.1.0.0.UPF
     MD5 check sum: f099565ffaca9b150a52e9412a28e20b
     Pseudo is Ultrasoft + core correction, Zval = 27.0
     Generated using &quot;atomic&quot; code by A. Dal Corso  v.6.3
     Using radial grid of 1273 points,  8 beta functions with: 
                l(1) =   0
                l(2) =   0
                l(3) =   1
                l(4) =   1
                l(5) =   2
                l(6) =   2
                l(7) =   3
                l(8) =   3
     Q(r) pseudized with 0 coefficients 


     PseudoPot. # 2 for C  read from file:
     /shared/home/as3359/pseudo/C.pbesol-n-rrkjus_psl.1.0.0.UPF
     MD5 check sum: 05995be603a8a7c99da3dc4413f31573
     Pseudo is Ultrasoft + core correction, Zval =  4.0
     Generated using &quot;atomic&quot; code by A. Dal Corso  v.6.3MaX
     Using radial grid of 1073 points,  4 beta functions with: 
                l(1) =   0
                l(2) =   0
                l(3) =   1
                l(4) =   1
     Q(r) pseudized with 0 coefficients 


     PseudoPot. # 3 for H  read from file:
     /shared/home/as3359/pseudo/H.pbesol-rrkjus_psl.0.1.UPF
     MD5 check sum: 1dbb1a5c48b1283557b8117eb856a7ca
     Pseudo is Ultrasoft, Zval =  1.0
     Generated using "atomic" code by A. Dal Corso  v.5.0.2 svn rev. 9415
     Using radial grid of  929 points,  2 beta functions with: 
                l(1) =   0
                l(2) =   0
     Q(r) pseudized with 0 coefficients 


     atomic species   valence    mass     pseudopotential
        Ta            27.00   180.94788     Ta( 1.00)
        C              4.00    12.01070     C ( 1.00)
        H              1.00     1.00000     H ( 1.00)

      6 Sym. Ops. (no inversion) found



   Cartesian axes

     site n.     atom                  positions (alat units)
         1           C   tau(   1) = (   0.0000000   0.0000000   0.0000000  )
         2           Ta  tau(   2) = (   0.5203090   0.3004005  -0.4156024  )
         3           Ta  tau(   3) = (  -0.0000000   0.6008011   0.4260806  )
         4           H   tau(   4) = (  -0.0000000   0.6008011   1.0359681  )
         5           H   tau(   5) = (  -0.0000000   0.6008011  -1.0359681  )

     number of k points=    19  Marzari-Vanderbilt smearing, width (Ry)=  0.0010
                       cart. coord. in units 2pi/alat
        k(    1) = (   0.0000000   0.0000000   0.0000000), wk =   0.0138889
        k(    2) = (   0.0000000   0.0924691   0.0000000), wk =   0.0833333
        k(    3) = (   0.0000000   0.1849383   0.0000000), wk =   0.0833333
        k(    4) = (   0.0000000   0.2774074   0.0000000), wk =   0.0833333
        k(    5) = (   0.0000000   0.3698766   0.0000000), wk =   0.0833333
        k(    6) = (   0.0000000   0.4623457   0.0000000), wk =   0.0833333
        k(    7) = (   0.0000000  -0.5548148   0.0000000), wk =   0.0416667
        k(    8) = (   0.0800806   0.1387037   0.0000000), wk =   0.0833333
        k(    9) = (   0.0800806   0.2311728   0.0000000), wk =   0.1666667
        k(   10) = (   0.0800806   0.3236420   0.0000000), wk =   0.1666667
        k(   11) = (   0.0800806   0.4161111   0.0000000), wk =   0.1666667
        k(   12) = (   0.0800806   0.5085803   0.0000000), wk =   0.1666667
        k(   13) = (   0.1601612   0.2774074   0.0000000), wk =   0.0833333
        k(   14) = (   0.1601612   0.3698766   0.0000000), wk =   0.1666667
        k(   15) = (   0.1601612   0.4623457   0.0000000), wk =   0.1666667
        k(   16) = (   0.1601612   0.5548148   0.0000000), wk =   0.0833333
        k(   17) = (   0.2402419   0.4161111   0.0000000), wk =   0.0833333
        k(   18) = (   0.2402419   0.5085803   0.0000000), wk =   0.1666667
        k(   19) = (   0.3203225   0.5548148   0.0000000), wk =   0.0277778

     Dense  grid:   501509 G-vectors     FFT dimensions: (  50,  50, 480)

     Smooth grid:   127135 G-vectors     FFT dimensions: (  32,  32, 300)

     Estimated max dynamical RAM per process >       2.45 GB

     Estimated total dynamical RAM >       4.91 GB

     Initial potential from superposition of free atoms

     starting charge   59.99840, renormalised to   60.00000

     negative rho (up, down):  4.225E-05 0.000E+00
     Starting wfcs are   40 randomized atomic wfcs

     total cpu time spent up to now is       18.1 secs

     Self-consistent Calculation

     iteration #  1     ecut=    70.00 Ry     beta= 0.70
     Davidson diagonalization with overlap
     ethr =  1.00E-02,  avg # of iterations =  2.2

     negative rho (up, down):  1.560E-05 0.000E+00

     total cpu time spent up to now is       24.4 secs

     total energy              =   -1374.76367326 Ry
     estimated scf accuracy    <       1.25891880 Ry

     iteration #  2     ecut=    70.00 Ry     beta= 0.70
     Davidson diagonalization with overlap
     ethr =  2.10E-03,  avg # of iterations =  9.5

     negative rho (up, down):  9.568E-05 0.000E+00

     total cpu time spent up to now is       32.8 secs

     total energy              =   -1369.66603438 Ry
     estimated scf accuracy    <     108.14127493 Ry

     iteration #  3     ecut=    70.00 Ry     beta= 0.70
     Davidson diagonalization with overlap
     ethr =  2.10E-03,  avg # of iterations =  8.8

     negative rho (up, down):  5.638E-05 0.000E+00

     total cpu time spent up to now is       41.4 secs

     total energy              =   -1375.06382762 Ry
     estimated scf accuracy    <       7.54829895 Ry

     iteration #  4     ecut=    70.00 Ry     beta= 0.70
     Davidson diagonalization with overlap
     ethr =  2.10E-03,  avg # of iterations =  3.0

     negative rho (up, down):  3.037E-05 0.000E+00

     total cpu time spent up to now is       47.8 secs

     total energy              =   -1375.49477778 Ry
     estimated scf accuracy    <       0.84946390 Ry

     iteration #  5     ecut=    70.00 Ry     beta= 0.70
     Davidson diagonalization with overlap
     ethr =  1.42E-03,  avg # of iterations =  2.1

     negative rho (up, down):  4.403E-05 0.000E+00

     total cpu time spent up to now is       53.7 secs

     total energy              =   -1375.55360948 Ry
     estimated scf accuracy    <       0.13473541 Ry

     iteration #  6     ecut=    70.00 Ry     beta= 0.70
     Davidson diagonalization with overlap
     ethr =  2.25E-04,  avg # of iterations =  6.9

     negative rho (up, down):  4.336E-05 0.000E+00

     total cpu time spent up to now is       60.1 secs

     total energy              =   -1375.55072427 Ry
     estimated scf accuracy    <       0.04437181 Ry

     iteration #  7     ecut=    70.00 Ry     beta= 0.70
     Davidson diagonalization with overlap
     ethr =  7.40E-05,  avg # of iterations =  4.4

     negative rho (up, down):  5.399E-05 0.000E+00

     total cpu time spent up to now is       66.3 secs

     total energy              =   -1375.55003395 Ry
     estimated scf accuracy    <       0.01132739 Ry

     iteration #  8     ecut=    70.00 Ry     beta= 0.70
     Davidson diagonalization with overlap
     ethr =  1.89E-05,  avg # of iterations =  3.6

     negative rho (up, down):  5.471E-05 0.000E+00

     total cpu time spent up to now is       72.5 secs

     total energy              =   -1375.55071754 Ry
     estimated scf accuracy    <       0.00356269 Ry

     iteration #  9     ecut=    70.00 Ry     beta= 0.70
     Davidson diagonalization with overlap
     ethr =  5.94E-06,  avg # of iterations =  3.8

     negative rho (up, down):  5.903E-05 0.000E+00

     total cpu time spent up to now is       78.7 secs

     total energy              =   -1375.55077502 Ry
     estimated scf accuracy    <       0.00046693 Ry

     iteration # 10     ecut=    70.00 Ry     beta= 0.70
     Davidson diagonalization with overlap
     ethr =  7.78E-07,  avg # of iterations =  4.5

     negative rho (up, down):  8.101E-05 0.000E+00

     total cpu time spent up to now is       85.0 secs

     total energy              =   -1375.55082223 Ry
     estimated scf accuracy    <       0.00015381 Ry

     iteration # 11     ecut=    70.00 Ry     beta= 0.70
     Davidson diagonalization with overlap
     ethr =  2.56E-07,  avg # of iterations =  2.1

     negative rho (up, down):  6.836E-05 0.000E+00

     total cpu time spent up to now is       91.0 secs

     total energy              =   -1375.55083345 Ry
     estimated scf accuracy    <       0.00002433 Ry

     iteration # 12     ecut=    70.00 Ry     beta= 0.70
     Davidson diagonalization with overlap
     ethr =  4.05E-08,  avg # of iterations =  2.1

     negative rho (up, down):  6.975E-05 0.000E+00

     total cpu time spent up to now is       96.9 secs

     total energy              =   -1375.55083551 Ry
     estimated scf accuracy    <       0.00000151 Ry

     iteration # 13     ecut=    70.00 Ry     beta= 0.70
     Davidson diagonalization with overlap
     ethr =  2.52E-09,  avg # of iterations =  4.4

     negative rho (up, down):  6.972E-05 0.000E+00

     total cpu time spent up to now is      103.7 secs

     total energy              =   -1375.55083594 Ry
     estimated scf accuracy    <       0.00000327 Ry

     iteration # 14     ecut=    70.00 Ry     beta= 0.70
     Davidson diagonalization with overlap
     ethr =  2.52E-09,  avg # of iterations =  1.1

     negative rho (up, down):  7.020E-05 0.000E+00

     total cpu time spent up to now is      109.4 secs

     total energy              =   -1375.55083605 Ry
     estimated scf accuracy    <       0.00000054 Ry

     iteration # 15     ecut=    70.00 Ry     beta= 0.70
     Davidson diagonalization with overlap
     ethr =  9.01E-10,  avg # of iterations =  1.0

     negative rho (up, down):  7.054E-05 0.000E+00

     total cpu time spent up to now is      115.1 secs

     total energy              =   -1375.55083607 Ry
     estimated scf accuracy    <       0.00000003 Ry

     iteration # 16     ecut=    70.00 Ry     beta= 0.70
     Davidson diagonalization with overlap
     ethr =  4.73E-11,  avg # of iterations =  2.6

     negative rho (up, down):  7.054E-05 0.000E+00

     total cpu time spent up to now is      121.2 secs

     total energy              =   -1375.55083607 Ry
     estimated scf accuracy    <          2.1E-09 Ry

     iteration # 17     ecut=    70.00 Ry     beta= 0.70
     Davidson diagonalization with overlap
     ethr =  3.43E-12,  avg # of iterations =  3.7

     negative rho (up, down):  7.055E-05 0.000E+00

     total cpu time spent up to now is      127.8 secs

     total energy              =   -1375.55083607 Ry
     estimated scf accuracy    <          1.0E-10 Ry

     iteration # 18     ecut=    70.00 Ry     beta= 0.70
     Davidson diagonalization with overlap
     ethr =  1.67E-13,  avg # of iterations =  3.8

     negative rho (up, down):  7.055E-05 0.000E+00

     total cpu time spent up to now is      134.5 secs

     total energy              =   -1375.55083607 Ry
     estimated scf accuracy    <          7.5E-12 Ry

     iteration # 19     ecut=    70.00 Ry     beta= 0.70
     Davidson diagonalization with overlap
     ethr =  1.00E-13,  avg # of iterations =  1.4

     negative rho (up, down):  7.055E-05 0.000E+00

     total cpu time spent up to now is      140.3 secs

     End of self-consistent calculation

          k = 0.0000 0.0000 0.0000 ( 15945 PWs)   bands (ev):

   -69.4443 -68.7307 -36.1573 -35.6002 -35.6002 -35.1648 -34.9843 -34.9843
   -21.1144 -21.0954 -21.0954 -21.0846 -21.0820 -21.0820 -21.0268 -20.4099
   -20.3725 -20.3725 -20.3469 -20.3154 -20.3084 -20.3084 -14.0956  -8.6938
    -5.5496  -5.0590  -5.0590  -4.1305  -2.6133  -1.1080  -1.1080   0.8751
     0.8751   1.8978   1.8978   2.3267

          k = 0.0000 0.0925 0.0000 ( 15937 PWs)   bands (ev):

   -69.4412 -68.7277 -36.1480 -35.6498 -35.6114 -35.1589 -35.0304 -34.9948
   -21.1129 -21.0957 -21.0943 -21.0837 -21.0822 -21.0821 -21.0296 -20.4074
   -20.3728 -20.3714 -20.3497 -20.3141 -20.3100 -20.3088 -13.9784  -8.4772
    -5.8034  -5.0578  -5.0191  -3.9824  -2.5291  -1.4755  -0.9268   0.3341
     0.7326   1.8560   2.1360   2.6616

          k = 0.0000 0.1849 0.0000 ( 15883 PWs)   bands (ev):

   -69.4330 -68.7195 -36.1237 -35.7810 -35.6420 -35.1585 -35.1406 -35.0232
   -21.1093 -21.0960 -21.0915 -21.0873 -21.0829 -21.0760 -21.0369 -20.4004
   -20.3736 -20.3684 -20.3572 -20.3140 -20.3106 -20.3096 -13.6676  -7.9019
    -6.3501  -4.9932  -4.9455  -3.6879  -2.5738  -1.9481  -0.4302  -0.3340
     0.7324   1.7151   2.4659   3.1142

          k = 0.0000 0.2774 0.0000 ( 15835 PWs)   bands (ev):

   -69.4216 -68.7083 -36.0977 -35.9484 -35.6834 -35.3178 -35.1278 -35.0618
   -21.1068 -21.0962 -21.0903 -21.0888 -21.0830 -21.0672 -21.0463 -20.3911
   -20.3745 -20.3690 -20.3626 -20.3193 -20.3105 -20.3057 -13.2699  -7.4463
    -6.5788  -4.9255  -4.8944  -3.4844  -3.1083  -1.5458  -0.6764   0.2521
     1.2699   1.5658   2.6303   3.3931

          k = 0.0000 0.3699 0.0000 ( 15813 PWs)   bands (ev):

   -69.4103 -68.6971 -36.1493 -36.0367 -35.7245 -35.4710 -35.1134 -35.1002
   -21.1069 -21.0992 -21.0896 -21.0877 -21.0804 -21.0579 -21.0545 -20.3826
   -20.3786 -20.3746 -20.3588 -20.3244 -20.3113 -20.3006 -12.9131  -7.7260
    -6.0967  -4.9828  -4.6767  -3.9452  -2.7618  -0.9733  -0.4843   1.0581
     1.4139   2.2483   2.7203   3.2076

          k = 0.0000 0.4623 0.0000 ( 15860 PWs)   bands (ev):

   -69.4020 -68.6889 -36.2595 -36.0318 -35.7544 -35.5741 -35.1281 -35.1035
   -21.1081 -21.1020 -21.0918 -21.0840 -21.0775 -21.0597 -21.0509 -20.3859
   -20.3798 -20.3713 -20.3556 -20.3279 -20.3118 -20.2967 -12.6852  -7.9967
    -5.9254  -5.0602  -4.4278  -4.0602  -2.2941  -0.5711   0.0875   1.3020
     1.7998   2.7281   2.8743   3.4686

          k = 0.0000-0.5548 0.0000 ( 15870 PWs)   bands (ev):

   -69.3990 -68.6858 -36.3018 -36.0298 -35.7653 -35.6090 -35.1383 -35.1000
   -21.1087 -21.1029 -21.0928 -21.0825 -21.0764 -21.0614 -21.0483 -20.3885
   -20.3797 -20.3693 -20.3544 -20.3291 -20.3120 -20.2952 -12.6100  -8.0903
    -5.9281  -5.0939  -4.4944  -3.8453  -2.0803  -0.4331   0.3451   1.2996
     2.0409   2.8290   2.9438   4.0186

          k = 0.0801 0.1387 0.0000 ( 15907 PWs)   bands (ev):

   -69.4356 -68.7221 -36.1312 -35.7374 -35.6352 -35.1501 -35.1119 -35.0167
   -21.1103 -21.0962 -21.0922 -21.0862 -21.0828 -21.0780 -21.0347 -20.4026
   -20.3732 -20.3694 -20.3548 -20.3126 -20.3117 -20.3095 -13.7642  -8.0727
    -6.1890  -5.1690  -4.8315  -3.7655  -2.3842  -2.0329  -0.6248   0.0278
     0.4138   2.0305   2.2304   3.0401

          k = 0.0801 0.2312 0.0000 ( 15867 PWs)   bands (ev):

   -69.4258 -68.7124 -36.1049 -35.8805 -35.6783 -35.2506 -35.1333 -35.0565
   -21.1067 -21.0966 -21.0901 -21.0892 -21.0831 -21.0705 -21.0432 -20.3944
   -20.3738 -20.3673 -20.3626 -20.3170 -20.3107 -20.3075 -13.4091  -7.4254
    -6.6482  -5.3077  -4.6180  -3.4397  -2.8095  -1.9982  -0.6660   0.0579
     0.7565   1.9279   2.5384   3.4961

          k = 0.0801 0.3236 0.0000 ( 15853 PWs)   bands (ev):

   -69.4145 -68.7012 -36.1015 -36.0161 -35.7279 -35.4011 -35.1191 -35.1012
   -21.1053 -21.0978 -21.0908 -21.0888 -21.0813 -21.0614 -21.0522 -20.3853
   -20.3751 -20.3741 -20.3611 -20.3219 -20.3118 -20.3025 -13.0315  -7.4221
    -6.3375  -5.4106  -4.5085  -3.4782  -2.9321  -1.4527  -0.8491   0.5517
     1.4804   2.1245   2.6838   3.6105

          k = 0.0801 0.4161 0.0000 ( 15858 PWs)   bands (ev):

   -69.4046 -68.6915 -36.2025 -36.0308 -35.7700 -35.5236 -35.1419 -35.1053
   -21.1062 -21.1004 -21.0910 -21.0867 -21.0786 -21.0592 -21.0532 -20.3837
   -20.3794 -20.3725 -20.3576 -20.3261 -20.3127 -20.2981 -12.7414  -7.7568
    -5.9149  -5.4095  -4.3782  -3.7836  -2.4469  -0.9380  -0.4280   0.7227
     2.0506   2.5892   3.0554   3.5149

          k = 0.0801 0.5086 0.0000 ( 15845 PWs)   bands (ev):

   -69.3990 -68.6858 -36.2772 -36.0255 -35.7937 -35.5892 -35.1639 -35.0989
   -21.1073 -21.1019 -21.0928 -21.0834 -21.0772 -21.0627 -21.0483 -20.3886
   -20.3785 -20.3691 -20.3555 -20.3284 -20.3131 -20.2955 -12.5930  -7.9416
    -5.8677  -5.4229  -4.2072  -3.8035  -2.0656  -0.5957   0.1633   0.6201
     2.2718   2.7754   3.2645   4.1663

          k = 0.1602 0.2774 0.0000 ( 15858 PWs)   bands (ev):

   -69.4160 -68.7027 -36.0914 -35.9888 -35.7423 -35.3638 -35.1242 -35.1101
   -21.1034 -21.0979 -21.0925 -21.0887 -21.0813 -21.0627 -21.0516 -20.3864
   -20.3738 -20.3733 -20.3624 -20.3205 -20.3127 -20.3033 -13.0731  -7.0515
    -6.6602  -5.6570  -4.3908  -3.0446  -2.9689  -1.9400  -1.0496   0.3498
     1.5211   2.0629   2.7754   3.9450

          k = 0.1602 0.3699 0.0000 ( 15848 PWs)   bands (ev):

   -69.4062 -68.6930 -36.1450 -36.0238 -35.8114 -35.4675 -35.1788 -35.1055
   -21.1029 -21.0986 -21.0914 -21.0902 -21.0789 -21.0599 -21.0544 -20.3826
   -20.3788 -20.3721 -20.3600 -20.3240 -20.3146 -20.2990 -12.7637  -7.3295
    -6.0743  -5.8364  -4.3196  -3.0795  -2.5181  -1.7267  -0.9662   0.4018
     2.0948   2.6441   3.0387   4.2411

          k = 0.1602 0.4623 0.0000 ( 15846 PWs)   bands (ev):

   -69.3990 -68.6858 -36.2171 -36.0164 -35.8618 -35.5392 -35.2254 -35.0970
   -21.1042 -21.0991 -21.0927 -21.0868 -21.0783 -21.0653 -21.0484 -20.3887
   -20.3759 -20.3688 -20.3580 -20.3266 -20.3158 -20.2959 -12.5586  -7.5573
    -5.9865  -5.7051  -4.1245  -3.2448  -2.0516  -1.2511  -0.4276   0.2498
     1.9498   3.1506   3.4450   4.5960

          k = 0.1602 0.5548 0.0000 ( 15864 PWs)   bands (ev):

   -69.3963 -68.6832 -36.2446 -36.0131 -35.8799 -35.5646 -35.2425 -35.0939
   -21.1046 -21.0993 -21.0938 -21.0842 -21.0789 -21.0672 -21.0462 -20.3910
   -20.3754 -20.3670 -20.3573 -20.3276 -20.3163 -20.2948 -12.4886  -7.6414
    -5.9849  -5.6864  -3.9587  -3.3409  -1.8500  -0.9314  -0.1607   0.2490
     1.7862   3.0625   3.5666   4.4309

          k = 0.2402 0.4161 0.0000 ( 15846 PWs)   bands (ev):

   -69.3990 -68.6858 -36.1771 -36.0098 -35.9079 -35.5042 -35.2660 -35.0961
   -21.1025 -21.0961 -21.0923 -21.0907 -21.0785 -21.0668 -21.0485 -20.3888
   -20.3744 -20.3684 -20.3597 -20.3253 -20.3176 -20.2962 -12.5412  -7.2496
    -6.3377  -5.6250  -4.1637  -2.4699  -2.1172  -2.0213  -0.6874   0.1212
     1.8964   3.1441   3.5837   4.6295

          k = 0.2402 0.5086 0.0000 ( 15834 PWs)   bands (ev):

   -69.3948 -68.6817 -36.1804 -36.0028 -35.9762 -35.5142 -35.3288 -35.0907
   -21.1019 -21.0960 -21.0935 -21.0873 -21.0804 -21.0707 -21.0450 -20.3924
   -20.3722 -20.3656 -20.3598 -20.3258 -20.3198 -20.2946 -12.4175  -7.2484
    -6.4705  -5.4844  -4.0080  -2.5245  -1.7441  -1.5430  -0.4522   0.0613
     1.4980   2.7197   3.6239   4.4276

          k = 0.3203 0.5548 0.0000 ( 15774 PWs)   bands (ev):

   -69.3933 -68.6802 -36.1121 -36.0768 -35.9928 -35.4732 -35.4002 -35.0884
   -21.0997 -21.0978 -21.0899 -21.0882 -21.0827 -21.0728 -21.0437 -20.3937
   -20.3701 -20.3644 -20.3611 -20.3237 -20.3230 -20.2942 -12.3641  -6.9923
    -6.7778  -5.3656  -4.0062  -2.0984  -1.6316  -1.5989  -0.5171   0.0094
     1.2260   2.4137   3.2828   4.7570

     the Fermi energy is    -0.9246 ev

!    total energy              =   -1375.55083607 Ry
     estimated scf accuracy    <          7.4E-13 Ry
     smearing contrib. (-TS)   =      -0.00000205 Ry
     internal energy E=F+TS    =   -1375.55083403 Ry

     The total energy is F=E-TS. E is the sum of the following terms:
     one-electron contribution =  -11180.13576482 Ry
     hartree contribution      =    5617.07337193 Ry
     xc contribution           =    -140.04871185 Ry
     ewald contribution        =    4327.56027071 Ry

     convergence has been achieved in  19 iterations

     negative rho (up, down):  7.055E-05 0.000E+00

     Forces acting on atoms (cartesian axes, Ry/au):

     atom    1 type  2   force =     0.00000000    0.00000000    0.01340353
     atom    2 type  1   force =     0.00000000   -0.00000000   -0.07773336
     atom    3 type  1   force =     0.00000000    0.00000000   -0.01219200
     atom    4 type  3   force =     0.00000000    0.00000000   -0.00468159
     atom    5 type  3   force =     0.00000000    0.00000000    0.08120343

     Total force =     0.113168     Total SCF correction =     0.000008


     Computing stress (Cartesian axis) and pressure


     negative rho (up, down):  7.055E-05 0.000E+00
          total   stress  (Ry/bohr**3)                   (kbar)     P=      -10.47
   0.00000239  -0.00000000   0.00000000            0.35       -0.00        0.00
  -0.00000000   0.00000239   0.00000000           -0.00        0.35        0.00
   0.00000000   0.00000000  -0.00021839            0.00        0.00      -32.13


     BFGS Geometry Optimization
     Energy error            =      0.0E+00 Ry
     Gradient error          =      8.1E-02 Ry/Bohr
     Cell gradient error     =      3.5E-01 kbar

     number of scf cycles    =   1
     number of bfgs steps    =   0

     enthalpy           new  =   -1375.5508360733 Ry

     new trust radius        =       0.0812034251 bohr
     new conv_thr            =            1.0E-12 Ry

     new unit-cell volume =   1603.40848 a.u.^3 (   237.60062 Ang^3 )
     density =      2.62713 g/cm^3

CELL_PARAMETERS (alat=  5.55000000)
   1.040680213  -0.000000000   0.000000000
  -0.520340106   0.901255501   0.000000000
   0.000000000   0.000000000  10.000000000

ATOMIC_POSITIONS (crystal)
C             0.0000000000        0.0000000000        0.0000000000    0   0   0
Ta            0.6666666670        0.3333333330       -0.0429608406
Ta            0.3333333330        0.6666666670        0.0423883883
H             0.3333333330        0.6666666670        0.1035124537
H             0.3333333330        0.6666666670       -0.1021336819



     Writing output data file /scratch/as3359/Ta2CH2-VCrelax/Ta.save/
     NEW-OLD atomic charge density approx. for the potential

     negative rho (up, down):  6.588E-05 0.000E+00
     extrapolated charge   60.00718, renormalised to   60.00000

     total cpu time spent up to now is      187.6 secs

     Self-consistent Calculation

     iteration #  1     ecut=    70.00 Ry     beta= 0.70
     Davidson diagonalization with overlap
     ethr =  1.00E-06,  avg # of iterations = 10.9

     negative rho (up, down):  6.761E-05 0.000E+00

     total cpu time spent up to now is      199.1 secs

     total energy              =   -1375.56099434 Ry
     estimated scf accuracy    <       0.00209340 Ry

     iteration #  2     ecut=    70.00 Ry     beta= 0.70
     Davidson diagonalization with overlap
     ethr =  3.49E-06,  avg # of iterations =  8.5

     negative rho (up, down):  8.420E-05 0.000E+00

     total cpu time spent up to now is      207.1 secs

     total energy              =   -1375.55397404 Ry
     estimated scf accuracy    <       0.15534422 Ry

     iteration #  3     ecut=    70.00 Ry     beta= 0.70
     Davidson diagonalization with overlap
     c_bands:  1 eigenvalues not converged
     ethr =  3.49E-06,  avg # of iterations =  9.9

     negative rho (up, down):  8.828E-05 0.000E+00

     total cpu time spent up to now is      214.8 secs

     total energy              =   -1375.55989028 Ry
     estimated scf accuracy    <       0.07229804 Ry

     iteration #  4     ecut=    70.00 Ry     beta= 0.70
     Davidson diagonalization with overlap
     ethr =  3.49E-06,  avg # of iterations =  4.4

     negative rho (up, down):  7.514E-05 0.000E+00

     total cpu time spent up to now is      221.4 secs

     total energy              =   -1375.56251046 Ry
     estimated scf accuracy    <       0.00039112 Ry

     iteration #  5     ecut=    70.00 Ry     beta= 0.70
     Davidson diagonalization with overlap
     ethr =  6.52E-07,  avg # of iterations =  2.8

     negative rho (up, down):  7.069E-05 0.000E+00

     total cpu time spent up to now is      227.6 secs

     total energy              =   -1375.56255251 Ry
     estimated scf accuracy    <       0.00010499 Ry

     iteration #  6     ecut=    70.00 Ry     beta= 0.70
     Davidson diagonalization with overlap
     ethr =  1.75E-07,  avg # of iterations =  2.2

     negative rho (up, down):  7.026E-05 0.000E+00

     total cpu time spent up to now is      233.6 secs

     total energy              =   -1375.56255982 Ry
     estimated scf accuracy    <       0.00002618 Ry

     iteration #  7     ecut=    70.00 Ry     beta= 0.70
     Davidson diagonalization with overlap
     ethr =  4.36E-08,  avg # of iterations =  2.0

     negative rho (up, down):  7.024E-05 0.000E+00

     total cpu time spent up to now is      239.6 secs

     total energy              =   -1375.56256054 Ry
     estimated scf accuracy    <       0.00001410 Ry

     iteration #  8     ecut=    70.00 Ry     beta= 0.70
     Davidson diagonalization with overlap
     ethr =  2.35E-08,  avg # of iterations =  2.0

     negative rho (up, down):  7.024E-05 0.000E+00

     total cpu time spent up to now is      245.6 secs

     total energy              =   -1375.56256103 Ry
     estimated scf accuracy    <       0.00000308 Ry

     iteration #  9     ecut=    70.00 Ry     beta= 0.70
     Davidson diagonalization with overlap
     ethr =  5.13E-09,  avg # of iterations =  1.9

     negative rho (up, down):  7.023E-05 0.000E+00

     total cpu time spent up to now is      251.5 secs

     total energy              =   -1375.56256114 Ry
     estimated scf accuracy    <       0.00000023 Ry

     iteration # 10     ecut=    70.00 Ry     beta= 0.70
     Davidson diagonalization with overlap
     ethr =  3.91E-10,  avg # of iterations =  3.2

     negative rho (up, down):  7.023E-05 0.000E+00

     total cpu time spent up to now is      257.9 secs

     total energy              =   -1375.56256116 Ry
     estimated scf accuracy    <       0.00000005 Ry

     iteration # 11     ecut=    70.00 Ry     beta= 0.70
     Davidson diagonalization with overlap
     ethr =  8.73E-11,  avg # of iterations =  2.0

     negative rho (up, down):  7.023E-05 0.000E+00

     total cpu time spent up to now is      264.0 secs

     total energy              =   -1375.56256117 Ry
     estimated scf accuracy    <          1.7E-09 Ry

     iteration # 12     ecut=    70.00 Ry     beta= 0.70
     Davidson diagonalization with overlap
     ethr =  2.82E-12,  avg # of iterations =  4.2

     negative rho (up, down):  7.023E-05 0.000E+00

     total cpu time spent up to now is      270.9 secs

     total energy              =   -1375.56256117 Ry
     estimated scf accuracy    <          1.3E-09 Ry

     iteration # 13     ecut=    70.00 Ry     beta= 0.70
     Davidson diagonalization with overlap
     ethr =  2.13E-12,  avg # of iterations =  1.9

     negative rho (up, down):  7.023E-05 0.000E+00

     total cpu time spent up to now is      276.8 secs

     total energy              =   -1375.56256117 Ry
     estimated scf accuracy    <          2.3E-11 Ry

     iteration # 14     ecut=    70.00 Ry     beta= 0.70
     Davidson diagonalization with overlap
     ethr =  1.00E-13,  avg # of iterations =  2.9

     negative rho (up, down):  7.023E-05 0.000E+00

     total cpu time spent up to now is      283.1 secs

     total energy              =   -1375.56256117 Ry
     estimated scf accuracy    <          6.3E-12 Ry

     iteration # 15     ecut=    70.00 Ry     beta= 0.70
     Davidson diagonalization with overlap
     ethr =  1.00E-13,  avg # of iterations =  1.0

     negative rho (up, down):  7.023E-05 0.000E+00

     total cpu time spent up to now is      288.8 secs

     End of self-consistent calculation

          k = 0.0000 0.0000 0.0000 ( 15945 PWs)   bands (ev):

   -69.4538 -68.7086 -36.1419 -35.5961 -35.5961 -35.1455 -34.9626 -34.9626
   -21.1282 -21.1108 -21.1108 -21.1000 -21.0977 -21.0977 -21.0437 -20.3892
   -20.3503 -20.3503 -20.3260 -20.2924 -20.2856 -20.2856 -14.0277  -8.6699
    -5.6184  -4.8828  -4.8828  -4.0784  -2.6819  -1.0550  -1.0550   0.9091
     0.9091   1.8496   1.8496   2.2958

          k = 0.0000 0.0925 0.0000 ( 15937 PWs)   bands (ev):

   -69.4508 -68.7056 -36.1329 -35.6447 -35.6071 -35.1396 -35.0089 -34.9732
   -21.1268 -21.1111 -21.1098 -21.0994 -21.0980 -21.0977 -21.0464 -20.3866
   -20.3506 -20.3492 -20.3288 -20.2911 -20.2871 -20.2859 -13.9109  -8.4544
    -5.7963  -4.9748  -4.8453  -3.9240  -2.5876  -1.4270  -0.8692   0.3708
     0.7533   1.8109   2.0925   2.7861

          k = 0.0000 0.1849 0.0000 ( 15883 PWs)   bands (ev):

   -69.4427 -68.6974 -36.1090 -35.7737 -35.6370 -35.1405 -35.1178 -35.0018
   -21.1234 -21.1115 -21.1071 -21.1029 -21.0986 -21.0916 -21.0537 -20.3797
   -20.3514 -20.3463 -20.3363 -20.2912 -20.2876 -20.2867 -13.5998  -7.8810
    -6.2681  -5.0186  -4.7792  -3.6339  -2.5649  -1.9327  -0.3579  -0.2853
     0.7355   1.6636   2.4166   3.2794

          k = 0.0000 0.2774 0.0000 ( 15835 PWs)   bands (ev):

   -69.4315 -68.6862 -36.0822 -35.9396 -35.6776 -35.2993 -35.1053 -35.0408
   -21.1212 -21.1117 -21.1058 -21.1046 -21.0987 -21.0830 -21.0629 -20.3703
   -20.3525 -20.3480 -20.3406 -20.2965 -20.2876 -20.2825 -13.1988  -7.3964
    -6.5015  -4.9985  -4.7711  -3.4409  -3.0515  -1.5245  -0.6191   0.3372
     1.2610   1.4934   2.5750   3.5658

          k = 0.0000 0.3699 0.0000 ( 15813 PWs)   bands (ev):

   -69.4203 -68.6749 -36.1318 -36.0271 -35.7178 -35.4551 -35.0889 -35.0794
   -21.1218 -21.1146 -21.1055 -21.1031 -21.0962 -21.0739 -21.0710 -20.3615
   -20.3577 -20.3530 -20.3367 -20.3015 -20.2884 -20.2773 -12.8343  -7.6441
    -6.0530  -4.8402  -4.8386  -3.8830  -2.7204  -0.9358  -0.4148   1.1265
     1.3126   2.2390   2.6825   3.3852

          k = 0.0000 0.4623 0.0000 ( 15860 PWs)   bands (ev):

   -69.4121 -68.6667 -36.2420 -36.0191 -35.7471 -35.5614 -35.1075 -35.0773
   -21.1233 -21.1172 -21.1076 -21.0995 -21.0934 -21.0761 -21.0670 -20.3650
   -20.3578 -20.3506 -20.3335 -20.3050 -20.2890 -20.2734 -12.5971  -7.9161
    -5.9209  -4.9253  -4.4693  -4.1256  -2.2581  -0.5307   0.1375   1.1784
     1.7926   2.7616   3.1082   3.4693

          k =-0.0000-0.5548 0.0000 ( 15870 PWs)   bands (ev):

   -69.4091 -68.6637 -36.2840 -36.0159 -35.7578 -35.5978 -35.1177 -35.0732
   -21.1240 -21.1181 -21.1087 -21.0980 -21.0924 -21.0777 -21.0645 -20.3676
   -20.3575 -20.3487 -20.3323 -20.3063 -20.2892 -20.2719 -12.5177  -8.0123
    -5.9387  -4.9616  -4.4504  -4.0016  -2.0437  -0.3976   0.3677   1.1722
     1.9773   3.0366   3.1181   4.0240

          k = 0.0801 0.1387 0.0000 ( 15907 PWs)   bands (ev):

   -69.4452 -68.7000 -36.1164 -35.7308 -35.6302 -35.1310 -35.0901 -34.9953
   -21.1243 -21.1117 -21.1078 -21.1018 -21.0985 -21.0936 -21.0514 -20.3819
   -20.3510 -20.3473 -20.3340 -20.2898 -20.2887 -20.2867 -13.6967  -8.0521
    -6.1215  -5.1011  -4.7327  -3.7068  -2.4199  -1.9841  -0.5552   0.0766
     0.4116   1.9779   2.2045   3.1894

          k = 0.0801 0.2312 0.0000 ( 15867 PWs)   bands (ev):

   -69.4356 -68.6903 -36.0901 -35.8722 -35.6724 -35.2317 -35.1113 -35.0352
   -21.1210 -21.1122 -21.1057 -21.1049 -21.0988 -21.0862 -21.0598 -20.3737
   -20.3517 -20.3457 -20.3412 -20.2941 -20.2878 -20.2844 -13.3398  -7.4058
    -6.5465  -5.2561  -4.6001  -3.3832  -2.7538  -1.9849  -0.6225   0.1285
     0.7554   1.8761   2.5235   3.6157

          k = 0.0801 0.3236 0.0000 ( 15853 PWs)   bands (ev):

   -69.4244 -68.6791 -36.0837 -36.0085 -35.7208 -35.3841 -35.0955 -35.0803
   -21.1201 -21.1132 -21.1062 -21.1046 -21.0970 -21.0773 -21.0687 -20.3644
   -20.3542 -20.3523 -20.3390 -20.2991 -20.2890 -20.2793 -12.9565  -7.3471
    -6.2792  -5.3607  -4.5805  -3.4002  -2.8827  -1.4033  -0.8104   0.5764
     1.4861   2.1064   2.6777   3.7037

          k = 0.0801 0.4161 0.0000 ( 15858 PWs)   bands (ev):

   -69.4147 -68.6693 -36.1853 -36.0197 -35.7621 -35.5093 -35.1212 -35.0800
   -21.1214 -21.1157 -21.1068 -21.1021 -21.0944 -21.0756 -21.0693 -20.3628
   -20.3578 -20.3514 -20.3355 -20.3033 -20.2898 -20.2748 -12.6572  -7.6750
    -5.8895  -5.3117  -4.5126  -3.7252  -2.4051  -0.8911  -0.3687   0.6654
     2.0828   2.6072   3.0682   3.6072

          k = 0.0801 0.5085 0.0000 ( 15845 PWs)   bands (ev):

   -69.4091 -68.6637 -36.2596 -36.0124 -35.7855 -35.5772 -35.1436 -35.0723
   -21.1227 -21.1170 -21.1086 -21.0989 -21.0932 -21.0790 -21.0645 -20.3677
   -20.3564 -20.3486 -20.3333 -20.3056 -20.2903 -20.2721 -12.5014  -7.8638
    -5.8718  -5.3116  -4.2485  -3.8609  -2.0260  -0.5554   0.1925   0.5508
     2.3939   2.7011   3.4090   4.2098

          k = 0.1602 0.2774 0.0000 ( 15858 PWs)   bands (ev):

   -69.4259 -68.6806 -36.0746 -35.9811 -35.7346 -35.3466 -35.1011 -35.0889
   -21.1180 -21.1134 -21.1079 -21.1045 -21.0970 -21.0785 -21.0682 -20.3656
   -20.3529 -20.3514 -20.3403 -20.2977 -20.2898 -20.2801 -12.9995  -6.9945
    -6.5816  -5.5976  -4.4766  -2.9626  -2.9050  -1.8869  -1.0378   0.3815
     1.5418   2.0412   2.8316   3.9428

          k = 0.1602 0.3699 0.0000 ( 15848 PWs)   bands (ev):

   -69.4162 -68.6708 -36.1279 -36.0147 -35.8021 -35.4522 -35.1582 -35.0808
   -21.1183 -21.1136 -21.1069 -21.1058 -21.0948 -21.0763 -21.0705 -20.3617
   -20.3576 -20.3505 -20.3379 -20.3012 -20.2917 -20.2758 -12.6823  -7.2473
    -6.0021  -5.7883  -4.4647  -3.0045  -2.4647  -1.6659  -0.9280   0.3805
     2.0899   2.6692   3.1555   4.1819

          k = 0.1602 0.4623 0.0000 ( 15846 PWs)   bands (ev):

   -69.4091 -68.6637 -36.2003 -36.0050 -35.8520 -35.5254 -35.2055 -35.0708
   -21.1198 -21.1141 -21.1085 -21.1022 -21.0942 -21.0816 -21.0646 -20.3679
   -20.3539 -20.3481 -20.3359 -20.3038 -20.2930 -20.2726 -12.4687  -7.4795
    -5.9137  -5.6678  -4.2813  -3.1946  -2.0055  -1.2078  -0.3862   0.2466
     1.9600   3.1806   3.5545   4.5773

          k = 0.1602 0.5548 0.0000 ( 15864 PWs)   bands (ev):

   -69.4065 -68.6610 -36.2277 -36.0009 -35.8700 -35.5514 -35.2229 -35.0671
   -21.1203 -21.1144 -21.1096 -21.0996 -21.0949 -21.0834 -21.0625 -20.3701
   -20.3533 -20.3464 -20.3351 -20.3047 -20.2935 -20.2715 -12.3949  -7.5667
    -5.9088  -5.6644  -4.1107  -3.2994  -1.8052  -0.8998  -0.2060   0.3323
     1.8411   3.1341   3.5985   4.4445

          k = 0.2402 0.4161 0.0000 ( 15846 PWs)   bands (ev):

   -69.4091 -68.6637 -36.1606 -35.9998 -35.8968 -35.4894 -35.2464 -35.0701
   -21.1182 -21.1112 -21.1078 -21.1062 -21.0944 -21.0831 -21.0647 -20.3679
   -20.3526 -20.3476 -20.3375 -20.3025 -20.2948 -20.2728 -12.4522  -7.1698
    -6.2637  -5.5821  -4.3390  -2.4293  -2.0538  -1.9657  -0.6330   0.1202
     1.8712   3.2014   3.7192   4.5866

          k = 0.2402 0.5085 0.0000 ( 15834 PWs)   bands (ev):

   -69.4050 -68.6595 -36.1643 -35.9916 -35.9649 -35.4987 -35.3107 -35.0639
   -21.1176 -21.1116 -21.1087 -21.1026 -21.0964 -21.0870 -21.0613 -20.3716
   -20.3501 -20.3450 -20.3376 -20.3029 -20.2969 -20.2713 -12.3228  -7.1719
    -6.4014  -5.4494  -4.1935  -2.4811  -1.6964  -1.4982  -0.4643   0.1684
     1.4930   2.8172   3.6877   4.4043

          k = 0.3203 0.5548 0.0000 ( 15774 PWs)   bands (ev):

   -69.4035 -68.6580 -36.0958 -36.0644 -35.9830 -35.4542 -35.3852 -35.0614
   -21.1154 -21.1136 -21.1050 -21.1033 -21.0988 -21.0891 -21.0601 -20.3729
   -20.3480 -20.3439 -20.3389 -20.3008 -20.3001 -20.2708 -12.2676  -6.8899
    -6.7413  -5.3216  -4.2057  -2.0789  -1.5827  -1.5370  -0.5385   0.1467
     1.2494   2.4697   3.3505   4.7591

     the Fermi energy is    -0.8755 ev

!    total energy              =   -1375.56256117 Ry
     estimated scf accuracy    <          8.5E-13 Ry
     smearing contrib. (-TS)   =       0.00002539 Ry
     internal energy E=F+TS    =   -1375.56258656 Ry

     The total energy is F=E-TS. E is the sum of the following terms:
     one-electron contribution =  -11143.63406867 Ry
     hartree contribution      =    5598.84235377 Ry
     xc contribution           =    -140.02695902 Ry
     ewald contribution        =    4309.25608736 Ry

     convergence has been achieved in  15 iterations

     negative rho (up, down):  7.023E-05 0.000E+00

     Forces acting on atoms (cartesian axes, Ry/au):

     atom    1 type  2   force =    -0.00000000   -0.00000000    0.00133769
     atom    2 type  1   force =     0.00000000    0.00000000   -0.05238668
     atom    3 type  1   force =    -0.00000000   -0.00000000   -0.01902299
     atom    4 type  3   force =    -0.00000000   -0.00000000   -0.00723028
     atom    5 type  3   force =     0.00000000    0.00000000    0.07730227

     Total force =     0.095573     Total SCF correction =     0.000010


     Computing stress (Cartesian axis) and pressure


     negative rho (up, down):  7.023E-05 0.000E+00
          total   stress  (Ry/bohr**3)                   (kbar)     P=      -14.57
  -0.00002183   0.00000000   0.00000000           -3.21        0.00        0.00
   0.00000000  -0.00002183   0.00000000            0.00       -3.21        0.00
   0.00000000   0.00000000  -0.00025342            0.00        0.00      -37.28

     Energy error            =      1.2E-02 Ry
     Gradient error          =      7.7E-02 Ry/Bohr
     Cell gradient error     =      3.2E+00 kbar

     number of scf cycles    =   2
     number of bfgs steps    =   1

     enthalpy           old  =   -1375.5508360733 Ry
     enthalpy           new  =   -1375.5625611707 Ry

     CASE: enthalpy          _new < enthalpy          _old


     WARNING: bfgs curvature condition failed, Theta= 0.966
     new trust radius        =       0.0893237676 bohr
     new conv_thr            =            7.7E-13 Ry

     new unit-cell volume =   1601.76742 a.u.^3 (   237.35744 Ang^3 )
     density =      2.62982 g/cm^3

CELL_PARAMETERS (alat=  5.55000000)
   1.040147518   0.000000000   0.000000000
  -0.520073759   0.900794174   0.000000000
   0.000000000   0.000000000  10.000000000

ATOMIC_POSITIONS (crystal)
C             0.0000000000        0.0000000000        0.0000000000    0   0   0
Ta            0.6666666670        0.3333333330       -0.0441283331
Ta            0.3333333330        0.6666666670        0.0420186840
H             0.3333333330        0.6666666670        0.1033717749
H             0.3333333330        0.6666666670       -0.1005242447



     Writing output data file /scratch/as3359/Ta2CH2-VCrelax/Ta.save/
     NEW-OLD atomic charge density approx. for the potential

     negative rho (up, down):  6.442E-05 0.000E+00
     extrapolated charge   59.93853, renormalised to   60.00000

     total cpu time spent up to now is      336.5 secs

     Self-consistent Calculation

     iteration #  1     ecut=    70.00 Ry     beta= 0.70
     Davidson diagonalization with overlap
     c_bands:  1 eigenvalues not converged
     ethr =  1.00E-06,  avg # of iterations = 15.5

     negative rho (up, down):  6.340E-05 0.000E+00

     total cpu time spent up to now is      349.4 secs

     total energy              =   -1375.52644286 Ry
     estimated scf accuracy    <       0.04398588 Ry

     iteration #  2     ecut=    70.00 Ry     beta= 0.70
     Davidson diagonalization with overlap
     c_bands:  1 eigenvalues not converged
     ethr =  7.33E-05,  avg # of iterations =  9.9

     negative rho (up, down):  1.558E-04 0.000E+00

     total cpu time spent up to now is      357.7 secs

     total energy              =   -1375.45316280 Ry
     estimated scf accuracy    <       1.84077141 Ry

     iteration #  3     ecut=    70.00 Ry     beta= 0.70
     Davidson diagonalization with overlap
     ethr =  7.33E-05,  avg # of iterations =  8.6
     Minimization algorithm failed to find Fermi energy: reverting to bisection
     Possible cause: smearing is larger than the electronic band-gap.

     negative rho (up, down):  1.518E-04 0.000E+00

     total cpu time spent up to now is      365.5 secs

     total energy              =   -1375.46397289 Ry
     estimated scf accuracy    <       3.43336821 Ry

     iteration #  4     ecut=    70.00 Ry     beta= 0.70
     Davidson diagonalization with overlap
     ethr =  7.33E-05,  avg # of iterations =  8.4

     negative rho (up, down):  1.161E-04 0.000E+00

     total cpu time spent up to now is      372.9 secs

     total energy              =   -1375.57376349 Ry
     estimated scf accuracy    <       0.02231031 Ry

     iteration #  5     ecut=    70.00 Ry     beta= 0.70
     Davidson diagonalization with overlap
     ethr =  3.72E-05,  avg # of iterations =  2.1

     negative rho (up, down):  9.125E-05 0.000E+00

     total cpu time spent up to now is      378.9 secs

     total energy              =   -1375.57306580 Ry
     estimated scf accuracy    <       0.01199338 Ry

     iteration #  6     ecut=    70.00 Ry     beta= 0.70
     Davidson diagonalization with overlap
     ethr =  2.00E-05,  avg # of iterations =  2.6
     Minimization algorithm failed to find Fermi energy: reverting to bisection
     Possible cause: smearing is larger than the electronic band-gap.

     negative rho (up, down):  7.808E-05 0.000E+00

     total cpu time spent up to now is      384.9 secs

     total energy              =   -1375.57192725 Ry
     estimated scf accuracy    <       0.00548826 Ry

     iteration #  7     ecut=    70.00 Ry     beta= 0.70
     Davidson diagonalization with overlap
     ethr =  9.15E-06,  avg # of iterations =  4.4

     negative rho (up, down):  7.094E-05 0.000E+00

     total cpu time spent up to now is      391.2 secs

     total energy              =   -1375.57244046 Ry
     estimated scf accuracy    <       0.00033213 Ry

     iteration #  8     ecut=    70.00 Ry     beta= 0.70
     Davidson diagonalization with overlap
     ethr =  5.54E-07,  avg # of iterations =  5.9

     negative rho (up, down):  6.931E-05 0.000E+00

     total cpu time spent up to now is      397.8 secs

     total energy              =   -1375.57248467 Ry
     estimated scf accuracy    <       0.00006774 Ry

     iteration #  9     ecut=    70.00 Ry     beta= 0.70
     Davidson diagonalization with overlap
     ethr =  1.13E-07,  avg # of iterations =  1.8

     negative rho (up, down):  6.834E-05 0.000E+00

     total cpu time spent up to now is      403.8 secs

     total energy              =   -1375.57248472 Ry
     estimated scf accuracy    <       0.00004179 Ry

     iteration # 10     ecut=    70.00 Ry     beta= 0.70
     Davidson diagonalization with overlap
     ethr =  6.96E-08,  avg # of iterations =  1.8

     negative rho (up, down):  6.828E-05 0.000E+00

     total cpu time spent up to now is      409.7 secs

     total energy              =   -1375.57248034 Ry
     estimated scf accuracy    <       0.00002159 Ry

     iteration # 11     ecut=    70.00 Ry     beta= 0.70
     Davidson diagonalization with overlap
     ethr =  3.60E-08,  avg # of iterations =  2.0

     negative rho (up, down):  6.814E-05 0.000E+00

     total cpu time spent up to now is      415.7 secs

     total energy              =   -1375.57248273 Ry
     estimated scf accuracy    <       0.00000102 Ry

     iteration # 12     ecut=    70.00 Ry     beta= 0.70
     Davidson diagonalization with overlap
     ethr =  1.70E-09,  avg # of iterations =  4.9

     negative rho (up, down):  6.810E-05 0.000E+00

     total cpu time spent up to now is      422.4 secs

     total energy              =   -1375.57248298 Ry
     estimated scf accuracy    <       0.00000009 Ry

     iteration # 13     ecut=    70.00 Ry     beta= 0.70
     Davidson diagonalization with overlap
     ethr =  1.56E-10,  avg # of iterations =  3.2

     negative rho (up, down):  6.809E-05 0.000E+00

     total cpu time spent up to now is      428.7 secs

     total energy              =   -1375.57248300 Ry
     estimated scf accuracy    <       0.00000013 Ry

     iteration # 14     ecut=    70.00 Ry     beta= 0.70
     Davidson diagonalization with overlap
     ethr =  1.56E-10,  avg # of iterations =  1.3

     negative rho (up, down):  6.810E-05 0.000E+00

     total cpu time spent up to now is      434.5 secs

     total energy              =   -1375.57248300 Ry
     estimated scf accuracy    <       0.00000003 Ry

     iteration # 15     ecut=    70.00 Ry     beta= 0.70
     Davidson diagonalization with overlap
     ethr =  5.14E-11,  avg # of iterations =  2.3

     negative rho (up, down):  6.809E-05 0.000E+00

     total cpu time spent up to now is      440.8 secs

     total energy              =   -1375.57248300 Ry
     estimated scf accuracy    <       0.00000001 Ry

     iteration # 16     ecut=    70.00 Ry     beta= 0.70
     Davidson diagonalization with overlap
     ethr =  2.15E-11,  avg # of iterations =  2.1

     negative rho (up, down):  6.809E-05 0.000E+00

     total cpu time spent up to now is      446.7 secs

     total energy              =   -1375.57248300 Ry
     estimated scf accuracy    <          9.1E-10 Ry

     iteration # 17     ecut=    70.00 Ry     beta= 0.70
     Davidson diagonalization with overlap
     ethr =  1.52E-12,  avg # of iterations =  4.5

     negative rho (up, down):  6.809E-05 0.000E+00

     total cpu time spent up to now is      453.4 secs

     total energy              =   -1375.57248300 Ry
     estimated scf accuracy    <          1.5E-09 Ry

     iteration # 18     ecut=    70.00 Ry     beta= 0.70
     Davidson diagonalization with overlap
     ethr =  1.52E-12,  avg # of iterations =  2.8

     negative rho (up, down):  6.809E-05 0.000E+00

     total cpu time spent up to now is      459.6 secs

     total energy              =   -1375.57248300 Ry
     estimated scf accuracy    <          2.8E-11 Ry

     iteration # 19     ecut=    70.00 Ry     beta= 0.70
     Davidson diagonalization with overlap
     ethr =  1.00E-13,  avg # of iterations =  4.8

     negative rho (up, down):  6.809E-05 0.000E+00

     total cpu time spent up to now is      466.1 secs

     total energy              =   -1375.57248300 Ry
     estimated scf accuracy    <          3.8E-12 Ry

     iteration # 20     ecut=    70.00 Ry     beta= 0.70
     Davidson diagonalization with overlap
     ethr =  1.00E-13,  avg # of iterations =  1.0

     negative rho (up, down):  6.809E-05 0.000E+00

     total cpu time spent up to now is      471.9 secs

     total energy              =   -1375.57248300 Ry
     estimated scf accuracy    <          1.5E-12 Ry

     iteration # 21     ecut=    70.00 Ry     beta= 0.70
     Davidson diagonalization with overlap
     ethr =  1.00E-13,  avg # of iterations =  1.0

     negative rho (up, down):  6.809E-05 0.000E+00

     total cpu time spent up to now is      477.6 secs

     End of self-consistent calculation

          k = 0.0000 0.0000 0.0000 ( 15945 PWs)   bands (ev):

   -69.4060 -68.6621 -36.0911 -35.5340 -35.5340 -35.1048 -34.9161 -34.9161
   -21.0857 -21.0671 -21.0671 -21.0558 -21.0558 -21.0524 -20.9962 -20.3418
   -20.3032 -20.3032 -20.2779 -20.2461 -20.2388 -20.2388 -13.9490  -8.6504
    -5.6568  -4.7308  -4.7308  -4.0390  -2.6936  -0.9859  -0.9859   0.9706
     0.9706   1.8544   1.8544   2.2948

          k =-0.0000 0.0925 0.0000 ( 15937 PWs)   bands (ev):

   -69.4030 -68.6590 -36.0821 -35.5824 -35.5449 -35.0987 -34.9629 -34.9268
   -21.0843 -21.0675 -21.0661 -21.0572 -21.0560 -21.0502 -20.9990 -20.3393
   -20.3035 -20.3020 -20.2807 -20.2448 -20.2403 -20.2391 -13.8317  -8.4357
    -5.7957  -4.8783  -4.6943  -3.8767  -2.5927  -1.3600  -0.7957   0.4339
     0.8032   1.8187   2.1009   2.8738

          k =-0.0000 0.1850 0.0000 ( 15883 PWs)   bands (ev):

   -69.3948 -68.6507 -36.0581 -35.7109 -35.5746 -35.0986 -35.0736 -34.9558
   -21.0810 -21.0684 -21.0638 -21.0606 -21.0563 -21.0439 -21.0063 -20.3323
   -20.3043 -20.2991 -20.2883 -20.2444 -20.2412 -20.2399 -13.5190  -7.8647
    -6.1992  -5.0175  -4.6319  -3.5891  -2.5256  -1.8835  -0.2698  -0.2152
     0.7687   1.6675   2.4194   3.4425

          k =-0.0000 0.2775 0.0000 ( 15835 PWs)   bands (ev):

   -69.3837 -68.6394 -36.0297 -35.8776 -35.6149 -35.2574 -35.0622 -34.9951
   -21.0786 -21.0699 -21.0628 -21.0623 -21.0553 -21.0352 -21.0155 -20.3228
   -20.3054 -20.3001 -20.2933 -20.2498 -20.2408 -20.2361 -13.1143  -7.3619
    -6.4137  -5.0762  -4.6303  -3.3940  -2.9829  -1.4793  -0.5416   0.4379
     1.2826   1.4836   2.5726   3.7633

          k =-0.0000 0.3700 0.0000 ( 15813 PWs)   bands (ev):

   -69.3725 -68.6280 -36.0661 -35.9775 -35.6549 -35.4154 -35.0447 -35.0342
   -21.0790 -21.0728 -21.0635 -21.0605 -21.0523 -21.0261 -21.0238 -20.3141
   -20.3099 -20.3057 -20.2894 -20.2548 -20.2416 -20.2307 -12.7439  -7.5692
    -5.9898  -4.9731  -4.7064  -3.8086  -2.6784  -0.8953  -0.3214   1.2090
     1.2825   2.2693   2.6928   3.5980

          k =-0.0000 0.4626 0.0000 ( 15860 PWs)   bands (ev):

   -69.3643 -68.6197 -36.1753 -35.9697 -35.6840 -35.5238 -35.0626 -35.0323
   -21.0807 -21.0749 -21.0655 -21.0573 -21.0495 -21.0292 -21.0193 -20.3172
   -20.3106 -20.3031 -20.2862 -20.2583 -20.2422 -20.2267 -12.5008  -7.8323
    -5.9001  -4.7961  -4.5469  -4.1089  -2.2186  -0.4944   0.2080   1.1318
     1.8088   2.8427   3.3853   3.5048

          k = 0.0000-0.5551 0.0000 ( 15870 PWs)   bands (ev):

   -69.3613 -68.6167 -36.2171 -35.9662 -35.6946 -35.5611 -35.0729 -35.0278
   -21.0816 -21.0756 -21.0664 -21.0559 -21.0485 -21.0310 -21.0167 -20.3198
   -20.3104 -20.3011 -20.2850 -20.2596 -20.2424 -20.2251 -12.4188  -7.9272
    -5.9330  -4.8341  -4.4130  -4.1040  -2.0013  -0.3667   0.4139   1.1225
     1.9576   3.1565   3.4498   4.0674

          k = 0.0801 0.1388 0.0000 ( 15907 PWs)   bands (ev):

   -69.3974 -68.6534 -36.0656 -35.6681 -35.5679 -35.0901 -35.0447 -34.9491
   -21.0819 -21.0682 -21.0644 -21.0596 -21.0563 -21.0459 -21.0040 -20.3345
   -20.3039 -20.3001 -20.2859 -20.2430 -20.2423 -20.2399 -13.6165  -8.0354
    -6.0699  -5.0433  -4.6176  -3.6576  -2.4098  -1.9142  -0.4707   0.1513
     0.4379   1.9829   2.2210   3.3338

          k = 0.0801 0.2313 0.0000 ( 15867 PWs)   bands (ev):

   -69.3878 -68.6436 -36.0388 -35.8095 -35.6097 -35.1890 -35.0685 -34.9896
   -21.0786 -21.0696 -21.0630 -21.0623 -21.0558 -21.0384 -21.0124 -20.3263
   -20.3045 -20.2982 -20.2935 -20.2474 -20.2410 -20.2380 -13.2569  -7.3935
    -6.4497  -5.2247  -4.5490  -3.3333  -2.6786  -1.9381  -0.5606   0.2188
     0.7851   1.8783   2.5476   3.7633

          k = 0.0801 0.3238 0.0000 ( 15853 PWs)   bands (ev):

   -69.3766 -68.6322 -36.0247 -35.9527 -35.6578 -35.3434 -35.0516 -35.0352
   -21.0773 -21.0715 -21.0633 -21.0625 -21.0534 -21.0295 -21.0214 -20.3170
   -20.3063 -20.3050 -20.2917 -20.2524 -20.2422 -20.2328 -12.8686  -7.2850
    -6.2047  -5.3417  -4.5997  -3.3140  -2.8325  -1.3413  -0.7461   0.6221
     1.5388   2.1240   2.7060   3.8557

          k = 0.0801 0.4163 0.0000 ( 15858 PWs)   bands (ev):

   -69.3669 -68.6223 -36.1188 -35.9706 -35.6988 -35.4706 -35.0765 -35.0353
   -21.0789 -21.0735 -21.0648 -21.0596 -21.0507 -21.0285 -21.0215 -20.3150
   -20.3104 -20.3040 -20.2881 -20.2566 -20.2430 -20.2281 -12.5630  -7.5931
    -5.8482  -5.2282  -4.6111  -3.6506  -2.3619  -0.8473  -0.2840   0.6575
     2.1463   2.6510   3.1076   3.7828

          k = 0.0801 0.5088 0.0000 ( 15845 PWs)   bands (ev):

   -69.3613 -68.6166 -36.1929 -35.9629 -35.7221 -35.5399 -35.0991 -35.0270
   -21.0804 -21.0745 -21.0665 -21.0567 -21.0493 -21.0321 -21.0168 -20.3199
   -20.3092 -20.3010 -20.2860 -20.2589 -20.2435 -20.2254 -12.4026  -7.7787
    -5.8615  -5.1993  -4.3284  -3.8369  -1.9815  -0.5200   0.2374   0.5433
     2.5361   2.6872   3.5792   4.3143

          k = 0.1602 0.2775 0.0000 ( 15858 PWs)   bands (ev):

   -69.3781 -68.6337 -36.0194 -35.9219 -35.6714 -35.3054 -35.0567 -35.0447
   -21.0755 -21.0716 -21.0647 -21.0626 -21.0536 -21.0307 -21.0208 -20.3181
   -20.3051 -20.3041 -20.2930 -20.2509 -20.2430 -20.2336 -12.9125  -6.9603
    -6.4851  -5.5469  -4.5254  -2.8974  -2.8205  -1.8108  -1.0009   0.4348
     1.6006   2.0540   2.9153   4.0057

          k = 0.1602 0.3700 0.0000 ( 15848 PWs)   bands (ev):

   -69.3684 -68.6239 -36.0620 -35.9656 -35.7384 -35.4126 -35.1138 -35.0364
   -21.0761 -21.0713 -21.0646 -21.0633 -21.0513 -21.0289 -21.0227 -20.3139
   -20.3102 -20.3032 -20.2906 -20.2545 -20.2449 -20.2291 -12.5895  -7.1670
    -5.9314  -5.7299  -4.5741  -2.9241  -2.4115  -1.6003  -0.8598   0.3983
     2.1206   2.7184   3.2940   4.2044

          k = 0.1602 0.4626 0.0000 ( 15846 PWs)   bands (ev):

   -69.3613 -68.6166 -36.1338 -35.9560 -35.7882 -35.4870 -35.1618 -35.0256
   -21.0778 -21.0713 -21.0666 -21.0596 -21.0506 -21.0345 -21.0169 -20.3201
   -20.3067 -20.3005 -20.2886 -20.2571 -20.2462 -20.2259 -12.3701  -7.3937
    -5.8517  -5.6021  -4.4137  -3.1299  -1.9562  -1.1645  -0.3305   0.2943
     2.0069   3.2215   3.7128   4.5872

          k = 0.1602 0.5551 0.0000 ( 15864 PWs)   bands (ev):

   -69.3587 -68.6140 -36.1611 -35.9516 -35.8062 -35.5135 -35.1795 -35.0216
   -21.0784 -21.0715 -21.0677 -21.0573 -21.0511 -21.0364 -21.0147 -20.3224
   -20.3062 -20.2988 -20.2878 -20.2581 -20.2467 -20.2247 -12.2940  -7.4807
    -5.8433  -5.6120  -4.2448  -3.2364  -1.7554  -0.8694  -0.2131   0.4355
     1.9323   3.2136   3.6996   4.4761

          k = 0.2404 0.4163 0.0000 ( 15846 PWs)   bands (ev):

   -69.3613 -68.6166 -36.0942 -35.9512 -35.8325 -35.4503 -35.2033 -35.0249
   -21.0764 -21.0687 -21.0660 -21.0632 -21.0511 -21.0357 -21.0169 -20.3201
   -20.3053 -20.3000 -20.2903 -20.2558 -20.2480 -20.2261 -12.3537  -7.0818
    -6.1884  -5.5205  -4.4873  -2.3800  -1.9889  -1.9073  -0.5621   0.1676
     1.8828   3.2684   3.9053   4.5595

          k = 0.2404 0.5088 0.0000 ( 15834 PWs)   bands (ev):

   -69.3572 -68.6125 -36.0979 -35.9420 -35.9012 -35.4595 -35.2686 -35.0183
   -21.0759 -21.0698 -21.0659 -21.0600 -21.0529 -21.0396 -21.0136 -20.3238
   -20.3029 -20.2974 -20.2903 -20.2562 -20.2502 -20.2245 -12.2205  -7.0835
    -6.3225  -5.3971  -4.3548  -2.4260  -1.6442  -1.4537  -0.4538   0.3079
     1.5170   2.9429   3.7923   4.4226

          k = 0.3205 0.5551 0.0000 ( 15774 PWs)   bands (ev):

   -69.3557 -68.6109 -36.0284 -36.0005 -35.9347 -35.4133 -35.3451 -35.0157
   -21.0737 -21.0721 -21.0620 -21.0609 -21.0552 -21.0416 -21.0123 -20.3251
   -20.3009 -20.2962 -20.2916 -20.2541 -20.2534 -20.2241 -12.1637  -6.7739
    -6.6909  -5.2574  -4.3855  -2.0401  -1.5288  -1.4849  -0.5326   0.3081
     1.2890   2.5720   3.4530   4.8146

     the Fermi energy is    -0.7971 ev

!    total energy              =   -1375.57248300 Ry
     estimated scf accuracy    <          6.0E-14 Ry
     smearing contrib. (-TS)   =      -0.00001395 Ry
     internal energy E=F+TS    =   -1375.57246906 Ry

     The total energy is F=E-TS. E is the sum of the following terms:
     one-electron contribution =  -11131.41204246 Ry
     hartree contribution      =    5592.83343523 Ry
     xc contribution           =    -140.02277654 Ry
     ewald contribution        =    4303.02891471 Ry

     convergence has been achieved in  21 iterations

     negative rho (up, down):  6.809E-05 0.000E+00

     Forces acting on atoms (cartesian axes, Ry/au):

     atom    1 type  2   force =     0.00000000    0.00000000   -0.01062986
     atom    2 type  1   force =     0.00000000    0.00000000   -0.03142151
     atom    3 type  1   force =     0.00000000    0.00000000   -0.02027666
     atom    4 type  3   force =     0.00000000    0.00000000   -0.01013285
     atom    5 type  3   force =     0.00000000   -0.00000000    0.07246089

     Total force =     0.082169     Total SCF correction =     0.000003


     Computing stress (Cartesian axis) and pressure


     negative rho (up, down):  6.809E-05 0.000E+00
          total   stress  (Ry/bohr**3)                   (kbar)     P=      -16.58
  -0.00003190   0.00000000   0.00000000           -4.69        0.00        0.00
   0.00000000  -0.00003190   0.00000000            0.00       -4.69        0.00
  -0.00000000   0.00000000  -0.00027438           -0.00        0.00      -40.36

     Energy error            =      9.9E-03 Ry
     Gradient error          =      7.2E-02 Ry/Bohr
     Cell gradient error     =      4.7E+00 kbar

     number of scf cycles    =   3
     number of bfgs steps    =   2

     enthalpy           old  =   -1375.5625611707 Ry
     enthalpy           new  =   -1375.5724830049 Ry

     CASE: enthalpy          _new < enthalpy          _old

     new trust radius        =       0.1339856513 bohr
     new conv_thr            =            7.2E-13 Ry

     new unit-cell volume =   1598.26497 a.u.^3 (   236.83843 Ang^3 )
     density =      2.63558 g/cm^3

CELL_PARAMETERS (alat=  5.55000000)
   1.039009694   0.000000000   0.000000000
  -0.519504846   0.899808789   0.000000000
   0.000000000   0.000000000  10.000000000

ATOMIC_POSITIONS (crystal)
C             0.0000000000        0.0000000000        0.0000000000    0   0   0
Ta            0.6666666670        0.3333333330       -0.0454754891
Ta            0.3333333330        0.6666666670        0.0414196926
H             0.3333333330        0.6666666670        0.1030806596
H             0.3333333330        0.6666666670       -0.0981100888



     Writing output data file /scratch/as3359/Ta2CH2-VCrelax/Ta.save/
     NEW-OLD atomic charge density approx. for the potential

     negative rho (up, down):  6.105E-05 0.000E+00
     extrapolated charge   59.86852, renormalised to   60.00000

     total cpu time spent up to now is      525.2 secs

     Self-consistent Calculation

     iteration #  1     ecut=    70.00 Ry     beta= 0.70
     Davidson diagonalization with overlap
     c_bands:  1 eigenvalues not converged
     c_bands:  1 eigenvalues not converged
     c_bands:  1 eigenvalues not converged
     ethr =  1.00E-06,  avg # of iterations = 15.9

     negative rho (up, down):  5.629E-05 0.000E+00

     total cpu time spent up to now is      539.2 secs

     total energy              =   -1375.24228842 Ry
     estimated scf accuracy    <       0.33424850 Ry

     iteration #  2     ecut=    70.00 Ry     beta= 0.70
     Davidson diagonalization with overlap
     c_bands:  1 eigenvalues not converged
     ethr =  5.57E-04,  avg # of iterations = 15.9

     negative rho (up, down):  1.418E-04 0.000E+00

     total cpu time spent up to now is      549.4 secs

     total energy              =   -1373.99175416 Ry
     estimated scf accuracy    <      26.09738256 Ry

     iteration #  3     ecut=    70.00 Ry     beta= 0.70
     Davidson diagonalization with overlap
     ethr =  5.57E-04,  avg # of iterations = 11.9

     negative rho (up, down):  1.133E-04 0.000E+00

     total cpu time spent up to now is      558.6 secs

     total energy              =   -1375.27468929 Ry
     estimated scf accuracy    <       6.90177825 Ry

     iteration #  4     ecut=    70.00 Ry     beta= 0.70
     Davidson diagonalization with overlap
     ethr =  5.57E-04,  avg # of iterations =  9.4

     negative rho (up, down):  8.068E-05 0.000E+00

     total cpu time spent up to now is      566.1 secs

     total energy              =   -1375.57817420 Ry
     estimated scf accuracy    <       0.83126695 Ry

     iteration #  5     ecut=    70.00 Ry     beta= 0.70
     Davidson diagonalization with overlap
     ethr =  5.57E-04,  avg # of iterations =  1.1
     Minimization algorithm failed to find Fermi energy: reverting to bisection
     Possible cause: smearing is larger than the electronic band-gap.

     negative rho (up, down):  5.157E-05 0.000E+00

     total cpu time spent up to now is      571.9 secs

     total energy              =   -1375.59136763 Ry
     estimated scf accuracy    <       0.07768240 Ry

     iteration #  6     ecut=    70.00 Ry     beta= 0.70
     Davidson diagonalization with overlap
     ethr =  1.29E-04,  avg # of iterations =  1.6
     Minimization algorithm failed to find Fermi energy: reverting to bisection
     Possible cause: smearing is larger than the electronic band-gap.

     negative rho (up, down):  4.708E-05 0.000E+00

     total cpu time spent up to now is      577.7 secs

     total energy              =   -1375.58891506 Ry
     estimated scf accuracy    <       0.05467492 Ry

     iteration #  7     ecut=    70.00 Ry     beta= 0.70
     Davidson diagonalization with overlap
     ethr =  9.11E-05,  avg # of iterations =  2.3

     negative rho (up, down):  4.167E-05 0.000E+00

     total cpu time spent up to now is      583.6 secs

     total energy              =   -1375.58769535 Ry
     estimated scf accuracy    <       0.03593189 Ry

     iteration #  8     ecut=    70.00 Ry     beta= 0.70
     Davidson diagonalization with overlap
     ethr =  5.99E-05,  avg # of iterations =  1.7

     negative rho (up, down):  1.006E-03 0.000E+00

     total cpu time spent up to now is      589.4 secs

     total energy              =   -1375.58410133 Ry
     estimated scf accuracy    <       0.02547199 Ry

     iteration #  9     ecut=    70.00 Ry     beta= 0.70
     Davidson diagonalization with overlap
     ethr =  4.25E-05,  avg # of iterations =  2.7

     negative rho (up, down):  2.443E-03 0.000E+00

     total cpu time spent up to now is      595.5 secs

     total energy              =   -1375.58434337 Ry
     estimated scf accuracy    <       0.00673954 Ry

     iteration # 10     ecut=    70.00 Ry     beta= 0.70
     Davidson diagonalization with overlap
     ethr =  1.12E-05,  avg # of iterations =  4.3

     negative rho (up, down):  3.229E-03 0.000E+00

     total cpu time spent up to now is      601.7 secs

     total energy              =   -1375.58386719 Ry
     estimated scf accuracy    <       0.00280401 Ry

     iteration # 11     ecut=    70.00 Ry     beta= 0.70
     Davidson diagonalization with overlap
     ethr =  4.67E-06,  avg # of iterations =  4.9

     negative rho (up, down):  2.500E-04 0.000E+00

     total cpu time spent up to now is      608.1 secs

     total energy              =   -1375.58404250 Ry
     estimated scf accuracy    <       0.00028889 Ry

     iteration # 12     ecut=    70.00 Ry     beta= 0.70
     Davidson diagonalization with overlap
     ethr =  4.81E-07,  avg # of iterations =  6.1

     negative rho (up, down):  1.692E-04 0.000E+00

     total cpu time spent up to now is      614.7 secs

     total energy              =   -1375.58406380 Ry
     estimated scf accuracy    <       0.00028552 Ry

     iteration # 13     ecut=    70.00 Ry     beta= 0.70
     Davidson diagonalization with overlap
     ethr =  4.76E-07,  avg # of iterations =  1.8

     negative rho (up, down):  7.426E-05 0.000E+00

     total cpu time spent up to now is      620.6 secs

     total energy              =   -1375.58406545 Ry
     estimated scf accuracy    <       0.00003874 Ry

     iteration # 14     ecut=    70.00 Ry     beta= 0.70
     Davidson diagonalization with overlap
     ethr =  6.46E-08,  avg # of iterations =  2.0

     negative rho (up, down):  7.388E-05 0.000E+00

     total cpu time spent up to now is      626.6 secs

     total energy              =   -1375.58406905 Ry
     estimated scf accuracy    <       0.00001281 Ry

     iteration # 15     ecut=    70.00 Ry     beta= 0.70
     Davidson diagonalization with overlap
     ethr =  2.14E-08,  avg # of iterations =  1.0

     negative rho (up, down):  6.651E-05 0.000E+00

     total cpu time spent up to now is      632.4 secs

     total energy              =   -1375.58406965 Ry
     estimated scf accuracy    <       0.00000047 Ry

     iteration # 16     ecut=    70.00 Ry     beta= 0.70
     Davidson diagonalization with overlap
     ethr =  7.77E-10,  avg # of iterations =  2.5

     negative rho (up, down):  6.429E-05 0.000E+00

     total cpu time spent up to now is      638.9 secs

     total energy              =   -1375.58406972 Ry
     estimated scf accuracy    <       0.00000006 Ry

     iteration # 17     ecut=    70.00 Ry     beta= 0.70
     Davidson diagonalization with overlap
     ethr =  9.47E-11,  avg # of iterations =  2.9

     negative rho (up, down):  6.418E-05 0.000E+00

     total cpu time spent up to now is      645.5 secs

     total energy              =   -1375.58406974 Ry
     estimated scf accuracy    <       0.00000001 Ry

     iteration # 18     ecut=    70.00 Ry     beta= 0.70
     Davidson diagonalization with overlap
     ethr =  2.27E-11,  avg # of iterations =  2.3

     negative rho (up, down):  6.476E-05 0.000E+00

     total cpu time spent up to now is      651.6 secs

     total energy              =   -1375.58406974 Ry
     estimated scf accuracy    <          3.6E-09 Ry

     iteration # 19     ecut=    70.00 Ry     beta= 0.70
     Davidson diagonalization with overlap
     ethr =  5.98E-12,  avg # of iterations =  2.4

     negative rho (up, down):  6.448E-05 0.000E+00

     total cpu time spent up to now is      658.1 secs

     total energy              =   -1375.58406974 Ry
     estimated scf accuracy    <          1.3E-09 Ry

     iteration # 20     ecut=    70.00 Ry     beta= 0.70
     Davidson diagonalization with overlap
     ethr =  2.23E-12,  avg # of iterations =  1.9

     negative rho (up, down):  6.449E-05 0.000E+00

     total cpu time spent up to now is      664.1 secs

     total energy              =   -1375.58406974 Ry
     estimated scf accuracy    <          3.7E-10 Ry

     iteration # 21     ecut=    70.00 Ry     beta= 0.70
     Davidson diagonalization with overlap
     ethr =  6.15E-13,  avg # of iterations =  1.4

     negative rho (up, down):  6.447E-05 0.000E+00

     total cpu time spent up to now is      669.8 secs

     total energy              =   -1375.58406974 Ry
     estimated scf accuracy    <          9.8E-12 Ry

     iteration # 22     ecut=    70.00 Ry     beta= 0.70
     Davidson diagonalization with overlap
     ethr =  1.00E-13,  avg # of iterations =  2.3

     negative rho (up, down):  6.446E-05 0.000E+00

     total cpu time spent up to now is      675.8 secs

     End of self-consistent calculation

          k = 0.0000 0.0000 0.0000 ( 15945 PWs)   bands (ev):

   -69.3494 -68.6000 -36.0323 -35.4638 -35.4638 -35.0484 -34.8562 -34.8562
   -21.0330 -21.0135 -21.0135 -21.0032 -21.0032 -20.9955 -20.9396 -20.2785
   -20.2387 -20.2387 -20.2130 -20.1821 -20.1740 -20.1740 -13.8736  -8.6688
    -5.6930  -4.5908  -4.5908  -3.9814  -2.6884  -0.9191  -0.9191   1.0386
     1.0386   1.8766   1.8766   2.3128

          k =-0.0000 0.0926 0.0000 ( 15937 PWs)   bands (ev):

   -69.3464 -68.5969 -36.0233 -35.5123 -35.4747 -35.0422 -34.9038 -34.8670
   -21.0317 -21.0140 -21.0126 -21.0045 -21.0033 -20.9932 -20.9423 -20.2759
   -20.2390 -20.2375 -20.2159 -20.1808 -20.1756 -20.1744 -13.7551  -8.4557
    -5.8092  -4.7785  -4.5542  -3.8120  -2.5808  -1.2937  -0.7242   0.5081
     0.8598   1.8441   2.1248   2.9460

          k =-0.0000 0.1852 0.0000 ( 15883 PWs)   bands (ev):

   -69.3382 -68.5884 -35.9992 -35.6412 -35.5043 -35.0437 -35.0146 -34.8966
   -21.0285 -21.0154 -21.0107 -21.0076 -21.0033 -20.9870 -20.9496 -20.2688
   -20.2398 -20.2345 -20.2235 -20.1797 -20.1770 -20.1752 -13.4388  -7.8904
    -6.1473  -5.0140  -4.4924  -3.5285  -2.4743  -1.8244  -0.1820  -0.1320
     0.8064   1.6926   2.4357   3.6183

          k =-0.0000 0.2778 0.0000 ( 15835 PWs)   bands (ev):

   -69.3269 -68.5769 -35.9695 -35.8093 -35.5446 -35.2048 -35.0032 -34.9367
   -21.0258 -21.0177 -21.0099 -21.0094 -21.0017 -20.9782 -20.9590 -20.2591
   -20.2409 -20.2357 -20.2285 -20.1851 -20.1761 -20.1717 -13.0286  -7.3742
    -6.3231  -5.1758  -4.4938  -3.3402  -2.8954  -1.4225  -0.4472   0.5407
     1.3056   1.4980   2.5832   4.0166

          k =-0.0000 0.3704 0.0000 ( 15813 PWs)   bands (ev):

   -69.3156 -68.5653 -35.9954 -35.9198 -35.5846 -35.3663 -34.9845 -34.9764
   -21.0262 -21.0205 -21.0112 -21.0075 -20.9984 -20.9691 -20.9674 -20.2501
   -20.2455 -20.2414 -20.2246 -20.1902 -20.1769 -20.1662 -12.6520  -7.5189
    -5.9284  -5.1522  -4.5740  -3.7308  -2.6149  -0.8473  -0.2101   1.2766
     1.2869   2.3052   2.7199   3.8781

          k =-0.0000 0.4631 0.0000 ( 15860 PWs)   bands (ev):

   -69.3074 -68.5568 -36.1047 -35.9117 -35.6137 -35.4774 -35.0053 -34.9711
   -21.0283 -21.0221 -21.0131 -21.0045 -20.9957 -20.9730 -20.9623 -20.2529
   -20.2464 -20.2389 -20.2213 -20.1938 -20.1774 -20.1620 -12.4038  -7.7586
    -5.9079  -4.6898  -4.6670  -4.0604  -2.1558  -0.4472   0.2891   1.1072
     1.8160   2.9440   3.5523   3.7647

          k = 0.0000-0.5557 0.0000 ( 15870 PWs)   bands (ev):

   -69.3044 -68.5537 -36.1467 -35.9080 -35.6243 -35.5157 -35.0159 -34.9662
   -21.0293 -21.0227 -21.0139 -21.0033 -20.9946 -20.9749 -20.9598 -20.2556
   -20.2461 -20.2370 -20.2201 -20.1951 -20.1776 -20.1604 -12.3200  -7.8472
    -5.9613  -4.7061  -4.4626  -4.1543  -1.9335  -0.3232   0.4729   1.0934
     1.9353   3.2919   3.9021   4.1254

          k = 0.0802 0.1389 0.0000 ( 15907 PWs)   bands (ev):

   -69.3408 -68.5911 -36.0067 -35.5982 -35.4976 -35.0338 -34.9864 -34.8898
   -21.0293 -21.0150 -21.0112 -21.0068 -21.0034 -20.9889 -20.9474 -20.2710
   -20.2394 -20.2355 -20.2212 -20.1783 -20.1782 -20.1751 -13.5375  -8.0594
    -6.0388  -4.9893  -4.5013  -3.5913  -2.3816  -1.8416  -0.3857   0.2391
     0.4689   2.0066   2.2504   3.4831

          k = 0.0802 0.2315 0.0000 ( 15867 PWs)   bands (ev):

   -69.3310 -68.5811 -35.9793 -35.7404 -35.5394 -35.1352 -35.0098 -34.9310
   -21.0259 -21.0170 -21.0101 -21.0093 -21.0024 -20.9814 -20.9558 -20.2626
   -20.2401 -20.2336 -20.2288 -20.1827 -20.1763 -20.1737 -13.1733  -7.4287
    -6.3580  -5.2217  -4.4880  -3.2656  -2.5948  -1.8740  -0.4926   0.3181
     0.8200   1.8974   2.5838   3.9447

          k = 0.0802 0.3241 0.0000 ( 15853 PWs)   bands (ev):

   -69.3198 -68.5695 -35.9600 -35.8890 -35.5874 -35.2926 -34.9920 -34.9774
   -21.0245 -21.0194 -21.0108 -21.0095 -20.9996 -20.9725 -20.9649 -20.2531
   -20.2419 -20.2406 -20.2269 -20.1878 -20.1774 -20.1683 -12.7789  -7.2598
    -6.1273  -5.3834  -4.5980  -3.2233  -2.7606  -1.2691  -0.6673   0.6757
     1.6043   2.1492   2.7449   4.0765

          k = 0.0802 0.4168 0.0000 ( 15858 PWs)   bands (ev):

   -69.3100 -68.5595 -36.0479 -35.9130 -35.6285 -35.4228 -35.0195 -34.9744
   -21.0264 -21.0208 -21.0126 -21.0066 -20.9969 -20.9721 -20.9645 -20.2507
   -20.2463 -20.2398 -20.2233 -20.1920 -20.1783 -20.1635 -12.4675  -7.5259
    -5.8277  -5.1859  -4.7104  -3.5715  -2.2956  -0.7980  -0.1840   0.6662
     2.2127   2.7057   3.1554   4.0508

          k = 0.0802 0.5094 0.0000 ( 15845 PWs)   bands (ev):

   -69.3043 -68.5537 -36.1224 -35.9048 -35.6519 -35.4938 -35.0426 -34.9654
   -21.0282 -21.0215 -21.0141 -21.0040 -20.9955 -20.9759 -20.9598 -20.2557
   -20.2449 -20.2368 -20.2211 -20.1944 -20.1788 -20.1606 -12.3034  -7.6986
    -5.8862  -5.0848  -4.4772  -3.7812  -1.9116  -0.4745   0.2811   0.5620
     2.6130   2.7722   3.7811   4.4842

          k = 0.1604 0.2778 0.0000 ( 15858 PWs)   bands (ev):

   -69.3213 -68.5711 -35.9574 -35.8556 -35.6010 -35.2539 -34.9977 -34.9866
   -21.0228 -21.0195 -21.0113 -21.0102 -20.9999 -20.9737 -20.9642 -20.2543
   -20.2407 -20.2396 -20.2283 -20.1863 -20.1783 -20.1691 -12.8236  -6.9812
    -6.3765  -5.5243  -4.5781  -2.8168  -2.7276  -1.7134  -0.9594   0.5021
     1.6647   2.0761   3.0145   4.1234

          k = 0.1604 0.3704 0.0000 ( 15848 PWs)   bands (ev):

   -69.3115 -68.5610 -35.9911 -35.9082 -35.6680 -35.3634 -35.0575 -34.9758
   -21.0238 -21.0187 -21.0124 -21.0100 -20.9977 -20.9724 -20.9658 -20.2496
   -20.2461 -20.2388 -20.2258 -20.1899 -20.1802 -20.1645 -12.4944  -7.1065
    -5.8823  -5.6812  -4.7091  -2.8445  -2.3343  -1.5337  -0.7667   0.4354
     2.1552   2.7764   3.4519   4.2858

          k = 0.1604 0.4631 0.0000 ( 15846 PWs)   bands (ev):

   -69.3043 -68.5537 -36.0631 -35.8983 -35.7179 -35.4395 -35.1066 -34.9641
   -21.0257 -21.0183 -21.0144 -21.0066 -20.9970 -20.9781 -20.9599 -20.2558
   -20.2424 -20.2363 -20.2237 -20.1926 -20.1815 -20.1612 -12.2700  -7.3131
    -5.8305  -5.5237  -4.5939  -3.0635  -1.8815  -1.1199  -0.2682   0.3762
     2.0705   3.2700   3.9107   4.6088

          k = 0.1604 0.5557 0.0000 ( 15864 PWs)   bands (ev):

   -69.3017 -68.5510 -36.0905 -35.8936 -35.7360 -35.4666 -35.1246 -34.9599
   -21.0263 -21.0184 -21.0154 -21.0045 -20.9973 -20.9800 -20.9578 -20.2582
   -20.2418 -20.2346 -20.2229 -20.1935 -20.1820 -20.1599 -12.1919  -7.3957
    -5.8236  -5.5452  -4.4316  -3.1676  -1.6791  -0.8347  -0.2075   0.5562
     2.0463   3.3001   3.8647   4.5173

          k = 0.2406 0.4168 0.0000 ( 15846 PWs)   bands (ev):

   -69.3044 -68.5537 -36.0234 -35.8939 -35.7621 -35.4020 -35.1488 -34.9635
   -21.0243 -21.0162 -21.0137 -21.0097 -20.9975 -20.9792 -20.9600 -20.2559
   -20.2411 -20.2358 -20.2254 -20.1912 -20.1834 -20.1614 -12.2532  -6.9993
    -6.1284  -5.4615  -4.6922  -2.3372  -1.9181  -1.8265  -0.4769   0.2526
     1.9041   3.3456   4.1546   4.5230

          k = 0.2406 0.5094 0.0000 ( 15834 PWs)   bands (ev):

   -69.3002 -68.5494 -36.0272 -35.8841 -35.8313 -35.4112 -35.2157 -34.9565
   -21.0239 -21.0176 -21.0131 -21.0067 -20.9994 -20.9831 -20.9566 -20.2596
   -20.2385 -20.2332 -20.2255 -20.1917 -20.1855 -20.1597 -12.1163  -6.9954
    -6.2480  -5.3579  -4.5812  -2.3728  -1.5669  -1.4059  -0.4322   0.4842
     1.5460   3.1022   3.9463   4.4694

          k = 0.3208 0.5557 0.0000 ( 15774 PWs)   bands (ev):

   -69.2987 -68.5478 -35.9557 -35.9321 -35.8773 -35.3634 -35.2942 -34.9537
   -21.0216 -21.0201 -21.0101 -21.0067 -21.0017 -20.9851 -20.9554 -20.2610
   -20.2364 -20.2320 -20.2267 -20.1896 -20.1888 -20.1593 -12.0578  -6.6505
    -6.6454  -5.1923  -4.6523  -2.0050  -1.4473  -1.4301  -0.5132   0.4998
     1.3274   2.7197   3.6105   4.9279

     the Fermi energy is    -0.7256 ev

!    total energy              =   -1375.58406974 Ry
     estimated scf accuracy    <          3.3E-13 Ry
     smearing contrib. (-TS)   =      -0.00001321 Ry
     internal energy E=F+TS    =   -1375.58405652 Ry

     The total energy is F=E-TS. E is the sum of the following terms:
     one-electron contribution =  -11134.21290410 Ry
     hartree contribution      =    5594.36129275 Ry
     xc contribution           =    -140.03079605 Ry
     ewald contribution        =    4304.29835088 Ry

     convergence has been achieved in  22 iterations

     negative rho (up, down):  6.446E-05 0.000E+00

     Forces acting on atoms (cartesian axes, Ry/au):

     atom    1 type  2   force =     0.00000000    0.00000000   -0.02470717
     atom    2 type  1   force =    -0.00000000    0.00000000   -0.00819976
     atom    3 type  1   force =    -0.00000000    0.00000000   -0.01719135
     atom    4 type  3   force =     0.00000000    0.00000000   -0.01393116
     atom    5 type  3   force =     0.00000000    0.00000000    0.06402944

     Total force =     0.068239     Total SCF correction =     0.000010


     Computing stress (Cartesian axis) and pressure


     negative rho (up, down):  6.446E-05 0.000E+00
          total   stress  (Ry/bohr**3)                   (kbar)     P=      -17.08
  -0.00003217   0.00000000   0.00000000           -4.73        0.00        0.00
   0.00000000  -0.00003217  -0.00000000            0.00       -4.73       -0.00
  -0.00000000   0.00000000  -0.00028398           -0.00        0.00      -41.78

     Energy error            =      1.2E-02 Ry
     Gradient error          =      6.4E-02 Ry/Bohr
     Cell gradient error     =      4.7E+00 kbar

     number of scf cycles    =   4
     number of bfgs steps    =   3

     enthalpy           old  =   -1375.5724830049 Ry
     enthalpy           new  =   -1375.5840697388 Ry

     CASE: enthalpy          _new < enthalpy          _old

     new trust radius        =       0.2009784770 bohr
     new conv_thr            =            6.4E-13 Ry

     new unit-cell volume =   1592.91668 a.u.^3 (   236.04590 Ang^3 )
     density =      2.64443 g/cm^3

CELL_PARAMETERS (alat=  5.55000000)
   1.037269815   0.000000000   0.000000000
  -0.518634907   0.898302009   0.000000000
   0.000000000   0.000000000  10.000000000

ATOMIC_POSITIONS (crystal)
C             0.0000000000        0.0000000000        0.0000000000    0   0   0
Ta            0.6666666670        0.3333333330       -0.0470229486
Ta            0.3333333330        0.6666666670        0.0405684213
H             0.3333333330        0.6666666670        0.1025134091
H             0.3333333330        0.6666666670       -0.0944888550



     Writing output data file /scratch/as3359/Ta2CH2-VCrelax/Ta.save/
     NEW-OLD atomic charge density approx. for the potential

     negative rho (up, down):  5.791E-05 0.000E+00
     extrapolated charge   59.79855, renormalised to   60.00000

     total cpu time spent up to now is      723.3 secs

     Self-consistent Calculation

     iteration #  1     ecut=    70.00 Ry     beta= 0.70
     Davidson diagonalization with overlap
     c_bands:  1 eigenvalues not converged
     c_bands:  1 eigenvalues not converged
     c_bands:  1 eigenvalues not converged
     c_bands:  1 eigenvalues not converged
     c_bands:  1 eigenvalues not converged
     c_bands:  1 eigenvalues not converged
     c_bands:  1 eigenvalues not converged
[...]

     negative rho (up, down):  1.126E-04 0.000E+00

     total cpu time spent up to now is     4615.7 secs

     total energy              =   -1369.91537498 Ry
     estimated scf accuracy    <      93.10019356 Ry

     iteration #  3     ecut=    70.00 Ry     beta= 0.70
     Davidson diagonalization with overlap
     ethr =  2.10E-03,  avg # of iterations =  8.5

     negative rho (up, down):  7.440E-05 0.000E+00

     total cpu time spent up to now is     4624.4 secs

     total energy              =   -1375.03447198 Ry
     estimated scf accuracy    <       8.39009007 Ry

     iteration #  4     ecut=    70.00 Ry     beta= 0.70
     Davidson diagonalization with overlap
     ethr =  2.10E-03,  avg # of iterations =  3.7

     negative rho (up, down):  4.338E-05 0.000E+00

     total cpu time spent up to now is     4631.0 secs

     total energy              =   -1375.60128537 Ry
     estimated scf accuracy    <       0.40670909 Ry

     iteration #  5     ecut=    70.00 Ry     beta= 0.70
     Davidson diagonalization with overlap
     ethr =  6.78E-04,  avg # of iterations =  2.3

     negative rho (up, down):  5.058E-05 0.000E+00

     total cpu time spent up to now is     4637.3 secs

     total energy              =   -1375.63267965 Ry
     estimated scf accuracy    <       0.21010661 Ry

     iteration #  6     ecut=    70.00 Ry     beta= 0.70
     Davidson diagonalization with overlap
     ethr =  3.50E-04,  avg # of iterations =  3.4

     negative rho (up, down):  4.595E-05 0.000E+00

     total cpu time spent up to now is     4643.5 secs

     total energy              =   -1375.63006737 Ry
     estimated scf accuracy    <       0.05633326 Ry

     iteration #  7     ecut=    70.00 Ry     beta= 0.70
     Davidson diagonalization with overlap
     ethr =  9.39E-05,  avg # of iterations =  5.9

     negative rho (up, down):  5.014E-05 0.000E+00

     total cpu time spent up to now is     4650.0 secs

     total energy              =   -1375.62664364 Ry
     estimated scf accuracy    <       0.02252854 Ry

     iteration #  8     ecut=    70.00 Ry     beta= 0.70
     Davidson diagonalization with overlap
     ethr =  3.75E-05,  avg # of iterations =  6.0
     Minimization algorithm failed to find Fermi energy: reverting to bisection
     Possible cause: smearing is larger than the electronic band-gap.

     negative rho (up, down):  5.157E-05 0.000E+00

     total cpu time spent up to now is     4656.6 secs

     total energy              =   -1375.62632669 Ry
     estimated scf accuracy    <       0.00916031 Ry

     iteration #  9     ecut=    70.00 Ry     beta= 0.70
     Davidson diagonalization with overlap
     ethr =  1.53E-05,  avg # of iterations =  5.6

     negative rho (up, down):  5.378E-05 0.000E+00

     total cpu time spent up to now is     4663.1 secs

     total energy              =   -1375.62679028 Ry
     estimated scf accuracy    <       0.00039306 Ry

     iteration # 10     ecut=    70.00 Ry     beta= 0.70
     Davidson diagonalization with overlap
     ethr =  6.55E-07,  avg # of iterations =  7.3

     negative rho (up, down):  7.323E-04 0.000E+00

     total cpu time spent up to now is     4670.1 secs

     total energy              =   -1375.62686742 Ry
     estimated scf accuracy    <       0.00006062 Ry

     iteration # 11     ecut=    70.00 Ry     beta= 0.70
     Davidson diagonalization with overlap
     ethr =  1.01E-07,  avg # of iterations =  4.3

     negative rho (up, down):  6.391E-05 0.000E+00

     total cpu time spent up to now is     4676.6 secs

     total energy              =   -1375.62685569 Ry
     estimated scf accuracy    <       0.00005300 Ry

     iteration # 12     ecut=    70.00 Ry     beta= 0.70
     Davidson diagonalization with overlap
     ethr =  8.83E-08,  avg # of iterations =  4.4

     negative rho (up, down):  6.797E-05 0.000E+00

     total cpu time spent up to now is     4683.1 secs

     total energy              =   -1375.62686206 Ry
     estimated scf accuracy    <       0.00000232 Ry

     iteration # 13     ecut=    70.00 Ry     beta= 0.70
     Davidson diagonalization with overlap
     ethr =  3.86E-09,  avg # of iterations =  2.1

     negative rho (up, down):  7.010E-05 0.000E+00

     total cpu time spent up to now is     4689.6 secs

     total energy              =   -1375.62686254 Ry
     estimated scf accuracy    <       0.00000016 Ry

     iteration # 14     ecut=    70.00 Ry     beta= 0.70
     Davidson diagonalization with overlap
     ethr =  2.73E-10,  avg # of iterations =  3.9

     negative rho (up, down):  7.074E-05 0.000E+00

     total cpu time spent up to now is     4696.4 secs

     total energy              =   -1375.62686258 Ry
     estimated scf accuracy    <       0.00000001 Ry

     iteration # 15     ecut=    70.00 Ry     beta= 0.70
     Davidson diagonalization with overlap
     ethr =  2.18E-11,  avg # of iterations =  3.3

     negative rho (up, down):  7.069E-05 0.000E+00

     total cpu time spent up to now is     4703.2 secs

     total energy              =   -1375.62686258 Ry
     estimated scf accuracy    <          4.3E-09 Ry

     iteration # 16     ecut=    70.00 Ry     beta= 0.70
     Davidson diagonalization with overlap
     ethr =  7.21E-12,  avg # of iterations =  2.0

     negative rho (up, down):  7.072E-05 0.000E+00

     total cpu time spent up to now is     4709.6 secs

     total energy              =   -1375.62686258 Ry
     estimated scf accuracy    <          5.5E-10 Ry

     iteration # 17     ecut=    70.00 Ry     beta= 0.70
     Davidson diagonalization with overlap
     ethr =  9.23E-13,  avg # of iterations =  2.6

     negative rho (up, down):  7.071E-05 0.000E+00

     total cpu time spent up to now is     4716.2 secs

     total energy              =   -1375.62686258 Ry
     estimated scf accuracy    <          3.1E-10 Ry

     iteration # 18     ecut=    70.00 Ry     beta= 0.70
     Davidson diagonalization with overlap
     ethr =  5.10E-13,  avg # of iterations =  2.0

     negative rho (up, down):  7.072E-05 0.000E+00

     total cpu time spent up to now is     4722.7 secs

     total energy              =   -1375.62686258 Ry
     estimated scf accuracy    <          2.2E-10 Ry

     iteration # 19     ecut=    70.00 Ry     beta= 0.70
     Davidson diagonalization with overlap
     ethr =  3.69E-13,  avg # of iterations =  1.1

     negative rho (up, down):  7.073E-05 0.000E+00

     total cpu time spent up to now is     4728.5 secs

     total energy              =   -1375.62686258 Ry
     estimated scf accuracy    <          7.7E-12 Ry

     iteration # 20     ecut=    70.00 Ry     beta= 0.70
     Davidson diagonalization with overlap
     ethr =  1.00E-13,  avg # of iterations =  2.0

     negative rho (up, down):  7.073E-05 0.000E+00

     total cpu time spent up to now is     4734.5 secs

     total energy              =   -1375.62686258 Ry
     estimated scf accuracy    <          5.2E-13 Ry

     iteration # 21     ecut=    70.00 Ry     beta= 0.70
     Davidson diagonalization with overlap
     ethr =  1.00E-13,  avg # of iterations =  1.0

     negative rho (up, down):  7.073E-05 0.000E+00

     total cpu time spent up to now is     4740.3 secs

     total energy              =   -1375.62686258 Ry
     estimated scf accuracy    <          2.6E-13 Ry

     iteration # 22     ecut=    70.00 Ry     beta= 0.70
     Davidson diagonalization with overlap
     ethr =  1.00E-13,  avg # of iterations =  1.0

     negative rho (up, down):  7.073E-05 0.000E+00

     total cpu time spent up to now is     4746.1 secs

     total energy              =   -1375.62686258 Ry
     estimated scf accuracy    <          1.4E-13 Ry

     iteration # 23     ecut=    70.00 Ry     beta= 0.70
     Davidson diagonalization with overlap
     ethr =  1.00E-13,  avg # of iterations =  1.0

     negative rho (up, down):  7.073E-05 0.000E+00

     total cpu time spent up to now is     4751.9 secs

     total energy              =   -1375.62686258 Ry
     estimated scf accuracy    <          1.3E-14 Ry

     iteration # 24     ecut=    70.00 Ry     beta= 0.70
     Davidson diagonalization with overlap
     ethr =  1.00E-13,  avg # of iterations =  1.0

     negative rho (up, down):  7.073E-05 0.000E+00

     total cpu time spent up to now is     4757.6 secs

     End of self-consistent calculation

          k = 0.0000 0.0000 0.0000 ( 16413 PWs)   bands (ev):

   -69.1288 -68.4466 -35.8964 -35.3387 -35.3387 -34.8721 -34.7643 -34.7643
   -20.8117 -20.7806 -20.7806 -20.7694 -20.7694 -20.7543 -20.7049 -20.1272
   -20.0882 -20.0882 -20.0677 -20.0367 -20.0281 -20.0281 -13.8608  -9.0829
    -5.3763  -5.0785  -5.0785  -3.8789  -1.8283  -1.0554  -1.0554   0.8709
     0.8709   2.2169   2.2169   2.3423

          k = 0.0000 0.0911 0.0000 ( 16359 PWs)   bands (ev):

   -69.1262 -68.4442 -35.8874 -35.3846 -35.3489 -34.8669 -34.8045 -34.7733
   -20.8101 -20.7814 -20.7802 -20.7703 -20.7690 -20.7523 -20.7073 -20.1248
   -20.0885 -20.0872 -20.0702 -20.0356 -20.0294 -20.0284 -13.7364  -8.9038
    -5.8762  -5.0322  -4.8192  -3.7442  -1.8149  -1.3777  -0.8902   0.4510
     0.7629   2.1029   2.4196   3.0561

          k = 0.0000 0.1821 0.0000 ( 16319 PWs)   bands (ev):

   -69.1192 -68.4374 -35.8638 -35.5056 -35.3767 -34.9128 -34.8549 -34.7980
   -20.8060 -20.7836 -20.7793 -20.7723 -20.7678 -20.7469 -20.7139 -20.1183
   -20.0891 -20.0847 -20.0766 -20.0330 -20.0322 -20.0291 -13.4067  -8.4592
    -6.4094  -4.9361  -4.8314  -3.4513  -2.2894  -1.4426  -0.4440  -0.0312
     0.7787   2.0828   2.7271   3.6524

          k = 0.0000 0.2732 0.0000 ( 16302 PWs)   bands (ev):

   -69.1097 -68.4282 -35.8358 -35.6619 -35.4144 -35.0536 -34.8432 -34.8315
   -20.8012 -20.7869 -20.7793 -20.7739 -20.7652 -20.7391 -20.7224 -20.1095
   -20.0900 -20.0874 -20.0790 -20.0376 -20.0299 -20.0276 -12.9913  -8.1028
    -6.4396  -5.1411  -4.8782  -3.3579  -2.7056  -1.1403  -0.2006   0.1649
     1.2934   2.1035   2.8856   4.2685

          k = 0.0000 0.3642 0.0000 ( 16350 PWs)   bands (ev):

   -69.1002 -68.4189 -35.8478 -35.7772 -35.4518 -35.1852 -34.8648 -34.8341
   -20.7980 -20.7901 -20.7802 -20.7738 -20.7620 -20.7310 -20.7303 -20.1011
   -20.0960 -20.0904 -20.0754 -20.0420 -20.0306 -20.0228 -12.6394  -8.0435
    -5.9490  -5.5112  -4.8962  -3.6842  -2.4715  -0.8045   0.0736   0.9089
     2.0106   2.2334   2.9425   4.5310

          k = 0.0000 0.4553 0.0000 ( 16362 PWs)   bands (ev):

   -69.0932 -68.4122 -35.9405 -35.7806 -35.4790 -35.2729 -34.8890 -34.8286
   -20.7975 -20.7917 -20.7814 -20.7724 -20.7595 -20.7356 -20.7248 -20.1024
   -20.0965 -20.0893 -20.0725 -20.0451 -20.0311 -20.0191 -12.4396  -7.9955
    -6.1118  -5.1443  -4.9471  -3.9624  -2.0858  -0.4624   0.5054   1.6736
     1.8660   2.7947   3.4593   4.3636

          k =-0.0000-0.5464 0.0000 ( 16338 PWs)   bands (ev):

   -69.0906 -68.4097 -35.9786 -35.7790 -35.4889 -35.3024 -34.8979 -34.8269
   -20.7978 -20.7920 -20.7819 -20.7716 -20.7586 -20.7374 -20.7225 -20.1048
   -20.0957 -20.0880 -20.0714 -20.0462 -20.0313 -20.0178 -12.3813  -7.9524
    -6.2680  -4.9719  -4.9119  -4.0641  -1.8925  -0.2936   0.6833   1.8370
     2.0206   2.8608   4.0041   4.3156

          k = 0.0789 0.1366 0.0000 ( 16349 PWs)   bands (ev):

   -69.1214 -68.4395 -35.8711 -35.4653 -35.3706 -34.8772 -34.8576 -34.7925
   -20.8072 -20.7829 -20.7796 -20.7718 -20.7682 -20.7486 -20.7119 -20.1204
   -20.0888 -20.0856 -20.0746 -20.0333 -20.0317 -20.0290 -13.5090  -8.5851
    -6.2962  -5.0606  -4.6960  -3.5273  -2.0235  -1.6145  -0.6016   0.2625
     0.4980   2.3232   2.5340   3.5010

          k = 0.0789 0.2276 0.0000 ( 16299 PWs)   bands (ev):

   -69.1132 -68.4315 -35.8447 -35.5976 -35.4102 -34.9950 -34.8474 -34.8266
   -20.8026 -20.7856 -20.7793 -20.7736 -20.7662 -20.7420 -20.7195 -20.1127
   -20.0893 -20.0851 -20.0799 -20.0356 -20.0301 -20.0293 -13.1346  -8.1428
    -6.5570  -5.2215  -4.6935  -3.2524  -2.5468  -1.4394  -0.5327   0.2877
     0.8548   2.2961   2.9658   4.0733

          k = 0.0789 0.3187 0.0000 ( 16348 PWs)   bands (ev):

   -69.1037 -68.4223 -35.8259 -35.7364 -35.4554 -35.1249 -34.8675 -34.8358
   -20.7982 -20.7888 -20.7800 -20.7744 -20.7634 -20.7341 -20.7278 -20.1040
   -20.0929 -20.0897 -20.0775 -20.0399 -20.0311 -20.0246 -12.7499  -7.9487
    -6.2537  -5.4751  -4.8867  -3.2671  -2.5928  -1.1428  -0.4800   0.7809
     1.6362   2.3116   3.2167   4.6538

          k = 0.0789 0.4098 0.0000 ( 16363 PWs)   bands (ev):

   -69.0954 -68.4143 -35.8895 -35.7781 -35.4937 -35.2296 -34.9009 -34.8290
   -20.7963 -20.7909 -20.7812 -20.7734 -20.7609 -20.7346 -20.7268 -20.1006
   -20.0970 -20.0894 -20.0743 -20.0436 -20.0319 -20.0205 -12.4788  -7.8973
    -6.0345  -5.4244  -5.0669  -3.5444  -2.2126  -0.8217   0.0232   1.1272
     2.1071   3.0208   3.2435   4.5485

          k = 0.0789 0.5008 0.0000 ( 16357 PWs)   bands (ev):

   -69.0906 -68.4097 -35.9561 -35.7747 -35.5153 -35.2855 -34.9200 -34.8256
   -20.7966 -20.7913 -20.7822 -20.7720 -20.7595 -20.7382 -20.7225 -20.1049
   -20.0947 -20.0878 -20.0723 -20.0456 -20.0323 -20.0180 -12.3566  -7.8244
    -6.2550  -5.2261  -4.9678  -3.7328  -1.8801  -0.4895   0.4923   1.1033
     2.5710   3.1024   3.8276   4.4294

          k = 0.1577 0.2732 0.0000 ( 16304 PWs)   bands (ev):

   -69.1049 -68.4236 -35.8241 -35.7037 -35.4693 -35.0922 -34.8791 -34.8360
   -20.7980 -20.7883 -20.7801 -20.7747 -20.7639 -20.7352 -20.7271 -20.1050
   -20.0917 -20.0889 -20.0787 -20.0387 -20.0318 -20.0253 -12.7887  -7.8304
    -6.4760  -5.5072  -4.8291  -2.9117  -2.5824  -1.5323  -0.7907   0.7928
     1.5337   2.2448   3.6557   4.7265

          k = 0.1577 0.3642 0.0000 ( 16360 PWs)   bands (ev):

   -69.0967 -68.4156 -35.8415 -35.7665 -35.5325 -35.1812 -34.9331 -34.8282
   -20.7941 -20.7904 -20.7815 -20.7746 -20.7620 -20.7345 -20.7280 -20.0999
   -20.0970 -20.0883 -20.0764 -20.0418 -20.0334 -20.0213 -12.4878  -7.6460
    -6.2724  -5.5219  -5.1629  -2.8395  -2.2691  -1.5746  -0.4566   0.9883
     2.1058   2.6963   4.1650   4.8066

          k = 0.1577 0.4553 0.0000 ( 16370 PWs)   bands (ev):

   -69.0906 -68.4097 -35.9013 -35.7652 -35.5785 -35.2431 -34.9728 -34.8232
   -20.7938 -20.7899 -20.7831 -20.7730 -20.7613 -20.7398 -20.7227 -20.1051
   -20.0927 -20.0871 -20.0745 -20.0440 -20.0346 -20.0184 -12.3065  -7.5014
    -6.3162  -5.5271  -5.1159  -3.0513  -1.8641  -1.1610  -0.0006   0.9678
     2.2301   3.3098   4.2719   4.6240

          k = 0.1577 0.5464 0.0000 ( 16374 PWs)   bands (ev):

   -69.0884 -68.4076 -35.9260 -35.7624 -35.5950 -35.2652 -34.9872 -34.8216
   -20.7941 -20.7893 -20.7838 -20.7718 -20.7613 -20.7416 -20.7207 -20.1071
   -20.0916 -20.0861 -20.0738 -20.0449 -20.0350 -20.0174 -12.2498  -7.4260
    -6.3883  -5.6107  -4.9561  -3.1476  -1.6894  -0.8576   0.1477   1.0234
     2.2216   3.2817   4.2402   4.4830

          k = 0.2366 0.4098 0.0000 ( 16374 PWs)   bands (ev):

   -69.0906 -68.4097 -35.8651 -35.7584 -35.6210 -35.2136 -35.0076 -34.8221
   -20.7919 -20.7893 -20.7836 -20.7738 -20.7621 -20.7406 -20.7227 -20.1052
   -20.0917 -20.0864 -20.0760 -20.0429 -20.0361 -20.0187 -12.2811  -7.2595
    -6.4695  -5.5725  -5.2230  -2.3543  -1.9845  -1.7904  -0.1781   0.9219
     2.0908   3.2794   4.3655   4.8252

          k = 0.2366 0.5008 0.0000 ( 16396 PWs)   bands (ev):

   -69.0871 -68.4063 -35.8667 -35.7508 -35.6851 -35.2247 -35.0595 -34.8189
   -20.7915 -20.7870 -20.7855 -20.7718 -20.7637 -20.7441 -20.7196 -20.1084
   -20.0885 -20.0850 -20.0759 -20.0433 -20.0380 -20.0172 -12.1721  -6.9719
    -6.5407  -5.8779  -5.0294  -2.4195  -1.6149  -1.4164  -0.0832   1.0546
     1.7389   2.9780   4.3099   4.6673

          k = 0.3154 0.5464 0.0000 ( 16386 PWs)   bands (ev):

   -69.0859 -68.4051 -35.7929 -35.7865 -35.7431 -35.1971 -35.1137 -34.8173
   -20.7894 -20.7880 -20.7853 -20.7702 -20.7661 -20.7457 -20.7185 -20.1096
   -20.0863 -20.0844 -20.0769 -20.0416 -20.0406 -20.0168 -12.1209  -6.6779
    -6.5291  -6.1769  -5.0048  -2.0956  -1.4985  -1.4692  -0.1442   1.0985
     1.3815   2.6681   4.2649   4.8984

     the Fermi energy is    -0.5384 ev

!    total energy              =   -1375.62686258 Ry
     estimated scf accuracy    <          6.0E-16 Ry
     smearing contrib. (-TS)   =      -0.00002098 Ry
     internal energy E=F+TS    =   -1375.62684160 Ry

     The total energy is F=E-TS. E is the sum of the following terms:
     one-electron contribution =  -11040.96293857 Ry
     hartree contribution      =    5548.06829580 Ry
     xc contribution           =    -140.20602376 Ry
     ewald contribution        =    4257.47382493 Ry

     convergence has been achieved in  24 iterations

     negative rho (up, down):  7.073E-05 0.000E+00

     Forces acting on atoms (cartesian axes, Ry/au):

     atom    1 type  2   force =     0.00000000    0.00000000   -0.00029859
     atom    2 type  1   force =    -0.00000000   -0.00000000    0.00084053
     atom    3 type  1   force =     0.00000000    0.00000000    0.00003937
     atom    4 type  3   force =     0.00000000    0.00000000   -0.00007265
     atom    5 type  3   force =    -0.00000000   -0.00000000   -0.00050866

     Total force =     0.000986     Total SCF correction =     0.000000


     Computing stress (Cartesian axis) and pressure


     negative rho (up, down):  7.073E-05 0.000E+00
          total   stress  (Ry/bohr**3)                   (kbar)     P=       -0.03
   0.00000192  -0.00000000   0.00000000            0.28       -0.00        0.00
  -0.00000000   0.00000192   0.00000000           -0.00        0.28        0.00
  -0.00000000  -0.00000000  -0.00000452           -0.00       -0.00       -0.67


     Writing output data file /scratch/as3359/Ta2CH2-VCrelax/Ta.save/
 
     init_run     :     54.20s CPU     35.93s WALL (       2 calls)
     electrons    :   7148.26s CPU   3884.90s WALL (      19 calls)
     update_pot   :    467.08s CPU    291.41s WALL (      17 calls)
     forces       :    309.97s CPU    160.00s WALL (      19 calls)
     stress       :    757.87s CPU    393.89s WALL (      19 calls)

     Called by init_run:
     wfcinit      :      5.67s CPU      2.93s WALL (       2 calls)
     potinit      :     15.53s CPU      7.81s WALL (       2 calls)
     hinit0       :     28.70s CPU     22.41s WALL (       2 calls)

     Called by electrons:
     c_bands      :   4057.26s CPU   2061.86s WALL (     551 calls)
     sum_band     :   1815.39s CPU   1045.85s WALL (     551 calls)
     v_of_rho     :    186.61s CPU     96.90s WALL (     570 calls)
     newd         :   1073.40s CPU    675.45s WALL (     570 calls)
     mix_rho      :     34.83s CPU     17.83s WALL (     551 calls)

     Called by c_bands:
     init_us_2    :     82.55s CPU     41.37s WALL (   21698 calls)
     cegterg      :   3794.53s CPU   1929.42s WALL (   10668 calls)

     Called by *egterg:
     cdiaghg      :    135.23s CPU     69.07s WALL (   60627 calls)
     h_psi        :   2934.95s CPU   1494.97s WALL (   61081 calls)
     s_psi        :    131.49s CPU     66.02s WALL (   61081 calls)
     g_psi        :     17.95s CPU      9.05s WALL (   50375 calls)

     Called by h_psi:
     h_psi:calbec :    117.72s CPU     59.22s WALL (   61081 calls)
     vloc_psi     :   2638.11s CPU   1345.24s WALL (   61081 calls)
     add_vuspsi   :    156.80s CPU     78.64s WALL (   61081 calls)

     General routines
     calbec       :    153.10s CPU     77.03s WALL (   73355 calls)
     fft          :    111.31s CPU     56.81s WALL (    7864 calls)
     ffts         :      3.94s CPU      2.01s WALL (    1121 calls)
     fftw         :   2653.28s CPU   1354.29s WALL ( 2566264 calls)
     interpolate  :     11.87s CPU      6.07s WALL (     570 calls)
 
     Parallel routines
 
     PWSCF        :      2h26m CPU      1h19m WALL

 
   This run was terminated on:  22:22:56  21Apr2022            

=------------------------------------------------------------------------------=
   JOB DONE.
=------------------------------------------------------------------------------=
