
     Program PWSCF v.6.8 starts on 17Apr2022 at 14:33:51 

     This program is part of the open-source Quantum ESPRESSO suite
     for quantum simulation of materials; please cite
         "P. Giannozzi et al., J. Phys.:Condens. Matter 21 395502 (2009);
         "P. Giannozzi et al., J. Phys.:Condens. Matter 29 465901 (2017);
         "P. Giannozzi et al., J. Chem. Phys. 152 154105 (2020);
          URL http://www.quantum-espresso.org", 
     in publications or presentations arising from this work. More details at
     http://www.quantum-espresso.org/quote

     Parallel version (MPI & OpenMP), running on       4 processor cores
     Number of MPI processes:                 2
     Threads/MPI process:                     2

     MPI processes distributed on     1 nodes
     R & G space division:  proc/nbgrp/npool/nimage =       2
     125220 MiB available memory on the printing compute node when the environment starts
 
     Reading input from MoS2.scf.6.066.in
Warning: card  &CELL ignored
Warning: card     CELL_DYNAMICS='BFGS' ignored
Warning: card  / ignored

     Current dimensions of program PWSCF are:
     Max number of different atomic species (ntypx) = 10
     Max number of k-points (npk) =  40000
     Max angular momentum in pseudopotentials (lmaxx) =  4
     Message from routine iosys:
     restart disabled: needed files not found
     file Mo.pbesol-spn-kjpaw_psl.1.0.0.UPF: wavefunction(s)  4S 4D renormalized
     file S.pbesol-nl-kjpaw_psl.1.0.0.UPF: wavefunction(s)  3S renormalized

     Subspace diagonalization in iterative solution of the eigenvalue problem:
     a serial algorithm will be used

 
     Parallelization info
     --------------------
     sticks:   dense  smooth     PW     G-vecs:    dense   smooth      PW
     Min         728     728    210               114306   114306   18058
     Max         729     729    211               114307   114307   18081
     Sum        1457    1457    421               228613   228613   36139
 
     Using Slab Decomposition
 


     bravais-lattice index     =            0
     lattice parameter (alat)  =       6.0660  a.u.
     unit-cell volume          =     922.0607 (a.u.)^3
     number of atoms/cell      =            3
     number of atomic types    =            2
     number of electrons       =        26.00
     number of Kohn-Sham states=           13
     kinetic-energy cutoff     =     150.0000  Ry
     charge density cutoff     =     600.0000  Ry
     scf convergence threshold =      1.0E-12
     mixing beta               =       0.7000
     number of iterations used =            8  plain     mixing
     Exchange-correlation= SLA  PW   PSX  PSC
                           (   1   4  10   8   0   0   0)

     celldm(1)=   6.066000  celldm(2)=   0.000000  celldm(3)=   0.000000
     celldm(4)=   0.000000  celldm(5)=   0.000000  celldm(6)=   0.000000

     crystal axes: (cart. coord. in units of alat)
               a(1) = (   0.976384  -0.000017   0.000000 )  
               a(2) = (  -0.487931   0.846187   0.000000 )  
               a(3) = (   0.000000   0.000000   5.000000 )  

     reciprocal axes: (cart. coord. in units 2 pi/alat)
               b(1) = (  1.024198  0.590577  0.000000 )  
               b(2) = (  0.000021  1.181785  0.000000 )  
               b(3) = (  0.000000  0.000000  0.200000 )  


     PseudoPot. # 1 for Mo read from file:
     /shared/home/as3359/pseudo/Mo.pbesol-spn-kjpaw_psl.1.0.0.UPF
     MD5 check sum: de57925cfc675213e43241dcc441eda8
     Pseudo is Projector augmented-wave + core cor, Zval = 14.0
     Generated using &quot;atomic&quot; code by A. Dal Corso  v.6.3
     Shape of augmentation charge: PSQ
     Using radial grid of 1229 points,  6 beta functions with: 
                l(1) =   0
                l(2) =   0
                l(3) =   1
                l(4) =   1
                l(5) =   2
                l(6) =   2
     Q(r) pseudized with 0 coefficients 


     PseudoPot. # 2 for S  read from file:
     /shared/home/as3359/pseudo/S.pbesol-nl-kjpaw_psl.1.0.0.UPF
     MD5 check sum: bf3db50ec3f960682bbc396f1aadd1dd
     Pseudo is Projector augmented-wave + core cor, Zval =  6.0
     Generated using &quot;atomic&quot; code by A. Dal Corso  v.6.3
     Shape of augmentation charge: PSQ
     Using radial grid of 1151 points,  4 beta functions with: 
                l(1) =   0
                l(2) =   0
                l(3) =   1
                l(4) =   1
     Q(r) pseudized with 0 coefficients 


     atomic species   valence    mass     pseudopotential
        Mo            14.00    95.94000     Mo( 1.00)
        S              6.00    32.06500     S ( 1.00)

     No symmetry found



   Cartesian axes

     site n.     atom                  positions (alat units)
         1           Mo  tau(   1) = (   0.0000000   0.0000000   1.6880765  )
         2           S   tau(   2) = (   0.4883508   0.2821722   2.1737857  )
         3           S   tau(   3) = (   0.4883508   0.2821722   1.2023670  )

     number of k points=   113

     Number of k-points >= 100: set verbosity='high' to print them.

     Dense  grid:   228613 G-vectors     FFT dimensions: (  48,  48, 240)

     Estimated max dynamical RAM per process >     755.35 MB

     Estimated total dynamical RAM >       1.48 GB
     Cannot read rho : file not found

     Initial potential from superposition of free atoms

     starting charge   25.99914, renormalised to   26.00000

     negative rho (up, down):  8.911E-05 0.000E+00
     Message from routine qexsd_readschema :
     xml data file /scratch/as3359/Mos2_ct_lat/MoS2.save/data-file-schema.xml not fou
     Cannot read wfcs: file not found
     Starting wfcs are   18 randomized atomic wfcs
     Checking if some PAW data can be deallocated... 

     total cpu time spent up to now is       10.0 secs

     Self-consistent Calculation

     iteration #  1     ecut=   150.00 Ry     beta= 0.70
     Davidson diagonalization with overlap
     ethr =  1.00E-05,  avg # of iterations = 10.4

     negative rho (up, down):  1.210E-04 0.000E+00

     total cpu time spent up to now is       39.8 secs

     total energy              =    -489.68814136 Ry
     estimated scf accuracy    <       0.15255486 Ry

     iteration #  2     ecut=   150.00 Ry     beta= 0.70
     Davidson diagonalization with overlap
     ethr =  5.87E-04,  avg # of iterations =  5.0

     negative rho (up, down):  1.106E-04 0.000E+00

     total cpu time spent up to now is       55.2 secs

     total energy              =    -489.64487421 Ry
     estimated scf accuracy    <       0.57796633 Ry

     iteration #  3     ecut=   150.00 Ry     beta= 0.70
     Davidson diagonalization with overlap
     ethr =  5.87E-04,  avg # of iterations =  5.2

     negative rho (up, down):  1.116E-04 0.000E+00

     total cpu time spent up to now is       70.2 secs

     total energy              =    -489.75222305 Ry
     estimated scf accuracy    <       0.04220635 Ry

     iteration #  4     ecut=   150.00 Ry     beta= 0.70
     Davidson diagonalization with overlap
     ethr =  1.62E-04,  avg # of iterations =  2.3

     negative rho (up, down):  1.172E-04 0.000E+00

     total cpu time spent up to now is       81.1 secs

     total energy              =    -489.75472752 Ry
     estimated scf accuracy    <       0.00565794 Ry

     iteration #  5     ecut=   150.00 Ry     beta= 0.70
     Davidson diagonalization with overlap
     ethr =  2.18E-05,  avg # of iterations =  5.1

     negative rho (up, down):  1.183E-04 0.000E+00

     total cpu time spent up to now is       96.6 secs

     total energy              =    -489.75775669 Ry
     estimated scf accuracy    <       0.00804555 Ry

     iteration #  6     ecut=   150.00 Ry     beta= 0.70
     Davidson diagonalization with overlap
     ethr =  2.18E-05,  avg # of iterations =  1.8

     negative rho (up, down):  1.196E-04 0.000E+00

     total cpu time spent up to now is      106.4 secs

     total energy              =    -489.75694458 Ry
     estimated scf accuracy    <       0.00306065 Ry

     iteration #  7     ecut=   150.00 Ry     beta= 0.70
     Davidson diagonalization with overlap
     ethr =  1.18E-05,  avg # of iterations =  4.4

     negative rho (up, down):  1.204E-04 0.000E+00

     total cpu time spent up to now is      119.9 secs

     total energy              =    -489.75821008 Ry
     estimated scf accuracy    <       0.00062335 Ry

     iteration #  8     ecut=   150.00 Ry     beta= 0.70
     Davidson diagonalization with overlap
     ethr =  2.40E-06,  avg # of iterations =  4.4

     negative rho (up, down):  1.204E-04 0.000E+00

     total cpu time spent up to now is      133.2 secs

     total energy              =    -489.75789000 Ry
     estimated scf accuracy    <       0.00264963 Ry

     iteration #  9     ecut=   150.00 Ry     beta= 0.70
     Davidson diagonalization with overlap
     ethr =  2.40E-06,  avg # of iterations =  2.7

     negative rho (up, down):  1.208E-04 0.000E+00

     total cpu time spent up to now is      144.4 secs

     total energy              =    -489.75774630 Ry
     estimated scf accuracy    <       0.00092797 Ry

     iteration # 10     ecut=   150.00 Ry     beta= 0.70
     Davidson diagonalization with overlap
     ethr =  2.40E-06,  avg # of iterations =  4.0

     negative rho (up, down):  1.208E-04 0.000E+00

     total cpu time spent up to now is      157.2 secs

     total energy              =    -489.75790628 Ry
     estimated scf accuracy    <       0.00000246 Ry

     iteration # 11     ecut=   150.00 Ry     beta= 0.70
     Davidson diagonalization with overlap
     ethr =  9.46E-09,  avg # of iterations =  8.6

     negative rho (up, down):  1.209E-04 0.000E+00

     total cpu time spent up to now is      181.7 secs

     total energy              =    -489.75792272 Ry
     estimated scf accuracy    <       0.00004436 Ry

     iteration # 12     ecut=   150.00 Ry     beta= 0.70
     Davidson diagonalization with overlap
     ethr =  9.46E-09,  avg # of iterations =  1.0

     negative rho (up, down):  1.209E-04 0.000E+00

     total cpu time spent up to now is      190.9 secs

     total energy              =    -489.75790999 Ry
     estimated scf accuracy    <       0.00003970 Ry

     iteration # 13     ecut=   150.00 Ry     beta= 0.70
     Davidson diagonalization with overlap
     ethr =  9.46E-09,  avg # of iterations =  6.1

     negative rho (up, down):  1.210E-04 0.000E+00

     total cpu time spent up to now is      209.3 secs

     total energy              =    -489.75791794 Ry
     estimated scf accuracy    <       0.00000191 Ry

     iteration # 14     ecut=   150.00 Ry     beta= 0.70
     Davidson diagonalization with overlap
     ethr =  7.35E-09,  avg # of iterations =  1.2

     negative rho (up, down):  1.210E-04 0.000E+00

     total cpu time spent up to now is      218.7 secs

     total energy              =    -489.75791723 Ry
     estimated scf accuracy    <       0.00000279 Ry

     iteration # 15     ecut=   150.00 Ry     beta= 0.70
     Davidson diagonalization with overlap
     ethr =  7.35E-09,  avg # of iterations =  2.0

     negative rho (up, down):  1.210E-04 0.000E+00

     total cpu time spent up to now is      229.2 secs

     total energy              =    -489.75791726 Ry
     estimated scf accuracy    <       0.00000075 Ry

     iteration # 16     ecut=   150.00 Ry     beta= 0.70
     Davidson diagonalization with overlap
     ethr =  2.89E-09,  avg # of iterations =  3.6

     negative rho (up, down):  1.210E-04 0.000E+00

     total cpu time spent up to now is      241.1 secs

     total energy              =    -489.75791737 Ry
     estimated scf accuracy    <       0.00000002 Ry

     iteration # 17     ecut=   150.00 Ry     beta= 0.70
     Davidson diagonalization with overlap
     ethr =  8.78E-11,  avg # of iterations =  6.8

     negative rho (up, down):  1.210E-04 0.000E+00

     total cpu time spent up to now is      261.0 secs

     total energy              =    -489.75791737 Ry
     estimated scf accuracy    <       0.00000022 Ry

     iteration # 18     ecut=   150.00 Ry     beta= 0.70
     Davidson diagonalization with overlap
     ethr =  8.78E-11,  avg # of iterations =  5.7

     negative rho (up, down):  1.210E-04 0.000E+00

     total cpu time spent up to now is      278.7 secs

     total energy              =    -489.75791742 Ry
     estimated scf accuracy    <       0.00000001 Ry

     iteration # 19     ecut=   150.00 Ry     beta= 0.70
     Davidson diagonalization with overlap
     ethr =  5.04E-11,  avg # of iterations =  3.1

     negative rho (up, down):  1.210E-04 0.000E+00

     total cpu time spent up to now is      290.1 secs

     total energy              =    -489.75791741 Ry
     estimated scf accuracy    <       0.00000004 Ry

     iteration # 20     ecut=   150.00 Ry     beta= 0.70
     Davidson diagonalization with overlap
     ethr =  5.04E-11,  avg # of iterations =  1.3

     negative rho (up, down):  1.210E-04 0.000E+00

     total cpu time spent up to now is      299.5 secs

     total energy              =    -489.75791741 Ry
     estimated scf accuracy    <       0.00000003 Ry

     iteration # 21     ecut=   150.00 Ry     beta= 0.70
     Davidson diagonalization with overlap
     ethr =  5.04E-11,  avg # of iterations =  2.3

     negative rho (up, down):  1.210E-04 0.000E+00

     total cpu time spent up to now is      309.7 secs

     total energy              =    -489.75791741 Ry
     estimated scf accuracy    <       0.00000001 Ry

     iteration # 22     ecut=   150.00 Ry     beta= 0.70
     Davidson diagonalization with overlap
     ethr =  4.30E-11,  avg # of iterations =  1.0

     negative rho (up, down):  1.210E-04 0.000E+00

     total cpu time spent up to now is      318.9 secs

     total energy              =    -489.75791741 Ry
     estimated scf accuracy    <       0.00000001 Ry

     iteration # 23     ecut=   150.00 Ry     beta= 0.70
     Davidson diagonalization with overlap
     ethr =  4.30E-11,  avg # of iterations =  1.0

     negative rho (up, down):  1.210E-04 0.000E+00

     total cpu time spent up to now is      328.2 secs

     total energy              =    -489.75791741 Ry
     estimated scf accuracy    <       0.00000001 Ry

     iteration # 24     ecut=   150.00 Ry     beta= 0.70
     Davidson diagonalization with overlap
     ethr =  4.21E-11,  avg # of iterations =  1.1

     negative rho (up, down):  1.210E-04 0.000E+00

     total cpu time spent up to now is      337.6 secs

     total energy              =    -489.75791741 Ry
     estimated scf accuracy    <          5.5E-09 Ry

     iteration # 25     ecut=   150.00 Ry     beta= 0.70
     Davidson diagonalization with overlap
     ethr =  2.13E-11,  avg # of iterations =  5.8

     negative rho (up, down):  1.210E-04 0.000E+00

     total cpu time spent up to now is      354.2 secs

     total energy              =    -489.75791741 Ry
     estimated scf accuracy    <       0.00000002 Ry

     iteration # 26     ecut=   150.00 Ry     beta= 0.70
     Davidson diagonalization with overlap
     ethr =  2.13E-11,  avg # of iterations =  4.1

     negative rho (up, down):  1.210E-04 0.000E+00

     total cpu time spent up to now is      367.0 secs

     total energy              =    -489.75791741 Ry
     estimated scf accuracy    <          1.1E-09 Ry

     iteration # 27     ecut=   150.00 Ry     beta= 0.70
     Davidson diagonalization with overlap
     ethr =  4.28E-12,  avg # of iterations =  4.5

     negative rho (up, down):  1.210E-04 0.000E+00

     total cpu time spent up to now is      381.2 secs

     total energy              =    -489.75791741 Ry
     estimated scf accuracy    <          1.1E-10 Ry

     iteration # 28     ecut=   150.00 Ry     beta= 0.70
     Davidson diagonalization with overlap
     ethr =  4.39E-13,  avg # of iterations =  3.1

     negative rho (up, down):  1.210E-04 0.000E+00

     total cpu time spent up to now is      393.1 secs

     total energy              =    -489.75791741 Ry
     estimated scf accuracy    <          1.0E-11 Ry

     iteration # 29     ecut=   150.00 Ry     beta= 0.70
     Davidson diagonalization with overlap
     ethr =  1.00E-13,  avg # of iterations =  7.3

     negative rho (up, down):  1.210E-04 0.000E+00

     total cpu time spent up to now is      414.3 secs

     total energy              =    -489.75791741 Ry
     estimated scf accuracy    <          1.1E-09 Ry

     iteration # 30     ecut=   150.00 Ry     beta= 0.70
     Davidson diagonalization with overlap
     ethr =  1.00E-13,  avg # of iterations =  6.4

     negative rho (up, down):  1.210E-04 0.000E+00

     total cpu time spent up to now is      433.0 secs

     total energy              =    -489.75791741 Ry
     estimated scf accuracy    <          6.2E-11 Ry

     iteration # 31     ecut=   150.00 Ry     beta= 0.70
     Davidson diagonalization with overlap
     ethr =  1.00E-13,  avg # of iterations =  1.0

     negative rho (up, down):  1.210E-04 0.000E+00

     total cpu time spent up to now is      442.3 secs

     total energy              =    -489.75791741 Ry
     estimated scf accuracy    <          7.5E-11 Ry

     iteration # 32     ecut=   150.00 Ry     beta= 0.70
     Davidson diagonalization with overlap
     ethr =  1.00E-13,  avg # of iterations =  1.4

     negative rho (up, down):  1.210E-04 0.000E+00

     total cpu time spent up to now is      451.8 secs

     total energy              =    -489.75791741 Ry
     estimated scf accuracy    <          4.6E-11 Ry

     iteration # 33     ecut=   150.00 Ry     beta= 0.70
     Davidson diagonalization with overlap
     ethr =  1.00E-13,  avg # of iterations =  5.5

     negative rho (up, down):  1.210E-04 0.000E+00

     total cpu time spent up to now is      466.9 secs

     total energy              =    -489.75791741 Ry
     estimated scf accuracy    <          4.3E-11 Ry

     iteration # 34     ecut=   150.00 Ry     beta= 0.70
     Davidson diagonalization with overlap
     ethr =  1.00E-13,  avg # of iterations =  1.0

     negative rho (up, down):  1.210E-04 0.000E+00

     total cpu time spent up to now is      476.2 secs

     total energy              =    -489.75791741 Ry
     estimated scf accuracy    <          3.5E-11 Ry

     iteration # 35     ecut=   150.00 Ry     beta= 0.70
     Davidson diagonalization with overlap
     ethr =  1.00E-13,  avg # of iterations =  2.5

     negative rho (up, down):  1.210E-04 0.000E+00

     total cpu time spent up to now is      487.0 secs

     total energy              =    -489.75791741 Ry
     estimated scf accuracy    <          4.6E-12 Ry

     iteration # 36     ecut=   150.00 Ry     beta= 0.70
     Davidson diagonalization with overlap
     ethr =  1.00E-13,  avg # of iterations =  3.8

     negative rho (up, down):  1.210E-04 0.000E+00

     total cpu time spent up to now is      499.3 secs

     total energy              =    -489.75791741 Ry
     estimated scf accuracy    <          7.3E-12 Ry

     iteration # 37     ecut=   150.00 Ry     beta= 0.70
     Davidson diagonalization with overlap
     ethr =  1.00E-13,  avg # of iterations =  1.2

     negative rho (up, down):  1.210E-04 0.000E+00

     total cpu time spent up to now is      508.6 secs

     total energy              =    -489.75791741 Ry
     estimated scf accuracy    <          2.0E-12 Ry

     iteration # 38     ecut=   150.00 Ry     beta= 0.70
     Davidson diagonalization with overlap
     ethr =  1.00E-13,  avg # of iterations =  1.4

     negative rho (up, down):  1.210E-04 0.000E+00

     total cpu time spent up to now is      518.1 secs

     End of self-consistent calculation

     Number of k-points >= 100: set verbosity='high' to print the bands.

     highest occupied level (ev):     0.3930

!    total energy              =    -489.75791741 Ry

     total all-electron energy =     -9688.215763 Ry
     estimated scf accuracy    <          9.6E-14 Ry

     The total energy is the sum of the following terms:
     one-electron contribution =    -814.43324192 Ry
     hartree contribution      =     411.05629620 Ry
     xc contribution           =     -29.53226152 Ry
     ewald contribution        =     256.04141746 Ry
     one-center paw contrib.   =    -312.89012763 Ry

     convergence has been achieved in  38 iterations

     negative rho (up, down):  1.210E-04 0.000E+00

     Forces acting on atoms (cartesian axes, Ry/au):

     atom    1 type  1   force =     0.00027181    0.00012707   -0.00000045
     atom    2 type  2   force =    -0.00013590   -0.00006354    0.00167226
     atom    3 type  2   force =    -0.00013591   -0.00006353   -0.00167181

     Total force =     0.002393     Total SCF correction =     0.000001


     Computing stress (Cartesian axis) and pressure


     negative rho (up, down):  1.210E-04 0.000E+00
          total   stress  (Ry/bohr**3)                   (kbar)     P=        2.42
   0.00002119  -0.00000086   0.00000000            3.12       -0.13        0.00
  -0.00000086   0.00001802  -0.00000000           -0.13        2.65       -0.00
   0.00000000  -0.00000000   0.00001019            0.00       -0.00        1.50


     Writing output data file /scratch/as3359/Mos2_ct_lat/MoS2.save/
 
     init_run     :     17.56s CPU      9.82s WALL (       1 calls)
     electrons    :    997.08s CPU    508.14s WALL (       1 calls)
     forces       :      5.05s CPU      2.56s WALL (       1 calls)
     stress       :     16.09s CPU      8.17s WALL (       1 calls)

     Called by init_run:
     wfcinit      :     11.13s CPU      5.72s WALL (       1 calls)
     potinit      :      2.11s CPU      1.19s WALL (       1 calls)
     hinit0       :      3.64s CPU      2.54s WALL (       1 calls)

     Called by electrons:
     c_bands      :    831.37s CPU    421.62s WALL (      38 calls)
     sum_band     :    142.14s CPU     73.12s WALL (      38 calls)
     v_of_rho     :      5.30s CPU      2.89s WALL (      39 calls)
     newd         :      9.15s CPU      5.61s WALL (      39 calls)
     PAW_pot      :      7.39s CPU      3.84s WALL (      39 calls)
     mix_rho      :      2.02s CPU      1.20s WALL (      38 calls)

     Called by c_bands:
     init_us_2    :     29.22s CPU     14.65s WALL (    8927 calls)
     cegterg      :    779.72s CPU    395.55s WALL (    4294 calls)

     Called by *egterg:
     cdiaghg      :      7.32s CPU      3.72s WALL (   20012 calls)
     h_psi        :    670.76s CPU    340.72s WALL (   20125 calls)
     s_psi        :     16.98s CPU      8.56s WALL (   20125 calls)
     g_psi        :      5.40s CPU      2.72s WALL (   15718 calls)

     Called by h_psi:
     h_psi:calbec :     23.46s CPU     11.82s WALL (   20125 calls)
     vloc_psi     :    623.25s CPU    316.79s WALL (   20125 calls)
     add_vuspsi   :     18.22s CPU      9.16s WALL (   20125 calls)

     General routines
     calbec       :     30.40s CPU     15.32s WALL (   24984 calls)
     fft          :      2.66s CPU      1.51s WALL (     454 calls)
     ffts         :      0.13s CPU      0.07s WALL (      38 calls)
     fftw         :    606.21s CPU    308.48s WALL (  403380 calls)
 
     Parallel routines
 
     PWSCF        :  17m19.01s CPU   8m51.77s WALL

 
   This run was terminated on:  14:42:43  17Apr2022            

=------------------------------------------------------------------------------=
   JOB DONE.
=------------------------------------------------------------------------------=
