
     Program PWSCF v.6.8 starts on 17Apr2022 at 14:59:38 

     This program is part of the open-source Quantum ESPRESSO suite
     for quantum simulation of materials; please cite
         "P. Giannozzi et al., J. Phys.:Condens. Matter 21 395502 (2009);
         "P. Giannozzi et al., J. Phys.:Condens. Matter 29 465901 (2017);
         "P. Giannozzi et al., J. Chem. Phys. 152 154105 (2020);
          URL http://www.quantum-espresso.org", 
     in publications or presentations arising from this work. More details at
     http://www.quantum-espresso.org/quote

     Parallel version (MPI & OpenMP), running on       4 processor cores
     Number of MPI processes:                 2
     Threads/MPI process:                     2

     MPI processes distributed on     1 nodes
     R & G space division:  proc/nbgrp/npool/nimage =       2
     125030 MiB available memory on the printing compute node when the environment starts
 
     Reading input from MoS2.scf.6.072.in
Warning: card  &CELL ignored
Warning: card     CELL_DYNAMICS='BFGS' ignored
Warning: card  / ignored

     Current dimensions of program PWSCF are:
     Max number of different atomic species (ntypx) = 10
     Max number of k-points (npk) =  40000
     Max angular momentum in pseudopotentials (lmaxx) =  4
     Message from routine iosys:
     restart disabled: needed files not found
     file Mo.pbesol-spn-kjpaw_psl.1.0.0.UPF: wavefunction(s)  4S 4D renormalized
     file S.pbesol-nl-kjpaw_psl.1.0.0.UPF: wavefunction(s)  3S renormalized

     Subspace diagonalization in iterative solution of the eigenvalue problem:
     a serial algorithm will be used

 
     Parallelization info
     --------------------
     sticks:   dense  smooth     PW     G-vecs:    dense   smooth      PW
     Min         729     729    213               114719   114719   18124
     Max         730     730    218               114728   114728   18125
     Sum        1459    1459    431               229447   229447   36249
 
     Using Slab Decomposition
 


     bravais-lattice index     =            0
     lattice parameter (alat)  =       6.0720  a.u.
     unit-cell volume          =     924.7995 (a.u.)^3
     number of atoms/cell      =            3
     number of atomic types    =            2
     number of electrons       =        26.00
     number of Kohn-Sham states=           13
     kinetic-energy cutoff     =     150.0000  Ry
     charge density cutoff     =     600.0000  Ry
     scf convergence threshold =      1.0E-12
     mixing beta               =       0.7000
     number of iterations used =            8  plain     mixing
     Exchange-correlation= SLA  PW   PSX  PSC
                           (   1   4  10   8   0   0   0)

     celldm(1)=   6.072000  celldm(2)=   0.000000  celldm(3)=   0.000000
     celldm(4)=   0.000000  celldm(5)=   0.000000  celldm(6)=   0.000000

     crystal axes: (cart. coord. in units of alat)
               a(1) = (   0.976384  -0.000017   0.000000 )  
               a(2) = (  -0.487931   0.846187   0.000000 )  
               a(3) = (   0.000000   0.000000   5.000000 )  

     reciprocal axes: (cart. coord. in units 2 pi/alat)
               b(1) = (  1.024198  0.590577  0.000000 )  
               b(2) = (  0.000021  1.181785  0.000000 )  
               b(3) = (  0.000000  0.000000  0.200000 )  


     PseudoPot. # 1 for Mo read from file:
     /shared/home/as3359/pseudo/Mo.pbesol-spn-kjpaw_psl.1.0.0.UPF
     MD5 check sum: de57925cfc675213e43241dcc441eda8
     Pseudo is Projector augmented-wave + core cor, Zval = 14.0
     Generated using &quot;atomic&quot; code by A. Dal Corso  v.6.3
     Shape of augmentation charge: PSQ
     Using radial grid of 1229 points,  6 beta functions with: 
                l(1) =   0
                l(2) =   0
                l(3) =   1
                l(4) =   1
                l(5) =   2
                l(6) =   2
     Q(r) pseudized with 0 coefficients 


     PseudoPot. # 2 for S  read from file:
     /shared/home/as3359/pseudo/S.pbesol-nl-kjpaw_psl.1.0.0.UPF
     MD5 check sum: bf3db50ec3f960682bbc396f1aadd1dd
     Pseudo is Projector augmented-wave + core cor, Zval =  6.0
     Generated using &quot;atomic&quot; code by A. Dal Corso  v.6.3
     Shape of augmentation charge: PSQ
     Using radial grid of 1151 points,  4 beta functions with: 
                l(1) =   0
                l(2) =   0
                l(3) =   1
                l(4) =   1
     Q(r) pseudized with 0 coefficients 


     atomic species   valence    mass     pseudopotential
        Mo            14.00    95.94000     Mo( 1.00)
        S              6.00    32.06500     S ( 1.00)

     No symmetry found



   Cartesian axes

     site n.     atom                  positions (alat units)
         1           Mo  tau(   1) = (   0.0000000   0.0000000   1.6880765  )
         2           S   tau(   2) = (   0.4883508   0.2821722   2.1737857  )
         3           S   tau(   3) = (   0.4883508   0.2821722   1.2023670  )

     number of k points=   113

     Number of k-points >= 100: set verbosity='high' to print them.

     Dense  grid:   229447 G-vectors     FFT dimensions: (  48,  48, 240)

     Estimated max dynamical RAM per process >     757.83 MB

     Estimated total dynamical RAM >       1.48 GB
     Cannot read rho : file not found

     Initial potential from superposition of free atoms

     starting charge   25.99914, renormalised to   26.00000

     negative rho (up, down):  8.839E-05 0.000E+00
     Message from routine qexsd_readschema :
     xml data file /scratch/as3359/Mos2_ct_lat/MoS2.save/data-file-schema.xml not fou
     Cannot read wfcs: file not found
     Starting wfcs are   18 randomized atomic wfcs
     Checking if some PAW data can be deallocated... 

     total cpu time spent up to now is       10.3 secs

     Self-consistent Calculation

     iteration #  1     ecut=   150.00 Ry     beta= 0.70
     Davidson diagonalization with overlap
     ethr =  1.00E-05,  avg # of iterations = 10.3

     negative rho (up, down):  1.201E-04 0.000E+00

     total cpu time spent up to now is       40.5 secs

     total energy              =    -489.68920126 Ry
     estimated scf accuracy    <       0.15091254 Ry

     iteration #  2     ecut=   150.00 Ry     beta= 0.70
     Davidson diagonalization with overlap
     ethr =  5.80E-04,  avg # of iterations =  5.0

     negative rho (up, down):  1.100E-04 0.000E+00

     total cpu time spent up to now is       56.1 secs

     total energy              =    -489.64805763 Ry
     estimated scf accuracy    <       0.55880634 Ry

     iteration #  3     ecut=   150.00 Ry     beta= 0.70
     Davidson diagonalization with overlap
     ethr =  5.80E-04,  avg # of iterations =  5.1

     negative rho (up, down):  1.111E-04 0.000E+00

     total cpu time spent up to now is       71.1 secs

     total energy              =    -489.75217000 Ry
     estimated scf accuracy    <       0.04274989 Ry

     iteration #  4     ecut=   150.00 Ry     beta= 0.70
     Davidson diagonalization with overlap
     ethr =  1.64E-04,  avg # of iterations =  2.3

     negative rho (up, down):  1.167E-04 0.000E+00

     total cpu time spent up to now is       82.1 secs

     total energy              =    -489.75476554 Ry
     estimated scf accuracy    <       0.00558513 Ry

     iteration #  5     ecut=   150.00 Ry     beta= 0.70
     Davidson diagonalization with overlap
     ethr =  2.15E-05,  avg # of iterations =  5.2

     negative rho (up, down):  1.178E-04 0.000E+00

     total cpu time spent up to now is       97.9 secs

     total energy              =    -489.75774343 Ry
     estimated scf accuracy    <       0.00848223 Ry

     iteration #  6     ecut=   150.00 Ry     beta= 0.70
     Davidson diagonalization with overlap
     ethr =  2.15E-05,  avg # of iterations =  1.9

     negative rho (up, down):  1.196E-04 0.000E+00

     total cpu time spent up to now is      107.9 secs

     total energy              =    -489.75652631 Ry
     estimated scf accuracy    <       0.00307690 Ry

     iteration #  7     ecut=   150.00 Ry     beta= 0.70
     Davidson diagonalization with overlap
     ethr =  1.18E-05,  avg # of iterations =  5.1

     negative rho (up, down):  1.196E-04 0.000E+00

     total cpu time spent up to now is      122.4 secs

     total energy              =    -489.75819850 Ry
     estimated scf accuracy    <       0.00333802 Ry

     iteration #  8     ecut=   150.00 Ry     beta= 0.70
     Davidson diagonalization with overlap
     ethr =  1.18E-05,  avg # of iterations =  1.0

     negative rho (up, down):  1.198E-04 0.000E+00

     total cpu time spent up to now is      131.9 secs

     total energy              =    -489.75778820 Ry
     estimated scf accuracy    <       0.00237905 Ry

     iteration #  9     ecut=   150.00 Ry     beta= 0.70
     Davidson diagonalization with overlap
     ethr =  9.15E-06,  avg # of iterations =  2.4

     negative rho (up, down):  1.200E-04 0.000E+00

     total cpu time spent up to now is      142.3 secs

     total energy              =    -489.75783648 Ry
     estimated scf accuracy    <       0.00052384 Ry

     iteration # 10     ecut=   150.00 Ry     beta= 0.70
     Davidson diagonalization with overlap
     ethr =  2.01E-06,  avg # of iterations =  3.6

     negative rho (up, down):  1.202E-04 0.000E+00

     total cpu time spent up to now is      154.5 secs

     total energy              =    -489.75792412 Ry
     estimated scf accuracy    <       0.00002106 Ry

     iteration # 11     ecut=   150.00 Ry     beta= 0.70
     Davidson diagonalization with overlap
     ethr =  8.10E-08,  avg # of iterations =  6.1

     negative rho (up, down):  1.203E-04 0.000E+00

     total cpu time spent up to now is      172.3 secs

     total energy              =    -489.75795299 Ry
     estimated scf accuracy    <       0.00005992 Ry

     iteration # 12     ecut=   150.00 Ry     beta= 0.70
     Davidson diagonalization with overlap
     ethr =  8.10E-08,  avg # of iterations =  1.0

     negative rho (up, down):  1.203E-04 0.000E+00

     total cpu time spent up to now is      181.7 secs

     total energy              =    -489.75793891 Ry
     estimated scf accuracy    <       0.00004737 Ry

     iteration # 13     ecut=   150.00 Ry     beta= 0.70
     Davidson diagonalization with overlap
     ethr =  8.10E-08,  avg # of iterations =  3.6

     negative rho (up, down):  1.203E-04 0.000E+00

     total cpu time spent up to now is      194.4 secs

     total energy              =    -489.75794686 Ry
     estimated scf accuracy    <       0.00000002 Ry

     iteration # 14     ecut=   150.00 Ry     beta= 0.70
     Davidson diagonalization with overlap
     ethr =  7.27E-11,  avg # of iterations = 11.9

     negative rho (up, down):  1.204E-04 0.000E+00

     total cpu time spent up to now is      226.1 secs

     total energy              =    -489.75794742 Ry
     estimated scf accuracy    <       0.00000146 Ry

     iteration # 15     ecut=   150.00 Ry     beta= 0.70
     Davidson diagonalization with overlap
     ethr =  7.27E-11,  avg # of iterations =  2.9

     negative rho (up, down):  1.204E-04 0.000E+00

     total cpu time spent up to now is      238.1 secs

     total energy              =    -489.75794723 Ry
     estimated scf accuracy    <       0.00000172 Ry

     iteration # 16     ecut=   150.00 Ry     beta= 0.70
     Davidson diagonalization with overlap
     ethr =  7.27E-11,  avg # of iterations =  5.5

     negative rho (up, down):  1.204E-04 0.000E+00

     total cpu time spent up to now is      255.7 secs

     total energy              =    -489.75794704 Ry
     estimated scf accuracy    <       0.00000070 Ry

     iteration # 17     ecut=   150.00 Ry     beta= 0.70
     Davidson diagonalization with overlap
     ethr =  7.27E-11,  avg # of iterations =  8.0

     negative rho (up, down):  1.204E-04 0.000E+00

     total cpu time spent up to now is      277.2 secs

     total energy              =    -489.75794716 Ry
     estimated scf accuracy    <       0.00000003 Ry

     iteration # 18     ecut=   150.00 Ry     beta= 0.70
     Davidson diagonalization with overlap
     ethr =  7.27E-11,  avg # of iterations =  1.9

     negative rho (up, down):  1.204E-04 0.000E+00

     total cpu time spent up to now is      287.3 secs

     total energy              =    -489.75794716 Ry
     estimated scf accuracy    <       0.00000001 Ry

     iteration # 19     ecut=   150.00 Ry     beta= 0.70
     Davidson diagonalization with overlap
     ethr =  4.37E-11,  avg # of iterations =  3.1

     negative rho (up, down):  1.204E-04 0.000E+00

     total cpu time spent up to now is      298.6 secs

     total energy              =    -489.75794716 Ry
     estimated scf accuracy    <          1.4E-09 Ry

     iteration # 20     ecut=   150.00 Ry     beta= 0.70
     Davidson diagonalization with overlap
     ethr =  5.39E-12,  avg # of iterations =  5.2

     negative rho (up, down):  1.204E-04 0.000E+00

     total cpu time spent up to now is      314.0 secs

     total energy              =    -489.75794716 Ry
     estimated scf accuracy    <          5.9E-10 Ry

     iteration # 21     ecut=   150.00 Ry     beta= 0.70
     Davidson diagonalization with overlap
     ethr =  2.26E-12,  avg # of iterations =  2.1

     negative rho (up, down):  1.204E-04 0.000E+00

     total cpu time spent up to now is      324.4 secs

     total energy              =    -489.75794716 Ry
     estimated scf accuracy    <          1.2E-10 Ry

     iteration # 22     ecut=   150.00 Ry     beta= 0.70
     Davidson diagonalization with overlap
     ethr =  4.63E-13,  avg # of iterations =  3.9

     negative rho (up, down):  1.204E-04 0.000E+00

     total cpu time spent up to now is      336.5 secs

     total energy              =    -489.75794716 Ry
     estimated scf accuracy    <          8.0E-12 Ry

     iteration # 23     ecut=   150.00 Ry     beta= 0.70
     Davidson diagonalization with overlap
     ethr =  1.00E-13,  avg # of iterations =  4.7

     negative rho (up, down):  1.204E-04 0.000E+00

     total cpu time spent up to now is      351.2 secs

     total energy              =    -489.75794716 Ry
     estimated scf accuracy    <          2.4E-11 Ry

     iteration # 24     ecut=   150.00 Ry     beta= 0.70
     Davidson diagonalization with overlap
     ethr =  1.00E-13,  avg # of iterations =  2.2

     negative rho (up, down):  1.204E-04 0.000E+00

     total cpu time spent up to now is      362.0 secs

     total energy              =    -489.75794716 Ry
     estimated scf accuracy    <          2.2E-12 Ry

     iteration # 25     ecut=   150.00 Ry     beta= 0.70
     Davidson diagonalization with overlap
     ethr =  1.00E-13,  avg # of iterations =  1.0

     negative rho (up, down):  1.204E-04 0.000E+00

     total cpu time spent up to now is      371.5 secs

     total energy              =    -489.75794716 Ry
     estimated scf accuracy    <          1.2E-12 Ry

     iteration # 26     ecut=   150.00 Ry     beta= 0.70
     Davidson diagonalization with overlap
     ethr =  1.00E-13,  avg # of iterations =  1.0

     negative rho (up, down):  1.204E-04 0.000E+00

     total cpu time spent up to now is      380.8 secs

     End of self-consistent calculation

     Number of k-points >= 100: set verbosity='high' to print the bands.

     highest occupied level (ev):     0.3755

!    total energy              =    -489.75794716 Ry

     total all-electron energy =     -9688.215792 Ry
     estimated scf accuracy    <          5.4E-13 Ry

     The total energy is the sum of the following terms:
     one-electron contribution =    -813.90621951 Ry
     hartree contribution      =     410.77406536 Ry
     xc contribution           =     -29.52473822 Ry
     ewald contribution        =     255.78841210 Ry
     one-center paw contrib.   =    -312.88946690 Ry

     convergence has been achieved in  26 iterations

     negative rho (up, down):  1.204E-04 0.000E+00

     Forces acting on atoms (cartesian axes, Ry/au):

     atom    1 type  1   force =     0.00026869    0.00012889   -0.00000098
     atom    2 type  2   force =    -0.00013434   -0.00006446   -0.00032719
     atom    3 type  2   force =    -0.00013435   -0.00006443    0.00032817

     Total force =     0.000590     Total SCF correction =     0.000002


     Computing stress (Cartesian axis) and pressure


     negative rho (up, down):  1.204E-04 0.000E+00
          total   stress  (Ry/bohr**3)                   (kbar)     P=        0.63
   0.00000929  -0.00000085   0.00000000            1.37       -0.13        0.00
  -0.00000085   0.00000614  -0.00000000           -0.13        0.90       -0.00
   0.00000000  -0.00000000  -0.00000258            0.00       -0.00       -0.38


     Writing output data file /scratch/as3359/Mos2_ct_lat/MoS2.save/
 
     init_run     :     18.18s CPU     10.10s WALL (       1 calls)
     electrons    :    727.11s CPU    370.62s WALL (       1 calls)
     forces       :      4.97s CPU      2.53s WALL (       1 calls)
     stress       :     16.21s CPU      8.23s WALL (       1 calls)

     Called by init_run:
     wfcinit      :     11.65s CPU      5.97s WALL (       1 calls)
     potinit      :      2.11s CPU      1.19s WALL (       1 calls)
     hinit0       :      3.64s CPU      2.52s WALL (       1 calls)

     Called by electrons:
     c_bands      :    611.69s CPU    310.33s WALL (      26 calls)
     sum_band     :     99.26s CPU     51.08s WALL (      26 calls)
     v_of_rho     :      3.69s CPU      2.02s WALL (      27 calls)
     newd         :      6.44s CPU      3.94s WALL (      27 calls)
     PAW_pot      :      5.19s CPU      2.70s WALL (      27 calls)
     mix_rho      :      1.32s CPU      0.80s WALL (      26 calls)

     Called by c_bands:
     init_us_2    :     20.36s CPU     10.21s WALL (    6215 calls)
     cegterg      :    575.84s CPU    292.22s WALL (    2938 calls)

     Called by *egterg:
     cdiaghg      :      5.44s CPU      2.76s WALL (   14914 calls)
     h_psi        :    496.86s CPU    252.50s WALL (   15027 calls)
     s_psi        :     11.53s CPU      5.81s WALL (   15027 calls)
     g_psi        :      5.06s CPU      2.55s WALL (   11976 calls)

     Called by h_psi:
     h_psi:calbec :     17.49s CPU      8.82s WALL (   15027 calls)
     vloc_psi     :    462.32s CPU    235.08s WALL (   15027 calls)
     add_vuspsi   :     12.89s CPU      6.49s WALL (   15027 calls)

     General routines
     calbec       :     22.39s CPU     11.30s WALL (   18530 calls)
     fft          :      2.11s CPU      1.22s WALL (     322 calls)
     ffts         :      0.09s CPU      0.05s WALL (      26 calls)
     fftw         :    448.51s CPU    228.35s WALL (  291728 calls)
 
     Parallel routines
 
     PWSCF        :  12m49.50s CPU   6m34.39s WALL

 
   This run was terminated on:  15: 6:13  17Apr2022            

=------------------------------------------------------------------------------=
   JOB DONE.
=------------------------------------------------------------------------------=
