
     Program PWSCF v.6.8 starts on  8Apr2022 at 14:12:39 

     This program is part of the open-source Quantum ESPRESSO suite
     for quantum simulation of materials; please cite
         "P. Giannozzi et al., J. Phys.:Condens. Matter 21 395502 (2009);
         "P. Giannozzi et al., J. Phys.:Condens. Matter 29 465901 (2017);
         "P. Giannozzi et al., J. Chem. Phys. 152 154105 (2020);
          URL http://www.quantum-espresso.org", 
     in publications or presentations arising from this work. More details at
     http://www.quantum-espresso.org/quote

     Parallel version (MPI & OpenMP), running on       4 processor cores
     Number of MPI processes:                 2
     Threads/MPI process:                     2

     MPI processes distributed on     1 nodes
     R & G space division:  proc/nbgrp/npool/nimage =       2
     125202 MiB available memory on the printing compute node when the environment starts
 
     Reading input from MoS2.scf.6.150.in
Warning: card  &CELL ignored
Warning: card     CELL_DYNAMICS='BFGS' ignored
Warning: card  / ignored

     Current dimensions of program PWSCF are:
     Max number of different atomic species (ntypx) = 10
     Max number of k-points (npk) =  40000
     Max angular momentum in pseudopotentials (lmaxx) =  4
     Message from routine iosys:
     restart disabled: needed files not found
     file Mo.pbesol-spn-kjpaw_psl.1.0.0.UPF: wavefunction(s)  4S 4D renormalized
     file S.pbesol-nl-kjpaw_psl.1.0.0.UPF: wavefunction(s)  3S renormalized

     Subspace diagonalization in iterative solution of the eigenvalue problem:
     a serial algorithm will be used

 
     Parallelization info
     --------------------
     sticks:   dense  smooth     PW     G-vecs:    dense   smooth      PW
     Min         747     747    216               119281   119281   18762
     Max         748     748    217               119288   119288   18771
     Sum        1495    1495    433               238569   238569   37533
 
     Using Slab Decomposition
 


     bravais-lattice index     =            0
     lattice parameter (alat)  =       6.1500  a.u.
     unit-cell volume          =     960.8988 (a.u.)^3
     number of atoms/cell      =            3
     number of atomic types    =            2
     number of electrons       =        26.00
     number of Kohn-Sham states=           13
     kinetic-energy cutoff     =     150.0000  Ry
     charge density cutoff     =     600.0000  Ry
     scf convergence threshold =      1.0E-12
     mixing beta               =       0.7000
     number of iterations used =            8  plain     mixing
     Exchange-correlation= SLA  PW   PSX  PSC
                           (   1   4  10   8   0   0   0)

     celldm(1)=   6.150000  celldm(2)=   0.000000  celldm(3)=   0.000000
     celldm(4)=   0.000000  celldm(5)=   0.000000  celldm(6)=   0.000000

     crystal axes: (cart. coord. in units of alat)
               a(1) = (   0.976384  -0.000017   0.000000 )  
               a(2) = (  -0.487931   0.846187   0.000000 )  
               a(3) = (   0.000000   0.000000   5.000000 )  

     reciprocal axes: (cart. coord. in units 2 pi/alat)
               b(1) = (  1.024198  0.590577  0.000000 )  
               b(2) = (  0.000021  1.181785  0.000000 )  
               b(3) = (  0.000000  0.000000  0.200000 )  


     PseudoPot. # 1 for Mo read from file:
     /shared/home/as3359/pseudo/Mo.pbesol-spn-kjpaw_psl.1.0.0.UPF
     MD5 check sum: de57925cfc675213e43241dcc441eda8
     Pseudo is Projector augmented-wave + core cor, Zval = 14.0
     Generated using &quot;atomic&quot; code by A. Dal Corso  v.6.3
     Shape of augmentation charge: PSQ
     Using radial grid of 1229 points,  6 beta functions with: 
                l(1) =   0
                l(2) =   0
                l(3) =   1
                l(4) =   1
                l(5) =   2
                l(6) =   2
     Q(r) pseudized with 0 coefficients 


     PseudoPot. # 2 for S  read from file:
     /shared/home/as3359/pseudo/S.pbesol-nl-kjpaw_psl.1.0.0.UPF
     MD5 check sum: bf3db50ec3f960682bbc396f1aadd1dd
     Pseudo is Projector augmented-wave + core cor, Zval =  6.0
     Generated using &quot;atomic&quot; code by A. Dal Corso  v.6.3
     Shape of augmentation charge: PSQ
     Using radial grid of 1151 points,  4 beta functions with: 
                l(1) =   0
                l(2) =   0
                l(3) =   1
                l(4) =   1
     Q(r) pseudized with 0 coefficients 


     atomic species   valence    mass     pseudopotential
        Mo            14.00    95.94000     Mo( 1.00)
        S              6.00    32.06500     S ( 1.00)

     No symmetry found



   Cartesian axes

     site n.     atom                  positions (alat units)
         1           Mo  tau(   1) = (   0.0000000   0.0000000   1.6880765  )
         2           S   tau(   2) = (   0.4883508   0.2821722   2.1737857  )
         3           S   tau(   3) = (   0.4883508   0.2821722   1.2023670  )

     number of k points=   113

     Number of k-points >= 100: set verbosity='high' to print them.

     Dense  grid:   238569 G-vectors     FFT dimensions: (  48,  48, 240)

     Estimated max dynamical RAM per process >     786.80 MB

     Estimated total dynamical RAM >       1.54 GB
     Cannot read rho : file not found

     Initial potential from superposition of free atoms

     starting charge   25.99914, renormalised to   26.00000

     negative rho (up, down):  9.420E-05 0.000E+00
     Message from routine qexsd_readschema :
     xml data file /scratch/as3359/Mos2_ct_lat/MoS2.save/data-file-schema.xml not fou
     Cannot read wfcs: file not found
     Starting wfcs are   18 randomized atomic wfcs
     Checking if some PAW data can be deallocated... 

     total cpu time spent up to now is       10.2 secs

     Self-consistent Calculation

     iteration #  1     ecut=   150.00 Ry     beta= 0.70
     Davidson diagonalization with overlap
     ethr =  1.00E-05,  avg # of iterations = 10.4

     negative rho (up, down):  1.265E-04 0.000E+00

     total cpu time spent up to now is       47.4 secs

     total energy              =    -489.69897776 Ry
     estimated scf accuracy    <       0.13123664 Ry

     iteration #  2     ecut=   150.00 Ry     beta= 0.70
     Davidson diagonalization with overlap
     ethr =  5.05E-04,  avg # of iterations =  4.7

     negative rho (up, down):  1.189E-04 0.000E+00

     total cpu time spent up to now is       65.8 secs

     total energy              =    -489.67391724 Ry
     estimated scf accuracy    <       0.38380486 Ry

     iteration #  3     ecut=   150.00 Ry     beta= 0.70
     Davidson diagonalization with overlap
     ethr =  5.05E-04,  avg # of iterations =  5.0

     negative rho (up, down):  1.201E-04 0.000E+00

     total cpu time spent up to now is       84.4 secs

     total energy              =    -489.74787534 Ry
     estimated scf accuracy    <       0.05708627 Ry

     iteration #  4     ecut=   150.00 Ry     beta= 0.70
     Davidson diagonalization with overlap
     ethr =  2.20E-04,  avg # of iterations =  2.4

     negative rho (up, down):  1.243E-04 0.000E+00

     total cpu time spent up to now is       97.8 secs

     total energy              =    -489.75185017 Ry
     estimated scf accuracy    <       0.00547182 Ry

     iteration #  5     ecut=   150.00 Ry     beta= 0.70
     Davidson diagonalization with overlap
     ethr =  2.10E-05,  avg # of iterations =  5.4

     negative rho (up, down):  1.253E-04 0.000E+00

     total cpu time spent up to now is      117.9 secs

     total energy              =    -489.75542586 Ry
     estimated scf accuracy    <       0.01351737 Ry

     iteration #  6     ecut=   150.00 Ry     beta= 0.70
     Davidson diagonalization with overlap
     ethr =  2.10E-05,  avg # of iterations =  2.0

     negative rho (up, down):  1.269E-04 0.000E+00

     total cpu time spent up to now is      130.3 secs

     total energy              =    -489.75338325 Ry
     estimated scf accuracy    <       0.00583780 Ry

     iteration #  7     ecut=   150.00 Ry     beta= 0.70
     Davidson diagonalization with overlap
     ethr =  2.10E-05,  avg # of iterations =  4.4

     negative rho (up, down):  1.271E-04 0.000E+00

     total cpu time spent up to now is      147.0 secs

     total energy              =    -489.75554758 Ry
     estimated scf accuracy    <       0.00223618 Ry

     iteration #  8     ecut=   150.00 Ry     beta= 0.70
     Davidson diagonalization with overlap
     ethr =  8.60E-06,  avg # of iterations =  1.2

     negative rho (up, down):  1.275E-04 0.000E+00

     total cpu time spent up to now is      158.3 secs

     total energy              =    -489.75528878 Ry
     estimated scf accuracy    <       0.00144861 Ry

     iteration #  9     ecut=   150.00 Ry     beta= 0.70
     Davidson diagonalization with overlap
     ethr =  5.57E-06,  avg # of iterations =  2.7

     negative rho (up, down):  1.279E-04 0.000E+00

     total cpu time spent up to now is      171.3 secs

     total energy              =    -489.75537385 Ry
     estimated scf accuracy    <       0.00019908 Ry

     iteration # 10     ecut=   150.00 Ry     beta= 0.70
     Davidson diagonalization with overlap
     ethr =  7.66E-07,  avg # of iterations =  4.4

     negative rho (up, down):  1.280E-04 0.000E+00

     total cpu time spent up to now is      187.6 secs

     total energy              =    -489.75543154 Ry
     estimated scf accuracy    <       0.00000336 Ry

     iteration # 11     ecut=   150.00 Ry     beta= 0.70
     Davidson diagonalization with overlap
     ethr =  1.29E-08,  avg # of iterations =  5.3

     negative rho (up, down):  1.280E-04 0.000E+00

     total cpu time spent up to now is      205.9 secs

     total energy              =    -489.75543443 Ry
     estimated scf accuracy    <       0.00000581 Ry

     iteration # 12     ecut=   150.00 Ry     beta= 0.70
     Davidson diagonalization with overlap
     ethr =  1.29E-08,  avg # of iterations =  1.0

     negative rho (up, down):  1.280E-04 0.000E+00

     total cpu time spent up to now is      217.0 secs

     total energy              =    -489.75543322 Ry
     estimated scf accuracy    <       0.00000570 Ry

     iteration # 13     ecut=   150.00 Ry     beta= 0.70
     Davidson diagonalization with overlap
     ethr =  1.29E-08,  avg # of iterations =  2.7

     negative rho (up, down):  1.280E-04 0.000E+00

     total cpu time spent up to now is      230.6 secs

     total energy              =    -489.75543349 Ry
     estimated scf accuracy    <       0.00000099 Ry

     iteration # 14     ecut=   150.00 Ry     beta= 0.70
     Davidson diagonalization with overlap
     ethr =  3.80E-09,  avg # of iterations =  4.2

     negative rho (up, down):  1.280E-04 0.000E+00

     total cpu time spent up to now is      245.7 secs

     total energy              =    -489.75543366 Ry
     estimated scf accuracy    <       0.00000002 Ry

     iteration # 15     ecut=   150.00 Ry     beta= 0.70
     Davidson diagonalization with overlap
     ethr =  6.89E-11,  avg # of iterations =  7.2

     negative rho (up, down):  1.280E-04 0.000E+00

     total cpu time spent up to now is      271.2 secs

     total energy              =    -489.75543372 Ry
     estimated scf accuracy    <       0.00000021 Ry

     iteration # 16     ecut=   150.00 Ry     beta= 0.70
     Davidson diagonalization with overlap
     ethr =  6.89E-11,  avg # of iterations =  1.0

     negative rho (up, down):  1.280E-04 0.000E+00

     total cpu time spent up to now is      282.5 secs

     total energy              =    -489.75543368 Ry
     estimated scf accuracy    <       0.00000017 Ry

     iteration # 17     ecut=   150.00 Ry     beta= 0.70
     Davidson diagonalization with overlap
     ethr =  6.89E-11,  avg # of iterations =  4.5

     negative rho (up, down):  1.280E-04 0.000E+00

     total cpu time spent up to now is      299.5 secs

     total energy              =    -489.75543369 Ry
     estimated scf accuracy    <       0.00000001 Ry

     iteration # 18     ecut=   150.00 Ry     beta= 0.70
     Davidson diagonalization with overlap
     ethr =  5.64E-11,  avg # of iterations =  3.8

     negative rho (up, down):  1.280E-04 0.000E+00

     total cpu time spent up to now is      314.4 secs

     total energy              =    -489.75543370 Ry
     estimated scf accuracy    <          1.2E-09 Ry

     iteration # 19     ecut=   150.00 Ry     beta= 0.70
     Davidson diagonalization with overlap
     ethr =  4.77E-12,  avg # of iterations =  6.3

     negative rho (up, down):  1.280E-04 0.000E+00

     total cpu time spent up to now is      336.6 secs

     total energy              =    -489.75543370 Ry
     estimated scf accuracy    <          9.1E-09 Ry

     iteration # 20     ecut=   150.00 Ry     beta= 0.70
     Davidson diagonalization with overlap
     ethr =  4.77E-12,  avg # of iterations =  2.6

     negative rho (up, down):  1.280E-04 0.000E+00

     total cpu time spent up to now is      350.4 secs

     total energy              =    -489.75543370 Ry
     estimated scf accuracy    <          4.3E-09 Ry

     iteration # 21     ecut=   150.00 Ry     beta= 0.70
     Davidson diagonalization with overlap
     ethr =  4.77E-12,  avg # of iterations =  4.3

     negative rho (up, down):  1.280E-04 0.000E+00

     total cpu time spent up to now is      366.4 secs

     total energy              =    -489.75543370 Ry
     estimated scf accuracy    <          4.2E-10 Ry

     iteration # 22     ecut=   150.00 Ry     beta= 0.70
     Davidson diagonalization with overlap
     ethr =  1.63E-12,  avg # of iterations =  4.3

     negative rho (up, down):  1.280E-04 0.000E+00

     total cpu time spent up to now is      383.2 secs

     total energy              =    -489.75543370 Ry
     estimated scf accuracy    <          4.4E-11 Ry

     iteration # 23     ecut=   150.00 Ry     beta= 0.70
     Davidson diagonalization with overlap
     ethr =  1.68E-13,  avg # of iterations =  4.0

     negative rho (up, down):  1.280E-04 0.000E+00

     total cpu time spent up to now is      398.1 secs

     total energy              =    -489.75543370 Ry
     estimated scf accuracy    <          9.1E-11 Ry

     iteration # 24     ecut=   150.00 Ry     beta= 0.70
     Davidson diagonalization with overlap
     ethr =  1.68E-13,  avg # of iterations =  1.2

     negative rho (up, down):  1.280E-04 0.000E+00

     total cpu time spent up to now is      409.3 secs

     total energy              =    -489.75543370 Ry
     estimated scf accuracy    <          6.0E-11 Ry

     iteration # 25     ecut=   150.00 Ry     beta= 0.70
     Davidson diagonalization with overlap
     ethr =  1.68E-13,  avg # of iterations =  4.9

     negative rho (up, down):  1.280E-04 0.000E+00

     total cpu time spent up to now is      426.2 secs

     total energy              =    -489.75543370 Ry
     estimated scf accuracy    <          4.2E-11 Ry

     iteration # 26     ecut=   150.00 Ry     beta= 0.70
     Davidson diagonalization with overlap
     ethr =  1.61E-13,  avg # of iterations =  1.0

     negative rho (up, down):  1.280E-04 0.000E+00

     total cpu time spent up to now is      437.2 secs

     total energy              =    -489.75543370 Ry
     estimated scf accuracy    <          3.8E-11 Ry

     iteration # 27     ecut=   150.00 Ry     beta= 0.70
     Davidson diagonalization with overlap
     ethr =  1.48E-13,  avg # of iterations =  1.0

     negative rho (up, down):  1.280E-04 0.000E+00

     total cpu time spent up to now is      448.2 secs

     total energy              =    -489.75543370 Ry
     estimated scf accuracy    <          3.3E-11 Ry

     iteration # 28     ecut=   150.00 Ry     beta= 0.70
     Davidson diagonalization with overlap
     ethr =  1.25E-13,  avg # of iterations =  1.0

     negative rho (up, down):  1.280E-04 0.000E+00

     total cpu time spent up to now is      459.2 secs

     total energy              =    -489.75543370 Ry
     estimated scf accuracy    <          2.8E-11 Ry

     iteration # 29     ecut=   150.00 Ry     beta= 0.70
     Davidson diagonalization with overlap
     ethr =  1.07E-13,  avg # of iterations =  3.2

     negative rho (up, down):  1.280E-04 0.000E+00

     total cpu time spent up to now is      473.5 secs

     End of self-consistent calculation

     Number of k-points >= 100: set verbosity='high' to print the bands.

     highest occupied level (ev):     0.1504

!    total energy              =    -489.75543370 Ry

     total all-electron energy =     -9688.213279 Ry
     estimated scf accuracy    <          1.4E-14 Ry

     The total energy is the sum of the following terms:
     one-electron contribution =    -807.14337441 Ry
     hartree contribution      =     407.15486486 Ry
     xc contribution           =     -29.42986690 Ry
     ewald contribution        =     252.54426639 Ry
     one-center paw contrib.   =    -312.88132364 Ry

     convergence has been achieved in  29 iterations

     negative rho (up, down):  1.280E-04 0.000E+00

     Forces acting on atoms (cartesian axes, Ry/au):

     atom    1 type  1   force =     0.00023190    0.00014764   -0.00000071
     atom    2 type  2   force =    -0.00011595   -0.00007382   -0.02462599
     atom    3 type  2   force =    -0.00011595   -0.00007382    0.02462669

     Total force =     0.034829     Total SCF correction =     0.000000


     Computing stress (Cartesian axis) and pressure


     negative rho (up, down):  1.280E-04 0.000E+00
          total   stress  (Ry/bohr**3)                   (kbar)     P=      -20.51
  -0.00013089  -0.00000074   0.00000000          -19.25       -0.11        0.00
  -0.00000074  -0.00013377   0.00000000           -0.11      -19.68        0.00
   0.00000000   0.00000000  -0.00015358            0.00        0.00      -22.59


     Writing output data file /scratch/as3359/Mos2_ct_lat/MoS2.save/
 
     init_run     :     18.39s CPU     10.04s WALL (       1 calls)
     electrons    :    906.98s CPU    463.37s WALL (       1 calls)
     forces       :      5.57s CPU      2.85s WALL (       1 calls)
     stress       :     17.94s CPU      9.19s WALL (       1 calls)

     Called by init_run:
     wfcinit      :     12.96s CPU      6.65s WALL (       1 calls)
     potinit      :      1.55s CPU      0.79s WALL (       1 calls)
     hinit0       :      3.19s CPU      2.20s WALL (       1 calls)

     Called by electrons:
     c_bands      :    760.74s CPU    386.07s WALL (      29 calls)
     sum_band     :    125.57s CPU     65.01s WALL (      29 calls)
     v_of_rho     :      4.72s CPU      2.60s WALL (      30 calls)
     newd         :      8.56s CPU      5.66s WALL (      30 calls)
     PAW_pot      :      5.64s CPU      2.94s WALL (      30 calls)
     mix_rho      :      2.12s CPU      1.29s WALL (      29 calls)

     Called by c_bands:
     init_us_2    :     28.80s CPU     14.44s WALL (    6893 calls)
     cegterg      :    713.52s CPU    362.13s WALL (    3277 calls)

     Called by *egterg:
     cdiaghg      :      6.08s CPU      3.09s WALL (   15225 calls)
     h_psi        :    605.29s CPU    307.69s WALL (   15338 calls)
     s_psi        :     23.65s CPU     11.88s WALL (   15338 calls)
     g_psi        :      5.06s CPU      2.54s WALL (   11948 calls)

     Called by h_psi:
     h_psi:calbec :     20.59s CPU     10.36s WALL (   15338 calls)
     vloc_psi     :    547.93s CPU    278.84s WALL (   15338 calls)
     add_vuspsi   :     31.49s CPU     15.81s WALL (   15338 calls)

     General routines
     calbec       :     26.42s CPU     13.30s WALL (   19180 calls)
     fft          :      1.93s CPU      0.99s WALL (     355 calls)
     ffts         :      0.15s CPU      0.07s WALL (      29 calls)
     fftw         :    532.13s CPU    271.19s WALL (  300275 calls)
 
     Parallel routines
 
     PWSCF        :  15m51.28s CPU   8m 7.58s WALL

 
   This run was terminated on:  14:20:46   8Apr2022            

=------------------------------------------------------------------------------=
   JOB DONE.
=------------------------------------------------------------------------------=
