
     Program PWSCF v.6.8 starts on 17Apr2022 at 15:57:52 

     This program is part of the open-source Quantum ESPRESSO suite
     for quantum simulation of materials; please cite
         "P. Giannozzi et al., J. Phys.:Condens. Matter 21 395502 (2009);
         "P. Giannozzi et al., J. Phys.:Condens. Matter 29 465901 (2017);
         "P. Giannozzi et al., J. Chem. Phys. 152 154105 (2020);
          URL http://www.quantum-espresso.org", 
     in publications or presentations arising from this work. More details at
     http://www.quantum-espresso.org/quote

     Parallel version (MPI & OpenMP), running on       4 processor cores
     Number of MPI processes:                 2
     Threads/MPI process:                     2

     MPI processes distributed on     1 nodes
     R & G space division:  proc/nbgrp/npool/nimage =       2
     125012 MiB available memory on the printing compute node when the environment starts
 
     Reading input from MoS2.scf.6.088.in
Warning: card  &CELL ignored
Warning: card     CELL_DYNAMICS='BFGS' ignored
Warning: card  / ignored

     Current dimensions of program PWSCF are:
     Max number of different atomic species (ntypx) = 10
     Max number of k-points (npk) =  40000
     Max angular momentum in pseudopotentials (lmaxx) =  4
     Message from routine iosys:
     restart disabled: needed files not found
     file Mo.pbesol-spn-kjpaw_psl.1.0.0.UPF: wavefunction(s)  4S 4D renormalized
     file S.pbesol-nl-kjpaw_psl.1.0.0.UPF: wavefunction(s)  3S renormalized

     Subspace diagonalization in iterative solution of the eigenvalue problem:
     a serial algorithm will be used

 
     Parallelization info
     --------------------
     sticks:   dense  smooth     PW     G-vecs:    dense   smooth      PW
     Min         735     735    216               115620   115620   18307
     Max         738     738    217               115621   115621   18310
     Sum        1473    1473    433               231241   231241   36617
 
     Using Slab Decomposition
 


     bravais-lattice index     =            0
     lattice parameter (alat)  =       6.0880  a.u.
     unit-cell volume          =     932.1295 (a.u.)^3
     number of atoms/cell      =            3
     number of atomic types    =            2
     number of electrons       =        26.00
     number of Kohn-Sham states=           13
     kinetic-energy cutoff     =     150.0000  Ry
     charge density cutoff     =     600.0000  Ry
     scf convergence threshold =      1.0E-12
     mixing beta               =       0.7000
     number of iterations used =            8  plain     mixing
     Exchange-correlation= SLA  PW   PSX  PSC
                           (   1   4  10   8   0   0   0)

     celldm(1)=   6.088000  celldm(2)=   0.000000  celldm(3)=   0.000000
     celldm(4)=   0.000000  celldm(5)=   0.000000  celldm(6)=   0.000000

     crystal axes: (cart. coord. in units of alat)
               a(1) = (   0.976384  -0.000017   0.000000 )  
               a(2) = (  -0.487931   0.846187   0.000000 )  
               a(3) = (   0.000000   0.000000   5.000000 )  

     reciprocal axes: (cart. coord. in units 2 pi/alat)
               b(1) = (  1.024198  0.590577  0.000000 )  
               b(2) = (  0.000021  1.181785  0.000000 )  
               b(3) = (  0.000000  0.000000  0.200000 )  


     PseudoPot. # 1 for Mo read from file:
     /shared/home/as3359/pseudo/Mo.pbesol-spn-kjpaw_psl.1.0.0.UPF
     MD5 check sum: de57925cfc675213e43241dcc441eda8
     Pseudo is Projector augmented-wave + core cor, Zval = 14.0
     Generated using &quot;atomic&quot; code by A. Dal Corso  v.6.3
     Shape of augmentation charge: PSQ
     Using radial grid of 1229 points,  6 beta functions with: 
                l(1) =   0
                l(2) =   0
                l(3) =   1
                l(4) =   1
                l(5) =   2
                l(6) =   2
     Q(r) pseudized with 0 coefficients 


     PseudoPot. # 2 for S  read from file:
     /shared/home/as3359/pseudo/S.pbesol-nl-kjpaw_psl.1.0.0.UPF
     MD5 check sum: bf3db50ec3f960682bbc396f1aadd1dd
     Pseudo is Projector augmented-wave + core cor, Zval =  6.0
     Generated using &quot;atomic&quot; code by A. Dal Corso  v.6.3
     Shape of augmentation charge: PSQ
     Using radial grid of 1151 points,  4 beta functions with: 
                l(1) =   0
                l(2) =   0
                l(3) =   1
                l(4) =   1
     Q(r) pseudized with 0 coefficients 


     atomic species   valence    mass     pseudopotential
        Mo            14.00    95.94000     Mo( 1.00)
        S              6.00    32.06500     S ( 1.00)

     No symmetry found



   Cartesian axes

     site n.     atom                  positions (alat units)
         1           Mo  tau(   1) = (   0.0000000   0.0000000   1.6880765  )
         2           S   tau(   2) = (   0.4883508   0.2821722   2.1737857  )
         3           S   tau(   3) = (   0.4883508   0.2821722   1.2023670  )

     number of k points=   113

     Number of k-points >= 100: set verbosity='high' to print them.

     Dense  grid:   231241 G-vectors     FFT dimensions: (  48,  48, 240)

     Estimated max dynamical RAM per process >     763.60 MB

     Estimated total dynamical RAM >       1.49 GB
     Cannot read rho : file not found

     Initial potential from superposition of free atoms

     starting charge   25.99914, renormalised to   26.00000

     negative rho (up, down):  8.994E-05 0.000E+00
     Message from routine qexsd_readschema :
     xml data file /scratch/as3359/Mos2_ct_lat/MoS2.save/data-file-schema.xml not fou
     Cannot read wfcs: file not found
     Starting wfcs are   18 randomized atomic wfcs
     Checking if some PAW data can be deallocated... 

     total cpu time spent up to now is       10.2 secs

     Self-consistent Calculation

     iteration #  1     ecut=   150.00 Ry     beta= 0.70
     Davidson diagonalization with overlap
     ethr =  1.00E-05,  avg # of iterations = 10.4

     negative rho (up, down):  1.219E-04 0.000E+00

     total cpu time spent up to now is       40.3 secs

     total energy              =    -489.69181652 Ry
     estimated scf accuracy    <       0.14660258 Ry

     iteration #  2     ecut=   150.00 Ry     beta= 0.70
     Davidson diagonalization with overlap
     ethr =  5.64E-04,  avg # of iterations =  5.0

     negative rho (up, down):  1.121E-04 0.000E+00

     total cpu time spent up to now is       55.7 secs

     total energy              =    -489.65412710 Ry
     estimated scf accuracy    <       0.52056670 Ry

     iteration #  3     ecut=   150.00 Ry     beta= 0.70
     Davidson diagonalization with overlap
     ethr =  5.64E-04,  avg # of iterations =  5.0

     negative rho (up, down):  1.131E-04 0.000E+00

     total cpu time spent up to now is       70.8 secs

     total energy              =    -489.75179987 Ry
     estimated scf accuracy    <       0.04488882 Ry

     iteration #  4     ecut=   150.00 Ry     beta= 0.70
     Davidson diagonalization with overlap
     ethr =  1.73E-04,  avg # of iterations =  2.4

     negative rho (up, down):  1.183E-04 0.000E+00

     total cpu time spent up to now is       81.9 secs

     total energy              =    -489.75464409 Ry
     estimated scf accuracy    <       0.00546764 Ry

     iteration #  5     ecut=   150.00 Ry     beta= 0.70
     Davidson diagonalization with overlap
     ethr =  2.10E-05,  avg # of iterations =  5.2

     negative rho (up, down):  1.194E-04 0.000E+00

     total cpu time spent up to now is       97.9 secs

     total energy              =    -489.75772472 Ry
     estimated scf accuracy    <       0.00947597 Ry

     iteration #  6     ecut=   150.00 Ry     beta= 0.70
     Davidson diagonalization with overlap
     ethr =  2.10E-05,  avg # of iterations =  1.9

     negative rho (up, down):  1.211E-04 0.000E+00

     total cpu time spent up to now is      108.0 secs

     total energy              =    -489.75644206 Ry
     estimated scf accuracy    <       0.00367100 Ry

     iteration #  7     ecut=   150.00 Ry     beta= 0.70
     Davidson diagonalization with overlap
     ethr =  1.41E-05,  avg # of iterations =  4.7

     negative rho (up, down):  1.214E-04 0.000E+00

     total cpu time spent up to now is      121.9 secs

     total energy              =    -489.75828579 Ry
     estimated scf accuracy    <       0.00197147 Ry

     iteration #  8     ecut=   150.00 Ry     beta= 0.70
     Davidson diagonalization with overlap
     ethr =  7.58E-06,  avg # of iterations =  1.0

     negative rho (up, down):  1.215E-04 0.000E+00

     total cpu time spent up to now is      131.3 secs

     total energy              =    -489.75774825 Ry
     estimated scf accuracy    <       0.00226723 Ry

     iteration #  9     ecut=   150.00 Ry     beta= 0.70
     Davidson diagonalization with overlap
     ethr =  7.58E-06,  avg # of iterations =  1.9

     negative rho (up, down):  1.215E-04 0.000E+00

     total cpu time spent up to now is      141.2 secs

     total energy              =    -489.75786597 Ry
     estimated scf accuracy    <       0.00069290 Ry

     iteration # 10     ecut=   150.00 Ry     beta= 0.70
     Davidson diagonalization with overlap
     ethr =  2.67E-06,  avg # of iterations =  1.2

     negative rho (up, down):  1.214E-04 0.000E+00

     total cpu time spent up to now is      150.7 secs

     total energy              =    -489.75784196 Ry
     estimated scf accuracy    <       0.00063217 Ry

     iteration # 11     ecut=   150.00 Ry     beta= 0.70
     Davidson diagonalization with overlap
     ethr =  2.43E-06,  avg # of iterations =  1.3

     negative rho (up, down):  1.218E-04 0.000E+00

     total cpu time spent up to now is      160.3 secs

     total energy              =    -489.75784316 Ry
     estimated scf accuracy    <       0.00038113 Ry

     iteration # 12     ecut=   150.00 Ry     beta= 0.70
     Davidson diagonalization with overlap
     ethr =  1.47E-06,  avg # of iterations =  1.9

     negative rho (up, down):  1.221E-04 0.000E+00

     total cpu time spent up to now is      170.2 secs

     total energy              =    -489.75771224 Ry
     estimated scf accuracy    <       0.00024448 Ry

     iteration # 13     ecut=   150.00 Ry     beta= 0.70
     Davidson diagonalization with overlap
     ethr =  9.40E-07,  avg # of iterations =  5.4

     negative rho (up, down):  1.219E-04 0.000E+00

     total cpu time spent up to now is      186.8 secs

     total energy              =    -489.75785621 Ry
     estimated scf accuracy    <       0.00104206 Ry

     iteration # 14     ecut=   150.00 Ry     beta= 0.70
     Davidson diagonalization with overlap
     ethr =  9.40E-07,  avg # of iterations =  2.7

     negative rho (up, down):  1.219E-04 0.000E+00

     total cpu time spent up to now is      198.1 secs

     total energy              =    -489.75782851 Ry
     estimated scf accuracy    <       0.00038474 Ry

     iteration # 15     ecut=   150.00 Ry     beta= 0.70
     Davidson diagonalization with overlap
     ethr =  9.40E-07,  avg # of iterations =  3.1

     negative rho (up, down):  1.220E-04 0.000E+00

     total cpu time spent up to now is      209.7 secs

     total energy              =    -489.75784943 Ry
     estimated scf accuracy    <       0.00006551 Ry

     iteration # 16     ecut=   150.00 Ry     beta= 0.70
     Davidson diagonalization with overlap
     ethr =  2.52E-07,  avg # of iterations =  4.4

     negative rho (up, down):  1.220E-04 0.000E+00

     total cpu time spent up to now is      222.4 secs

     total energy              =    -489.75786569 Ry
     estimated scf accuracy    <       0.00000134 Ry

     iteration # 17     ecut=   150.00 Ry     beta= 0.70
     Davidson diagonalization with overlap
     ethr =  5.15E-09,  avg # of iterations =  6.0

     negative rho (up, down):  1.220E-04 0.000E+00

     total cpu time spent up to now is      240.8 secs

     total energy              =    -489.75786788 Ry
     estimated scf accuracy    <       0.00002122 Ry

     iteration # 18     ecut=   150.00 Ry     beta= 0.70
     Davidson diagonalization with overlap
     ethr =  5.15E-09,  avg # of iterations =  1.0

     negative rho (up, down):  1.221E-04 0.000E+00

     total cpu time spent up to now is      250.2 secs

     total energy              =    -489.75786293 Ry
     estimated scf accuracy    <       0.00002008 Ry

     iteration # 19     ecut=   150.00 Ry     beta= 0.70
     Davidson diagonalization with overlap
     ethr =  5.15E-09,  avg # of iterations =  5.4

     negative rho (up, down):  1.221E-04 0.000E+00

     total cpu time spent up to now is      266.7 secs

     total energy              =    -489.75786497 Ry
     estimated scf accuracy    <       0.00000060 Ry

     iteration # 20     ecut=   150.00 Ry     beta= 0.70
     Davidson diagonalization with overlap
     ethr =  2.31E-09,  avg # of iterations =  1.1

     negative rho (up, down):  1.221E-04 0.000E+00

     total cpu time spent up to now is      276.1 secs

     total energy              =    -489.75786497 Ry
     estimated scf accuracy    <       0.00000058 Ry

     iteration # 21     ecut=   150.00 Ry     beta= 0.70
     Davidson diagonalization with overlap
     ethr =  2.22E-09,  avg # of iterations =  1.0

     negative rho (up, down):  1.221E-04 0.000E+00

     total cpu time spent up to now is      285.6 secs

     total energy              =    -489.75786494 Ry
     estimated scf accuracy    <       0.00000050 Ry

     iteration # 22     ecut=   150.00 Ry     beta= 0.70
     Davidson diagonalization with overlap
     ethr =  1.91E-09,  avg # of iterations =  1.0

     negative rho (up, down):  1.221E-04 0.000E+00

     total cpu time spent up to now is      295.0 secs

     total energy              =    -489.75786492 Ry
     estimated scf accuracy    <       0.00000036 Ry

     iteration # 23     ecut=   150.00 Ry     beta= 0.70
     Davidson diagonalization with overlap
     ethr =  1.37E-09,  avg # of iterations =  1.3

     negative rho (up, down):  1.221E-04 0.000E+00

     total cpu time spent up to now is      304.7 secs

     total energy              =    -489.75786491 Ry
     estimated scf accuracy    <       0.00000021 Ry

     iteration # 24     ecut=   150.00 Ry     beta= 0.70
     Davidson diagonalization with overlap
     ethr =  7.97E-10,  avg # of iterations =  2.8

     negative rho (up, down):  1.221E-04 0.000E+00

     total cpu time spent up to now is      315.6 secs

     total energy              =    -489.75786491 Ry
     estimated scf accuracy    <       0.00000007 Ry

     iteration # 25     ecut=   150.00 Ry     beta= 0.70
     Davidson diagonalization with overlap
     ethr =  2.76E-10,  avg # of iterations =  4.6

     negative rho (up, down):  1.221E-04 0.000E+00

     total cpu time spent up to now is      330.5 secs

     total energy              =    -489.75786494 Ry
     estimated scf accuracy    <       0.00000002 Ry

     iteration # 26     ecut=   150.00 Ry     beta= 0.70
     Davidson diagonalization with overlap
     ethr =  6.06E-11,  avg # of iterations =  2.0

     negative rho (up, down):  1.221E-04 0.000E+00

     total cpu time spent up to now is      340.7 secs

     total energy              =    -489.75786493 Ry
     estimated scf accuracy    <       0.00000001 Ry

     iteration # 27     ecut=   150.00 Ry     beta= 0.70
     Davidson diagonalization with overlap
     ethr =  4.73E-11,  avg # of iterations =  5.3

     negative rho (up, down):  1.221E-04 0.000E+00

     total cpu time spent up to now is      356.3 secs

     total energy              =    -489.75786494 Ry
     estimated scf accuracy    <       0.00000003 Ry

     iteration # 28     ecut=   150.00 Ry     beta= 0.70
     Davidson diagonalization with overlap
     ethr =  4.73E-11,  avg # of iterations =  1.0

     negative rho (up, down):  1.221E-04 0.000E+00

     total cpu time spent up to now is      365.7 secs

     total energy              =    -489.75786494 Ry
     estimated scf accuracy    <       0.00000003 Ry

     iteration # 29     ecut=   150.00 Ry     beta= 0.70
     Davidson diagonalization with overlap
     ethr =  4.73E-11,  avg # of iterations =  2.5

     negative rho (up, down):  1.221E-04 0.000E+00

     total cpu time spent up to now is      376.5 secs

     total energy              =    -489.75786493 Ry
     estimated scf accuracy    <          9.0E-09 Ry

     iteration # 30     ecut=   150.00 Ry     beta= 0.70
     Davidson diagonalization with overlap
     ethr =  3.45E-11,  avg # of iterations =  3.6

     negative rho (up, down):  1.221E-04 0.000E+00

     total cpu time spent up to now is      388.5 secs

     total energy              =    -489.75786494 Ry
     estimated scf accuracy    <          7.9E-10 Ry

     iteration # 31     ecut=   150.00 Ry     beta= 0.70
     Davidson diagonalization with overlap
     ethr =  3.03E-12,  avg # of iterations =  4.7

     negative rho (up, down):  1.221E-04 0.000E+00

     total cpu time spent up to now is      403.1 secs

     total energy              =    -489.75786494 Ry
     estimated scf accuracy    <          1.1E-09 Ry

     iteration # 32     ecut=   150.00 Ry     beta= 0.70
     Davidson diagonalization with overlap
     ethr =  3.03E-12,  avg # of iterations =  5.8

     negative rho (up, down):  1.221E-04 0.000E+00

     total cpu time spent up to now is      421.4 secs

     total energy              =    -489.75786494 Ry
     estimated scf accuracy    <          8.5E-09 Ry

     iteration # 33     ecut=   150.00 Ry     beta= 0.70
     Davidson diagonalization with overlap
     ethr =  3.03E-12,  avg # of iterations =  1.7

     negative rho (up, down):  1.221E-04 0.000E+00

     total cpu time spent up to now is      431.3 secs

     total energy              =    -489.75786494 Ry
     estimated scf accuracy    <          6.4E-09 Ry

     iteration # 34     ecut=   150.00 Ry     beta= 0.70
     Davidson diagonalization with overlap
     ethr =  3.03E-12,  avg # of iterations =  4.8

     negative rho (up, down):  1.221E-04 0.000E+00

     total cpu time spent up to now is      446.0 secs

     total energy              =    -489.75786494 Ry
     estimated scf accuracy    <          2.4E-10 Ry

     iteration # 35     ecut=   150.00 Ry     beta= 0.70
     Davidson diagonalization with overlap
     ethr =  9.17E-13,  avg # of iterations =  4.5

     negative rho (up, down):  1.221E-04 0.000E+00

     total cpu time spent up to now is      459.6 secs

     total energy              =    -489.75786494 Ry
     estimated scf accuracy    <          3.5E-12 Ry

     iteration # 36     ecut=   150.00 Ry     beta= 0.70
     Davidson diagonalization with overlap
     ethr =  1.00E-13,  avg # of iterations =  2.6

     negative rho (up, down):  1.221E-04 0.000E+00

     total cpu time spent up to now is      470.6 secs

     total energy              =    -489.75786494 Ry
     estimated scf accuracy    <          1.1E-12 Ry

     iteration # 37     ecut=   150.00 Ry     beta= 0.70
     Davidson diagonalization with overlap
     ethr =  1.00E-13,  avg # of iterations =  2.7

     negative rho (up, down):  1.221E-04 0.000E+00

     total cpu time spent up to now is      481.8 secs

     total energy              =    -489.75786494 Ry
     estimated scf accuracy    <          1.6E-11 Ry

     iteration # 38     ecut=   150.00 Ry     beta= 0.70
     Davidson diagonalization with overlap
     ethr =  1.00E-13,  avg # of iterations =  1.1

     negative rho (up, down):  1.221E-04 0.000E+00

     total cpu time spent up to now is      491.2 secs

     total energy              =    -489.75786494 Ry
     estimated scf accuracy    <          7.1E-12 Ry

     iteration # 39     ecut=   150.00 Ry     beta= 0.70
     Davidson diagonalization with overlap
     ethr =  1.00E-13,  avg # of iterations =  1.5

     negative rho (up, down):  1.221E-04 0.000E+00

     total cpu time spent up to now is      500.9 secs

     total energy              =    -489.75786494 Ry
     estimated scf accuracy    <          1.0E-12 Ry

     iteration # 40     ecut=   150.00 Ry     beta= 0.70
     Davidson diagonalization with overlap
     ethr =  1.00E-13,  avg # of iterations =  1.0

     negative rho (up, down):  1.221E-04 0.000E+00

     total cpu time spent up to now is      510.2 secs

     End of self-consistent calculation

     Number of k-points >= 100: set verbosity='high' to print the bands.

     highest occupied level (ev):     0.3288

!    total energy              =    -489.75786494 Ry

     total all-electron energy =     -9688.215710 Ry
     estimated scf accuracy    <          1.2E-13 Ry

     The total energy is the sum of the following terms:
     one-electron contribution =    -812.50567023 Ry
     hartree contribution      =     410.02420245 Ry
     xc contribution           =     -29.50483685 Ry
     ewald contribution        =     255.11616923 Ry
     one-center paw contrib.   =    -312.88772954 Ry

     convergence has been achieved in  40 iterations

     negative rho (up, down):  1.221E-04 0.000E+00

     Forces acting on atoms (cartesian axes, Ry/au):

     atom    1 type  1   force =     0.00026108    0.00013345   -0.00000013
     atom    2 type  2   force =    -0.00013055   -0.00006673   -0.00556626
     atom    3 type  2   force =    -0.00013053   -0.00006672    0.00556639

     Total force =     0.007880     Total SCF correction =     0.000002


     Computing stress (Cartesian axis) and pressure


     negative rho (up, down):  1.221E-04 0.000E+00
          total   stress  (Ry/bohr**3)                   (kbar)     P=       -4.03
  -0.00002163  -0.00000083  -0.00000000           -3.18       -0.12       -0.00
  -0.00000083  -0.00002472   0.00000000           -0.12       -3.64        0.00
  -0.00000000   0.00000000  -0.00003581           -0.00        0.00       -5.27


     Writing output data file /scratch/as3359/Mos2_ct_lat/MoS2.save/
 
     init_run     :     17.97s CPU     10.03s WALL (       1 calls)
     electrons    :    980.26s CPU    500.03s WALL (       1 calls)
     forces       :      5.04s CPU      2.56s WALL (       1 calls)
     stress       :     16.56s CPU      8.41s WALL (       1 calls)

     Called by init_run:
     wfcinit      :     11.36s CPU      5.83s WALL (       1 calls)
     potinit      :      2.13s CPU      1.21s WALL (       1 calls)
     hinit0       :      3.68s CPU      2.57s WALL (       1 calls)

     Called by electrons:
     c_bands      :    803.98s CPU    407.93s WALL (      40 calls)
     sum_band     :    151.60s CPU     78.05s WALL (      40 calls)
     v_of_rho     :      5.43s CPU      2.99s WALL (      41 calls)
     newd         :      9.73s CPU      5.94s WALL (      41 calls)
     PAW_pot      :      7.80s CPU      4.03s WALL (      41 calls)
     mix_rho      :      2.14s CPU      1.28s WALL (      40 calls)

     Called by c_bands:
     init_us_2    :     31.33s CPU     15.72s WALL (    9379 calls)
     cegterg      :    748.13s CPU    379.72s WALL (    4520 calls)

     Called by *egterg:
     cdiaghg      :      6.67s CPU      3.39s WALL (   18815 calls)
     h_psi        :    649.58s CPU    330.12s WALL (   18928 calls)
     s_psi        :     15.02s CPU      7.58s WALL (   18928 calls)
     g_psi        :      6.18s CPU      3.12s WALL (   14295 calls)

     Called by h_psi:
     h_psi:calbec :     22.11s CPU     11.15s WALL (   18928 calls)
     vloc_psi     :    605.04s CPU    307.66s WALL (   18928 calls)
     add_vuspsi   :     16.67s CPU      8.40s WALL (   18928 calls)

     General routines
     calbec       :     29.17s CPU     14.71s WALL (   24013 calls)
     fft          :      2.64s CPU      1.52s WALL (     476 calls)
     ffts         :      0.14s CPU      0.07s WALL (      40 calls)
     fftw         :    598.63s CPU    304.81s WALL (  390432 calls)
 
     Parallel routines
 
     PWSCF        :  17m 3.06s CPU   8m44.11s WALL

 
   This run was terminated on:  16: 6:36  17Apr2022            

=------------------------------------------------------------------------------=
   JOB DONE.
=------------------------------------------------------------------------------=
