
     Program PWSCF v.6.8 starts on  8Apr2022 at 13:27:31 

     This program is part of the open-source Quantum ESPRESSO suite
     for quantum simulation of materials; please cite
         "P. Giannozzi et al., J. Phys.:Condens. Matter 21 395502 (2009);
         "P. Giannozzi et al., J. Phys.:Condens. Matter 29 465901 (2017);
         "P. Giannozzi et al., J. Chem. Phys. 152 154105 (2020);
          URL http://www.quantum-espresso.org", 
     in publications or presentations arising from this work. More details at
     http://www.quantum-espresso.org/quote

     Parallel version (MPI & OpenMP), running on       4 processor cores
     Number of MPI processes:                 2
     Threads/MPI process:                     2

     MPI processes distributed on     1 nodes
     R & G space division:  proc/nbgrp/npool/nimage =       2
     125212 MiB available memory on the printing compute node when the environment starts
 
     Reading input from MoS2.scf.5.850.in
Warning: card  &CELL ignored
Warning: card     CELL_DYNAMICS='BFGS' ignored
Warning: card  / ignored

     Current dimensions of program PWSCF are:
     Max number of different atomic species (ntypx) = 10
     Max number of k-points (npk) =  40000
     Max angular momentum in pseudopotentials (lmaxx) =  4
     Message from routine iosys:
     restart disabled: needed files not found
     file Mo.pbesol-spn-kjpaw_psl.1.0.0.UPF: wavefunction(s)  4S 4D renormalized
     file S.pbesol-nl-kjpaw_psl.1.0.0.UPF: wavefunction(s)  3S renormalized

     Subspace diagonalization in iterative solution of the eigenvalue problem:
     a serial algorithm will be used

 
     Parallelization info
     --------------------
     sticks:   dense  smooth     PW     G-vecs:    dense   smooth      PW
     Min         676     676    198               102597   102597   16270
     Max         677     677    199               102600   102600   16273
     Sum        1353    1353    397               205197   205197   32543
 
     Using Slab Decomposition
 


     bravais-lattice index     =            0
     lattice parameter (alat)  =       5.8500  a.u.
     unit-cell volume          =     827.0274 (a.u.)^3
     number of atoms/cell      =            3
     number of atomic types    =            2
     number of electrons       =        26.00
     number of Kohn-Sham states=           13
     kinetic-energy cutoff     =     150.0000  Ry
     charge density cutoff     =     600.0000  Ry
     scf convergence threshold =      1.0E-12
     mixing beta               =       0.7000
     number of iterations used =            8  plain     mixing
     Exchange-correlation= SLA  PW   PSX  PSC
                           (   1   4  10   8   0   0   0)

     celldm(1)=   5.850000  celldm(2)=   0.000000  celldm(3)=   0.000000
     celldm(4)=   0.000000  celldm(5)=   0.000000  celldm(6)=   0.000000

     crystal axes: (cart. coord. in units of alat)
               a(1) = (   0.976384  -0.000017   0.000000 )  
               a(2) = (  -0.487931   0.846187   0.000000 )  
               a(3) = (   0.000000   0.000000   5.000000 )  

     reciprocal axes: (cart. coord. in units 2 pi/alat)
               b(1) = (  1.024198  0.590577  0.000000 )  
               b(2) = (  0.000021  1.181785  0.000000 )  
               b(3) = (  0.000000  0.000000  0.200000 )  


     PseudoPot. # 1 for Mo read from file:
     /shared/home/as3359/pseudo/Mo.pbesol-spn-kjpaw_psl.1.0.0.UPF
     MD5 check sum: de57925cfc675213e43241dcc441eda8
     Pseudo is Projector augmented-wave + core cor, Zval = 14.0
     Generated using &quot;atomic&quot; code by A. Dal Corso  v.6.3
     Shape of augmentation charge: PSQ
     Using radial grid of 1229 points,  6 beta functions with: 
                l(1) =   0
                l(2) =   0
                l(3) =   1
                l(4) =   1
                l(5) =   2
                l(6) =   2
     Q(r) pseudized with 0 coefficients 


     PseudoPot. # 2 for S  read from file:
     /shared/home/as3359/pseudo/S.pbesol-nl-kjpaw_psl.1.0.0.UPF
     MD5 check sum: bf3db50ec3f960682bbc396f1aadd1dd
     Pseudo is Projector augmented-wave + core cor, Zval =  6.0
     Generated using &quot;atomic&quot; code by A. Dal Corso  v.6.3
     Shape of augmentation charge: PSQ
     Using radial grid of 1151 points,  4 beta functions with: 
                l(1) =   0
                l(2) =   0
                l(3) =   1
                l(4) =   1
     Q(r) pseudized with 0 coefficients 


     atomic species   valence    mass     pseudopotential
        Mo            14.00    95.94000     Mo( 1.00)
        S              6.00    32.06500     S ( 1.00)

     No symmetry found



   Cartesian axes

     site n.     atom                  positions (alat units)
         1           Mo  tau(   1) = (   0.0000000   0.0000000   1.6880765  )
         2           S   tau(   2) = (   0.4883508   0.2821722   2.1737857  )
         3           S   tau(   3) = (   0.4883508   0.2821722   1.2023670  )

     number of k points=   113

     Number of k-points >= 100: set verbosity='high' to print them.

     Dense  grid:   205197 G-vectors     FFT dimensions: (  45,  45, 240)

     Estimated max dynamical RAM per process >     677.81 MB

     Estimated total dynamical RAM >       1.32 GB
     Cannot read rho : file not found

     Initial potential from superposition of free atoms

     starting charge   25.99914, renormalised to   26.00000

     negative rho (up, down):  7.756E-05 0.000E+00
     Message from routine qexsd_readschema :
     xml data file /scratch/as3359/Mos2_ct_lat/MoS2.save/data-file-schema.xml not fou
     Cannot read wfcs: file not found
     Starting wfcs are   18 randomized atomic wfcs
     Checking if some PAW data can be deallocated... 

     total cpu time spent up to now is        9.9 secs

     Self-consistent Calculation

     iteration #  1     ecut=   150.00 Ry     beta= 0.70
     Davidson diagonalization with overlap
     ethr =  1.00E-05,  avg # of iterations = 10.5

     negative rho (up, down):  1.083E-04 0.000E+00

     total cpu time spent up to now is       48.6 secs

     total energy              =    -489.61520005 Ry
     estimated scf accuracy    <       0.22653994 Ry

     iteration #  2     ecut=   150.00 Ry     beta= 0.70
     Davidson diagonalization with overlap
     ethr =  8.71E-04,  avg # of iterations =  5.1

     negative rho (up, down):  8.845E-05 0.000E+00

     total cpu time spent up to now is       68.6 secs

     total energy              =    -489.53355669 Ry
     estimated scf accuracy    <       1.13923168 Ry

     iteration #  3     ecut=   150.00 Ry     beta= 0.70
     Davidson diagonalization with overlap
     ethr =  8.71E-04,  avg # of iterations =  5.1

     negative rho (up, down):  9.029E-05 0.000E+00

     total cpu time spent up to now is       87.6 secs

     total energy              =    -489.72723098 Ry
     estimated scf accuracy    <       0.02129162 Ry

     iteration #  4     ecut=   150.00 Ry     beta= 0.70
     Davidson diagonalization with overlap
     ethr =  8.19E-05,  avg # of iterations =  3.5

     negative rho (up, down):  9.997E-05 0.000E+00

     total cpu time spent up to now is      102.9 secs

     total energy              =    -489.73004636 Ry
     estimated scf accuracy    <       0.00437313 Ry

     iteration #  5     ecut=   150.00 Ry     beta= 0.70
     Davidson diagonalization with overlap
     ethr =  1.68E-05,  avg # of iterations =  4.3

     negative rho (up, down):  1.035E-04 0.000E+00

     total cpu time spent up to now is      120.0 secs

     total energy              =    -489.73145799 Ry
     estimated scf accuracy    <       0.00120938 Ry

     iteration #  6     ecut=   150.00 Ry     beta= 0.70
     Davidson diagonalization with overlap
     ethr =  4.65E-06,  avg # of iterations =  3.8

     negative rho (up, down):  1.040E-04 0.000E+00

     total cpu time spent up to now is      135.8 secs

     total energy              =    -489.73174165 Ry
     estimated scf accuracy    <       0.00001677 Ry

     iteration #  7     ecut=   150.00 Ry     beta= 0.70
     Davidson diagonalization with overlap
     ethr =  6.45E-08,  avg # of iterations =  6.0

     negative rho (up, down):  1.043E-04 0.000E+00

     total cpu time spent up to now is      159.9 secs

     total energy              =    -489.73175321 Ry
     estimated scf accuracy    <       0.00013800 Ry

     iteration #  8     ecut=   150.00 Ry     beta= 0.70
     Davidson diagonalization with overlap
     ethr =  6.45E-08,  avg # of iterations =  3.5

     negative rho (up, down):  1.045E-04 0.000E+00

     total cpu time spent up to now is      175.7 secs

     total energy              =    -489.73174282 Ry
     estimated scf accuracy    <       0.00004857 Ry

     iteration #  9     ecut=   150.00 Ry     beta= 0.70
     Davidson diagonalization with overlap
     ethr =  6.45E-08,  avg # of iterations =  4.3

     negative rho (up, down):  1.046E-04 0.000E+00

     total cpu time spent up to now is      193.5 secs

     total energy              =    -489.73175251 Ry
     estimated scf accuracy    <       0.00000053 Ry

     iteration # 10     ecut=   150.00 Ry     beta= 0.70
     Davidson diagonalization with overlap
     ethr =  2.02E-09,  avg # of iterations =  5.5

     negative rho (up, down):  1.046E-04 0.000E+00

     total cpu time spent up to now is      214.9 secs

     total energy              =    -489.73175239 Ry
     estimated scf accuracy    <       0.00000241 Ry

     iteration # 11     ecut=   150.00 Ry     beta= 0.70
     Davidson diagonalization with overlap
     ethr =  2.02E-09,  avg # of iterations =  4.2

     negative rho (up, down):  1.046E-04 0.000E+00

     total cpu time spent up to now is      231.5 secs

     total energy              =    -489.73175260 Ry
     estimated scf accuracy    <       0.00000010 Ry

     iteration # 12     ecut=   150.00 Ry     beta= 0.70
     Davidson diagonalization with overlap
     ethr =  3.97E-10,  avg # of iterations =  5.2

     negative rho (up, down):  1.046E-04 0.000E+00

     total cpu time spent up to now is      251.5 secs

     total energy              =    -489.73175265 Ry
     estimated scf accuracy    <       0.00000012 Ry

     iteration # 13     ecut=   150.00 Ry     beta= 0.70
     Davidson diagonalization with overlap
     ethr =  3.97E-10,  avg # of iterations =  1.7

     negative rho (up, down):  1.046E-04 0.000E+00

     total cpu time spent up to now is      263.8 secs

     total energy              =    -489.73175264 Ry
     estimated scf accuracy    <       0.00000004 Ry

     iteration # 14     ecut=   150.00 Ry     beta= 0.70
     Davidson diagonalization with overlap
     ethr =  1.51E-10,  avg # of iterations =  4.0

     negative rho (up, down):  1.046E-04 0.000E+00

     total cpu time spent up to now is      279.8 secs

     total energy              =    -489.73175265 Ry
     estimated scf accuracy    <          2.5E-10 Ry

     iteration # 15     ecut=   150.00 Ry     beta= 0.70
     Davidson diagonalization with overlap
     ethr =  9.65E-13,  avg # of iterations =  8.1

     negative rho (up, down):  1.046E-04 0.000E+00

     total cpu time spent up to now is      309.9 secs

     total energy              =    -489.73175266 Ry
     estimated scf accuracy    <       0.00000001 Ry

     iteration # 16     ecut=   150.00 Ry     beta= 0.70
     Davidson diagonalization with overlap
     ethr =  9.65E-13,  avg # of iterations =  4.1

     negative rho (up, down):  1.046E-04 0.000E+00

     total cpu time spent up to now is      327.0 secs

     total energy              =    -489.73175265 Ry
     estimated scf accuracy    <          6.1E-09 Ry

     iteration # 17     ecut=   150.00 Ry     beta= 0.70
     Davidson diagonalization with overlap
     ethr =  9.65E-13,  avg # of iterations =  7.4

     negative rho (up, down):  1.046E-04 0.000E+00

     total cpu time spent up to now is      353.4 secs

     total energy              =    -489.73175265 Ry
     estimated scf accuracy    <          4.5E-10 Ry

     iteration # 18     ecut=   150.00 Ry     beta= 0.70
     Davidson diagonalization with overlap
     ethr =  9.65E-13,  avg # of iterations =  1.0

     negative rho (up, down):  1.046E-04 0.000E+00

     total cpu time spent up to now is      365.0 secs

     total energy              =    -489.73175265 Ry
     estimated scf accuracy    <          3.3E-10 Ry

     iteration # 19     ecut=   150.00 Ry     beta= 0.70
     Davidson diagonalization with overlap
     ethr =  9.65E-13,  avg # of iterations =  2.5

     negative rho (up, down):  1.046E-04 0.000E+00

     total cpu time spent up to now is      379.2 secs

     total energy              =    -489.73175265 Ry
     estimated scf accuracy    <          2.5E-11 Ry

     iteration # 20     ecut=   150.00 Ry     beta= 0.70
     Davidson diagonalization with overlap
     ethr =  1.00E-13,  avg # of iterations =  4.8

     negative rho (up, down):  1.046E-04 0.000E+00

     total cpu time spent up to now is      397.4 secs

     total energy              =    -489.73175265 Ry
     estimated scf accuracy    <          7.3E-12 Ry

     iteration # 21     ecut=   150.00 Ry     beta= 0.70
     Davidson diagonalization with overlap
     ethr =  1.00E-13,  avg # of iterations =  1.0

     negative rho (up, down):  1.046E-04 0.000E+00

     total cpu time spent up to now is      408.8 secs

     total energy              =    -489.73175265 Ry
     estimated scf accuracy    <          7.7E-12 Ry

     iteration # 22     ecut=   150.00 Ry     beta= 0.70
     Davidson diagonalization with overlap
     ethr =  1.00E-13,  avg # of iterations =  1.0

     negative rho (up, down):  1.046E-04 0.000E+00

     total cpu time spent up to now is      420.2 secs

     total energy              =    -489.73175265 Ry
     estimated scf accuracy    <          4.3E-12 Ry

     iteration # 23     ecut=   150.00 Ry     beta= 0.70
     Davidson diagonalization with overlap
     ethr =  1.00E-13,  avg # of iterations =  1.1

     negative rho (up, down):  1.046E-04 0.000E+00

     total cpu time spent up to now is      431.6 secs

     End of self-consistent calculation

     Number of k-points >= 100: set verbosity='high' to print the bands.

     highest occupied level (ev):     1.0540

!    total energy              =    -489.73175265 Ry

     total all-electron energy =     -9688.189598 Ry
     estimated scf accuracy    <          7.0E-14 Ry

     The total energy is the sum of the following terms:
     one-electron contribution =    -834.07827726 Ry
     hartree contribution      =     421.59470801 Ry
     xc contribution           =     -29.82592480 Ry
     ewald contribution        =     265.49525441 Ry
     one-center paw contrib.   =    -312.91751301 Ry

     convergence has been achieved in  23 iterations

     negative rho (up, down):  1.046E-04 0.000E+00

     Forces acting on atoms (cartesian axes, Ry/au):

     atom    1 type  1   force =     0.00039393    0.00005726   -0.00000092
     atom    2 type  2   force =    -0.00019696   -0.00002862    0.08783897
     atom    3 type  2   force =    -0.00019696   -0.00002865   -0.08783805

     Total force =     0.124223     Total SCF correction =     0.000000


     Computing stress (Cartesian axis) and pressure


     negative rho (up, down):  1.046E-04 0.000E+00
          total   stress  (Ry/bohr**3)                   (kbar)     P=       86.10
   0.00057846  -0.00000124  -0.00000000           85.09       -0.18       -0.00
  -0.00000124   0.00057448   0.00000000           -0.18       84.51        0.00
  -0.00000000   0.00000000   0.00060301           -0.00        0.00       88.71


     Writing output data file /scratch/as3359/Mos2_ct_lat/MoS2.save/
 
     init_run     :     17.96s CPU      9.72s WALL (       1 calls)
     electrons    :    829.00s CPU    421.80s WALL (       1 calls)
     forces       :      4.77s CPU      2.44s WALL (       1 calls)
     stress       :     15.25s CPU      7.79s WALL (       1 calls)

     Called by init_run:
     wfcinit      :     13.09s CPU      6.70s WALL (       1 calls)
     potinit      :      1.36s CPU      0.69s WALL (       1 calls)
     hinit0       :      2.92s CPU      1.98s WALL (       1 calls)

     Called by electrons:
     c_bands      :    710.77s CPU    359.94s WALL (      23 calls)
     sum_band     :    103.36s CPU     53.23s WALL (      23 calls)
     v_of_rho     :      3.40s CPU      1.87s WALL (      24 calls)
     newd         :      6.09s CPU      3.95s WALL (      24 calls)
     PAW_pot      :      4.48s CPU      2.33s WALL (      24 calls)
     mix_rho      :      1.27s CPU      0.69s WALL (      23 calls)

     Called by c_bands:
     init_us_2    :     19.69s CPU      9.88s WALL (    5537 calls)
     cegterg      :    678.56s CPU    343.58s WALL (    2599 calls)

     Called by *egterg:
     cdiaghg      :      5.64s CPU      2.87s WALL (   13639 calls)
     h_psi        :    595.00s CPU    301.60s WALL (   13752 calls)
     s_psi        :     17.54s CPU      8.81s WALL (   13752 calls)
     g_psi        :      3.94s CPU      1.98s WALL (   11040 calls)

     Called by h_psi:
     h_psi:calbec :     15.76s CPU      7.96s WALL (   13752 calls)
     vloc_psi     :    551.31s CPU    279.61s WALL (   13752 calls)
     add_vuspsi   :     23.62s CPU     11.86s WALL (   13752 calls)

     General routines
     calbec       :     19.74s CPU      9.98s WALL (   16916 calls)
     fft          :      1.48s CPU      0.76s WALL (     289 calls)
     ffts         :      0.12s CPU      0.06s WALL (      23 calls)
     fftw         :    549.14s CPU    278.61s WALL (  266979 calls)
 
     Parallel routines
 
     PWSCF        :  14m29.23s CPU   7m23.79s WALL

 
   This run was terminated on:  13:34:55   8Apr2022            

=------------------------------------------------------------------------------=
   JOB DONE.
=------------------------------------------------------------------------------=
