
     Program PWSCF v.6.8 starts on  8Apr2022 at 14: 3:42 

     This program is part of the open-source Quantum ESPRESSO suite
     for quantum simulation of materials; please cite
         "P. Giannozzi et al., J. Phys.:Condens. Matter 21 395502 (2009);
         "P. Giannozzi et al., J. Phys.:Condens. Matter 29 465901 (2017);
         "P. Giannozzi et al., J. Chem. Phys. 152 154105 (2020);
          URL http://www.quantum-espresso.org", 
     in publications or presentations arising from this work. More details at
     http://www.quantum-espresso.org/quote

     Parallel version (MPI & OpenMP), running on       4 processor cores
     Number of MPI processes:                 2
     Threads/MPI process:                     2

     MPI processes distributed on     1 nodes
     R & G space division:  proc/nbgrp/npool/nimage =       2
     125200 MiB available memory on the printing compute node when the environment starts
 
     Reading input from MoS2.scf.6.100.in
Warning: card  &CELL ignored
Warning: card     CELL_DYNAMICS='BFGS' ignored
Warning: card  / ignored

     Current dimensions of program PWSCF are:
     Max number of different atomic species (ntypx) = 10
     Max number of k-points (npk) =  40000
     Max angular momentum in pseudopotentials (lmaxx) =  4
     Message from routine iosys:
     restart disabled: needed files not found
     file Mo.pbesol-spn-kjpaw_psl.1.0.0.UPF: wavefunction(s)  4S 4D renormalized
     file S.pbesol-nl-kjpaw_psl.1.0.0.UPF: wavefunction(s)  3S renormalized

     Subspace diagonalization in iterative solution of the eigenvalue problem:
     a serial algorithm will be used

 
     Parallelization info
     --------------------
     sticks:   dense  smooth     PW     G-vecs:    dense   smooth      PW
     Min         741     741    216               116441   116441   18397
     Max         742     742    217               116454   116454   18400
     Sum        1483    1483    433               232895   232895   36797
 
     Using Slab Decomposition
 


     bravais-lattice index     =            0
     lattice parameter (alat)  =       6.1000  a.u.
     unit-cell volume          =     937.6523 (a.u.)^3
     number of atoms/cell      =            3
     number of atomic types    =            2
     number of electrons       =        26.00
     number of Kohn-Sham states=           13
     kinetic-energy cutoff     =     150.0000  Ry
     charge density cutoff     =     600.0000  Ry
     scf convergence threshold =      1.0E-12
     mixing beta               =       0.7000
     number of iterations used =            8  plain     mixing
     Exchange-correlation= SLA  PW   PSX  PSC
                           (   1   4  10   8   0   0   0)

     celldm(1)=   6.100000  celldm(2)=   0.000000  celldm(3)=   0.000000
     celldm(4)=   0.000000  celldm(5)=   0.000000  celldm(6)=   0.000000

     crystal axes: (cart. coord. in units of alat)
               a(1) = (   0.976384  -0.000017   0.000000 )  
               a(2) = (  -0.487931   0.846187   0.000000 )  
               a(3) = (   0.000000   0.000000   5.000000 )  

     reciprocal axes: (cart. coord. in units 2 pi/alat)
               b(1) = (  1.024198  0.590577  0.000000 )  
               b(2) = (  0.000021  1.181785  0.000000 )  
               b(3) = (  0.000000  0.000000  0.200000 )  


     PseudoPot. # 1 for Mo read from file:
     /shared/home/as3359/pseudo/Mo.pbesol-spn-kjpaw_psl.1.0.0.UPF
     MD5 check sum: de57925cfc675213e43241dcc441eda8
     Pseudo is Projector augmented-wave + core cor, Zval = 14.0
     Generated using &quot;atomic&quot; code by A. Dal Corso  v.6.3
     Shape of augmentation charge: PSQ
     Using radial grid of 1229 points,  6 beta functions with: 
                l(1) =   0
                l(2) =   0
                l(3) =   1
                l(4) =   1
                l(5) =   2
                l(6) =   2
     Q(r) pseudized with 0 coefficients 


     PseudoPot. # 2 for S  read from file:
     /shared/home/as3359/pseudo/S.pbesol-nl-kjpaw_psl.1.0.0.UPF
     MD5 check sum: bf3db50ec3f960682bbc396f1aadd1dd
     Pseudo is Projector augmented-wave + core cor, Zval =  6.0
     Generated using &quot;atomic&quot; code by A. Dal Corso  v.6.3
     Shape of augmentation charge: PSQ
     Using radial grid of 1151 points,  4 beta functions with: 
                l(1) =   0
                l(2) =   0
                l(3) =   1
                l(4) =   1
     Q(r) pseudized with 0 coefficients 


     atomic species   valence    mass     pseudopotential
        Mo            14.00    95.94000     Mo( 1.00)
        S              6.00    32.06500     S ( 1.00)

     No symmetry found



   Cartesian axes

     site n.     atom                  positions (alat units)
         1           Mo  tau(   1) = (   0.0000000   0.0000000   1.6880765  )
         2           S   tau(   2) = (   0.4883508   0.2821722   2.1737857  )
         3           S   tau(   3) = (   0.4883508   0.2821722   1.2023670  )

     number of k points=   113

     Number of k-points >= 100: set verbosity='high' to print them.

     Dense  grid:   232895 G-vectors     FFT dimensions: (  48,  48, 240)

     Estimated max dynamical RAM per process >     768.49 MB

     Estimated total dynamical RAM >       1.50 GB
     Cannot read rho : file not found

     Initial potential from superposition of free atoms

     starting charge   25.99914, renormalised to   26.00000

     negative rho (up, down):  9.054E-05 0.000E+00
     Message from routine qexsd_readschema :
     xml data file /scratch/as3359/Mos2_ct_lat/MoS2.save/data-file-schema.xml not fou
     Cannot read wfcs: file not found
     Starting wfcs are   18 randomized atomic wfcs
     Checking if some PAW data can be deallocated... 

     total cpu time spent up to now is       10.0 secs

     Self-consistent Calculation

     iteration #  1     ecut=   150.00 Ry     beta= 0.70
     Davidson diagonalization with overlap
     ethr =  1.00E-05,  avg # of iterations = 10.3

     negative rho (up, down):  1.227E-04 0.000E+00

     total cpu time spent up to now is       46.7 secs

     total energy              =    -489.69357889 Ry
     estimated scf accuracy    <       0.14346059 Ry

     iteration #  2     ecut=   150.00 Ry     beta= 0.70
     Davidson diagonalization with overlap
     ethr =  5.52E-04,  avg # of iterations =  4.8

     negative rho (up, down):  1.136E-04 0.000E+00

     total cpu time spent up to now is       65.2 secs

     total energy              =    -489.65886872 Ry
     estimated scf accuracy    <       0.49001168 Ry

     iteration #  3     ecut=   150.00 Ry     beta= 0.70
     Davidson diagonalization with overlap
     ethr =  5.52E-04,  avg # of iterations =  5.1

     negative rho (up, down):  1.146E-04 0.000E+00

     total cpu time spent up to now is       83.3 secs

     total energy              =    -489.75109757 Ry
     estimated scf accuracy    <       0.04883507 Ry

     iteration #  4     ecut=   150.00 Ry     beta= 0.70
     Davidson diagonalization with overlap
     ethr =  1.88E-04,  avg # of iterations =  2.4

     negative rho (up, down):  1.196E-04 0.000E+00

     total cpu time spent up to now is       96.3 secs

     total energy              =    -489.75432533 Ry
     estimated scf accuracy    <       0.00543328 Ry

     iteration #  5     ecut=   150.00 Ry     beta= 0.70
     Davidson diagonalization with overlap
     ethr =  2.09E-05,  avg # of iterations =  5.3

     negative rho (up, down):  1.207E-04 0.000E+00

     total cpu time spent up to now is      115.8 secs

     total energy              =    -489.75763022 Ry
     estimated scf accuracy    <       0.01077475 Ry

     iteration #  6     ecut=   150.00 Ry     beta= 0.70
     Davidson diagonalization with overlap
     ethr =  2.09E-05,  avg # of iterations =  1.8

     negative rho (up, down):  1.215E-04 0.000E+00

     total cpu time spent up to now is      127.6 secs

     total energy              =    -489.75682888 Ry
     estimated scf accuracy    <       0.00460862 Ry

     iteration #  7     ecut=   150.00 Ry     beta= 0.70
     Davidson diagonalization with overlap
     ethr =  1.77E-05,  avg # of iterations =  3.2

     negative rho (up, down):  1.226E-04 0.000E+00

     total cpu time spent up to now is      141.5 secs

     total energy              =    -489.75740002 Ry
     estimated scf accuracy    <       0.00018300 Ry

     iteration #  8     ecut=   150.00 Ry     beta= 0.70
     Davidson diagonalization with overlap
     ethr =  7.04E-07,  avg # of iterations =  7.1

     negative rho (up, down):  1.226E-04 0.000E+00

     total cpu time spent up to now is      166.9 secs

     total energy              =    -489.75759357 Ry
     estimated scf accuracy    <       0.00355779 Ry

     iteration #  9     ecut=   150.00 Ry     beta= 0.70
     Davidson diagonalization with overlap
     ethr =  7.04E-07,  avg # of iterations =  4.8

     negative rho (up, down):  1.231E-04 0.000E+00

     total cpu time spent up to now is      184.4 secs

     total energy              =    -489.75757983 Ry
     estimated scf accuracy    <       0.00079699 Ry

     iteration # 10     ecut=   150.00 Ry     beta= 0.70
     Davidson diagonalization with overlap
     ethr =  7.04E-07,  avg # of iterations =  4.2

     negative rho (up, down):  1.232E-04 0.000E+00

     total cpu time spent up to now is      200.7 secs

     total energy              =    -489.75763572 Ry
     estimated scf accuracy    <       0.00007938 Ry

     iteration # 11     ecut=   150.00 Ry     beta= 0.70
     Davidson diagonalization with overlap
     ethr =  3.05E-07,  avg # of iterations =  4.3

     negative rho (up, down):  1.232E-04 0.000E+00

     total cpu time spent up to now is      215.8 secs

     total energy              =    -489.75764951 Ry
     estimated scf accuracy    <       0.00000144 Ry

     iteration # 12     ecut=   150.00 Ry     beta= 0.70
     Davidson diagonalization with overlap
     ethr =  5.54E-09,  avg # of iterations =  7.1

     negative rho (up, down):  1.233E-04 0.000E+00

     total cpu time spent up to now is      239.3 secs

     total energy              =    -489.75765248 Ry
     estimated scf accuracy    <       0.00000734 Ry

     iteration # 13     ecut=   150.00 Ry     beta= 0.70
     Davidson diagonalization with overlap
     ethr =  5.54E-09,  avg # of iterations =  2.7

     negative rho (up, down):  1.233E-04 0.000E+00

     total cpu time spent up to now is      253.1 secs

     total energy              =    -489.75765102 Ry
     estimated scf accuracy    <       0.00000255 Ry

     iteration # 14     ecut=   150.00 Ry     beta= 0.70
     Davidson diagonalization with overlap
     ethr =  5.54E-09,  avg # of iterations =  6.2

     negative rho (up, down):  1.233E-04 0.000E+00

     total cpu time spent up to now is      275.2 secs

     total energy              =    -489.75765201 Ry
     estimated scf accuracy    <       0.00001280 Ry

     iteration # 15     ecut=   150.00 Ry     beta= 0.70
     Davidson diagonalization with overlap
     ethr =  5.54E-09,  avg # of iterations =  4.1

     negative rho (up, down):  1.233E-04 0.000E+00

     total cpu time spent up to now is      291.2 secs

     total energy              =    -489.75765181 Ry
     estimated scf accuracy    <       0.00000236 Ry

     iteration # 16     ecut=   150.00 Ry     beta= 0.70
     Davidson diagonalization with overlap
     ethr =  5.54E-09,  avg # of iterations =  5.1

     negative rho (up, down):  1.233E-04 0.000E+00

     total cpu time spent up to now is      309.1 secs

     total energy              =    -489.75765254 Ry
     estimated scf accuracy    <       0.00000050 Ry

     iteration # 17     ecut=   150.00 Ry     beta= 0.70
     Davidson diagonalization with overlap
     ethr =  1.92E-09,  avg # of iterations =  1.8

     negative rho (up, down):  1.233E-04 0.000E+00

     total cpu time spent up to now is      321.1 secs

     total energy              =    -489.75765256 Ry
     estimated scf accuracy    <       0.00000022 Ry

     iteration # 18     ecut=   150.00 Ry     beta= 0.70
     Davidson diagonalization with overlap
     ethr =  8.50E-10,  avg # of iterations =  1.1

     negative rho (up, down):  1.233E-04 0.000E+00

     total cpu time spent up to now is      332.1 secs

     total energy              =    -489.75765254 Ry
     estimated scf accuracy    <       0.00000020 Ry

     iteration # 19     ecut=   150.00 Ry     beta= 0.70
     Davidson diagonalization with overlap
     ethr =  7.83E-10,  avg # of iterations =  1.8

     negative rho (up, down):  1.233E-04 0.000E+00

     total cpu time spent up to now is      343.7 secs

     total energy              =    -489.75765253 Ry
     estimated scf accuracy    <       0.00000009 Ry

     iteration # 20     ecut=   150.00 Ry     beta= 0.70
     Davidson diagonalization with overlap
     ethr =  3.50E-10,  avg # of iterations =  4.0

     negative rho (up, down):  1.233E-04 0.000E+00

     total cpu time spent up to now is      358.2 secs

     total energy              =    -489.75765254 Ry
     estimated scf accuracy    <          1.5E-09 Ry

     iteration # 21     ecut=   150.00 Ry     beta= 0.70
     Davidson diagonalization with overlap
     ethr =  5.90E-12,  avg # of iterations =  5.7

     negative rho (up, down):  1.233E-04 0.000E+00

     total cpu time spent up to now is      377.3 secs

     total energy              =    -489.75765254 Ry
     estimated scf accuracy    <          7.4E-10 Ry

     iteration # 22     ecut=   150.00 Ry     beta= 0.70
     Davidson diagonalization with overlap
     ethr =  2.85E-12,  avg # of iterations =  1.4

     negative rho (up, down):  1.233E-04 0.000E+00

     total cpu time spent up to now is      388.7 secs

     total energy              =    -489.75765254 Ry
     estimated scf accuracy    <          1.1E-09 Ry

     iteration # 23     ecut=   150.00 Ry     beta= 0.70
     Davidson diagonalization with overlap
     ethr =  2.85E-12,  avg # of iterations =  1.0

     negative rho (up, down):  1.233E-04 0.000E+00

     total cpu time spent up to now is      399.7 secs

     total energy              =    -489.75765254 Ry
     estimated scf accuracy    <          1.4E-09 Ry

     iteration # 24     ecut=   150.00 Ry     beta= 0.70
     Davidson diagonalization with overlap
     ethr =  2.85E-12,  avg # of iterations =  1.0

     negative rho (up, down):  1.233E-04 0.000E+00

     total cpu time spent up to now is      410.6 secs

     total energy              =    -489.75765254 Ry
     estimated scf accuracy    <          1.4E-09 Ry

     iteration # 25     ecut=   150.00 Ry     beta= 0.70
     Davidson diagonalization with overlap
     ethr =  2.85E-12,  avg # of iterations =  1.0

     negative rho (up, down):  1.233E-04 0.000E+00

     total cpu time spent up to now is      421.6 secs

     total energy              =    -489.75765254 Ry
     estimated scf accuracy    <          1.3E-09 Ry

     iteration # 26     ecut=   150.00 Ry     beta= 0.70
     Davidson diagonalization with overlap
     ethr =  2.85E-12,  avg # of iterations =  2.3

     negative rho (up, down):  1.233E-04 0.000E+00

     total cpu time spent up to now is      434.7 secs

     total energy              =    -489.75765254 Ry
     estimated scf accuracy    <          2.0E-10 Ry

     iteration # 27     ecut=   150.00 Ry     beta= 0.70
     Davidson diagonalization with overlap
     ethr =  7.55E-13,  avg # of iterations =  1.4

     negative rho (up, down):  1.233E-04 0.000E+00

     total cpu time spent up to now is      446.0 secs

     total energy              =    -489.75765254 Ry
     estimated scf accuracy    <          3.6E-10 Ry

     iteration # 28     ecut=   150.00 Ry     beta= 0.70
     Davidson diagonalization with overlap
     ethr =  7.55E-13,  avg # of iterations =  1.6

     negative rho (up, down):  1.233E-04 0.000E+00

     total cpu time spent up to now is      457.4 secs

     total energy              =    -489.75765254 Ry
     estimated scf accuracy    <          5.6E-10 Ry

     iteration # 29     ecut=   150.00 Ry     beta= 0.70
     Davidson diagonalization with overlap
     ethr =  7.55E-13,  avg # of iterations =  1.0

     negative rho (up, down):  1.233E-04 0.000E+00

     total cpu time spent up to now is      468.3 secs

     total energy              =    -489.75765254 Ry
     estimated scf accuracy    <          5.3E-10 Ry

     iteration # 30     ecut=   150.00 Ry     beta= 0.70
     Davidson diagonalization with overlap
     ethr =  7.55E-13,  avg # of iterations =  1.0

     negative rho (up, down):  1.233E-04 0.000E+00

     total cpu time spent up to now is      479.2 secs

     total energy              =    -489.75765254 Ry
     estimated scf accuracy    <          3.9E-10 Ry

     iteration # 31     ecut=   150.00 Ry     beta= 0.70
     Davidson diagonalization with overlap
     ethr =  7.55E-13,  avg # of iterations =  4.4

     negative rho (up, down):  1.233E-04 0.000E+00

     total cpu time spent up to now is      495.4 secs

     total energy              =    -489.75765254 Ry
     estimated scf accuracy    <          3.8E-11 Ry

     iteration # 32     ecut=   150.00 Ry     beta= 0.70
     Davidson diagonalization with overlap
     ethr =  1.48E-13,  avg # of iterations =  2.2

     negative rho (up, down):  1.233E-04 0.000E+00

     total cpu time spent up to now is      507.5 secs

     total energy              =    -489.75765254 Ry
     estimated scf accuracy    <          1.5E-11 Ry

     iteration # 33     ecut=   150.00 Ry     beta= 0.70
     Davidson diagonalization with overlap
     ethr =  1.00E-13,  avg # of iterations =  3.3

     negative rho (up, down):  1.233E-04 0.000E+00

     total cpu time spent up to now is      521.5 secs

     End of self-consistent calculation

     Number of k-points >= 100: set verbosity='high' to print the bands.

     highest occupied level (ev):     0.2939

!    total energy              =    -489.75765254 Ry

     total all-electron energy =     -9688.215498 Ry
     estimated scf accuracy    <          9.2E-13 Ry

     The total energy is the sum of the following terms:
     one-electron contribution =    -811.45977927 Ry
     hartree contribution      =     409.46433623 Ry
     xc contribution           =     -29.49006138 Ry
     ewald contribution        =     254.61430136 Ry
     one-center paw contrib.   =    -312.88644949 Ry

     convergence has been achieved in  33 iterations

     negative rho (up, down):  1.233E-04 0.000E+00

     Forces acting on atoms (cartesian axes, Ry/au):

     atom    1 type  1   force =     0.00025500    0.00013644    0.00000042
     atom    2 type  2   force =    -0.00012749   -0.00006822   -0.00940778
     atom    3 type  2   force =    -0.00012751   -0.00006821    0.00940736

     Total force =     0.013309     Total SCF correction =     0.000006


     Computing stress (Cartesian axis) and pressure


     negative rho (up, down):  1.233E-04 0.000E+00
          total   stress  (Ry/bohr**3)                   (kbar)     P=       -7.41
  -0.00004406  -0.00000081  -0.00000000           -6.48       -0.12       -0.00
  -0.00000081  -0.00004711   0.00000000           -0.12       -6.93        0.00
  -0.00000000   0.00000000  -0.00005994           -0.00        0.00       -8.82


     Writing output data file /scratch/as3359/Mos2_ct_lat/MoS2.save/
 
     init_run     :     17.74s CPU      9.82s WALL (       1 calls)
     electrons    :   1001.28s CPU    511.62s WALL (       1 calls)
     forces       :      5.44s CPU      2.79s WALL (       1 calls)
     stress       :     17.49s CPU      8.93s WALL (       1 calls)

     Called by init_run:
     wfcinit      :     12.62s CPU      6.48s WALL (       1 calls)
     potinit      :      1.51s CPU      0.78s WALL (       1 calls)
     hinit0       :      2.98s CPU      2.18s WALL (       1 calls)

     Called by electrons:
     c_bands      :    836.61s CPU    424.72s WALL (      33 calls)
     sum_band     :    141.03s CPU     73.00s WALL (      33 calls)
     v_of_rho     :      5.36s CPU      2.96s WALL (      34 calls)
     newd         :      9.81s CPU      6.41s WALL (      34 calls)
     PAW_pot      :      6.39s CPU      3.32s WALL (      34 calls)
     mix_rho      :      2.40s CPU      1.42s WALL (      33 calls)

     Called by c_bands:
     init_us_2    :     31.39s CPU     15.74s WALL (    7797 calls)
     cegterg      :    784.97s CPU    398.52s WALL (    3729 calls)

     Called by *egterg:
     cdiaghg      :      6.68s CPU      3.40s WALL (   16660 calls)
     h_psi        :    668.89s CPU    340.14s WALL (   16773 calls)
     s_psi        :     24.93s CPU     12.53s WALL (   16773 calls)
     g_psi        :      5.46s CPU      2.75s WALL (   12931 calls)

     Called by h_psi:
     h_psi:calbec :     21.99s CPU     11.07s WALL (   16773 calls)
     vloc_psi     :    607.95s CPU    309.49s WALL (   16773 calls)
     add_vuspsi   :     33.17s CPU     16.65s WALL (   16773 calls)

     General routines
     calbec       :     28.20s CPU     14.22s WALL (   21067 calls)
     fft          :      2.23s CPU      1.15s WALL (     399 calls)
     ffts         :      0.17s CPU      0.09s WALL (      33 calls)
     fftw         :    593.12s CPU    302.38s WALL (  336909 calls)
 
     Parallel routines
 
     PWSCF        :  17m24.42s CPU   8m55.51s WALL

 
   This run was terminated on:  14:12:38   8Apr2022            

=------------------------------------------------------------------------------=
   JOB DONE.
=------------------------------------------------------------------------------=
