
     Program PWSCF v.6.8 starts on 17Apr2022 at 13:42:58 

     This program is part of the open-source Quantum ESPRESSO suite
     for quantum simulation of materials; please cite
         "P. Giannozzi et al., J. Phys.:Condens. Matter 21 395502 (2009);
         "P. Giannozzi et al., J. Phys.:Condens. Matter 29 465901 (2017);
         "P. Giannozzi et al., J. Chem. Phys. 152 154105 (2020);
          URL http://www.quantum-espresso.org", 
     in publications or presentations arising from this work. More details at
     http://www.quantum-espresso.org/quote

     Parallel version (MPI & OpenMP), running on       4 processor cores
     Number of MPI processes:                 2
     Threads/MPI process:                     2

     MPI processes distributed on     1 nodes
     R & G space division:  proc/nbgrp/npool/nimage =       2
     125233 MiB available memory on the printing compute node when the environment starts
 
     Reading input from MoS2.scf.6.052.in
Warning: card  &CELL ignored
Warning: card     CELL_DYNAMICS='BFGS' ignored
Warning: card  / ignored

     Current dimensions of program PWSCF are:
     Max number of different atomic species (ntypx) = 10
     Max number of k-points (npk) =  40000
     Max angular momentum in pseudopotentials (lmaxx) =  4
     Message from routine iosys:
     restart disabled: needed files not found
     file Mo.pbesol-spn-kjpaw_psl.1.0.0.UPF: wavefunction(s)  4S 4D renormalized
     file S.pbesol-nl-kjpaw_psl.1.0.0.UPF: wavefunction(s)  3S renormalized

     Subspace diagonalization in iterative solution of the eigenvalue problem:
     a serial algorithm will be used

 
     Parallelization info
     --------------------
     sticks:   dense  smooth     PW     G-vecs:    dense   smooth      PW
     Min         714     714    210               113451   113451   17932
     Max         715     715    211               113456   113456   17955
     Sum        1429    1429    421               226907   226907   35887
 
     Using Slab Decomposition
 


     bravais-lattice index     =            0
     lattice parameter (alat)  =       6.0520  a.u.
     unit-cell volume          =     915.6913 (a.u.)^3
     number of atoms/cell      =            3
     number of atomic types    =            2
     number of electrons       =        26.00
     number of Kohn-Sham states=           13
     kinetic-energy cutoff     =     150.0000  Ry
     charge density cutoff     =     600.0000  Ry
     scf convergence threshold =      1.0E-12
     mixing beta               =       0.7000
     number of iterations used =            8  plain     mixing
     Exchange-correlation= SLA  PW   PSX  PSC
                           (   1   4  10   8   0   0   0)

     celldm(1)=   6.052000  celldm(2)=   0.000000  celldm(3)=   0.000000
     celldm(4)=   0.000000  celldm(5)=   0.000000  celldm(6)=   0.000000

     crystal axes: (cart. coord. in units of alat)
               a(1) = (   0.976384  -0.000017   0.000000 )  
               a(2) = (  -0.487931   0.846187   0.000000 )  
               a(3) = (   0.000000   0.000000   5.000000 )  

     reciprocal axes: (cart. coord. in units 2 pi/alat)
               b(1) = (  1.024198  0.590577  0.000000 )  
               b(2) = (  0.000021  1.181785  0.000000 )  
               b(3) = (  0.000000  0.000000  0.200000 )  


     PseudoPot. # 1 for Mo read from file:
     /shared/home/as3359/pseudo/Mo.pbesol-spn-kjpaw_psl.1.0.0.UPF
     MD5 check sum: de57925cfc675213e43241dcc441eda8
     Pseudo is Projector augmented-wave + core cor, Zval = 14.0
     Generated using &quot;atomic&quot; code by A. Dal Corso  v.6.3
     Shape of augmentation charge: PSQ
     Using radial grid of 1229 points,  6 beta functions with: 
                l(1) =   0
                l(2) =   0
                l(3) =   1
                l(4) =   1
                l(5) =   2
                l(6) =   2
     Q(r) pseudized with 0 coefficients 


     PseudoPot. # 2 for S  read from file:
     /shared/home/as3359/pseudo/S.pbesol-nl-kjpaw_psl.1.0.0.UPF
     MD5 check sum: bf3db50ec3f960682bbc396f1aadd1dd
     Pseudo is Projector augmented-wave + core cor, Zval =  6.0
     Generated using &quot;atomic&quot; code by A. Dal Corso  v.6.3
     Shape of augmentation charge: PSQ
     Using radial grid of 1151 points,  4 beta functions with: 
                l(1) =   0
                l(2) =   0
                l(3) =   1
                l(4) =   1
     Q(r) pseudized with 0 coefficients 


     atomic species   valence    mass     pseudopotential
        Mo            14.00    95.94000     Mo( 1.00)
        S              6.00    32.06500     S ( 1.00)

     No symmetry found



   Cartesian axes

     site n.     atom                  positions (alat units)
         1           Mo  tau(   1) = (   0.0000000   0.0000000   1.6880765  )
         2           S   tau(   2) = (   0.4883508   0.2821722   2.1737857  )
         3           S   tau(   3) = (   0.4883508   0.2821722   1.2023670  )

     number of k points=   113

     Number of k-points >= 100: set verbosity='high' to print them.

     Dense  grid:   226907 G-vectors     FFT dimensions: (  48,  48, 240)

     Estimated max dynamical RAM per process >     750.10 MB

     Estimated total dynamical RAM >       1.47 GB
     Cannot read rho : file not found

     Initial potential from superposition of free atoms

     starting charge   25.99914, renormalised to   26.00000

     negative rho (up, down):  8.644E-05 0.000E+00
     Message from routine qexsd_readschema :
     xml data file /scratch/as3359/Mos2_ct_lat/MoS2.save/data-file-schema.xml not fou
     Cannot read wfcs: file not found
     Starting wfcs are   18 randomized atomic wfcs
     Checking if some PAW data can be deallocated... 

     total cpu time spent up to now is        9.9 secs

     Self-consistent Calculation

     iteration #  1     ecut=   150.00 Ry     beta= 0.70
     Davidson diagonalization with overlap
     ethr =  1.00E-05,  avg # of iterations = 10.3

     negative rho (up, down):  1.180E-04 0.000E+00

     total cpu time spent up to now is       39.9 secs

     total energy              =    -489.68548953 Ry
     estimated scf accuracy    <       0.15646869 Ry

     iteration #  2     ecut=   150.00 Ry     beta= 0.70
     Davidson diagonalization with overlap
     ethr =  6.02E-04,  avg # of iterations =  5.1

     negative rho (up, down):  1.072E-04 0.000E+00

     total cpu time spent up to now is       55.4 secs

     total energy              =    -489.64007842 Ry
     estimated scf accuracy    <       0.60856530 Ry

     iteration #  3     ecut=   150.00 Ry     beta= 0.70
     Davidson diagonalization with overlap
     ethr =  6.02E-04,  avg # of iterations =  5.0

     negative rho (up, down):  1.081E-04 0.000E+00

     total cpu time spent up to now is       70.4 secs

     total energy              =    -489.75247154 Ry
     estimated scf accuracy    <       0.03858405 Ry

     iteration #  4     ecut=   150.00 Ry     beta= 0.70
     Davidson diagonalization with overlap
     ethr =  1.48E-04,  avg # of iterations =  2.3

     negative rho (up, down):  1.142E-04 0.000E+00

     total cpu time spent up to now is       81.4 secs

     total energy              =    -489.75466426 Ry
     estimated scf accuracy    <       0.00556059 Ry

     iteration #  5     ecut=   150.00 Ry     beta= 0.70
     Davidson diagonalization with overlap
     ethr =  2.14E-05,  avg # of iterations =  4.9

     negative rho (up, down):  1.153E-04 0.000E+00

     total cpu time spent up to now is       96.6 secs

     total energy              =    -489.75746967 Ry
     estimated scf accuracy    <       0.00704078 Ry

     iteration #  6     ecut=   150.00 Ry     beta= 0.70
     Davidson diagonalization with overlap
     ethr =  2.14E-05,  avg # of iterations =  1.8

     negative rho (up, down):  1.165E-04 0.000E+00

     total cpu time spent up to now is      106.4 secs

     total energy              =    -489.75682726 Ry
     estimated scf accuracy    <       0.00238128 Ry

     iteration #  7     ecut=   150.00 Ry     beta= 0.70
     Davidson diagonalization with overlap
     ethr =  9.16E-06,  avg # of iterations =  4.5

     negative rho (up, down):  1.172E-04 0.000E+00

     total cpu time spent up to now is      120.4 secs

     total energy              =    -489.75805098 Ry
     estimated scf accuracy    <       0.00091206 Ry

     iteration #  8     ecut=   150.00 Ry     beta= 0.70
     Davidson diagonalization with overlap
     ethr =  3.51E-06,  avg # of iterations =  3.3

     negative rho (up, down):  1.171E-04 0.000E+00

     total cpu time spent up to now is      131.8 secs

     total energy              =    -489.75775681 Ry
     estimated scf accuracy    <       0.00224072 Ry

     iteration #  9     ecut=   150.00 Ry     beta= 0.70
     Davidson diagonalization with overlap
     ethr =  3.51E-06,  avg # of iterations =  1.7

     negative rho (up, down):  1.174E-04 0.000E+00

     total cpu time spent up to now is      141.6 secs

     total energy              =    -489.75747912 Ry
     estimated scf accuracy    <       0.00113194 Ry

     iteration # 10     ecut=   150.00 Ry     beta= 0.70
     Davidson diagonalization with overlap
     ethr =  3.51E-06,  avg # of iterations =  3.8

     negative rho (up, down):  1.175E-04 0.000E+00

     total cpu time spent up to now is      154.0 secs

     total energy              =    -489.75770751 Ry
     estimated scf accuracy    <       0.00000398 Ry

     iteration # 11     ecut=   150.00 Ry     beta= 0.70
     Davidson diagonalization with overlap
     ethr =  1.53E-08,  avg # of iterations =  8.1

     negative rho (up, down):  1.176E-04 0.000E+00

     total cpu time spent up to now is      176.9 secs

     total energy              =    -489.75772084 Ry
     estimated scf accuracy    <       0.00006350 Ry

     iteration # 12     ecut=   150.00 Ry     beta= 0.70
     Davidson diagonalization with overlap
     ethr =  1.53E-08,  avg # of iterations =  3.1

     negative rho (up, down):  1.177E-04 0.000E+00

     total cpu time spent up to now is      188.8 secs

     total energy              =    -489.75770783 Ry
     estimated scf accuracy    <       0.00003667 Ry

     iteration # 13     ecut=   150.00 Ry     beta= 0.70
     Davidson diagonalization with overlap
     ethr =  1.53E-08,  avg # of iterations =  6.6

     negative rho (up, down):  1.177E-04 0.000E+00

     total cpu time spent up to now is      207.5 secs

     total energy              =    -489.75771668 Ry
     estimated scf accuracy    <       0.00000911 Ry

     iteration # 14     ecut=   150.00 Ry     beta= 0.70
     Davidson diagonalization with overlap
     ethr =  1.53E-08,  avg # of iterations =  2.6

     negative rho (up, down):  1.177E-04 0.000E+00

     total cpu time spent up to now is      219.0 secs

     total energy              =    -489.75771704 Ry
     estimated scf accuracy    <       0.00000151 Ry

     iteration # 15     ecut=   150.00 Ry     beta= 0.70
     Davidson diagonalization with overlap
     ethr =  5.82E-09,  avg # of iterations =  4.0

     negative rho (up, down):  1.177E-04 0.000E+00

     total cpu time spent up to now is      231.7 secs

     total energy              =    -489.75771732 Ry
     estimated scf accuracy    <          9.5E-09 Ry

     iteration # 16     ecut=   150.00 Ry     beta= 0.70
     Davidson diagonalization with overlap
     ethr =  3.66E-11,  avg # of iterations =  9.0

     negative rho (up, down):  1.177E-04 0.000E+00

     total cpu time spent up to now is      257.4 secs

     total energy              =    -489.75771728 Ry
     estimated scf accuracy    <       0.00000064 Ry

     iteration # 17     ecut=   150.00 Ry     beta= 0.70
     Davidson diagonalization with overlap
     ethr =  3.66E-11,  avg # of iterations =  7.9

     negative rho (up, down):  1.177E-04 0.000E+00

     total cpu time spent up to now is      279.5 secs

     total energy              =    -489.75771737 Ry
     estimated scf accuracy    <          2.3E-10 Ry

     iteration # 18     ecut=   150.00 Ry     beta= 0.70
     Davidson diagonalization with overlap
     ethr =  9.01E-13,  avg # of iterations =  8.6

     negative rho (up, down):  1.177E-04 0.000E+00

     total cpu time spent up to now is      303.6 secs

     total energy              =    -489.75771737 Ry
     estimated scf accuracy    <       0.00000003 Ry

     iteration # 19     ecut=   150.00 Ry     beta= 0.70
     Davidson diagonalization with overlap
     ethr =  9.01E-13,  avg # of iterations =  5.6

     negative rho (up, down):  1.177E-04 0.000E+00

     total cpu time spent up to now is      321.2 secs

     total energy              =    -489.75771737 Ry
     estimated scf accuracy    <       0.00000001 Ry

     iteration # 20     ecut=   150.00 Ry     beta= 0.70
     Davidson diagonalization with overlap
     ethr =  9.01E-13,  avg # of iterations =  6.6

     negative rho (up, down):  1.177E-04 0.000E+00

     total cpu time spent up to now is      340.4 secs

     total energy              =    -489.75771737 Ry
     estimated scf accuracy    <          9.3E-10 Ry

     iteration # 21     ecut=   150.00 Ry     beta= 0.70
     Davidson diagonalization with overlap
     ethr =  9.01E-13,  avg # of iterations =  4.5

     negative rho (up, down):  1.177E-04 0.000E+00

     total cpu time spent up to now is      353.8 secs

     total energy              =    -489.75771737 Ry
     estimated scf accuracy    <          6.9E-11 Ry

     iteration # 22     ecut=   150.00 Ry     beta= 0.70
     Davidson diagonalization with overlap
     ethr =  2.66E-13,  avg # of iterations =  4.8

     negative rho (up, down):  1.177E-04 0.000E+00

     total cpu time spent up to now is      368.7 secs

     total energy              =    -489.75771737 Ry
     estimated scf accuracy    <          3.1E-11 Ry

     iteration # 23     ecut=   150.00 Ry     beta= 0.70
     Davidson diagonalization with overlap
     ethr =  1.20E-13,  avg # of iterations =  1.1

     negative rho (up, down):  1.177E-04 0.000E+00

     total cpu time spent up to now is      378.1 secs

     total energy              =    -489.75771737 Ry
     estimated scf accuracy    <          2.6E-11 Ry

     iteration # 24     ecut=   150.00 Ry     beta= 0.70
     Davidson diagonalization with overlap
     ethr =  1.00E-13,  avg # of iterations =  2.0

     negative rho (up, down):  1.177E-04 0.000E+00

     total cpu time spent up to now is      388.1 secs

     total energy              =    -489.75771737 Ry
     estimated scf accuracy    <          7.7E-12 Ry

     iteration # 25     ecut=   150.00 Ry     beta= 0.70
     Davidson diagonalization with overlap
     ethr =  1.00E-13,  avg # of iterations =  1.2

     negative rho (up, down):  1.177E-04 0.000E+00

     total cpu time spent up to now is      397.5 secs

     total energy              =    -489.75771737 Ry
     estimated scf accuracy    <          2.0E-12 Ry

     iteration # 26     ecut=   150.00 Ry     beta= 0.70
     Davidson diagonalization with overlap
     ethr =  1.00E-13,  avg # of iterations =  1.0

     negative rho (up, down):  1.177E-04 0.000E+00

     total cpu time spent up to now is      406.7 secs

     total energy              =    -489.75771737 Ry
     estimated scf accuracy    <          1.4E-12 Ry

     iteration # 27     ecut=   150.00 Ry     beta= 0.70
     Davidson diagonalization with overlap
     ethr =  1.00E-13,  avg # of iterations =  1.0

     negative rho (up, down):  1.177E-04 0.000E+00

     total cpu time spent up to now is      416.0 secs

     End of self-consistent calculation

     Number of k-points >= 100: set verbosity='high' to print the bands.

     highest occupied level (ev):     0.4343

!    total energy              =    -489.75771737 Ry

     total all-electron energy =     -9688.215563 Ry
     estimated scf accuracy    <          5.8E-13 Ry

     The total energy is the sum of the following terms:
     one-electron contribution =    -815.66675803 Ry
     hartree contribution      =     411.71695862 Ry
     xc contribution           =     -29.54994318 Ry
     ewald contribution        =     256.63371419 Ry
     one-center paw contrib.   =    -312.89168897 Ry

     convergence has been achieved in  27 iterations

     negative rho (up, down):  1.177E-04 0.000E+00

     Forces acting on atoms (cartesian axes, Ry/au):

     atom    1 type  1   force =     0.00027876    0.00012375   -0.00000112
     atom    2 type  2   force =    -0.00013939   -0.00006186    0.00641483
     atom    3 type  2   force =    -0.00013937   -0.00006189   -0.00641370

     Total force =     0.009079     Total SCF correction =     0.000002


     Computing stress (Cartesian axis) and pressure


     negative rho (up, down):  1.177E-04 0.000E+00
          total   stress  (Ry/bohr**3)                   (kbar)     P=        6.70
   0.00004961  -0.00000088   0.00000000            7.30       -0.13        0.00
  -0.00000088   0.00004640  -0.00000000           -0.13        6.83       -0.00
   0.00000000  -0.00000000   0.00004068            0.00       -0.00        5.98


     Writing output data file /scratch/as3359/Mos2_ct_lat/MoS2.save/
 
     init_run     :     17.48s CPU      9.75s WALL (       1 calls)
     electrons    :    796.96s CPU    406.10s WALL (       1 calls)
     forces       :      5.01s CPU      2.54s WALL (       1 calls)
     stress       :     15.94s CPU      8.09s WALL (       1 calls)

     Called by init_run:
     wfcinit      :     11.12s CPU      5.69s WALL (       1 calls)
     potinit      :      2.07s CPU      1.17s WALL (       1 calls)
     hinit0       :      3.64s CPU      2.53s WALL (       1 calls)

     Called by electrons:
     c_bands      :    679.13s CPU    344.49s WALL (      27 calls)
     sum_band     :    101.21s CPU     52.07s WALL (      27 calls)
     v_of_rho     :      3.74s CPU      2.05s WALL (      28 calls)
     newd         :      6.45s CPU      4.00s WALL (      28 calls)
     PAW_pot      :      5.39s CPU      2.81s WALL (      28 calls)
     mix_rho      :      1.36s CPU      0.82s WALL (      27 calls)

     Called by c_bands:
     init_us_2    :     21.33s CPU     10.70s WALL (    6441 calls)
     cegterg      :    642.00s CPU    325.73s WALL (    3051 calls)

     Called by *egterg:
     cdiaghg      :      6.23s CPU      3.17s WALL (   16651 calls)
     h_psi        :    551.59s CPU    280.25s WALL (   16764 calls)
     s_psi        :     13.32s CPU      6.71s WALL (   16764 calls)
     g_psi        :      4.67s CPU      2.35s WALL (   13600 calls)

     Called by h_psi:
     h_psi:calbec :     19.41s CPU      9.79s WALL (   16764 calls)
     vloc_psi     :    512.01s CPU    260.30s WALL (   16764 calls)
     add_vuspsi   :     15.47s CPU      7.79s WALL (   16764 calls)

     General routines
     calbec       :     24.50s CPU     12.36s WALL (   20380 calls)
     fft          :      2.05s CPU      1.20s WALL (     333 calls)
     ffts         :      0.10s CPU      0.05s WALL (      27 calls)
     fftw         :    490.12s CPU    249.47s WALL (  322709 calls)
 
     Parallel routines
 
     PWSCF        :  13m58.37s CPU   7m 9.34s WALL

 
   This run was terminated on:  13:50: 8  17Apr2022            

=------------------------------------------------------------------------------=
   JOB DONE.
=------------------------------------------------------------------------------=
