
     Program PWSCF v.6.8 starts on 17Apr2022 at 15: 6:14 

     This program is part of the open-source Quantum ESPRESSO suite
     for quantum simulation of materials; please cite
         "P. Giannozzi et al., J. Phys.:Condens. Matter 21 395502 (2009);
         "P. Giannozzi et al., J. Phys.:Condens. Matter 29 465901 (2017);
         "P. Giannozzi et al., J. Chem. Phys. 152 154105 (2020);
          URL http://www.quantum-espresso.org", 
     in publications or presentations arising from this work. More details at
     http://www.quantum-espresso.org/quote

     Parallel version (MPI & OpenMP), running on       4 processor cores
     Number of MPI processes:                 2
     Threads/MPI process:                     2

     MPI processes distributed on     1 nodes
     R & G space division:  proc/nbgrp/npool/nimage =       2
     125030 MiB available memory on the printing compute node when the environment starts
 
     Reading input from MoS2.scf.6.074.in
Warning: card  &CELL ignored
Warning: card     CELL_DYNAMICS='BFGS' ignored
Warning: card  / ignored

     Current dimensions of program PWSCF are:
     Max number of different atomic species (ntypx) = 10
     Max number of k-points (npk) =  40000
     Max angular momentum in pseudopotentials (lmaxx) =  4
     Message from routine iosys:
     restart disabled: needed files not found
     file Mo.pbesol-spn-kjpaw_psl.1.0.0.UPF: wavefunction(s)  4S 4D renormalized
     file S.pbesol-nl-kjpaw_psl.1.0.0.UPF: wavefunction(s)  3S renormalized

     Subspace diagonalization in iterative solution of the eigenvalue problem:
     a serial algorithm will be used

 
     Parallelization info
     --------------------
     sticks:   dense  smooth     PW     G-vecs:    dense   smooth      PW
     Min         729     729    215               114827   114827   18142
     Max         730     730    218               114836   114836   18145
     Sum        1459    1459    433               229663   229663   36287
 
     Using Slab Decomposition
 


     bravais-lattice index     =            0
     lattice parameter (alat)  =       6.0740  a.u.
     unit-cell volume          =     925.7137 (a.u.)^3
     number of atoms/cell      =            3
     number of atomic types    =            2
     number of electrons       =        26.00
     number of Kohn-Sham states=           13
     kinetic-energy cutoff     =     150.0000  Ry
     charge density cutoff     =     600.0000  Ry
     scf convergence threshold =      1.0E-12
     mixing beta               =       0.7000
     number of iterations used =            8  plain     mixing
     Exchange-correlation= SLA  PW   PSX  PSC
                           (   1   4  10   8   0   0   0)

     celldm(1)=   6.074000  celldm(2)=   0.000000  celldm(3)=   0.000000
     celldm(4)=   0.000000  celldm(5)=   0.000000  celldm(6)=   0.000000

     crystal axes: (cart. coord. in units of alat)
               a(1) = (   0.976384  -0.000017   0.000000 )  
               a(2) = (  -0.487931   0.846187   0.000000 )  
               a(3) = (   0.000000   0.000000   5.000000 )  

     reciprocal axes: (cart. coord. in units 2 pi/alat)
               b(1) = (  1.024198  0.590577  0.000000 )  
               b(2) = (  0.000021  1.181785  0.000000 )  
               b(3) = (  0.000000  0.000000  0.200000 )  


     PseudoPot. # 1 for Mo read from file:
     /shared/home/as3359/pseudo/Mo.pbesol-spn-kjpaw_psl.1.0.0.UPF
     MD5 check sum: de57925cfc675213e43241dcc441eda8
     Pseudo is Projector augmented-wave + core cor, Zval = 14.0
     Generated using &quot;atomic&quot; code by A. Dal Corso  v.6.3
     Shape of augmentation charge: PSQ
     Using radial grid of 1229 points,  6 beta functions with: 
                l(1) =   0
                l(2) =   0
                l(3) =   1
                l(4) =   1
                l(5) =   2
                l(6) =   2
     Q(r) pseudized with 0 coefficients 


     PseudoPot. # 2 for S  read from file:
     /shared/home/as3359/pseudo/S.pbesol-nl-kjpaw_psl.1.0.0.UPF
     MD5 check sum: bf3db50ec3f960682bbc396f1aadd1dd
     Pseudo is Projector augmented-wave + core cor, Zval =  6.0
     Generated using &quot;atomic&quot; code by A. Dal Corso  v.6.3
     Shape of augmentation charge: PSQ
     Using radial grid of 1151 points,  4 beta functions with: 
                l(1) =   0
                l(2) =   0
                l(3) =   1
                l(4) =   1
     Q(r) pseudized with 0 coefficients 


     atomic species   valence    mass     pseudopotential
        Mo            14.00    95.94000     Mo( 1.00)
        S              6.00    32.06500     S ( 1.00)

     No symmetry found



   Cartesian axes

     site n.     atom                  positions (alat units)
         1           Mo  tau(   1) = (   0.0000000   0.0000000   1.6880765  )
         2           S   tau(   2) = (   0.4883508   0.2821722   2.1737857  )
         3           S   tau(   3) = (   0.4883508   0.2821722   1.2023670  )

     number of k points=   113

     Number of k-points >= 100: set verbosity='high' to print them.

     Dense  grid:   229663 G-vectors     FFT dimensions: (  48,  48, 240)

     Estimated max dynamical RAM per process >     758.50 MB

     Estimated total dynamical RAM >       1.48 GB
     Cannot read rho : file not found

     Initial potential from superposition of free atoms

     starting charge   25.99914, renormalised to   26.00000

     negative rho (up, down):  8.837E-05 0.000E+00
     Message from routine qexsd_readschema :
     xml data file /scratch/as3359/Mos2_ct_lat/MoS2.save/data-file-schema.xml not fou
     Cannot read wfcs: file not found
     Starting wfcs are   18 randomized atomic wfcs
     Checking if some PAW data can be deallocated... 

     total cpu time spent up to now is       10.2 secs

     Self-consistent Calculation

     iteration #  1     ecut=   150.00 Ry     beta= 0.70
     Davidson diagonalization with overlap
     ethr =  1.00E-05,  avg # of iterations = 10.4

     negative rho (up, down):  1.202E-04 0.000E+00

     total cpu time spent up to now is       40.5 secs

     total energy              =    -489.68957353 Ry
     estimated scf accuracy    <       0.15033162 Ry

     iteration #  2     ecut=   150.00 Ry     beta= 0.70
     Davidson diagonalization with overlap
     ethr =  5.78E-04,  avg # of iterations =  5.0

     negative rho (up, down):  1.101E-04 0.000E+00

     total cpu time spent up to now is       55.9 secs

     total energy              =    -489.64866022 Ry
     estimated scf accuracy    <       0.55463097 Ry

     iteration #  3     ecut=   150.00 Ry     beta= 0.70
     Davidson diagonalization with overlap
     ethr =  5.78E-04,  avg # of iterations =  5.1

     negative rho (up, down):  1.111E-04 0.000E+00

     total cpu time spent up to now is       71.0 secs

     total energy              =    -489.75205589 Ry
     estimated scf accuracy    <       0.04354726 Ry

     iteration #  4     ecut=   150.00 Ry     beta= 0.70
     Davidson diagonalization with overlap
     ethr =  1.67E-04,  avg # of iterations =  2.4

     negative rho (up, down):  1.167E-04 0.000E+00

     total cpu time spent up to now is       82.2 secs

     total energy              =    -489.75477664 Ry
     estimated scf accuracy    <       0.00552936 Ry

     iteration #  5     ecut=   150.00 Ry     beta= 0.70
     Davidson diagonalization with overlap
     ethr =  2.13E-05,  avg # of iterations =  5.2

     negative rho (up, down):  1.178E-04 0.000E+00

     total cpu time spent up to now is       98.0 secs

     total energy              =    -489.75774978 Ry
     estimated scf accuracy    <       0.00855048 Ry

     iteration #  6     ecut=   150.00 Ry     beta= 0.70
     Davidson diagonalization with overlap
     ethr =  2.13E-05,  avg # of iterations =  1.9

     negative rho (up, down):  1.196E-04 0.000E+00

     total cpu time spent up to now is      108.1 secs

     total energy              =    -489.75648183 Ry
     estimated scf accuracy    <       0.00311579 Ry

     iteration #  7     ecut=   150.00 Ry     beta= 0.70
     Davidson diagonalization with overlap
     ethr =  1.20E-05,  avg # of iterations =  5.2

     negative rho (up, down):  1.195E-04 0.000E+00

     total cpu time spent up to now is      122.8 secs

     total energy              =    -489.75801585 Ry
     estimated scf accuracy    <       0.00378215 Ry

     iteration #  8     ecut=   150.00 Ry     beta= 0.70
     Davidson diagonalization with overlap
     ethr =  1.20E-05,  avg # of iterations =  1.5

     negative rho (up, down):  1.198E-04 0.000E+00

     total cpu time spent up to now is      132.4 secs

     total energy              =    -489.75776897 Ry
     estimated scf accuracy    <       0.00198412 Ry

     iteration #  9     ecut=   150.00 Ry     beta= 0.70
     Davidson diagonalization with overlap
     ethr =  7.63E-06,  avg # of iterations =  2.5

     negative rho (up, down):  1.202E-04 0.000E+00

     total cpu time spent up to now is      143.0 secs

     total energy              =    -489.75778960 Ry
     estimated scf accuracy    <       0.00046348 Ry

     iteration # 10     ecut=   150.00 Ry     beta= 0.70
     Davidson diagonalization with overlap
     ethr =  1.78E-06,  avg # of iterations =  4.6

     negative rho (up, down):  1.202E-04 0.000E+00

     total cpu time spent up to now is      156.9 secs

     total energy              =    -489.75794984 Ry
     estimated scf accuracy    <       0.00004696 Ry

     iteration # 11     ecut=   150.00 Ry     beta= 0.70
     Davidson diagonalization with overlap
     ethr =  1.81E-07,  avg # of iterations =  2.9

     negative rho (up, down):  1.202E-04 0.000E+00

     total cpu time spent up to now is      168.0 secs

     total energy              =    -489.75795111 Ry
     estimated scf accuracy    <       0.00004006 Ry

     iteration # 12     ecut=   150.00 Ry     beta= 0.70
     Davidson diagonalization with overlap
     ethr =  1.54E-07,  avg # of iterations =  1.1

     negative rho (up, down):  1.203E-04 0.000E+00

     total cpu time spent up to now is      177.5 secs

     total energy              =    -489.75794498 Ry
     estimated scf accuracy    <       0.00002606 Ry

     iteration # 13     ecut=   150.00 Ry     beta= 0.70
     Davidson diagonalization with overlap
     ethr =  1.00E-07,  avg # of iterations =  3.5

     negative rho (up, down):  1.203E-04 0.000E+00

     total cpu time spent up to now is      189.4 secs

     total energy              =    -489.75794918 Ry
     estimated scf accuracy    <       0.00000044 Ry

     iteration # 14     ecut=   150.00 Ry     beta= 0.70
     Davidson diagonalization with overlap
     ethr =  1.71E-09,  avg # of iterations =  6.3

     negative rho (up, down):  1.203E-04 0.000E+00

     total cpu time spent up to now is      206.4 secs

     total energy              =    -489.75794979 Ry
     estimated scf accuracy    <       0.00000032 Ry

     iteration # 15     ecut=   150.00 Ry     beta= 0.70
     Davidson diagonalization with overlap
     ethr =  1.23E-09,  avg # of iterations =  1.0

     negative rho (up, down):  1.204E-04 0.000E+00

     total cpu time spent up to now is      215.7 secs

     total energy              =    -489.75794964 Ry
     estimated scf accuracy    <       0.00000029 Ry

     iteration # 16     ecut=   150.00 Ry     beta= 0.70
     Davidson diagonalization with overlap
     ethr =  1.11E-09,  avg # of iterations =  4.3

     negative rho (up, down):  1.204E-04 0.000E+00

     total cpu time spent up to now is      229.6 secs

     total energy              =    -489.75794976 Ry
     estimated scf accuracy    <       0.00000023 Ry

     iteration # 17     ecut=   150.00 Ry     beta= 0.70
     Davidson diagonalization with overlap
     ethr =  8.87E-10,  avg # of iterations =  1.1

     negative rho (up, down):  1.204E-04 0.000E+00

     total cpu time spent up to now is      239.1 secs

     total energy              =    -489.75794973 Ry
     estimated scf accuracy    <       0.00000014 Ry

     iteration # 18     ecut=   150.00 Ry     beta= 0.70
     Davidson diagonalization with overlap
     ethr =  5.49E-10,  avg # of iterations =  2.8

     negative rho (up, down):  1.204E-04 0.000E+00

     total cpu time spent up to now is      250.2 secs

     total energy              =    -489.75794974 Ry
     estimated scf accuracy    <       0.00000001 Ry

     iteration # 19     ecut=   150.00 Ry     beta= 0.70
     Davidson diagonalization with overlap
     ethr =  4.29E-11,  avg # of iterations =  5.5

     negative rho (up, down):  1.204E-04 0.000E+00

     total cpu time spent up to now is      266.5 secs

     total energy              =    -489.75794975 Ry
     estimated scf accuracy    <       0.00000002 Ry

     iteration # 20     ecut=   150.00 Ry     beta= 0.70
     Davidson diagonalization with overlap
     ethr =  4.29E-11,  avg # of iterations =  2.3

     negative rho (up, down):  1.204E-04 0.000E+00

     total cpu time spent up to now is      277.6 secs

     total energy              =    -489.75794975 Ry
     estimated scf accuracy    <          5.5E-09 Ry

     iteration # 21     ecut=   150.00 Ry     beta= 0.70
     Davidson diagonalization with overlap
     ethr =  2.13E-11,  avg # of iterations =  3.3

     negative rho (up, down):  1.204E-04 0.000E+00

     total cpu time spent up to now is      289.0 secs

     total energy              =    -489.75794975 Ry
     estimated scf accuracy    <          5.9E-10 Ry

     iteration # 22     ecut=   150.00 Ry     beta= 0.70
     Davidson diagonalization with overlap
     ethr =  2.26E-12,  avg # of iterations =  6.1

     negative rho (up, down):  1.204E-04 0.000E+00

     total cpu time spent up to now is      306.1 secs

     total energy              =    -489.75794975 Ry
     estimated scf accuracy    <          1.0E-09 Ry

     iteration # 23     ecut=   150.00 Ry     beta= 0.70
     Davidson diagonalization with overlap
     ethr =  2.26E-12,  avg # of iterations =  4.1

     negative rho (up, down):  1.204E-04 0.000E+00

     total cpu time spent up to now is      319.3 secs

     total energy              =    -489.75794975 Ry
     estimated scf accuracy    <          1.7E-11 Ry

     iteration # 24     ecut=   150.00 Ry     beta= 0.70
     Davidson diagonalization with overlap
     ethr =  1.00E-13,  avg # of iterations =  4.3

     negative rho (up, down):  1.204E-04 0.000E+00

     total cpu time spent up to now is      332.2 secs

     End of self-consistent calculation

     Number of k-points >= 100: set verbosity='high' to print the bands.

     highest occupied level (ev):     0.3696

!    total energy              =    -489.75794975 Ry

     total all-electron energy =     -9688.215795 Ry
     estimated scf accuracy    <          4.1E-13 Ry

     The total energy is the sum of the following terms:
     one-electron contribution =    -813.73077460 Ry
     hartree contribution      =     410.68012266 Ry
     xc contribution           =     -29.52223812 Ry
     ewald contribution        =     255.70418806 Ry
     one-center paw contrib.   =    -312.88924776 Ry

     convergence has been achieved in  24 iterations

     negative rho (up, down):  1.204E-04 0.000E+00

     Forces acting on atoms (cartesian axes, Ry/au):

     atom    1 type  1   force =     0.00026753    0.00012928   -0.00000084
     atom    2 type  2   force =    -0.00013376   -0.00006463   -0.00098981
     atom    3 type  2   force =    -0.00013377   -0.00006464    0.00099065

     Total force =     0.001447     Total SCF correction =     0.000003


     Computing stress (Cartesian axis) and pressure


     negative rho (up, down):  1.204E-04 0.000E+00
          total   stress  (Ry/bohr**3)                   (kbar)     P=        0.04
   0.00000536  -0.00000085   0.00000000            0.79       -0.12        0.00
  -0.00000085   0.00000222   0.00000000           -0.12        0.33        0.00
   0.00000000   0.00000000  -0.00000680            0.00        0.00       -1.00


     Writing output data file /scratch/as3359/Mos2_ct_lat/MoS2.save/
 
     init_run     :     18.03s CPU     10.03s WALL (       1 calls)
     electrons    :    631.61s CPU    322.10s WALL (       1 calls)
     forces       :      5.06s CPU      2.57s WALL (       1 calls)
     stress       :     16.23s CPU      8.24s WALL (       1 calls)

     Called by init_run:
     wfcinit      :     11.49s CPU      5.89s WALL (       1 calls)
     potinit      :      2.10s CPU      1.19s WALL (       1 calls)
     hinit0       :      3.65s CPU      2.53s WALL (       1 calls)

     Called by electrons:
     c_bands      :    526.19s CPU    267.01s WALL (      24 calls)
     sum_band     :     90.65s CPU     46.65s WALL (      24 calls)
     v_of_rho     :      3.40s CPU      1.87s WALL (      25 calls)
     newd         :      5.88s CPU      3.62s WALL (      25 calls)
     PAW_pot      :      4.78s CPU      2.49s WALL (      25 calls)
     mix_rho      :      1.20s CPU      0.73s WALL (      24 calls)

     Called by c_bands:
     init_us_2    :     18.92s CPU      9.49s WALL (    5763 calls)
     cegterg      :    493.19s CPU    250.32s WALL (    2712 calls)

     Called by *egterg:
     cdiaghg      :      4.79s CPU      2.43s WALL (   13138 calls)
     h_psi        :    426.53s CPU    216.77s WALL (   13251 calls)
     s_psi        :      9.96s CPU      5.02s WALL (   13251 calls)
     g_psi        :      3.89s CPU      1.96s WALL (   10426 calls)

     Called by h_psi:
     h_psi:calbec :     15.24s CPU      7.70s WALL (   13251 calls)
     vloc_psi     :    396.54s CPU    201.65s WALL (   13251 calls)
     add_vuspsi   :     11.07s CPU      5.57s WALL (   13251 calls)

     General routines
     calbec       :     19.81s CPU     10.00s WALL (   16528 calls)
     fft          :      1.90s CPU      1.11s WALL (     300 calls)
     ffts         :      0.09s CPU      0.05s WALL (      24 calls)
     fftw         :    387.93s CPU    197.52s WALL (  252528 calls)
 
     Parallel routines
 
     PWSCF        :  11m14.06s CPU   5m45.92s WALL

 
   This run was terminated on:  15:12: 0  17Apr2022            

=------------------------------------------------------------------------------=
   JOB DONE.
=------------------------------------------------------------------------------=
