
     Program PWSCF v.6.8 starts on 17Apr2022 at 15:50:15 

     This program is part of the open-source Quantum ESPRESSO suite
     for quantum simulation of materials; please cite
         "P. Giannozzi et al., J. Phys.:Condens. Matter 21 395502 (2009);
         "P. Giannozzi et al., J. Phys.:Condens. Matter 29 465901 (2017);
         "P. Giannozzi et al., J. Chem. Phys. 152 154105 (2020);
          URL http://www.quantum-espresso.org", 
     in publications or presentations arising from this work. More details at
     http://www.quantum-espresso.org/quote

     Parallel version (MPI & OpenMP), running on       4 processor cores
     Number of MPI processes:                 2
     Threads/MPI process:                     2

     MPI processes distributed on     1 nodes
     R & G space division:  proc/nbgrp/npool/nimage =       2
     125015 MiB available memory on the printing compute node when the environment starts
 
     Reading input from MoS2.scf.6.086.in
Warning: card  &CELL ignored
Warning: card     CELL_DYNAMICS='BFGS' ignored
Warning: card  / ignored

     Current dimensions of program PWSCF are:
     Max number of different atomic species (ntypx) = 10
     Max number of k-points (npk) =  40000
     Max angular momentum in pseudopotentials (lmaxx) =  4
     Message from routine iosys:
     restart disabled: needed files not found
     file Mo.pbesol-spn-kjpaw_psl.1.0.0.UPF: wavefunction(s)  4S 4D renormalized
     file S.pbesol-nl-kjpaw_psl.1.0.0.UPF: wavefunction(s)  3S renormalized

     Subspace diagonalization in iterative solution of the eigenvalue problem:
     a serial algorithm will be used

 
     Parallelization info
     --------------------
     sticks:   dense  smooth     PW     G-vecs:    dense   smooth      PW
     Min         730     730    216               115464   115464   18277
     Max         735     735    217               115465   115465   18284
     Sum        1465    1465    433               230929   230929   36561
 
     Using Slab Decomposition
 


     bravais-lattice index     =            0
     lattice parameter (alat)  =       6.0860  a.u.
     unit-cell volume          =     931.2111 (a.u.)^3
     number of atoms/cell      =            3
     number of atomic types    =            2
     number of electrons       =        26.00
     number of Kohn-Sham states=           13
     kinetic-energy cutoff     =     150.0000  Ry
     charge density cutoff     =     600.0000  Ry
     scf convergence threshold =      1.0E-12
     mixing beta               =       0.7000
     number of iterations used =            8  plain     mixing
     Exchange-correlation= SLA  PW   PSX  PSC
                           (   1   4  10   8   0   0   0)

     celldm(1)=   6.086000  celldm(2)=   0.000000  celldm(3)=   0.000000
     celldm(4)=   0.000000  celldm(5)=   0.000000  celldm(6)=   0.000000

     crystal axes: (cart. coord. in units of alat)
               a(1) = (   0.976384  -0.000017   0.000000 )  
               a(2) = (  -0.487931   0.846187   0.000000 )  
               a(3) = (   0.000000   0.000000   5.000000 )  

     reciprocal axes: (cart. coord. in units 2 pi/alat)
               b(1) = (  1.024198  0.590577  0.000000 )  
               b(2) = (  0.000021  1.181785  0.000000 )  
               b(3) = (  0.000000  0.000000  0.200000 )  


     PseudoPot. # 1 for Mo read from file:
     /shared/home/as3359/pseudo/Mo.pbesol-spn-kjpaw_psl.1.0.0.UPF
     MD5 check sum: de57925cfc675213e43241dcc441eda8
     Pseudo is Projector augmented-wave + core cor, Zval = 14.0
     Generated using &quot;atomic&quot; code by A. Dal Corso  v.6.3
     Shape of augmentation charge: PSQ
     Using radial grid of 1229 points,  6 beta functions with: 
                l(1) =   0
                l(2) =   0
                l(3) =   1
                l(4) =   1
                l(5) =   2
                l(6) =   2
     Q(r) pseudized with 0 coefficients 


     PseudoPot. # 2 for S  read from file:
     /shared/home/as3359/pseudo/S.pbesol-nl-kjpaw_psl.1.0.0.UPF
     MD5 check sum: bf3db50ec3f960682bbc396f1aadd1dd
     Pseudo is Projector augmented-wave + core cor, Zval =  6.0
     Generated using &quot;atomic&quot; code by A. Dal Corso  v.6.3
     Shape of augmentation charge: PSQ
     Using radial grid of 1151 points,  4 beta functions with: 
                l(1) =   0
                l(2) =   0
                l(3) =   1
                l(4) =   1
     Q(r) pseudized with 0 coefficients 


     atomic species   valence    mass     pseudopotential
        Mo            14.00    95.94000     Mo( 1.00)
        S              6.00    32.06500     S ( 1.00)

     No symmetry found



   Cartesian axes

     site n.     atom                  positions (alat units)
         1           Mo  tau(   1) = (   0.0000000   0.0000000   1.6880765  )
         2           S   tau(   2) = (   0.4883508   0.2821722   2.1737857  )
         3           S   tau(   3) = (   0.4883508   0.2821722   1.2023670  )

     number of k points=   113

     Number of k-points >= 100: set verbosity='high' to print them.

     Dense  grid:   230929 G-vectors     FFT dimensions: (  48,  48, 240)

     Estimated max dynamical RAM per process >     762.71 MB

     Estimated total dynamical RAM >       1.49 GB
     Cannot read rho : file not found

     Initial potential from superposition of free atoms

     starting charge   25.99914, renormalised to   26.00000

     negative rho (up, down):  8.961E-05 0.000E+00
     Message from routine qexsd_readschema :
     xml data file /scratch/as3359/Mos2_ct_lat/MoS2.save/data-file-schema.xml not fou
     Cannot read wfcs: file not found
     Starting wfcs are   18 randomized atomic wfcs
     Checking if some PAW data can be deallocated... 

     total cpu time spent up to now is        9.4 secs

     Self-consistent Calculation

     iteration #  1     ecut=   150.00 Ry     beta= 0.70
     Davidson diagonalization with overlap
     ethr =  1.00E-05,  avg # of iterations = 10.3

     negative rho (up, down):  1.214E-04 0.000E+00

     total cpu time spent up to now is       39.8 secs

     total energy              =    -489.69153207 Ry
     estimated scf accuracy    <       0.14710730 Ry

     iteration #  2     ecut=   150.00 Ry     beta= 0.70
     Davidson diagonalization with overlap
     ethr =  5.66E-04,  avg # of iterations =  5.0

     negative rho (up, down):  1.118E-04 0.000E+00

     total cpu time spent up to now is       55.1 secs

     total energy              =    -489.65366614 Ry
     estimated scf accuracy    <       0.52360359 Ry

     iteration #  3     ecut=   150.00 Ry     beta= 0.70
     Davidson diagonalization with overlap
     ethr =  5.66E-04,  avg # of iterations =  5.1

     negative rho (up, down):  1.128E-04 0.000E+00

     total cpu time spent up to now is       70.1 secs

     total energy              =    -489.75176257 Ry
     estimated scf accuracy    <       0.04528320 Ry

     iteration #  4     ecut=   150.00 Ry     beta= 0.70
     Davidson diagonalization with overlap
     ethr =  1.74E-04,  avg # of iterations =  2.4

     negative rho (up, down):  1.180E-04 0.000E+00

     total cpu time spent up to now is       81.2 secs

     total energy              =    -489.75464951 Ry
     estimated scf accuracy    <       0.00547810 Ry

     iteration #  5     ecut=   150.00 Ry     beta= 0.70
     Davidson diagonalization with overlap
     ethr =  2.11E-05,  avg # of iterations =  5.2

     negative rho (up, down):  1.191E-04 0.000E+00

     total cpu time spent up to now is       97.1 secs

     total energy              =    -489.75774620 Ry
     estimated scf accuracy    <       0.00957484 Ry

     iteration #  6     ecut=   150.00 Ry     beta= 0.70
     Davidson diagonalization with overlap
     ethr =  2.11E-05,  avg # of iterations =  1.9

     negative rho (up, down):  1.205E-04 0.000E+00

     total cpu time spent up to now is      107.2 secs

     total energy              =    -489.75664590 Ry
     estimated scf accuracy    <       0.00371813 Ry

     iteration #  7     ecut=   150.00 Ry     beta= 0.70
     Davidson diagonalization with overlap
     ethr =  1.43E-05,  avg # of iterations =  4.3

     negative rho (up, down):  1.211E-04 0.000E+00

     total cpu time spent up to now is      120.8 secs

     total energy              =    -489.75823355 Ry
     estimated scf accuracy    <       0.00097107 Ry

     iteration #  8     ecut=   150.00 Ry     beta= 0.70
     Davidson diagonalization with overlap
     ethr =  3.73E-06,  avg # of iterations =  3.3

     negative rho (up, down):  1.211E-04 0.000E+00

     total cpu time spent up to now is      132.5 secs

     total energy              =    -489.75786510 Ry
     estimated scf accuracy    <       0.00246701 Ry

     iteration #  9     ecut=   150.00 Ry     beta= 0.70
     Davidson diagonalization with overlap
     ethr =  3.73E-06,  avg # of iterations =  2.2

     negative rho (up, down):  1.215E-04 0.000E+00

     total cpu time spent up to now is      142.8 secs

     total energy              =    -489.75764743 Ry
     estimated scf accuracy    <       0.00100443 Ry

     iteration # 10     ecut=   150.00 Ry     beta= 0.70
     Davidson diagonalization with overlap
     ethr =  3.73E-06,  avg # of iterations =  3.9

     negative rho (up, down):  1.216E-04 0.000E+00

     total cpu time spent up to now is      155.6 secs

     total energy              =    -489.75788351 Ry
     estimated scf accuracy    <       0.00002099 Ry

     iteration # 11     ecut=   150.00 Ry     beta= 0.70
     Davidson diagonalization with overlap
     ethr =  8.07E-08,  avg # of iterations =  5.2

     negative rho (up, down):  1.216E-04 0.000E+00

     total cpu time spent up to now is      171.0 secs

     total energy              =    -489.75789155 Ry
     estimated scf accuracy    <       0.00009497 Ry

     iteration # 12     ecut=   150.00 Ry     beta= 0.70
     Davidson diagonalization with overlap
     ethr =  8.07E-08,  avg # of iterations =  2.3

     negative rho (up, down):  1.216E-04 0.000E+00

     total cpu time spent up to now is      181.2 secs

     total energy              =    -489.75788164 Ry
     estimated scf accuracy    <       0.00005340 Ry

     iteration # 13     ecut=   150.00 Ry     beta= 0.70
     Davidson diagonalization with overlap
     ethr =  8.07E-08,  avg # of iterations =  3.8

     negative rho (up, down):  1.217E-04 0.000E+00

     total cpu time spent up to now is      193.8 secs

     total energy              =    -489.75788631 Ry
     estimated scf accuracy    <       0.00000268 Ry

     iteration # 14     ecut=   150.00 Ry     beta= 0.70
     Davidson diagonalization with overlap
     ethr =  1.03E-08,  avg # of iterations =  5.7

     negative rho (up, down):  1.217E-04 0.000E+00

     total cpu time spent up to now is      209.9 secs

     total energy              =    -489.75788828 Ry
     estimated scf accuracy    <       0.00000401 Ry

     iteration # 15     ecut=   150.00 Ry     beta= 0.70
     Davidson diagonalization with overlap
     ethr =  1.03E-08,  avg # of iterations =  1.0

     negative rho (up, down):  1.218E-04 0.000E+00

     total cpu time spent up to now is      219.2 secs

     total energy              =    -489.75788753 Ry
     estimated scf accuracy    <       0.00000311 Ry

     iteration # 16     ecut=   150.00 Ry     beta= 0.70
     Davidson diagonalization with overlap
     ethr =  1.03E-08,  avg # of iterations =  2.4

     negative rho (up, down):  1.218E-04 0.000E+00

     total cpu time spent up to now is      230.3 secs

     total energy              =    -489.75788783 Ry
     estimated scf accuracy    <       0.00000027 Ry

     iteration # 17     ecut=   150.00 Ry     beta= 0.70
     Davidson diagonalization with overlap
     ethr =  1.03E-09,  avg # of iterations =  4.4

     negative rho (up, down):  1.218E-04 0.000E+00

     total cpu time spent up to now is      243.1 secs

     total energy              =    -489.75788789 Ry
     estimated scf accuracy    <       0.00000001 Ry

     iteration # 18     ecut=   150.00 Ry     beta= 0.70
     Davidson diagonalization with overlap
     ethr =  5.58E-11,  avg # of iterations =  5.7

     negative rho (up, down):  1.218E-04 0.000E+00

     total cpu time spent up to now is      260.3 secs

     total energy              =    -489.75788789 Ry
     estimated scf accuracy    <       0.00000005 Ry

     iteration # 19     ecut=   150.00 Ry     beta= 0.70
     Davidson diagonalization with overlap
     ethr =  5.58E-11,  avg # of iterations =  4.1

     negative rho (up, down):  1.218E-04 0.000E+00

     total cpu time spent up to now is      273.6 secs

     total energy              =    -489.75788790 Ry
     estimated scf accuracy    <          1.9E-09 Ry

     iteration # 20     ecut=   150.00 Ry     beta= 0.70
     Davidson diagonalization with overlap
     ethr =  7.13E-12,  avg # of iterations =  7.5

     negative rho (up, down):  1.218E-04 0.000E+00

     total cpu time spent up to now is      295.7 secs

     total energy              =    -489.75788790 Ry
     estimated scf accuracy    <       0.00000005 Ry

     iteration # 21     ecut=   150.00 Ry     beta= 0.70
     Davidson diagonalization with overlap
     ethr =  7.13E-12,  avg # of iterations =  4.2

     negative rho (up, down):  1.218E-04 0.000E+00

     total cpu time spent up to now is      309.6 secs

     total energy              =    -489.75788789 Ry
     estimated scf accuracy    <       0.00000002 Ry

     iteration # 22     ecut=   150.00 Ry     beta= 0.70
     Davidson diagonalization with overlap
     ethr =  7.13E-12,  avg # of iterations =  5.7

     negative rho (up, down):  1.218E-04 0.000E+00

     total cpu time spent up to now is      326.3 secs

     total energy              =    -489.75788790 Ry
     estimated scf accuracy    <          1.0E-10 Ry

     iteration # 23     ecut=   150.00 Ry     beta= 0.70
     Davidson diagonalization with overlap
     ethr =  4.00E-13,  avg # of iterations =  6.2

     negative rho (up, down):  1.218E-04 0.000E+00

     total cpu time spent up to now is      343.0 secs

     total energy              =    -489.75788790 Ry
     estimated scf accuracy    <          3.9E-10 Ry

     iteration # 24     ecut=   150.00 Ry     beta= 0.70
     Davidson diagonalization with overlap
     ethr =  4.00E-13,  avg # of iterations =  5.1

     negative rho (up, down):  1.218E-04 0.000E+00

     total cpu time spent up to now is      358.2 secs

     total energy              =    -489.75788790 Ry
     estimated scf accuracy    <          8.1E-11 Ry

     iteration # 25     ecut=   150.00 Ry     beta= 0.70
     Davidson diagonalization with overlap
     ethr =  3.13E-13,  avg # of iterations =  6.3

     negative rho (up, down):  1.218E-04 0.000E+00

     total cpu time spent up to now is      376.9 secs

     total energy              =    -489.75788790 Ry
     estimated scf accuracy    <          2.1E-09 Ry

     iteration # 26     ecut=   150.00 Ry     beta= 0.70
     Davidson diagonalization with overlap
     ethr =  3.13E-13,  avg # of iterations =  5.5

     negative rho (up, down):  1.218E-04 0.000E+00

     total cpu time spent up to now is      393.6 secs

     total energy              =    -489.75788790 Ry
     estimated scf accuracy    <          3.2E-10 Ry

     iteration # 27     ecut=   150.00 Ry     beta= 0.70
     Davidson diagonalization with overlap
     ethr =  3.13E-13,  avg # of iterations =  4.4

     negative rho (up, down):  1.218E-04 0.000E+00

     total cpu time spent up to now is      407.6 secs

     total energy              =    -489.75788790 Ry
     estimated scf accuracy    <          1.1E-11 Ry

     iteration # 28     ecut=   150.00 Ry     beta= 0.70
     Davidson diagonalization with overlap
     ethr =  1.00E-13,  avg # of iterations =  4.6

     negative rho (up, down):  1.218E-04 0.000E+00

     total cpu time spent up to now is      422.1 secs

     total energy              =    -489.75788790 Ry
     estimated scf accuracy    <          1.7E-11 Ry

     iteration # 29     ecut=   150.00 Ry     beta= 0.70
     Davidson diagonalization with overlap
     ethr =  1.00E-13,  avg # of iterations =  2.0

     negative rho (up, down):  1.218E-04 0.000E+00

     total cpu time spent up to now is      432.9 secs

     total energy              =    -489.75788790 Ry
     estimated scf accuracy    <          1.1E-12 Ry

     iteration # 30     ecut=   150.00 Ry     beta= 0.70
     Davidson diagonalization with overlap
     ethr =  1.00E-13,  avg # of iterations =  1.0

     negative rho (up, down):  1.218E-04 0.000E+00

     total cpu time spent up to now is      442.3 secs

     End of self-consistent calculation

     Number of k-points >= 100: set verbosity='high' to print the bands.

     highest occupied level (ev):     0.3346

!    total energy              =    -489.75788790 Ry

     total all-electron energy =     -9688.215733 Ry
     estimated scf accuracy    <          2.8E-13 Ry

     The total energy is the sum of the following terms:
     one-electron contribution =    -812.68035430 Ry
     hartree contribution      =     410.11771648 Ry
     xc contribution           =     -29.50731164 Ry
     ewald contribution        =     255.20000629 Ry
     one-center paw contrib.   =    -312.88794473 Ry

     convergence has been achieved in  30 iterations

     negative rho (up, down):  1.218E-04 0.000E+00

     Forces acting on atoms (cartesian axes, Ry/au):

     atom    1 type  1   force =     0.00026181    0.00013265   -0.00000052
     atom    2 type  2   force =    -0.00013091   -0.00006632   -0.00491873
     atom    3 type  2   force =    -0.00013090   -0.00006633    0.00491925

     Total force =     0.006966     Total SCF correction =     0.000001


     Computing stress (Cartesian axis) and pressure


     negative rho (up, down):  1.218E-04 0.000E+00
          total   stress  (Ry/bohr**3)                   (kbar)     P=       -3.46
  -0.00001783  -0.00000083   0.00000000           -2.62       -0.12        0.00
  -0.00000083  -0.00002093   0.00000000           -0.12       -3.08        0.00
   0.00000000   0.00000000  -0.00003172            0.00        0.00       -4.67


     Writing output data file /scratch/as3359/Mos2_ct_lat/MoS2.save/
 
     init_run     :     16.87s CPU      9.25s WALL (       1 calls)
     electrons    :    849.49s CPU    432.93s WALL (       1 calls)
     forces       :      5.04s CPU      2.56s WALL (       1 calls)
     stress       :     16.50s CPU      8.38s WALL (       1 calls)

     Called by init_run:
     wfcinit      :     11.23s CPU      5.76s WALL (       1 calls)
     potinit      :      1.48s CPU      0.75s WALL (       1 calls)
     hinit0       :      3.49s CPU      2.38s WALL (       1 calls)

     Called by electrons:
     c_bands      :    717.22s CPU    363.85s WALL (      30 calls)
     sum_band     :    113.65s CPU     58.49s WALL (      30 calls)
     v_of_rho     :      4.16s CPU      2.30s WALL (      31 calls)
     newd         :      7.29s CPU      4.45s WALL (      31 calls)
     PAW_pot      :      5.90s CPU      3.05s WALL (      31 calls)
     mix_rho      :      1.61s CPU      0.95s WALL (      30 calls)

     Called by c_bands:
     init_us_2    :     23.61s CPU     11.84s WALL (    7119 calls)
     cegterg      :    675.50s CPU    342.77s WALL (    3390 calls)

     Called by *egterg:
     cdiaghg      :      6.75s CPU      3.43s WALL (   18195 calls)
     h_psi        :    578.14s CPU    293.81s WALL (   18308 calls)
     s_psi        :     13.64s CPU      6.88s WALL (   18308 calls)
     g_psi        :      5.99s CPU      3.02s WALL (   14805 calls)

     Called by h_psi:
     h_psi:calbec :     20.69s CPU     10.44s WALL (   18308 calls)
     vloc_psi     :    537.10s CPU    273.11s WALL (   18308 calls)
     add_vuspsi   :     15.38s CPU      7.75s WALL (   18308 calls)

     General routines
     calbec       :     26.24s CPU     13.24s WALL (   22263 calls)
     fft          :      1.98s CPU      1.09s WALL (     366 calls)
     ffts         :      0.11s CPU      0.06s WALL (      30 calls)
     fftw         :    519.05s CPU    264.26s WALL (  339584 calls)
 
     Parallel routines
 
     PWSCF        :  14m51.10s CPU   7m36.40s WALL

 
   This run was terminated on:  15:57:51  17Apr2022            

=------------------------------------------------------------------------------=
   JOB DONE.
=------------------------------------------------------------------------------=
