
     Program PWSCF v.6.8 starts on 17Apr2022 at 14: 4:25 

     This program is part of the open-source Quantum ESPRESSO suite
     for quantum simulation of materials; please cite
         "P. Giannozzi et al., J. Phys.:Condens. Matter 21 395502 (2009);
         "P. Giannozzi et al., J. Phys.:Condens. Matter 29 465901 (2017);
         "P. Giannozzi et al., J. Chem. Phys. 152 154105 (2020);
          URL http://www.quantum-espresso.org", 
     in publications or presentations arising from this work. More details at
     http://www.quantum-espresso.org/quote

     Parallel version (MPI & OpenMP), running on       4 processor cores
     Number of MPI processes:                 2
     Threads/MPI process:                     2

     MPI processes distributed on     1 nodes
     R & G space division:  proc/nbgrp/npool/nimage =       2
     125217 MiB available memory on the printing compute node when the environment starts
 
     Reading input from MoS2.scf.6.058.in
Warning: card  &CELL ignored
Warning: card     CELL_DYNAMICS='BFGS' ignored
Warning: card  / ignored

     Current dimensions of program PWSCF are:
     Max number of different atomic species (ntypx) = 10
     Max number of k-points (npk) =  40000
     Max angular momentum in pseudopotentials (lmaxx) =  4
     Message from routine iosys:
     restart disabled: needed files not found
     file Mo.pbesol-spn-kjpaw_psl.1.0.0.UPF: wavefunction(s)  4S 4D renormalized
     file S.pbesol-nl-kjpaw_psl.1.0.0.UPF: wavefunction(s)  3S renormalized

     Subspace diagonalization in iterative solution of the eigenvalue problem:
     a serial algorithm will be used

 
     Parallelization info
     --------------------
     sticks:   dense  smooth     PW     G-vecs:    dense   smooth      PW
     Min         721     721    210               113765   113765   17992
     Max         722     722    211               113766   113766   18015
     Sum        1443    1443    421               227531   227531   36007
 
     Using Slab Decomposition
 


     bravais-lattice index     =            0
     lattice parameter (alat)  =       6.0580  a.u.
     unit-cell volume          =     918.4174 (a.u.)^3
     number of atoms/cell      =            3
     number of atomic types    =            2
     number of electrons       =        26.00
     number of Kohn-Sham states=           13
     kinetic-energy cutoff     =     150.0000  Ry
     charge density cutoff     =     600.0000  Ry
     scf convergence threshold =      1.0E-12
     mixing beta               =       0.7000
     number of iterations used =            8  plain     mixing
     Exchange-correlation= SLA  PW   PSX  PSC
                           (   1   4  10   8   0   0   0)

     celldm(1)=   6.058000  celldm(2)=   0.000000  celldm(3)=   0.000000
     celldm(4)=   0.000000  celldm(5)=   0.000000  celldm(6)=   0.000000

     crystal axes: (cart. coord. in units of alat)
               a(1) = (   0.976384  -0.000017   0.000000 )  
               a(2) = (  -0.487931   0.846187   0.000000 )  
               a(3) = (   0.000000   0.000000   5.000000 )  

     reciprocal axes: (cart. coord. in units 2 pi/alat)
               b(1) = (  1.024198  0.590577  0.000000 )  
               b(2) = (  0.000021  1.181785  0.000000 )  
               b(3) = (  0.000000  0.000000  0.200000 )  


     PseudoPot. # 1 for Mo read from file:
     /shared/home/as3359/pseudo/Mo.pbesol-spn-kjpaw_psl.1.0.0.UPF
     MD5 check sum: de57925cfc675213e43241dcc441eda8
     Pseudo is Projector augmented-wave + core cor, Zval = 14.0
     Generated using &quot;atomic&quot; code by A. Dal Corso  v.6.3
     Shape of augmentation charge: PSQ
     Using radial grid of 1229 points,  6 beta functions with: 
                l(1) =   0
                l(2) =   0
                l(3) =   1
                l(4) =   1
                l(5) =   2
                l(6) =   2
     Q(r) pseudized with 0 coefficients 


     PseudoPot. # 2 for S  read from file:
     /shared/home/as3359/pseudo/S.pbesol-nl-kjpaw_psl.1.0.0.UPF
     MD5 check sum: bf3db50ec3f960682bbc396f1aadd1dd
     Pseudo is Projector augmented-wave + core cor, Zval =  6.0
     Generated using &quot;atomic&quot; code by A. Dal Corso  v.6.3
     Shape of augmentation charge: PSQ
     Using radial grid of 1151 points,  4 beta functions with: 
                l(1) =   0
                l(2) =   0
                l(3) =   1
                l(4) =   1
     Q(r) pseudized with 0 coefficients 


     atomic species   valence    mass     pseudopotential
        Mo            14.00    95.94000     Mo( 1.00)
        S              6.00    32.06500     S ( 1.00)

     No symmetry found



   Cartesian axes

     site n.     atom                  positions (alat units)
         1           Mo  tau(   1) = (   0.0000000   0.0000000   1.6880765  )
         2           S   tau(   2) = (   0.4883508   0.2821722   2.1737857  )
         3           S   tau(   3) = (   0.4883508   0.2821722   1.2023670  )

     number of k points=   113

     Number of k-points >= 100: set verbosity='high' to print them.

     Dense  grid:   227531 G-vectors     FFT dimensions: (  48,  48, 240)

     Estimated max dynamical RAM per process >     752.15 MB

     Estimated total dynamical RAM >       1.47 GB
     Cannot read rho : file not found

     Initial potential from superposition of free atoms

     starting charge   25.99914, renormalised to   26.00000

     negative rho (up, down):  8.759E-05 0.000E+00
     Message from routine qexsd_readschema :
     xml data file /scratch/as3359/Mos2_ct_lat/MoS2.save/data-file-schema.xml not fou
     Cannot read wfcs: file not found
     Starting wfcs are   18 randomized atomic wfcs
     Checking if some PAW data can be deallocated... 

     total cpu time spent up to now is       10.8 secs

     Self-consistent Calculation

     iteration #  1     ecut=   150.00 Ry     beta= 0.70
     Davidson diagonalization with overlap
     ethr =  1.00E-05,  avg # of iterations = 10.3

     negative rho (up, down):  1.191E-04 0.000E+00

     total cpu time spent up to now is       40.7 secs

     total energy              =    -489.68665364 Ry
     estimated scf accuracy    <       0.15478192 Ry

     iteration #  2     ecut=   150.00 Ry     beta= 0.70
     Davidson diagonalization with overlap
     ethr =  5.95E-04,  avg # of iterations =  5.1

     negative rho (up, down):  1.085E-04 0.000E+00

     total cpu time spent up to now is       56.1 secs

     total energy              =    -489.64210142 Ry
     estimated scf accuracy    <       0.59584537 Ry

     iteration #  3     ecut=   150.00 Ry     beta= 0.70
     Davidson diagonalization with overlap
     ethr =  5.95E-04,  avg # of iterations =  5.0

     negative rho (up, down):  1.094E-04 0.000E+00

     total cpu time spent up to now is       71.0 secs

     total energy              =    -489.75246153 Ry
     estimated scf accuracy    <       0.03970765 Ry

     iteration #  4     ecut=   150.00 Ry     beta= 0.70
     Davidson diagonalization with overlap
     ethr =  1.53E-04,  avg # of iterations =  2.3

     negative rho (up, down):  1.153E-04 0.000E+00

     total cpu time spent up to now is       81.9 secs

     total energy              =    -489.75468269 Ry
     estimated scf accuracy    <       0.00567290 Ry

     iteration #  5     ecut=   150.00 Ry     beta= 0.70
     Davidson diagonalization with overlap
     ethr =  2.18E-05,  avg # of iterations =  5.0

     negative rho (up, down):  1.164E-04 0.000E+00

     total cpu time spent up to now is       97.1 secs

     total energy              =    -489.75760141 Ry
     estimated scf accuracy    <       0.00756916 Ry

     iteration #  6     ecut=   150.00 Ry     beta= 0.70
     Davidson diagonalization with overlap
     ethr =  2.18E-05,  avg # of iterations =  1.8

     negative rho (up, down):  1.182E-04 0.000E+00

     total cpu time spent up to now is      106.9 secs

     total energy              =    -489.75653907 Ry
     estimated scf accuracy    <       0.00267520 Ry

     iteration #  7     ecut=   150.00 Ry     beta= 0.70
     Davidson diagonalization with overlap
     ethr =  1.03E-05,  avg # of iterations =  5.4

     negative rho (up, down):  1.183E-04 0.000E+00

     total cpu time spent up to now is      121.8 secs

     total energy              =    -489.75819995 Ry
     estimated scf accuracy    <       0.00351835 Ry

     iteration #  8     ecut=   150.00 Ry     beta= 0.70
     Davidson diagonalization with overlap
     ethr =  1.03E-05,  avg # of iterations =  1.0

     negative rho (up, down):  1.185E-04 0.000E+00

     total cpu time spent up to now is      131.1 secs

     total energy              =    -489.75773038 Ry
     estimated scf accuracy    <       0.00286722 Ry

     iteration #  9     ecut=   150.00 Ry     beta= 0.70
     Davidson diagonalization with overlap
     ethr =  1.03E-05,  avg # of iterations =  1.8

     negative rho (up, down):  1.186E-04 0.000E+00

     total cpu time spent up to now is      141.0 secs

     total energy              =    -489.75769832 Ry
     estimated scf accuracy    <       0.00093395 Ry

     iteration # 10     ecut=   150.00 Ry     beta= 0.70
     Davidson diagonalization with overlap
     ethr =  3.59E-06,  avg # of iterations =  3.5

     negative rho (up, down):  1.187E-04 0.000E+00

     total cpu time spent up to now is      152.0 secs

     total energy              =    -489.75775090 Ry
     estimated scf accuracy    <       0.00016435 Ry

     iteration # 11     ecut=   150.00 Ry     beta= 0.70
     Davidson diagonalization with overlap
     ethr =  6.32E-07,  avg # of iterations =  4.8

     negative rho (up, down):  1.188E-04 0.000E+00

     total cpu time spent up to now is      166.6 secs

     total energy              =    -489.75783072 Ry
     estimated scf accuracy    <       0.00004600 Ry

     iteration # 12     ecut=   150.00 Ry     beta= 0.70
     Davidson diagonalization with overlap
     ethr =  1.77E-07,  avg # of iterations =  1.4

     negative rho (up, down):  1.189E-04 0.000E+00

     total cpu time spent up to now is      176.1 secs

     total energy              =    -489.75782365 Ry
     estimated scf accuracy    <       0.00003792 Ry

     iteration # 13     ecut=   150.00 Ry     beta= 0.70
     Davidson diagonalization with overlap
     ethr =  1.46E-07,  avg # of iterations =  1.9

     negative rho (up, down):  1.189E-04 0.000E+00

     total cpu time spent up to now is      186.2 secs

     total energy              =    -489.75782373 Ry
     estimated scf accuracy    <       0.00001085 Ry

     iteration # 14     ecut=   150.00 Ry     beta= 0.70
     Davidson diagonalization with overlap
     ethr =  4.17E-08,  avg # of iterations =  3.4

     negative rho (up, down):  1.189E-04 0.000E+00

     total cpu time spent up to now is      197.8 secs

     total energy              =    -489.75782525 Ry
     estimated scf accuracy    <       0.00000067 Ry

     iteration # 15     ecut=   150.00 Ry     beta= 0.70
     Davidson diagonalization with overlap
     ethr =  2.59E-09,  avg # of iterations =  5.0

     negative rho (up, down):  1.190E-04 0.000E+00

     total cpu time spent up to now is      212.7 secs

     total energy              =    -489.75782568 Ry
     estimated scf accuracy    <       0.00000012 Ry

     iteration # 16     ecut=   150.00 Ry     beta= 0.70
     Davidson diagonalization with overlap
     ethr =  4.51E-10,  avg # of iterations =  2.2

     negative rho (up, down):  1.190E-04 0.000E+00

     total cpu time spent up to now is      222.8 secs

     total energy              =    -489.75782565 Ry
     estimated scf accuracy    <       0.00000005 Ry

     iteration # 17     ecut=   150.00 Ry     beta= 0.70
     Davidson diagonalization with overlap
     ethr =  2.03E-10,  avg # of iterations =  5.6

     negative rho (up, down):  1.190E-04 0.000E+00

     total cpu time spent up to now is      238.9 secs

     total energy              =    -489.75782570 Ry
     estimated scf accuracy    <       0.00000019 Ry

     iteration # 18     ecut=   150.00 Ry     beta= 0.70
     Davidson diagonalization with overlap
     ethr =  2.03E-10,  avg # of iterations =  1.0

     negative rho (up, down):  1.190E-04 0.000E+00

     total cpu time spent up to now is      248.1 secs

     total energy              =    -489.75782567 Ry
     estimated scf accuracy    <       0.00000015 Ry

     iteration # 19     ecut=   150.00 Ry     beta= 0.70
     Davidson diagonalization with overlap
     ethr =  2.03E-10,  avg # of iterations =  2.9

     negative rho (up, down):  1.190E-04 0.000E+00

     total cpu time spent up to now is      259.5 secs

     total energy              =    -489.75782568 Ry
     estimated scf accuracy    <       0.00000004 Ry

     iteration # 20     ecut=   150.00 Ry     beta= 0.70
     Davidson diagonalization with overlap
     ethr =  1.50E-10,  avg # of iterations =  1.0

     negative rho (up, down):  1.190E-04 0.000E+00

     total cpu time spent up to now is      268.7 secs

     total energy              =    -489.75782568 Ry
     estimated scf accuracy    <       0.00000004 Ry

     iteration # 21     ecut=   150.00 Ry     beta= 0.70
     Davidson diagonalization with overlap
     ethr =  1.43E-10,  avg # of iterations =  1.9

     negative rho (up, down):  1.190E-04 0.000E+00

     total cpu time spent up to now is      278.7 secs

     total energy              =    -489.75782567 Ry
     estimated scf accuracy    <       0.00000001 Ry

     iteration # 22     ecut=   150.00 Ry     beta= 0.70
     Davidson diagonalization with overlap
     ethr =  4.71E-11,  avg # of iterations =  5.5

     negative rho (up, down):  1.190E-04 0.000E+00

     total cpu time spent up to now is      293.5 secs

     total energy              =    -489.75782568 Ry
     estimated scf accuracy    <          5.8E-09 Ry

     iteration # 23     ecut=   150.00 Ry     beta= 0.70
     Davidson diagonalization with overlap
     ethr =  2.24E-11,  avg # of iterations =  1.1

     negative rho (up, down):  1.190E-04 0.000E+00

     total cpu time spent up to now is      302.8 secs

     total energy              =    -489.75782568 Ry
     estimated scf accuracy    <          5.7E-09 Ry

     iteration # 24     ecut=   150.00 Ry     beta= 0.70
     Davidson diagonalization with overlap
     ethr =  2.21E-11,  avg # of iterations =  2.7

     negative rho (up, down):  1.190E-04 0.000E+00

     total cpu time spent up to now is      314.2 secs

     total energy              =    -489.75782568 Ry
     estimated scf accuracy    <          8.0E-11 Ry

     iteration # 25     ecut=   150.00 Ry     beta= 0.70
     Davidson diagonalization with overlap
     ethr =  3.08E-13,  avg # of iterations =  8.7

     negative rho (up, down):  1.190E-04 0.000E+00

     total cpu time spent up to now is      338.9 secs

     total energy              =    -489.75782568 Ry
     estimated scf accuracy    <          4.0E-09 Ry

     iteration # 26     ecut=   150.00 Ry     beta= 0.70
     Davidson diagonalization with overlap
     ethr =  3.08E-13,  avg # of iterations =  6.8

     negative rho (up, down):  1.190E-04 0.000E+00

     total cpu time spent up to now is      358.5 secs

     total energy              =    -489.75782568 Ry
     estimated scf accuracy    <          1.7E-10 Ry

     iteration # 27     ecut=   150.00 Ry     beta= 0.70
     Davidson diagonalization with overlap
     ethr =  3.08E-13,  avg # of iterations =  2.3

     negative rho (up, down):  1.190E-04 0.000E+00

     total cpu time spent up to now is      368.9 secs

     total energy              =    -489.75782568 Ry
     estimated scf accuracy    <          7.1E-11 Ry

     iteration # 28     ecut=   150.00 Ry     beta= 0.70
     Davidson diagonalization with overlap
     ethr =  2.71E-13,  avg # of iterations =  3.1

     negative rho (up, down):  1.190E-04 0.000E+00

     total cpu time spent up to now is      380.0 secs

     total energy              =    -489.75782568 Ry
     estimated scf accuracy    <          1.0E-11 Ry

     iteration # 29     ecut=   150.00 Ry     beta= 0.70
     Davidson diagonalization with overlap
     ethr =  1.00E-13,  avg # of iterations =  3.2

     negative rho (up, down):  1.190E-04 0.000E+00

     total cpu time spent up to now is      391.1 secs

     End of self-consistent calculation

     Number of k-points >= 100: set verbosity='high' to print the bands.

     highest occupied level (ev):     0.4166

!    total energy              =    -489.75782568 Ry

     total all-electron energy =     -9688.215671 Ry
     estimated scf accuracy    <          6.4E-13 Ry

     The total energy is the sum of the following terms:
     one-electron contribution =    -815.13745086 Ry
     hartree contribution      =     411.43344751 Ry
     xc contribution           =     -29.54234337 Ry
     ewald contribution        =     256.37953752 Ry
     one-center paw contrib.   =    -312.89101647 Ry

     convergence has been achieved in  29 iterations

     negative rho (up, down):  1.190E-04 0.000E+00

     Forces acting on atoms (cartesian axes, Ry/au):

     atom    1 type  1   force =     0.00027562    0.00012519   -0.00000133
     atom    2 type  2   force =    -0.00013781   -0.00006259    0.00436937
     atom    3 type  2   force =    -0.00013781   -0.00006260   -0.00436804

     Total force =     0.006189     Total SCF correction =     0.000002


     Computing stress (Cartesian axis) and pressure


     negative rho (up, down):  1.190E-04 0.000E+00
          total   stress  (Ry/bohr**3)                   (kbar)     P=        4.85
   0.00003731  -0.00000087   0.00000000            5.49       -0.13        0.00
  -0.00000087   0.00003412  -0.00000000           -0.13        5.02       -0.00
   0.00000000  -0.00000000   0.00002750            0.00       -0.00        4.05


     Writing output data file /scratch/as3359/Mos2_ct_lat/MoS2.save/
 
     init_run     :     19.11s CPU     10.61s WALL (       1 calls)
     electrons    :    746.16s CPU    380.35s WALL (       1 calls)
     forces       :      5.00s CPU      2.53s WALL (       1 calls)
     stress       :     16.28s CPU      8.28s WALL (       1 calls)

     Called by init_run:
     wfcinit      :     12.63s CPU      6.47s WALL (       1 calls)
     potinit      :      2.10s CPU      1.19s WALL (       1 calls)
     hinit0       :      3.62s CPU      2.53s WALL (       1 calls)

     Called by electrons:
     c_bands      :    620.09s CPU    314.45s WALL (      29 calls)
     sum_band     :    108.22s CPU     55.70s WALL (      29 calls)
     v_of_rho     :      4.00s CPU      2.20s WALL (      30 calls)
     newd         :      7.07s CPU      4.35s WALL (      30 calls)
     PAW_pot      :      5.74s CPU      2.97s WALL (      30 calls)
     mix_rho      :      1.48s CPU      0.90s WALL (      29 calls)

     Called by c_bands:
     init_us_2    :     22.45s CPU     11.26s WALL (    6893 calls)
     cegterg      :    580.51s CPU    294.47s WALL (    3277 calls)

     Called by *egterg:
     cdiaghg      :      5.48s CPU      2.78s WALL (   15222 calls)
     h_psi        :    503.01s CPU    255.50s WALL (   15335 calls)
     s_psi        :     11.85s CPU      5.97s WALL (   15335 calls)
     g_psi        :      4.97s CPU      2.50s WALL (   11945 calls)

     Called by h_psi:
     h_psi:calbec :     17.59s CPU      8.87s WALL (   15335 calls)
     vloc_psi     :    467.90s CPU    237.80s WALL (   15335 calls)
     add_vuspsi   :     13.22s CPU      6.66s WALL (   15335 calls)

     General routines
     calbec       :     22.86s CPU     11.52s WALL (   19177 calls)
     fft          :      2.17s CPU      1.26s WALL (     355 calls)
     ffts         :      0.10s CPU      0.05s WALL (      29 calls)
     fftw         :    456.85s CPU    232.48s WALL (  302651 calls)
 
     Parallel routines
 
     PWSCF        :  13m 9.71s CPU   6m44.80s WALL

 
   This run was terminated on:  14:11:10  17Apr2022            

=------------------------------------------------------------------------------=
   JOB DONE.
=------------------------------------------------------------------------------=
