
     Program PWSCF v.6.8 starts on 17Apr2022 at 15:34:30 

     This program is part of the open-source Quantum ESPRESSO suite
     for quantum simulation of materials; please cite
         "P. Giannozzi et al., J. Phys.:Condens. Matter 21 395502 (2009);
         "P. Giannozzi et al., J. Phys.:Condens. Matter 29 465901 (2017);
         "P. Giannozzi et al., J. Chem. Phys. 152 154105 (2020);
          URL http://www.quantum-espresso.org", 
     in publications or presentations arising from this work. More details at
     http://www.quantum-espresso.org/quote

     Parallel version (MPI & OpenMP), running on       4 processor cores
     Number of MPI processes:                 2
     Threads/MPI process:                     2

     MPI processes distributed on     1 nodes
     R & G space division:  proc/nbgrp/npool/nimage =       2
     125010 MiB available memory on the printing compute node when the environment starts
 
     Reading input from MoS2.scf.6.082.in
Warning: card  &CELL ignored
Warning: card     CELL_DYNAMICS='BFGS' ignored
Warning: card  / ignored

     Current dimensions of program PWSCF are:
     Max number of different atomic species (ntypx) = 10
     Max number of k-points (npk) =  40000
     Max angular momentum in pseudopotentials (lmaxx) =  4
     Message from routine iosys:
     restart disabled: needed files not found
     file Mo.pbesol-spn-kjpaw_psl.1.0.0.UPF: wavefunction(s)  4S 4D renormalized
     file S.pbesol-nl-kjpaw_psl.1.0.0.UPF: wavefunction(s)  3S renormalized

     Subspace diagonalization in iterative solution of the eigenvalue problem:
     a serial algorithm will be used

 
     Parallelization info
     --------------------
     sticks:   dense  smooth     PW     G-vecs:    dense   smooth      PW
     Min         729     729    216               115241   115241   18227
     Max         730     730    217               115254   115254   18234
     Sum        1459    1459    433               230495   230495   36461
 
     Using Slab Decomposition
 


     bravais-lattice index     =            0
     lattice parameter (alat)  =       6.0820  a.u.
     unit-cell volume          =     929.3762 (a.u.)^3
     number of atoms/cell      =            3
     number of atomic types    =            2
     number of electrons       =        26.00
     number of Kohn-Sham states=           13
     kinetic-energy cutoff     =     150.0000  Ry
     charge density cutoff     =     600.0000  Ry
     scf convergence threshold =      1.0E-12
     mixing beta               =       0.7000
     number of iterations used =            8  plain     mixing
     Exchange-correlation= SLA  PW   PSX  PSC
                           (   1   4  10   8   0   0   0)

     celldm(1)=   6.082000  celldm(2)=   0.000000  celldm(3)=   0.000000
     celldm(4)=   0.000000  celldm(5)=   0.000000  celldm(6)=   0.000000

     crystal axes: (cart. coord. in units of alat)
               a(1) = (   0.976384  -0.000017   0.000000 )  
               a(2) = (  -0.487931   0.846187   0.000000 )  
               a(3) = (   0.000000   0.000000   5.000000 )  

     reciprocal axes: (cart. coord. in units 2 pi/alat)
               b(1) = (  1.024198  0.590577  0.000000 )  
               b(2) = (  0.000021  1.181785  0.000000 )  
               b(3) = (  0.000000  0.000000  0.200000 )  


     PseudoPot. # 1 for Mo read from file:
     /shared/home/as3359/pseudo/Mo.pbesol-spn-kjpaw_psl.1.0.0.UPF
     MD5 check sum: de57925cfc675213e43241dcc441eda8
     Pseudo is Projector augmented-wave + core cor, Zval = 14.0
     Generated using &quot;atomic&quot; code by A. Dal Corso  v.6.3
     Shape of augmentation charge: PSQ
     Using radial grid of 1229 points,  6 beta functions with: 
                l(1) =   0
                l(2) =   0
                l(3) =   1
                l(4) =   1
                l(5) =   2
                l(6) =   2
     Q(r) pseudized with 0 coefficients 


     PseudoPot. # 2 for S  read from file:
     /shared/home/as3359/pseudo/S.pbesol-nl-kjpaw_psl.1.0.0.UPF
     MD5 check sum: bf3db50ec3f960682bbc396f1aadd1dd
     Pseudo is Projector augmented-wave + core cor, Zval =  6.0
     Generated using &quot;atomic&quot; code by A. Dal Corso  v.6.3
     Shape of augmentation charge: PSQ
     Using radial grid of 1151 points,  4 beta functions with: 
                l(1) =   0
                l(2) =   0
                l(3) =   1
                l(4) =   1
     Q(r) pseudized with 0 coefficients 


     atomic species   valence    mass     pseudopotential
        Mo            14.00    95.94000     Mo( 1.00)
        S              6.00    32.06500     S ( 1.00)

     No symmetry found



   Cartesian axes

     site n.     atom                  positions (alat units)
         1           Mo  tau(   1) = (   0.0000000   0.0000000   1.6880765  )
         2           S   tau(   2) = (   0.4883508   0.2821722   2.1737857  )
         3           S   tau(   3) = (   0.4883508   0.2821722   1.2023670  )

     number of k points=   113

     Number of k-points >= 100: set verbosity='high' to print them.

     Dense  grid:   230495 G-vectors     FFT dimensions: (  48,  48, 240)

     Estimated max dynamical RAM per process >     761.32 MB

     Estimated total dynamical RAM >       1.49 GB
     Cannot read rho : file not found

     Initial potential from superposition of free atoms

     starting charge   25.99914, renormalised to   26.00000

     negative rho (up, down):  8.898E-05 0.000E+00
     Message from routine qexsd_readschema :
     xml data file /scratch/as3359/Mos2_ct_lat/MoS2.save/data-file-schema.xml not fou
     Cannot read wfcs: file not found
     Starting wfcs are   18 randomized atomic wfcs
     Checking if some PAW data can be deallocated... 

     total cpu time spent up to now is        9.8 secs

     Self-consistent Calculation

     iteration #  1     ecut=   150.00 Ry     beta= 0.70
     Davidson diagonalization with overlap
     ethr =  1.00E-05,  avg # of iterations = 10.4

     negative rho (up, down):  1.204E-04 0.000E+00

     total cpu time spent up to now is       40.5 secs

     total energy              =    -489.69094669 Ry
     estimated scf accuracy    <       0.14811592 Ry

     iteration #  2     ecut=   150.00 Ry     beta= 0.70
     Davidson diagonalization with overlap
     ethr =  5.70E-04,  avg # of iterations =  5.0

     negative rho (up, down):  1.107E-04 0.000E+00

     total cpu time spent up to now is       56.2 secs

     total energy              =    -489.65232318 Ry
     estimated scf accuracy    <       0.53225624 Ry

     iteration #  3     ecut=   150.00 Ry     beta= 0.70
     Davidson diagonalization with overlap
     ethr =  5.70E-04,  avg # of iterations =  5.0

     negative rho (up, down):  1.117E-04 0.000E+00

     total cpu time spent up to now is       71.6 secs

     total energy              =    -489.75190128 Ry
     estimated scf accuracy    <       0.04460390 Ry

     iteration #  4     ecut=   150.00 Ry     beta= 0.70
     Davidson diagonalization with overlap
     ethr =  1.72E-04,  avg # of iterations =  2.4

     negative rho (up, down):  1.169E-04 0.000E+00

     total cpu time spent up to now is       82.9 secs

     total energy              =    -489.75473957 Ry
     estimated scf accuracy    <       0.00545324 Ry

     iteration #  5     ecut=   150.00 Ry     beta= 0.70
     Davidson diagonalization with overlap
     ethr =  2.10E-05,  avg # of iterations =  5.2

     negative rho (up, down):  1.180E-04 0.000E+00

     total cpu time spent up to now is       99.2 secs

     total energy              =    -489.75778326 Ry
     estimated scf accuracy    <       0.00918687 Ry

     iteration #  6     ecut=   150.00 Ry     beta= 0.70
     Davidson diagonalization with overlap
     ethr =  2.10E-05,  avg # of iterations =  1.9

     negative rho (up, down):  1.192E-04 0.000E+00

     total cpu time spent up to now is      109.3 secs

     total energy              =    -489.75687693 Ry
     estimated scf accuracy    <       0.00354722 Ry

     iteration #  7     ecut=   150.00 Ry     beta= 0.70
     Davidson diagonalization with overlap
     ethr =  1.36E-05,  avg # of iterations =  4.1

     negative rho (up, down):  1.200E-04 0.000E+00

     total cpu time spent up to now is      123.1 secs

     total energy              =    -489.75816452 Ry
     estimated scf accuracy    <       0.00044725 Ry

     iteration #  8     ecut=   150.00 Ry     beta= 0.70
     Davidson diagonalization with overlap
     ethr =  1.72E-06,  avg # of iterations =  5.0

     negative rho (up, down):  1.200E-04 0.000E+00

     total cpu time spent up to now is      138.2 secs

     total energy              =    -489.75786738 Ry
     estimated scf accuracy    <       0.00272824 Ry

     iteration #  9     ecut=   150.00 Ry     beta= 0.70
     Davidson diagonalization with overlap
     ethr =  1.72E-06,  avg # of iterations =  3.8

     negative rho (up, down):  1.205E-04 0.000E+00

     total cpu time spent up to now is      150.9 secs

     total energy              =    -489.75782455 Ry
     estimated scf accuracy    <       0.00074687 Ry

     iteration # 10     ecut=   150.00 Ry     beta= 0.70
     Davidson diagonalization with overlap
     ethr =  1.72E-06,  avg # of iterations =  3.8

     negative rho (up, down):  1.205E-04 0.000E+00

     total cpu time spent up to now is      163.6 secs

     total energy              =    -489.75789674 Ry
     estimated scf accuracy    <       0.00004983 Ry

     iteration # 11     ecut=   150.00 Ry     beta= 0.70
     Davidson diagonalization with overlap
     ethr =  1.92E-07,  avg # of iterations =  5.1

     negative rho (up, down):  1.205E-04 0.000E+00

     total cpu time spent up to now is      179.1 secs

     total energy              =    -489.75792659 Ry
     estimated scf accuracy    <       0.00001872 Ry

     iteration # 12     ecut=   150.00 Ry     beta= 0.70
     Davidson diagonalization with overlap
     ethr =  7.20E-08,  avg # of iterations =  1.4

     negative rho (up, down):  1.206E-04 0.000E+00

     total cpu time spent up to now is      188.9 secs

     total energy              =    -489.75791665 Ry
     estimated scf accuracy    <       0.00002008 Ry

     iteration # 13     ecut=   150.00 Ry     beta= 0.70
     Davidson diagonalization with overlap
     ethr =  7.20E-08,  avg # of iterations =  4.1

     negative rho (up, down):  1.206E-04 0.000E+00

     total cpu time spent up to now is      202.5 secs

     total energy              =    -489.75792449 Ry
     estimated scf accuracy    <       0.00000782 Ry

     iteration # 14     ecut=   150.00 Ry     beta= 0.70
     Davidson diagonalization with overlap
     ethr =  3.01E-08,  avg # of iterations =  1.0

     negative rho (up, down):  1.206E-04 0.000E+00

     total cpu time spent up to now is      212.1 secs

     total energy              =    -489.75792235 Ry
     estimated scf accuracy    <       0.00000798 Ry

     iteration # 15     ecut=   150.00 Ry     beta= 0.70
     Davidson diagonalization with overlap
     ethr =  3.01E-08,  avg # of iterations =  2.1

     negative rho (up, down):  1.206E-04 0.000E+00

     total cpu time spent up to now is      222.7 secs

     total energy              =    -489.75792282 Ry
     estimated scf accuracy    <       0.00000149 Ry

     iteration # 16     ecut=   150.00 Ry     beta= 0.70
     Davidson diagonalization with overlap
     ethr =  5.73E-09,  avg # of iterations =  3.6

     negative rho (up, down):  1.206E-04 0.000E+00

     total cpu time spent up to now is      234.4 secs

     total energy              =    -489.75792289 Ry
     estimated scf accuracy    <       0.00000031 Ry

     iteration # 17     ecut=   150.00 Ry     beta= 0.70
     Davidson diagonalization with overlap
     ethr =  1.20E-09,  avg # of iterations =  5.1

     negative rho (up, down):  1.206E-04 0.000E+00

     total cpu time spent up to now is      250.8 secs

     total energy              =    -489.75792318 Ry
     estimated scf accuracy    <       0.00000038 Ry

     iteration # 18     ecut=   150.00 Ry     beta= 0.70
     Davidson diagonalization with overlap
     ethr =  1.20E-09,  avg # of iterations =  1.5

     negative rho (up, down):  1.206E-04 0.000E+00

     total cpu time spent up to now is      260.7 secs

     total energy              =    -489.75792307 Ry
     estimated scf accuracy    <       0.00000058 Ry

     iteration # 19     ecut=   150.00 Ry     beta= 0.70
     Davidson diagonalization with overlap
     ethr =  1.20E-09,  avg # of iterations =  1.1

     negative rho (up, down):  1.206E-04 0.000E+00

     total cpu time spent up to now is      270.3 secs

     total energy              =    -489.75792302 Ry
     estimated scf accuracy    <       0.00000031 Ry

     iteration # 20     ecut=   150.00 Ry     beta= 0.70
     Davidson diagonalization with overlap
     ethr =  1.18E-09,  avg # of iterations =  3.1

     negative rho (up, down):  1.206E-04 0.000E+00

     total cpu time spent up to now is      282.2 secs

     total energy              =    -489.75792306 Ry
     estimated scf accuracy    <       0.00000001 Ry

     iteration # 21     ecut=   150.00 Ry     beta= 0.70
     Davidson diagonalization with overlap
     ethr =  4.68E-11,  avg # of iterations =  5.3

     negative rho (up, down):  1.206E-04 0.000E+00

     total cpu time spent up to now is      298.5 secs

     total energy              =    -489.75792307 Ry
     estimated scf accuracy    <          4.0E-09 Ry

     iteration # 22     ecut=   150.00 Ry     beta= 0.70
     Davidson diagonalization with overlap
     ethr =  1.55E-11,  avg # of iterations =  1.5

     negative rho (up, down):  1.206E-04 0.000E+00

     total cpu time spent up to now is      308.3 secs

     total energy              =    -489.75792307 Ry
     estimated scf accuracy    <          1.7E-09 Ry

     iteration # 23     ecut=   150.00 Ry     beta= 0.70
     Davidson diagonalization with overlap
     ethr =  6.46E-12,  avg # of iterations =  4.3

     negative rho (up, down):  1.206E-04 0.000E+00

     total cpu time spent up to now is      322.0 secs

     total energy              =    -489.75792307 Ry
     estimated scf accuracy    <          2.7E-10 Ry

     iteration # 24     ecut=   150.00 Ry     beta= 0.70
     Davidson diagonalization with overlap
     ethr =  1.02E-12,  avg # of iterations =  3.6

     negative rho (up, down):  1.206E-04 0.000E+00

     total cpu time spent up to now is      333.8 secs

     total energy              =    -489.75792307 Ry
     estimated scf accuracy    <          5.4E-10 Ry

     iteration # 25     ecut=   150.00 Ry     beta= 0.70
     Davidson diagonalization with overlap
     ethr =  1.02E-12,  avg # of iterations =  1.0

     negative rho (up, down):  1.206E-04 0.000E+00

     total cpu time spent up to now is      343.3 secs

     total energy              =    -489.75792307 Ry
     estimated scf accuracy    <          5.9E-10 Ry

     iteration # 26     ecut=   150.00 Ry     beta= 0.70
     Davidson diagonalization with overlap
     ethr =  1.02E-12,  avg # of iterations =  1.0

     negative rho (up, down):  1.206E-04 0.000E+00

     total cpu time spent up to now is      352.9 secs

     total energy              =    -489.75792307 Ry
     estimated scf accuracy    <          5.9E-10 Ry

     iteration # 27     ecut=   150.00 Ry     beta= 0.70
     Davidson diagonalization with overlap
     ethr =  1.02E-12,  avg # of iterations =  2.5

     negative rho (up, down):  1.206E-04 0.000E+00

     total cpu time spent up to now is      364.2 secs

     total energy              =    -489.75792307 Ry
     estimated scf accuracy    <          1.7E-10 Ry

     iteration # 28     ecut=   150.00 Ry     beta= 0.70
     Davidson diagonalization with overlap
     ethr =  6.59E-13,  avg # of iterations =  1.1

     negative rho (up, down):  1.206E-04 0.000E+00

     total cpu time spent up to now is      373.8 secs

     total energy              =    -489.75792307 Ry
     estimated scf accuracy    <          2.9E-10 Ry

     iteration # 29     ecut=   150.00 Ry     beta= 0.70
     Davidson diagonalization with overlap
     ethr =  6.59E-13,  avg # of iterations =  1.0

     negative rho (up, down):  1.206E-04 0.000E+00

     total cpu time spent up to now is      383.3 secs

     total energy              =    -489.75792307 Ry
     estimated scf accuracy    <          3.8E-10 Ry

     iteration # 30     ecut=   150.00 Ry     beta= 0.70
     Davidson diagonalization with overlap
     ethr =  6.59E-13,  avg # of iterations =  2.0

     negative rho (up, down):  1.206E-04 0.000E+00

     total cpu time spent up to now is      394.4 secs

     total energy              =    -489.75792307 Ry
     estimated scf accuracy    <          1.2E-10 Ry

     iteration # 31     ecut=   150.00 Ry     beta= 0.70
     Davidson diagonalization with overlap
     ethr =  4.62E-13,  avg # of iterations =  3.1

     negative rho (up, down):  1.206E-04 0.000E+00

     total cpu time spent up to now is      405.7 secs

     total energy              =    -489.75792307 Ry
     estimated scf accuracy    <          2.4E-11 Ry

     iteration # 32     ecut=   150.00 Ry     beta= 0.70
     Davidson diagonalization with overlap
     ethr =  1.00E-13,  avg # of iterations =  5.1

     negative rho (up, down):  1.206E-04 0.000E+00

     total cpu time spent up to now is      421.5 secs

     total energy              =    -489.75792307 Ry
     estimated scf accuracy    <          1.4E-11 Ry

     iteration # 33     ecut=   150.00 Ry     beta= 0.70
     Davidson diagonalization with overlap
     ethr =  1.00E-13,  avg # of iterations =  1.1

     negative rho (up, down):  1.206E-04 0.000E+00

     total cpu time spent up to now is      431.1 secs

     total energy              =    -489.75792307 Ry
     estimated scf accuracy    <          5.7E-12 Ry

     iteration # 34     ecut=   150.00 Ry     beta= 0.70
     Davidson diagonalization with overlap
     ethr =  1.00E-13,  avg # of iterations =  2.6

     negative rho (up, down):  1.206E-04 0.000E+00

     total cpu time spent up to now is      442.6 secs

     total energy              =    -489.75792307 Ry
     estimated scf accuracy    <          2.1E-12 Ry

     iteration # 35     ecut=   150.00 Ry     beta= 0.70
     Davidson diagonalization with overlap
     ethr =  1.00E-13,  avg # of iterations =  1.0

     negative rho (up, down):  1.206E-04 0.000E+00

     total cpu time spent up to now is      452.2 secs

     total energy              =    -489.75792307 Ry
     estimated scf accuracy    <          1.6E-12 Ry

     iteration # 36     ecut=   150.00 Ry     beta= 0.70
     Davidson diagonalization with overlap
     ethr =  1.00E-13,  avg # of iterations =  1.0

     negative rho (up, down):  1.206E-04 0.000E+00

     total cpu time spent up to now is      461.8 secs

     End of self-consistent calculation

     Number of k-points >= 100: set verbosity='high' to print the bands.

     highest occupied level (ev):     0.3462

!    total energy              =    -489.75792307 Ry

     total all-electron energy =     -9688.215768 Ry
     estimated scf accuracy    <          5.0E-13 Ry

     The total energy is the sum of the following terms:
     one-electron contribution =    -813.03006064 Ry
     hartree contribution      =     410.30494132 Ry
     xc contribution           =     -29.51227274 Ry
     ewald contribution        =     255.36784582 Ry
     one-center paw contrib.   =    -312.88837683 Ry

     convergence has been achieved in  36 iterations

     negative rho (up, down):  1.206E-04 0.000E+00

     Forces acting on atoms (cartesian axes, Ry/au):

     atom    1 type  1   force =     0.00026363    0.00013162   -0.00000113
     atom    2 type  2   force =    -0.00013181   -0.00006580   -0.00361749
     atom    3 type  2   force =    -0.00013182   -0.00006581    0.00361862

     Total force =     0.005129     Total SCF correction =     0.000002


     Computing stress (Cartesian axis) and pressure


     negative rho (up, down):  1.206E-04 0.000E+00
          total   stress  (Ry/bohr**3)                   (kbar)     P=       -2.30
  -0.00001018  -0.00000084   0.00000000           -1.50       -0.12        0.00
  -0.00000084  -0.00001328   0.00000000           -0.12       -1.95        0.00
   0.00000000   0.00000000  -0.00002349            0.00        0.00       -3.46


     Writing output data file /scratch/as3359/Mos2_ct_lat/MoS2.save/
 
     init_run     :     17.52s CPU      9.67s WALL (       1 calls)
     electrons    :    886.00s CPU    451.97s WALL (       1 calls)
     forces       :      5.05s CPU      2.56s WALL (       1 calls)
     stress       :     16.47s CPU      8.37s WALL (       1 calls)

     Called by init_run:
     wfcinit      :     11.31s CPU      5.80s WALL (       1 calls)
     potinit      :      1.86s CPU      0.94s WALL (       1 calls)
     hinit0       :      3.68s CPU      2.55s WALL (       1 calls)

     Called by electrons:
     c_bands      :    722.94s CPU    366.83s WALL (      36 calls)
     sum_band     :    140.54s CPU     72.29s WALL (      36 calls)
     v_of_rho     :      5.02s CPU      2.75s WALL (      37 calls)
     newd         :      8.76s CPU      5.38s WALL (      37 calls)
     PAW_pot      :      7.09s CPU      3.68s WALL (      37 calls)
     mix_rho      :      1.94s CPU      1.16s WALL (      36 calls)

     Called by c_bands:
     init_us_2    :     28.36s CPU     14.23s WALL (    8475 calls)
     cegterg      :    672.51s CPU    341.35s WALL (    4068 calls)

     Called by *egterg:
     cdiaghg      :      5.90s CPU      2.99s WALL (   16708 calls)
     h_psi        :    586.24s CPU    297.98s WALL (   16821 calls)
     s_psi        :     13.24s CPU      6.66s WALL (   16821 calls)
     g_psi        :      5.43s CPU      2.74s WALL (   12640 calls)

     Called by h_psi:
     h_psi:calbec :     20.34s CPU     10.26s WALL (   16821 calls)
     vloc_psi     :    546.03s CPU    277.71s WALL (   16821 calls)
     add_vuspsi   :     14.80s CPU      7.45s WALL (   16821 calls)

     General routines
     calbec       :     27.07s CPU     13.65s WALL (   21454 calls)
     fft          :      2.58s CPU      1.47s WALL (     432 calls)
     ffts         :      0.13s CPU      0.07s WALL (      36 calls)
     fftw         :    545.83s CPU    277.99s WALL (  347220 calls)
 
     Parallel routines
 
     PWSCF        :  15m28.16s CPU   7m57.19s WALL

 
   This run was terminated on:  15:42:28  17Apr2022            

=------------------------------------------------------------------------------=
   JOB DONE.
=------------------------------------------------------------------------------=
