
     Program PWSCF v.6.8 starts on 17Apr2022 at 13:50: 9 

     This program is part of the open-source Quantum ESPRESSO suite
     for quantum simulation of materials; please cite
         "P. Giannozzi et al., J. Phys.:Condens. Matter 21 395502 (2009);
         "P. Giannozzi et al., J. Phys.:Condens. Matter 29 465901 (2017);
         "P. Giannozzi et al., J. Chem. Phys. 152 154105 (2020);
          URL http://www.quantum-espresso.org", 
     in publications or presentations arising from this work. More details at
     http://www.quantum-espresso.org/quote

     Parallel version (MPI & OpenMP), running on       4 processor cores
     Number of MPI processes:                 2
     Threads/MPI process:                     2

     MPI processes distributed on     1 nodes
     R & G space division:  proc/nbgrp/npool/nimage =       2
     125229 MiB available memory on the printing compute node when the environment starts
 
     Reading input from MoS2.scf.6.054.in
Warning: card  &CELL ignored
Warning: card     CELL_DYNAMICS='BFGS' ignored
Warning: card  / ignored

     Current dimensions of program PWSCF are:
     Max number of different atomic species (ntypx) = 10
     Max number of k-points (npk) =  40000
     Max angular momentum in pseudopotentials (lmaxx) =  4
     Message from routine iosys:
     restart disabled: needed files not found
     file Mo.pbesol-spn-kjpaw_psl.1.0.0.UPF: wavefunction(s)  4S 4D renormalized
     file S.pbesol-nl-kjpaw_psl.1.0.0.UPF: wavefunction(s)  3S renormalized

     Subspace diagonalization in iterative solution of the eigenvalue problem:
     a serial algorithm will be used

 
     Parallelization info
     --------------------
     sticks:   dense  smooth     PW     G-vecs:    dense   smooth      PW
     Min         714     714    210               113531   113531   17972
     Max         715     715    211               113534   113534   17995
     Sum        1429    1429    421               227065   227065   35967
 
     Using Slab Decomposition
 


     bravais-lattice index     =            0
     lattice parameter (alat)  =       6.0540  a.u.
     unit-cell volume          =     916.5994 (a.u.)^3
     number of atoms/cell      =            3
     number of atomic types    =            2
     number of electrons       =        26.00
     number of Kohn-Sham states=           13
     kinetic-energy cutoff     =     150.0000  Ry
     charge density cutoff     =     600.0000  Ry
     scf convergence threshold =      1.0E-12
     mixing beta               =       0.7000
     number of iterations used =            8  plain     mixing
     Exchange-correlation= SLA  PW   PSX  PSC
                           (   1   4  10   8   0   0   0)

     celldm(1)=   6.054000  celldm(2)=   0.000000  celldm(3)=   0.000000
     celldm(4)=   0.000000  celldm(5)=   0.000000  celldm(6)=   0.000000

     crystal axes: (cart. coord. in units of alat)
               a(1) = (   0.976384  -0.000017   0.000000 )  
               a(2) = (  -0.487931   0.846187   0.000000 )  
               a(3) = (   0.000000   0.000000   5.000000 )  

     reciprocal axes: (cart. coord. in units 2 pi/alat)
               b(1) = (  1.024198  0.590577  0.000000 )  
               b(2) = (  0.000021  1.181785  0.000000 )  
               b(3) = (  0.000000  0.000000  0.200000 )  


     PseudoPot. # 1 for Mo read from file:
     /shared/home/as3359/pseudo/Mo.pbesol-spn-kjpaw_psl.1.0.0.UPF
     MD5 check sum: de57925cfc675213e43241dcc441eda8
     Pseudo is Projector augmented-wave + core cor, Zval = 14.0
     Generated using &quot;atomic&quot; code by A. Dal Corso  v.6.3
     Shape of augmentation charge: PSQ
     Using radial grid of 1229 points,  6 beta functions with: 
                l(1) =   0
                l(2) =   0
                l(3) =   1
                l(4) =   1
                l(5) =   2
                l(6) =   2
     Q(r) pseudized with 0 coefficients 


     PseudoPot. # 2 for S  read from file:
     /shared/home/as3359/pseudo/S.pbesol-nl-kjpaw_psl.1.0.0.UPF
     MD5 check sum: bf3db50ec3f960682bbc396f1aadd1dd
     Pseudo is Projector augmented-wave + core cor, Zval =  6.0
     Generated using &quot;atomic&quot; code by A. Dal Corso  v.6.3
     Shape of augmentation charge: PSQ
     Using radial grid of 1151 points,  4 beta functions with: 
                l(1) =   0
                l(2) =   0
                l(3) =   1
                l(4) =   1
     Q(r) pseudized with 0 coefficients 


     atomic species   valence    mass     pseudopotential
        Mo            14.00    95.94000     Mo( 1.00)
        S              6.00    32.06500     S ( 1.00)

     No symmetry found



   Cartesian axes

     site n.     atom                  positions (alat units)
         1           Mo  tau(   1) = (   0.0000000   0.0000000   1.6880765  )
         2           S   tau(   2) = (   0.4883508   0.2821722   2.1737857  )
         3           S   tau(   3) = (   0.4883508   0.2821722   1.2023670  )

     number of k points=   113

     Number of k-points >= 100: set verbosity='high' to print them.

     Dense  grid:   227065 G-vectors     FFT dimensions: (  48,  48, 240)

     Estimated max dynamical RAM per process >     750.68 MB

     Estimated total dynamical RAM >       1.47 GB
     Cannot read rho : file not found

     Initial potential from superposition of free atoms

     starting charge   25.99914, renormalised to   26.00000

     negative rho (up, down):  8.676E-05 0.000E+00
     Message from routine qexsd_readschema :
     xml data file /scratch/as3359/Mos2_ct_lat/MoS2.save/data-file-schema.xml not fou
     Cannot read wfcs: file not found
     Starting wfcs are   18 randomized atomic wfcs
     Checking if some PAW data can be deallocated... 

     total cpu time spent up to now is       11.4 secs

     Self-consistent Calculation

     iteration #  1     ecut=   150.00 Ry     beta= 0.70
     Davidson diagonalization with overlap
     ethr =  1.00E-05,  avg # of iterations = 10.3

     negative rho (up, down):  1.183E-04 0.000E+00

     total cpu time spent up to now is       41.0 secs

     total energy              =    -489.68582915 Ry
     estimated scf accuracy    <       0.15596381 Ry

     iteration #  2     ecut=   150.00 Ry     beta= 0.70
     Davidson diagonalization with overlap
     ethr =  6.00E-04,  avg # of iterations =  5.1

     negative rho (up, down):  1.075E-04 0.000E+00

     total cpu time spent up to now is       56.5 secs

     total energy              =    -489.64065025 Ry
     estimated scf accuracy    <       0.60485043 Ry

     iteration #  3     ecut=   150.00 Ry     beta= 0.70
     Davidson diagonalization with overlap
     ethr =  6.00E-04,  avg # of iterations =  5.1

     negative rho (up, down):  1.084E-04 0.000E+00

     total cpu time spent up to now is       71.3 secs

     total energy              =    -489.75241211 Ry
     estimated scf accuracy    <       0.03895876 Ry

     iteration #  4     ecut=   150.00 Ry     beta= 0.70
     Davidson diagonalization with overlap
     ethr =  1.50E-04,  avg # of iterations =  2.3

     negative rho (up, down):  1.144E-04 0.000E+00

     total cpu time spent up to now is       82.2 secs

     total energy              =    -489.75470696 Ry
     estimated scf accuracy    <       0.00553528 Ry

     iteration #  5     ecut=   150.00 Ry     beta= 0.70
     Davidson diagonalization with overlap
     ethr =  2.13E-05,  avg # of iterations =  5.0

     negative rho (up, down):  1.156E-04 0.000E+00

     total cpu time spent up to now is       97.3 secs

     total energy              =    -489.75750993 Ry
     estimated scf accuracy    <       0.00702323 Ry

     iteration #  6     ecut=   150.00 Ry     beta= 0.70
     Davidson diagonalization with overlap
     ethr =  2.13E-05,  avg # of iterations =  1.8

     negative rho (up, down):  1.171E-04 0.000E+00

     total cpu time spent up to now is      107.0 secs

     total energy              =    -489.75665402 Ry
     estimated scf accuracy    <       0.00238390 Ry

     iteration #  7     ecut=   150.00 Ry     beta= 0.70
     Davidson diagonalization with overlap
     ethr =  9.17E-06,  avg # of iterations =  5.5

     negative rho (up, down):  1.174E-04 0.000E+00

     total cpu time spent up to now is      121.6 secs

     total energy              =    -489.75818454 Ry
     estimated scf accuracy    <       0.00250664 Ry

     iteration #  8     ecut=   150.00 Ry     beta= 0.70
     Davidson diagonalization with overlap
     ethr =  9.17E-06,  avg # of iterations =  1.0

     negative rho (up, down):  1.175E-04 0.000E+00

     total cpu time spent up to now is      130.8 secs

     total energy              =    -489.75763254 Ry
     estimated scf accuracy    <       0.00252996 Ry

     iteration #  9     ecut=   150.00 Ry     beta= 0.70
     Davidson diagonalization with overlap
     ethr =  9.17E-06,  avg # of iterations =  1.9

     negative rho (up, down):  1.175E-04 0.000E+00

     total cpu time spent up to now is      140.7 secs

     total energy              =    -489.75777401 Ry
     estimated scf accuracy    <       0.00069764 Ry

     iteration # 10     ecut=   150.00 Ry     beta= 0.70
     Davidson diagonalization with overlap
     ethr =  2.68E-06,  avg # of iterations =  1.2

     negative rho (up, down):  1.174E-04 0.000E+00

     total cpu time spent up to now is      149.9 secs

     total energy              =    -489.75772515 Ry
     estimated scf accuracy    <       0.00067332 Ry

     iteration # 11     ecut=   150.00 Ry     beta= 0.70
     Davidson diagonalization with overlap
     ethr =  2.59E-06,  avg # of iterations =  1.5

     negative rho (up, down):  1.180E-04 0.000E+00

     total cpu time spent up to now is      159.6 secs

     total energy              =    -489.75771762 Ry
     estimated scf accuracy    <       0.00032929 Ry

     iteration # 12     ecut=   150.00 Ry     beta= 0.70
     Davidson diagonalization with overlap
     ethr =  1.27E-06,  avg # of iterations =  3.2

     negative rho (up, down):  1.182E-04 0.000E+00

     total cpu time spent up to now is      170.3 secs

     total energy              =    -489.75769913 Ry
     estimated scf accuracy    <       0.00010080 Ry

     iteration # 13     ecut=   150.00 Ry     beta= 0.70
     Davidson diagonalization with overlap
     ethr =  3.88E-07,  avg # of iterations =  5.5

     negative rho (up, down):  1.180E-04 0.000E+00

     total cpu time spent up to now is      186.2 secs

     total energy              =    -489.75776979 Ry
     estimated scf accuracy    <       0.00017769 Ry

     iteration # 14     ecut=   150.00 Ry     beta= 0.70
     Davidson diagonalization with overlap
     ethr =  3.88E-07,  avg # of iterations =  1.0

     negative rho (up, down):  1.179E-04 0.000E+00

     total cpu time spent up to now is      195.4 secs

     total energy              =    -489.75774960 Ry
     estimated scf accuracy    <       0.00012169 Ry

     iteration # 15     ecut=   150.00 Ry     beta= 0.70
     Davidson diagonalization with overlap
     ethr =  3.88E-07,  avg # of iterations =  2.0

     negative rho (up, down):  1.179E-04 0.000E+00

     total cpu time spent up to now is      205.6 secs

     total energy              =    -489.75775084 Ry
     estimated scf accuracy    <       0.00003229 Ry

     iteration # 16     ecut=   150.00 Ry     beta= 0.70
     Davidson diagonalization with overlap
     ethr =  1.24E-07,  avg # of iterations =  3.6

     negative rho (up, down):  1.180E-04 0.000E+00

     total cpu time spent up to now is      217.5 secs

     total energy              =    -489.75775610 Ry
     estimated scf accuracy    <       0.00000146 Ry

     iteration # 17     ecut=   150.00 Ry     beta= 0.70
     Davidson diagonalization with overlap
     ethr =  5.62E-09,  avg # of iterations =  5.4

     negative rho (up, down):  1.180E-04 0.000E+00

     total cpu time spent up to now is      233.5 secs

     total energy              =    -489.75775687 Ry
     estimated scf accuracy    <       0.00000130 Ry

     iteration # 18     ecut=   150.00 Ry     beta= 0.70
     Davidson diagonalization with overlap
     ethr =  5.00E-09,  avg # of iterations =  3.9

     negative rho (up, down):  1.180E-04 0.000E+00

     total cpu time spent up to now is      246.4 secs

     total energy              =    -489.75775800 Ry
     estimated scf accuracy    <       0.00000071 Ry

     iteration # 19     ecut=   150.00 Ry     beta= 0.70
     Davidson diagonalization with overlap
     ethr =  2.74E-09,  avg # of iterations =  5.8

     negative rho (up, down):  1.180E-04 0.000E+00

     total cpu time spent up to now is      263.4 secs

     total energy              =    -489.75775782 Ry
     estimated scf accuracy    <       0.00001053 Ry

     iteration # 20     ecut=   150.00 Ry     beta= 0.70
     Davidson diagonalization with overlap
     ethr =  2.74E-09,  avg # of iterations =  3.1

     negative rho (up, down):  1.181E-04 0.000E+00

     total cpu time spent up to now is      275.0 secs

     total energy              =    -489.75775660 Ry
     estimated scf accuracy    <       0.00000630 Ry

     iteration # 21     ecut=   150.00 Ry     beta= 0.70
     Davidson diagonalization with overlap
     ethr =  2.74E-09,  avg # of iterations =  5.0

     negative rho (up, down):  1.181E-04 0.000E+00

     total cpu time spent up to now is      289.7 secs

     total energy              =    -489.75775705 Ry
     estimated scf accuracy    <       0.00000035 Ry

     iteration # 22     ecut=   150.00 Ry     beta= 0.70
     Davidson diagonalization with overlap
     ethr =  1.36E-09,  avg # of iterations =  4.6

     negative rho (up, down):  1.181E-04 0.000E+00

     total cpu time spent up to now is      304.5 secs

     total energy              =    -489.75775722 Ry
     estimated scf accuracy    <       0.00000024 Ry

     iteration # 23     ecut=   150.00 Ry     beta= 0.70
     Davidson diagonalization with overlap
     ethr =  9.35E-10,  avg # of iterations =  1.0

     negative rho (up, down):  1.181E-04 0.000E+00

     total cpu time spent up to now is      313.7 secs

     total energy              =    -489.75775719 Ry
     estimated scf accuracy    <       0.00000016 Ry

     iteration # 24     ecut=   150.00 Ry     beta= 0.70
     Davidson diagonalization with overlap
     ethr =  6.30E-10,  avg # of iterations =  2.0

     negative rho (up, down):  1.181E-04 0.000E+00

     total cpu time spent up to now is      323.6 secs

     total energy              =    -489.75775720 Ry
     estimated scf accuracy    <       0.00000005 Ry

     iteration # 25     ecut=   150.00 Ry     beta= 0.70
     Davidson diagonalization with overlap
     ethr =  1.82E-10,  avg # of iterations =  2.2

     negative rho (up, down):  1.181E-04 0.000E+00

     total cpu time spent up to now is      333.5 secs

     total energy              =    -489.75775719 Ry
     estimated scf accuracy    <       0.00000003 Ry

     iteration # 26     ecut=   150.00 Ry     beta= 0.70
     Davidson diagonalization with overlap
     ethr =  1.09E-10,  avg # of iterations =  4.6

     negative rho (up, down):  1.181E-04 0.000E+00

     total cpu time spent up to now is      347.5 secs

     total energy              =    -489.75775720 Ry
     estimated scf accuracy    <          9.5E-09 Ry

     iteration # 27     ecut=   150.00 Ry     beta= 0.70
     Davidson diagonalization with overlap
     ethr =  3.64E-11,  avg # of iterations =  1.3

     negative rho (up, down):  1.181E-04 0.000E+00

     total cpu time spent up to now is      356.9 secs

     total energy              =    -489.75775720 Ry
     estimated scf accuracy    <          5.1E-09 Ry

     iteration # 28     ecut=   150.00 Ry     beta= 0.70
     Davidson diagonalization with overlap
     ethr =  1.95E-11,  avg # of iterations =  1.8

     negative rho (up, down):  1.181E-04 0.000E+00

     total cpu time spent up to now is      366.6 secs

     total energy              =    -489.75775720 Ry
     estimated scf accuracy    <          2.2E-09 Ry

     iteration # 29     ecut=   150.00 Ry     beta= 0.70
     Davidson diagonalization with overlap
     ethr =  8.44E-12,  avg # of iterations =  4.4

     negative rho (up, down):  1.181E-04 0.000E+00

     total cpu time spent up to now is      380.1 secs

     total energy              =    -489.75775720 Ry
     estimated scf accuracy    <          2.6E-10 Ry

     iteration # 30     ecut=   150.00 Ry     beta= 0.70
     Davidson diagonalization with overlap
     ethr =  1.00E-12,  avg # of iterations =  2.4

     negative rho (up, down):  1.181E-04 0.000E+00

     total cpu time spent up to now is      390.5 secs

     total energy              =    -489.75775720 Ry
     estimated scf accuracy    <          1.1E-10 Ry

     iteration # 31     ecut=   150.00 Ry     beta= 0.70
     Davidson diagonalization with overlap
     ethr =  4.15E-13,  avg # of iterations =  4.7

     negative rho (up, down):  1.181E-04 0.000E+00

     total cpu time spent up to now is      403.9 secs

     total energy              =    -489.75775720 Ry
     estimated scf accuracy    <          2.8E-11 Ry

     iteration # 32     ecut=   150.00 Ry     beta= 0.70
     Davidson diagonalization with overlap
     ethr =  1.07E-13,  avg # of iterations =  1.6

     negative rho (up, down):  1.181E-04 0.000E+00

     total cpu time spent up to now is      413.4 secs

     total energy              =    -489.75775720 Ry
     estimated scf accuracy    <          2.7E-11 Ry

     iteration # 33     ecut=   150.00 Ry     beta= 0.70
     Davidson diagonalization with overlap
     ethr =  1.05E-13,  avg # of iterations =  3.8

     negative rho (up, down):  1.181E-04 0.000E+00

     total cpu time spent up to now is      425.7 secs

     End of self-consistent calculation

     Number of k-points >= 100: set verbosity='high' to print the bands.

     highest occupied level (ev):     0.4284

!    total energy              =    -489.75775720 Ry

     total all-electron energy =     -9688.215603 Ry
     estimated scf accuracy    <          7.2E-13 Ry

     The total energy is the sum of the following terms:
     one-electron contribution =    -815.49024024 Ry
     hartree contribution      =     411.62242180 Ry
     xc contribution           =     -29.54740715 Ry
     ewald contribution        =     256.54893266 Ry
     one-center paw contrib.   =    -312.89146427 Ry

     convergence has been achieved in  33 iterations

     negative rho (up, down):  1.181E-04 0.000E+00

     Forces acting on atoms (cartesian axes, Ry/au):

     atom    1 type  1   force =     0.00027768    0.00012405   -0.00000090
     atom    2 type  2   force =    -0.00013884   -0.00006202    0.00573057
     atom    3 type  2   force =    -0.00013884   -0.00006203   -0.00572967

     Total force =     0.008112     Total SCF correction =     0.000002


     Computing stress (Cartesian axis) and pressure


     negative rho (up, down):  1.181E-04 0.000E+00
          total   stress  (Ry/bohr**3)                   (kbar)     P=        6.08
   0.00004549  -0.00000088  -0.00000000            6.69       -0.13       -0.00
  -0.00000088   0.00004229  -0.00000000           -0.13        6.22       -0.00
  -0.00000000  -0.00000000   0.00003627           -0.00       -0.00        5.34


     Writing output data file /scratch/as3359/Mos2_ct_lat/MoS2.save/
 
     init_run     :     20.29s CPU     11.19s WALL (       1 calls)
     electrons    :    812.48s CPU    414.35s WALL (       1 calls)
     forces       :      4.98s CPU      2.52s WALL (       1 calls)
     stress       :     16.21s CPU      8.23s WALL (       1 calls)

     Called by init_run:
     wfcinit      :     13.77s CPU      7.04s WALL (       1 calls)
     potinit      :      2.12s CPU      1.20s WALL (       1 calls)
     hinit0       :      3.63s CPU      2.53s WALL (       1 calls)

     Called by electrons:
     c_bands      :    670.10s CPU    339.95s WALL (      33 calls)
     sum_band     :    122.22s CPU     62.89s WALL (      33 calls)
     v_of_rho     :      4.50s CPU      2.49s WALL (      34 calls)
     newd         :      7.92s CPU      4.85s WALL (      34 calls)
     PAW_pot      :      6.48s CPU      3.36s WALL (      34 calls)
     mix_rho      :      1.71s CPU      1.02s WALL (      33 calls)

     Called by c_bands:
     init_us_2    :     25.18s CPU     12.63s WALL (    7797 calls)
     cegterg      :    625.40s CPU    317.33s WALL (    3729 calls)

     Called by *egterg:
     cdiaghg      :      5.89s CPU      2.99s WALL (   16569 calls)
     h_psi        :    543.66s CPU    276.20s WALL (   16682 calls)
     s_psi        :     12.85s CPU      6.48s WALL (   16682 calls)
     g_psi        :      5.23s CPU      2.63s WALL (   12840 calls)

     Called by h_psi:
     h_psi:calbec :     18.99s CPU      9.58s WALL (   16682 calls)
     vloc_psi     :    505.49s CPU    256.95s WALL (   16682 calls)
     add_vuspsi   :     14.46s CPU      7.29s WALL (   16682 calls)

     General routines
     calbec       :     24.85s CPU     12.53s WALL (   20976 calls)
     fft          :      2.23s CPU      1.30s WALL (     399 calls)
     ffts         :      0.11s CPU      0.06s WALL (      33 calls)
     fftw         :    496.07s CPU    252.47s WALL (  330029 calls)
 
     Parallel routines
 
     PWSCF        :  14m17.08s CPU   7m19.39s WALL

 
   This run was terminated on:  13:57:28  17Apr2022            

=------------------------------------------------------------------------------=
   JOB DONE.
=------------------------------------------------------------------------------=
