
     Program PWSCF v.6.8 starts on 17Apr2022 at 15:42:29 

     This program is part of the open-source Quantum ESPRESSO suite
     for quantum simulation of materials; please cite
         "P. Giannozzi et al., J. Phys.:Condens. Matter 21 395502 (2009);
         "P. Giannozzi et al., J. Phys.:Condens. Matter 29 465901 (2017);
         "P. Giannozzi et al., J. Chem. Phys. 152 154105 (2020);
          URL http://www.quantum-espresso.org", 
     in publications or presentations arising from this work. More details at
     http://www.quantum-espresso.org/quote

     Parallel version (MPI & OpenMP), running on       4 processor cores
     Number of MPI processes:                 2
     Threads/MPI process:                     2

     MPI processes distributed on     1 nodes
     R & G space division:  proc/nbgrp/npool/nimage =       2
     125013 MiB available memory on the printing compute node when the environment starts
 
     Reading input from MoS2.scf.6.084.in
Warning: card  &CELL ignored
Warning: card     CELL_DYNAMICS='BFGS' ignored
Warning: card  / ignored

     Current dimensions of program PWSCF are:
     Max number of different atomic species (ntypx) = 10
     Max number of k-points (npk) =  40000
     Max angular momentum in pseudopotentials (lmaxx) =  4
     Message from routine iosys:
     restart disabled: needed files not found
     file Mo.pbesol-spn-kjpaw_psl.1.0.0.UPF: wavefunction(s)  4S 4D renormalized
     file S.pbesol-nl-kjpaw_psl.1.0.0.UPF: wavefunction(s)  3S renormalized

     Subspace diagonalization in iterative solution of the eigenvalue problem:
     a serial algorithm will be used

 
     Parallelization info
     --------------------
     sticks:   dense  smooth     PW     G-vecs:    dense   smooth      PW
     Min         729     729    216               115351   115351   18249
     Max         730     730    217               115368   115368   18256
     Sum        1459    1459    433               230719   230719   36505
 
     Using Slab Decomposition
 


     bravais-lattice index     =            0
     lattice parameter (alat)  =       6.0840  a.u.
     unit-cell volume          =     930.2934 (a.u.)^3
     number of atoms/cell      =            3
     number of atomic types    =            2
     number of electrons       =        26.00
     number of Kohn-Sham states=           13
     kinetic-energy cutoff     =     150.0000  Ry
     charge density cutoff     =     600.0000  Ry
     scf convergence threshold =      1.0E-12
     mixing beta               =       0.7000
     number of iterations used =            8  plain     mixing
     Exchange-correlation= SLA  PW   PSX  PSC
                           (   1   4  10   8   0   0   0)

     celldm(1)=   6.084000  celldm(2)=   0.000000  celldm(3)=   0.000000
     celldm(4)=   0.000000  celldm(5)=   0.000000  celldm(6)=   0.000000

     crystal axes: (cart. coord. in units of alat)
               a(1) = (   0.976384  -0.000017   0.000000 )  
               a(2) = (  -0.487931   0.846187   0.000000 )  
               a(3) = (   0.000000   0.000000   5.000000 )  

     reciprocal axes: (cart. coord. in units 2 pi/alat)
               b(1) = (  1.024198  0.590577  0.000000 )  
               b(2) = (  0.000021  1.181785  0.000000 )  
               b(3) = (  0.000000  0.000000  0.200000 )  


     PseudoPot. # 1 for Mo read from file:
     /shared/home/as3359/pseudo/Mo.pbesol-spn-kjpaw_psl.1.0.0.UPF
     MD5 check sum: de57925cfc675213e43241dcc441eda8
     Pseudo is Projector augmented-wave + core cor, Zval = 14.0
     Generated using &quot;atomic&quot; code by A. Dal Corso  v.6.3
     Shape of augmentation charge: PSQ
     Using radial grid of 1229 points,  6 beta functions with: 
                l(1) =   0
                l(2) =   0
                l(3) =   1
                l(4) =   1
                l(5) =   2
                l(6) =   2
     Q(r) pseudized with 0 coefficients 


     PseudoPot. # 2 for S  read from file:
     /shared/home/as3359/pseudo/S.pbesol-nl-kjpaw_psl.1.0.0.UPF
     MD5 check sum: bf3db50ec3f960682bbc396f1aadd1dd
     Pseudo is Projector augmented-wave + core cor, Zval =  6.0
     Generated using &quot;atomic&quot; code by A. Dal Corso  v.6.3
     Shape of augmentation charge: PSQ
     Using radial grid of 1151 points,  4 beta functions with: 
                l(1) =   0
                l(2) =   0
                l(3) =   1
                l(4) =   1
     Q(r) pseudized with 0 coefficients 


     atomic species   valence    mass     pseudopotential
        Mo            14.00    95.94000     Mo( 1.00)
        S              6.00    32.06500     S ( 1.00)

     No symmetry found



   Cartesian axes

     site n.     atom                  positions (alat units)
         1           Mo  tau(   1) = (   0.0000000   0.0000000   1.6880765  )
         2           S   tau(   2) = (   0.4883508   0.2821722   2.1737857  )
         3           S   tau(   3) = (   0.4883508   0.2821722   1.2023670  )

     number of k points=   113

     Number of k-points >= 100: set verbosity='high' to print them.

     Dense  grid:   230719 G-vectors     FFT dimensions: (  48,  48, 240)

     Estimated max dynamical RAM per process >     762.04 MB

     Estimated total dynamical RAM >       1.49 GB
     Cannot read rho : file not found

     Initial potential from superposition of free atoms

     starting charge   25.99914, renormalised to   26.00000

     negative rho (up, down):  8.885E-05 0.000E+00
     Message from routine qexsd_readschema :
     xml data file /scratch/as3359/Mos2_ct_lat/MoS2.save/data-file-schema.xml not fou
     Cannot read wfcs: file not found
     Starting wfcs are   18 randomized atomic wfcs
     Checking if some PAW data can be deallocated... 

     total cpu time spent up to now is       10.2 secs

     Self-consistent Calculation

     iteration #  1     ecut=   150.00 Ry     beta= 0.70
     Davidson diagonalization with overlap
     ethr =  1.00E-05,  avg # of iterations = 10.3

     negative rho (up, down):  1.204E-04 0.000E+00

     total cpu time spent up to now is       40.9 secs

     total energy              =    -489.69120555 Ry
     estimated scf accuracy    <       0.14765485 Ry

     iteration #  2     ecut=   150.00 Ry     beta= 0.70
     Davidson diagonalization with overlap
     ethr =  5.68E-04,  avg # of iterations =  4.9

     negative rho (up, down):  1.107E-04 0.000E+00

     total cpu time spent up to now is       56.5 secs

     total energy              =    -489.65274628 Ry
     estimated scf accuracy    <       0.52930594 Ry

     iteration #  3     ecut=   150.00 Ry     beta= 0.70
     Davidson diagonalization with overlap
     ethr =  5.68E-04,  avg # of iterations =  5.0

     negative rho (up, down):  1.117E-04 0.000E+00

     total cpu time spent up to now is       71.7 secs

     total energy              =    -489.75184653 Ry
     estimated scf accuracy    <       0.04511772 Ry

     iteration #  4     ecut=   150.00 Ry     beta= 0.70
     Davidson diagonalization with overlap
     ethr =  1.74E-04,  avg # of iterations =  2.4

     negative rho (up, down):  1.167E-04 0.000E+00

     total cpu time spent up to now is       82.9 secs

     total energy              =    -489.75464652 Ry
     estimated scf accuracy    <       0.00556465 Ry

     iteration #  5     ecut=   150.00 Ry     beta= 0.70
     Davidson diagonalization with overlap
     ethr =  2.14E-05,  avg # of iterations =  5.2

     negative rho (up, down):  1.179E-04 0.000E+00

     total cpu time spent up to now is       99.1 secs

     total energy              =    -489.75778472 Ry
     estimated scf accuracy    <       0.00959373 Ry

     iteration #  6     ecut=   150.00 Ry     beta= 0.70
     Davidson diagonalization with overlap
     ethr =  2.14E-05,  avg # of iterations =  1.9

     negative rho (up, down):  1.186E-04 0.000E+00

     total cpu time spent up to now is      109.3 secs

     total energy              =    -489.75726547 Ry
     estimated scf accuracy    <       0.00378205 Ry

     iteration #  7     ecut=   150.00 Ry     beta= 0.70
     Davidson diagonalization with overlap
     ethr =  1.45E-05,  avg # of iterations =  3.1

     negative rho (up, down):  1.199E-04 0.000E+00

     total cpu time spent up to now is      120.9 secs

     total energy              =    -489.75762090 Ry
     estimated scf accuracy    <       0.00024974 Ry

     iteration #  8     ecut=   150.00 Ry     beta= 0.70
     Davidson diagonalization with overlap
     ethr =  9.61E-07,  avg # of iterations =  6.6

     negative rho (up, down):  1.199E-04 0.000E+00

     total cpu time spent up to now is      141.1 secs

     total energy              =    -489.75784526 Ry
     estimated scf accuracy    <       0.00294534 Ry

     iteration #  9     ecut=   150.00 Ry     beta= 0.70
     Davidson diagonalization with overlap
     ethr =  9.61E-07,  avg # of iterations =  4.1

     negative rho (up, down):  1.204E-04 0.000E+00

     total cpu time spent up to now is      154.7 secs

     total energy              =    -489.75784068 Ry
     estimated scf accuracy    <       0.00069858 Ry

     iteration # 10     ecut=   150.00 Ry     beta= 0.70
     Davidson diagonalization with overlap
     ethr =  9.61E-07,  avg # of iterations =  4.2

     negative rho (up, down):  1.205E-04 0.000E+00

     total cpu time spent up to now is      167.8 secs

     total energy              =    -489.75788475 Ry
     estimated scf accuracy    <       0.00007839 Ry

     iteration # 11     ecut=   150.00 Ry     beta= 0.70
     Davidson diagonalization with overlap
     ethr =  3.01E-07,  avg # of iterations =  4.5

     negative rho (up, down):  1.205E-04 0.000E+00

     total cpu time spent up to now is      181.7 secs

     total energy              =    -489.75790667 Ry
     estimated scf accuracy    <       0.00000067 Ry

     iteration # 12     ecut=   150.00 Ry     beta= 0.70
     Davidson diagonalization with overlap
     ethr =  2.57E-09,  avg # of iterations =  7.7

     negative rho (up, down):  1.205E-04 0.000E+00

     total cpu time spent up to now is      202.5 secs

     total energy              =    -489.75790549 Ry
     estimated scf accuracy    <       0.00001283 Ry

     iteration # 13     ecut=   150.00 Ry     beta= 0.70
     Davidson diagonalization with overlap
     ethr =  2.57E-09,  avg # of iterations =  6.1

     negative rho (up, down):  1.206E-04 0.000E+00

     total cpu time spent up to now is      221.2 secs

     total energy              =    -489.75790748 Ry
     estimated scf accuracy    <       0.00000004 Ry

     iteration # 14     ecut=   150.00 Ry     beta= 0.70
     Davidson diagonalization with overlap
     ethr =  1.43E-10,  avg # of iterations =  9.8

     negative rho (up, down):  1.206E-04 0.000E+00

     total cpu time spent up to now is      248.3 secs

     total energy              =    -489.75790638 Ry
     estimated scf accuracy    <       0.00000669 Ry

     iteration # 15     ecut=   150.00 Ry     beta= 0.70
     Davidson diagonalization with overlap
     ethr =  1.43E-10,  avg # of iterations =  9.4

     negative rho (up, down):  1.206E-04 0.000E+00

     total cpu time spent up to now is      274.4 secs

     total energy              =    -489.75790726 Ry
     estimated scf accuracy    <          9.2E-09 Ry

     iteration # 16     ecut=   150.00 Ry     beta= 0.70
     Davidson diagonalization with overlap
     ethr =  3.53E-11,  avg # of iterations =  4.5

     negative rho (up, down):  1.206E-04 0.000E+00

     total cpu time spent up to now is      288.0 secs

     total energy              =    -489.75790726 Ry
     estimated scf accuracy    <       0.00000005 Ry

     iteration # 17     ecut=   150.00 Ry     beta= 0.70
     Davidson diagonalization with overlap
     ethr =  3.53E-11,  avg # of iterations =  2.2

     negative rho (up, down):  1.206E-04 0.000E+00

     total cpu time spent up to now is      298.5 secs

     total energy              =    -489.75790725 Ry
     estimated scf accuracy    <       0.00000003 Ry

     iteration # 18     ecut=   150.00 Ry     beta= 0.70
     Davidson diagonalization with overlap
     ethr =  3.53E-11,  avg # of iterations =  5.0

     negative rho (up, down):  1.206E-04 0.000E+00

     total cpu time spent up to now is      312.9 secs

     total energy              =    -489.75790726 Ry
     estimated scf accuracy    <          1.1E-09 Ry

     iteration # 19     ecut=   150.00 Ry     beta= 0.70
     Davidson diagonalization with overlap
     ethr =  4.15E-12,  avg # of iterations =  4.6

     negative rho (up, down):  1.206E-04 0.000E+00

     total cpu time spent up to now is      327.3 secs

     total energy              =    -489.75790726 Ry
     estimated scf accuracy    <          4.7E-09 Ry

     iteration # 20     ecut=   150.00 Ry     beta= 0.70
     Davidson diagonalization with overlap
     ethr =  4.15E-12,  avg # of iterations =  1.0

     negative rho (up, down):  1.206E-04 0.000E+00

     total cpu time spent up to now is      336.8 secs

     total energy              =    -489.75790726 Ry
     estimated scf accuracy    <          4.8E-09 Ry

     iteration # 21     ecut=   150.00 Ry     beta= 0.70
     Davidson diagonalization with overlap
     ethr =  4.15E-12,  avg # of iterations =  3.8

     negative rho (up, down):  1.206E-04 0.000E+00

     total cpu time spent up to now is      349.9 secs

     total energy              =    -489.75790726 Ry
     estimated scf accuracy    <          3.6E-10 Ry

     iteration # 22     ecut=   150.00 Ry     beta= 0.70
     Davidson diagonalization with overlap
     ethr =  1.38E-12,  avg # of iterations =  4.5

     negative rho (up, down):  1.206E-04 0.000E+00

     total cpu time spent up to now is      364.5 secs

     total energy              =    -489.75790726 Ry
     estimated scf accuracy    <          5.4E-11 Ry

     iteration # 23     ecut=   150.00 Ry     beta= 0.70
     Davidson diagonalization with overlap
     ethr =  2.07E-13,  avg # of iterations =  2.8

     negative rho (up, down):  1.206E-04 0.000E+00

     total cpu time spent up to now is      375.5 secs

     total energy              =    -489.75790726 Ry
     estimated scf accuracy    <          8.0E-11 Ry

     iteration # 24     ecut=   150.00 Ry     beta= 0.70
     Davidson diagonalization with overlap
     ethr =  2.07E-13,  avg # of iterations =  1.5

     negative rho (up, down):  1.206E-04 0.000E+00

     total cpu time spent up to now is      385.3 secs

     total energy              =    -489.75790726 Ry
     estimated scf accuracy    <          3.9E-11 Ry

     iteration # 25     ecut=   150.00 Ry     beta= 0.70
     Davidson diagonalization with overlap
     ethr =  1.51E-13,  avg # of iterations =  3.0

     negative rho (up, down):  1.206E-04 0.000E+00

     total cpu time spent up to now is      396.9 secs

     total energy              =    -489.75790726 Ry
     estimated scf accuracy    <          2.6E-12 Ry

     iteration # 26     ecut=   150.00 Ry     beta= 0.70
     Davidson diagonalization with overlap
     ethr =  1.00E-13,  avg # of iterations =  4.9

     negative rho (up, down):  1.206E-04 0.000E+00

     total cpu time spent up to now is      411.3 secs

     total energy              =    -489.75790726 Ry
     estimated scf accuracy    <          5.8E-11 Ry

     iteration # 27     ecut=   150.00 Ry     beta= 0.70
     Davidson diagonalization with overlap
     ethr =  1.00E-13,  avg # of iterations =  1.2

     negative rho (up, down):  1.206E-04 0.000E+00

     total cpu time spent up to now is      420.9 secs

     total energy              =    -489.75790726 Ry
     estimated scf accuracy    <          3.9E-11 Ry

     iteration # 28     ecut=   150.00 Ry     beta= 0.70
     Davidson diagonalization with overlap
     ethr =  1.00E-13,  avg # of iterations =  1.0

     negative rho (up, down):  1.206E-04 0.000E+00

     total cpu time spent up to now is      430.4 secs

     total energy              =    -489.75790726 Ry
     estimated scf accuracy    <          3.6E-11 Ry

     iteration # 29     ecut=   150.00 Ry     beta= 0.70
     Davidson diagonalization with overlap
     ethr =  1.00E-13,  avg # of iterations =  2.2

     negative rho (up, down):  1.206E-04 0.000E+00

     total cpu time spent up to now is      440.7 secs

     total energy              =    -489.75790726 Ry
     estimated scf accuracy    <          1.1E-11 Ry

     iteration # 30     ecut=   150.00 Ry     beta= 0.70
     Davidson diagonalization with overlap
     ethr =  1.00E-13,  avg # of iterations =  2.3

     negative rho (up, down):  1.206E-04 0.000E+00

     total cpu time spent up to now is      451.1 secs

     End of self-consistent calculation

     Number of k-points >= 100: set verbosity='high' to print the bands.

     highest occupied level (ev):     0.3404

!    total energy              =    -489.75790726 Ry

     total all-electron energy =     -9688.215753 Ry
     estimated scf accuracy    <          1.0E-12 Ry

     The total energy is the sum of the following terms:
     one-electron contribution =    -812.85519132 Ry
     hartree contribution      =     410.21133767 Ry
     xc contribution           =     -29.50979159 Ry
     ewald contribution        =     255.28389847 Ry
     one-center paw contrib.   =    -312.88816049 Ry

     convergence has been achieved in  30 iterations

     negative rho (up, down):  1.206E-04 0.000E+00

     Forces acting on atoms (cartesian axes, Ry/au):

     atom    1 type  1   force =     0.00026289    0.00013199   -0.00000031
     atom    2 type  2   force =    -0.00013144   -0.00006599   -0.00427025
     atom    3 type  2   force =    -0.00013145   -0.00006600    0.00427056

     Total force =     0.006050     Total SCF correction =     0.000003


     Computing stress (Cartesian axis) and pressure


     negative rho (up, down):  1.206E-04 0.000E+00
          total   stress  (Ry/bohr**3)                   (kbar)     P=       -2.88
  -0.00001401  -0.00000084   0.00000000           -2.06       -0.12        0.00
  -0.00000084  -0.00001712   0.00000000           -0.12       -2.52        0.00
   0.00000000   0.00000000  -0.00002761            0.00        0.00       -4.06


     Writing output data file /scratch/as3359/Mos2_ct_lat/MoS2.save/
 
     init_run     :     18.01s CPU     10.06s WALL (       1 calls)
     electrons    :    864.82s CPU    440.88s WALL (       1 calls)
     forces       :      5.04s CPU      2.56s WALL (       1 calls)
     stress       :     16.50s CPU      8.39s WALL (       1 calls)

     Called by init_run:
     wfcinit      :     11.45s CPU      5.88s WALL (       1 calls)
     potinit      :      2.11s CPU      1.20s WALL (       1 calls)
     hinit0       :      3.65s CPU      2.55s WALL (       1 calls)

     Called by electrons:
     c_bands      :    730.97s CPU    370.90s WALL (      30 calls)
     sum_band     :    115.19s CPU     59.28s WALL (      30 calls)
     v_of_rho     :      4.18s CPU      2.31s WALL (      31 calls)
     newd         :      7.43s CPU      4.58s WALL (      31 calls)
     PAW_pot      :      5.92s CPU      3.09s WALL (      31 calls)
     mix_rho      :      1.59s CPU      0.95s WALL (      30 calls)

     Called by c_bands:
     init_us_2    :     23.82s CPU     11.95s WALL (    7119 calls)
     cegterg      :    688.94s CPU    349.66s WALL (    3390 calls)

     Called by *egterg:
     cdiaghg      :      6.66s CPU      3.39s WALL (   18036 calls)
     h_psi        :    591.41s CPU    300.60s WALL (   18149 calls)
     s_psi        :     13.87s CPU      6.99s WALL (   18149 calls)
     g_psi        :      6.05s CPU      3.05s WALL (   14646 calls)

     Called by h_psi:
     h_psi:calbec :     21.06s CPU     10.63s WALL (   18149 calls)
     vloc_psi     :    549.94s CPU    279.68s WALL (   18149 calls)
     add_vuspsi   :     15.46s CPU      7.79s WALL (   18149 calls)

     General routines
     calbec       :     26.70s CPU     13.48s WALL (   22104 calls)
     fft          :      2.46s CPU      1.41s WALL (     366 calls)
     ffts         :      0.11s CPU      0.06s WALL (      30 calls)
     fftw         :    532.25s CPU    271.08s WALL (  341346 calls)
 
     Parallel routines
 
     PWSCF        :  15m 7.39s CPU   7m44.80s WALL

 
   This run was terminated on:  15:50:14  17Apr2022            

=------------------------------------------------------------------------------=
   JOB DONE.
=------------------------------------------------------------------------------=
