
     Program PWSCF v.6.8 starts on  8Apr2022 at 14:41:43 

     This program is part of the open-source Quantum ESPRESSO suite
     for quantum simulation of materials; please cite
         "P. Giannozzi et al., J. Phys.:Condens. Matter 21 395502 (2009);
         "P. Giannozzi et al., J. Phys.:Condens. Matter 29 465901 (2017);
         "P. Giannozzi et al., J. Chem. Phys. 152 154105 (2020);
          URL http://www.quantum-espresso.org", 
     in publications or presentations arising from this work. More details at
     http://www.quantum-espresso.org/quote

     Parallel version (MPI & OpenMP), running on       4 processor cores
     Number of MPI processes:                 2
     Threads/MPI process:                     2

     MPI processes distributed on     1 nodes
     R & G space division:  proc/nbgrp/npool/nimage =       2
     125187 MiB available memory on the printing compute node when the environment starts
 
     Reading input from MoS2.scf.6.300.in
Warning: card  &CELL ignored
Warning: card     CELL_DYNAMICS='BFGS' ignored
Warning: card  / ignored

     Current dimensions of program PWSCF are:
     Max number of different atomic species (ntypx) = 10
     Max number of k-points (npk) =  40000
     Max angular momentum in pseudopotentials (lmaxx) =  4
     Message from routine iosys:
     restart disabled: needed files not found
     file Mo.pbesol-spn-kjpaw_psl.1.0.0.UPF: wavefunction(s)  4S 4D renormalized
     file S.pbesol-nl-kjpaw_psl.1.0.0.UPF: wavefunction(s)  3S renormalized

     Subspace diagonalization in iterative solution of the eigenvalue problem:
     a serial algorithm will be used

 
     Parallelization info
     --------------------
     sticks:   dense  smooth     PW     G-vecs:    dense   smooth      PW
     Min         777     777    225               128071   128071   19987
     Max         778     778    226               128088   128088   19996
     Sum        1555    1555    451               256159   256159   39983
 
     Using Slab Decomposition
 


     bravais-lattice index     =            0
     lattice parameter (alat)  =       6.3000  a.u.
     unit-cell volume          =    1032.9373 (a.u.)^3
     number of atoms/cell      =            3
     number of atomic types    =            2
     number of electrons       =        26.00
     number of Kohn-Sham states=           13
     kinetic-energy cutoff     =     150.0000  Ry
     charge density cutoff     =     600.0000  Ry
     scf convergence threshold =      1.0E-12
     mixing beta               =       0.7000
     number of iterations used =            8  plain     mixing
     Exchange-correlation= SLA  PW   PSX  PSC
                           (   1   4  10   8   0   0   0)

     celldm(1)=   6.300000  celldm(2)=   0.000000  celldm(3)=   0.000000
     celldm(4)=   0.000000  celldm(5)=   0.000000  celldm(6)=   0.000000

     crystal axes: (cart. coord. in units of alat)
               a(1) = (   0.976384  -0.000017   0.000000 )  
               a(2) = (  -0.487931   0.846187   0.000000 )  
               a(3) = (   0.000000   0.000000   5.000000 )  

     reciprocal axes: (cart. coord. in units 2 pi/alat)
               b(1) = (  1.024198  0.590577  0.000000 )  
               b(2) = (  0.000021  1.181785  0.000000 )  
               b(3) = (  0.000000  0.000000  0.200000 )  


     PseudoPot. # 1 for Mo read from file:
     /shared/home/as3359/pseudo/Mo.pbesol-spn-kjpaw_psl.1.0.0.UPF
     MD5 check sum: de57925cfc675213e43241dcc441eda8
     Pseudo is Projector augmented-wave + core cor, Zval = 14.0
     Generated using &quot;atomic&quot; code by A. Dal Corso  v.6.3
     Shape of augmentation charge: PSQ
     Using radial grid of 1229 points,  6 beta functions with: 
                l(1) =   0
                l(2) =   0
                l(3) =   1
                l(4) =   1
                l(5) =   2
                l(6) =   2
     Q(r) pseudized with 0 coefficients 


     PseudoPot. # 2 for S  read from file:
     /shared/home/as3359/pseudo/S.pbesol-nl-kjpaw_psl.1.0.0.UPF
     MD5 check sum: bf3db50ec3f960682bbc396f1aadd1dd
     Pseudo is Projector augmented-wave + core cor, Zval =  6.0
     Generated using &quot;atomic&quot; code by A. Dal Corso  v.6.3
     Shape of augmentation charge: PSQ
     Using radial grid of 1151 points,  4 beta functions with: 
                l(1) =   0
                l(2) =   0
                l(3) =   1
                l(4) =   1
     Q(r) pseudized with 0 coefficients 


     atomic species   valence    mass     pseudopotential
        Mo            14.00    95.94000     Mo( 1.00)
        S              6.00    32.06500     S ( 1.00)

     No symmetry found



   Cartesian axes

     site n.     atom                  positions (alat units)
         1           Mo  tau(   1) = (   0.0000000   0.0000000   1.6880765  )
         2           S   tau(   2) = (   0.4883508   0.2821722   2.1737857  )
         3           S   tau(   3) = (   0.4883508   0.2821722   1.2023670  )

     number of k points=   113

     Number of k-points >= 100: set verbosity='high' to print them.

     Dense  grid:   256159 G-vectors     FFT dimensions: (  48,  48, 250)

     Estimated max dynamical RAM per process >     844.29 MB

     Estimated total dynamical RAM >       1.65 GB
     Cannot read rho : file not found

     Initial potential from superposition of free atoms

     starting charge   25.99914, renormalised to   26.00000

     negative rho (up, down):  9.943E-05 0.000E+00
     Message from routine qexsd_readschema :
     xml data file /scratch/as3359/Mos2_ct_lat/MoS2.save/data-file-schema.xml not fou
     Cannot read wfcs: file not found
     Starting wfcs are   18 randomized atomic wfcs
     Checking if some PAW data can be deallocated... 

     total cpu time spent up to now is       10.9 secs

     Self-consistent Calculation

     iteration #  1     ecut=   150.00 Ry     beta= 0.70
     Davidson diagonalization with overlap
     ethr =  1.00E-05,  avg # of iterations = 10.3

     negative rho (up, down):  1.316E-04 0.000E+00

     total cpu time spent up to now is       50.4 secs

     total energy              =    -489.69840141 Ry
     estimated scf accuracy    <       0.10250242 Ry

     iteration #  2     ecut=   150.00 Ry     beta= 0.70
     Davidson diagonalization with overlap
     ethr =  3.94E-04,  avg # of iterations =  3.8

     negative rho (up, down):  1.285E-04 0.000E+00

     total cpu time spent up to now is       68.8 secs

     total energy              =    -489.69870109 Ry
     estimated scf accuracy    <       0.14956552 Ry

     iteration #  3     ecut=   150.00 Ry     beta= 0.70
     Davidson diagonalization with overlap
     ethr =  3.94E-04,  avg # of iterations =  4.6

     negative rho (up, down):  1.298E-04 0.000E+00

     total cpu time spent up to now is       87.7 secs

     total energy              =    -489.72755563 Ry
     estimated scf accuracy    <       0.07178257 Ry

     iteration #  4     ecut=   150.00 Ry     beta= 0.70
     Davidson diagonalization with overlap
     ethr =  2.76E-04,  avg # of iterations =  2.5

     negative rho (up, down):  1.314E-04 0.000E+00

     total cpu time spent up to now is      101.9 secs

     total energy              =    -489.73341367 Ry
     estimated scf accuracy    <       0.00491012 Ry

     iteration #  5     ecut=   150.00 Ry     beta= 0.70
     Davidson diagonalization with overlap
     ethr =  1.89E-05,  avg # of iterations =  5.8

     negative rho (up, down):  1.325E-04 0.000E+00

     total cpu time spent up to now is      124.5 secs

     total energy              =    -489.73708450 Ry
     estimated scf accuracy    <       0.02301606 Ry

     iteration #  6     ecut=   150.00 Ry     beta= 0.70
     Davidson diagonalization with overlap
     ethr =  1.89E-05,  avg # of iterations =  2.7

     negative rho (up, down):  1.338E-04 0.000E+00

     total cpu time spent up to now is      139.4 secs

     total energy              =    -489.73521885 Ry
     estimated scf accuracy    <       0.00844574 Ry

     iteration #  7     ecut=   150.00 Ry     beta= 0.70
     Davidson diagonalization with overlap
     ethr =  1.89E-05,  avg # of iterations =  4.8

     negative rho (up, down):  1.342E-04 0.000E+00

     total cpu time spent up to now is      157.9 secs

     total energy              =    -489.73741600 Ry
     estimated scf accuracy    <       0.00055876 Ry

     iteration #  8     ecut=   150.00 Ry     beta= 0.70
     Davidson diagonalization with overlap
     ethr =  2.15E-06,  avg # of iterations =  4.2

     negative rho (up, down):  1.347E-04 0.000E+00

     total cpu time spent up to now is      174.4 secs

     total energy              =    -489.73731425 Ry
     estimated scf accuracy    <       0.00139278 Ry

     iteration #  9     ecut=   150.00 Ry     beta= 0.70
     Davidson diagonalization with overlap
     ethr =  2.15E-06,  avg # of iterations =  2.5

     negative rho (up, down):  1.351E-04 0.000E+00

     total cpu time spent up to now is      188.0 secs

     total energy              =    -489.73718429 Ry
     estimated scf accuracy    <       0.00059527 Ry

     iteration # 10     ecut=   150.00 Ry     beta= 0.70
     Davidson diagonalization with overlap
     ethr =  2.15E-06,  avg # of iterations =  4.1

     negative rho (up, down):  1.352E-04 0.000E+00

     total cpu time spent up to now is      204.8 secs

     total energy              =    -489.73731947 Ry
     estimated scf accuracy    <       0.00002207 Ry

     iteration # 11     ecut=   150.00 Ry     beta= 0.70
     Davidson diagonalization with overlap
     ethr =  8.49E-08,  avg # of iterations =  4.6

     negative rho (up, down):  1.352E-04 0.000E+00

     total cpu time spent up to now is      221.9 secs

     total energy              =    -489.73732363 Ry
     estimated scf accuracy    <       0.00001229 Ry

     iteration # 12     ecut=   150.00 Ry     beta= 0.70
     Davidson diagonalization with overlap
     ethr =  4.73E-08,  avg # of iterations =  2.3

     negative rho (up, down):  1.352E-04 0.000E+00

     total cpu time spent up to now is      235.1 secs

     total energy              =    -489.73732290 Ry
     estimated scf accuracy    <       0.00000418 Ry

     iteration # 13     ecut=   150.00 Ry     beta= 0.70
     Davidson diagonalization with overlap
     ethr =  1.61E-08,  avg # of iterations =  4.8

     negative rho (up, down):  1.352E-04 0.000E+00

     total cpu time spent up to now is      253.3 secs

     total energy              =    -489.73732468 Ry
     estimated scf accuracy    <       0.00000122 Ry

     iteration # 14     ecut=   150.00 Ry     beta= 0.70
     Davidson diagonalization with overlap
     ethr =  4.69E-09,  avg # of iterations =  2.9

     negative rho (up, down):  1.353E-04 0.000E+00

     total cpu time spent up to now is      267.4 secs

     total energy              =    -489.73732416 Ry
     estimated scf accuracy    <       0.00000236 Ry

     iteration # 15     ecut=   150.00 Ry     beta= 0.70
     Davidson diagonalization with overlap
     ethr =  4.69E-09,  avg # of iterations =  2.9

     negative rho (up, down):  1.353E-04 0.000E+00

     total cpu time spent up to now is      282.2 secs

     total energy              =    -489.73732422 Ry
     estimated scf accuracy    <       0.00000043 Ry

     iteration # 16     ecut=   150.00 Ry     beta= 0.70
     Davidson diagonalization with overlap
     ethr =  1.64E-09,  avg # of iterations =  4.5

     negative rho (up, down):  1.353E-04 0.000E+00

     total cpu time spent up to now is      300.0 secs

     total energy              =    -489.73732434 Ry
     estimated scf accuracy    <       0.00000003 Ry

     iteration # 17     ecut=   150.00 Ry     beta= 0.70
     Davidson diagonalization with overlap
     ethr =  1.03E-10,  avg # of iterations =  4.2

     negative rho (up, down):  1.353E-04 0.000E+00

     total cpu time spent up to now is      315.8 secs

     total energy              =    -489.73732434 Ry
     estimated scf accuracy    <       0.00000003 Ry

     iteration # 18     ecut=   150.00 Ry     beta= 0.70
     Davidson diagonalization with overlap
     ethr =  1.03E-10,  avg # of iterations =  2.0

     negative rho (up, down):  1.353E-04 0.000E+00

     total cpu time spent up to now is      328.8 secs

     total energy              =    -489.73732434 Ry
     estimated scf accuracy    <       0.00000001 Ry

     iteration # 19     ecut=   150.00 Ry     beta= 0.70
     Davidson diagonalization with overlap
     ethr =  4.04E-11,  avg # of iterations =  3.7

     negative rho (up, down):  1.353E-04 0.000E+00

     total cpu time spent up to now is      344.4 secs

     total energy              =    -489.73732434 Ry
     estimated scf accuracy    <          4.2E-10 Ry

     iteration # 20     ecut=   150.00 Ry     beta= 0.70
     Davidson diagonalization with overlap
     ethr =  1.61E-12,  avg # of iterations =  7.6

     negative rho (up, down):  1.353E-04 0.000E+00

     total cpu time spent up to now is      372.2 secs

     total energy              =    -489.73732435 Ry
     estimated scf accuracy    <          6.8E-09 Ry

     iteration # 21     ecut=   150.00 Ry     beta= 0.70
     Davidson diagonalization with overlap
     ethr =  1.61E-12,  avg # of iterations =  2.5

     negative rho (up, down):  1.353E-04 0.000E+00

     total cpu time spent up to now is      387.0 secs

     total energy              =    -489.73732434 Ry
     estimated scf accuracy    <          4.3E-09 Ry

     iteration # 22     ecut=   150.00 Ry     beta= 0.70
     Davidson diagonalization with overlap
     ethr =  1.61E-12,  avg # of iterations =  6.3

     negative rho (up, down):  1.353E-04 0.000E+00

     total cpu time spent up to now is      408.0 secs

     total energy              =    -489.73732435 Ry
     estimated scf accuracy    <          8.5E-11 Ry

     iteration # 23     ecut=   150.00 Ry     beta= 0.70
     Davidson diagonalization with overlap
     ethr =  3.27E-13,  avg # of iterations =  4.7

     negative rho (up, down):  1.353E-04 0.000E+00

     total cpu time spent up to now is      425.9 secs

     total energy              =    -489.73732435 Ry
     estimated scf accuracy    <          1.8E-12 Ry

     iteration # 24     ecut=   150.00 Ry     beta= 0.70
     Davidson diagonalization with overlap
     ethr =  1.00E-13,  avg # of iterations =  6.2

     negative rho (up, down):  1.353E-04 0.000E+00

     total cpu time spent up to now is      451.3 secs

     total energy              =    -489.73732435 Ry
     estimated scf accuracy    <          5.7E-10 Ry

     iteration # 25     ecut=   150.00 Ry     beta= 0.70
     Davidson diagonalization with overlap
     ethr =  1.00E-13,  avg # of iterations =  4.2

     negative rho (up, down):  1.353E-04 0.000E+00

     total cpu time spent up to now is      468.7 secs

     total energy              =    -489.73732435 Ry
     estimated scf accuracy    <          2.4E-10 Ry

     iteration # 26     ecut=   150.00 Ry     beta= 0.70
     Davidson diagonalization with overlap
     ethr =  1.00E-13,  avg # of iterations =  6.1

     negative rho (up, down):  1.353E-04 0.000E+00

     total cpu time spent up to now is      490.1 secs

     total energy              =    -489.73732435 Ry
     estimated scf accuracy    <          2.6E-12 Ry

     iteration # 27     ecut=   150.00 Ry     beta= 0.70
     Davidson diagonalization with overlap
     ethr =  1.00E-13,  avg # of iterations =  2.2

     negative rho (up, down):  1.353E-04 0.000E+00

     total cpu time spent up to now is      503.2 secs

     End of self-consistent calculation

     Number of k-points >= 100: set verbosity='high' to print the bands.

     highest occupied level (ev):    -0.2639

!    total energy              =    -489.73732435 Ry

     total all-electron energy =     -9688.195170 Ry
     estimated scf accuracy    <          9.1E-13 Ry

     The total energy is the sum of the following terms:
     one-electron contribution =    -794.58457464 Ry
     hartree contribution      =     400.44573972 Ry
     xc contribution           =     -29.26197935 Ry
     ewald contribution        =     246.53130767 Ry
     one-center paw contrib.   =    -312.86781774 Ry

     convergence has been achieved in  27 iterations

     negative rho (up, down):  1.353E-04 0.000E+00

     Forces acting on atoms (cartesian axes, Ry/au):

     atom    1 type  1   force =     0.00016979    0.00017575   -0.00000135
     atom    2 type  2   force =    -0.00008491   -0.00008786   -0.06333439
     atom    3 type  2   force =    -0.00008488   -0.00008789    0.06333575

     Total force =     0.089570     Total SCF correction =     0.000002


     Computing stress (Cartesian axis) and pressure


     negative rho (up, down):  1.353E-04 0.000E+00
          total   stress  (Ry/bohr**3)                   (kbar)     P=      -51.39
  -0.00033494  -0.00000057   0.00000000          -49.27       -0.08        0.00
  -0.00000057  -0.00033740   0.00000000           -0.08      -49.63        0.00
   0.00000000   0.00000000  -0.00037568            0.00        0.00      -55.27


     Writing output data file /scratch/as3359/Mos2_ct_lat/MoS2.save/
 
     init_run     :     19.72s CPU     10.78s WALL (       1 calls)
     electrons    :    965.93s CPU    492.33s WALL (       1 calls)
     forces       :      6.03s CPU      3.08s WALL (       1 calls)
     stress       :     19.48s CPU     10.00s WALL (       1 calls)

     Called by init_run:
     wfcinit      :     13.97s CPU      7.16s WALL (       1 calls)
     potinit      :      1.65s CPU      0.84s WALL (       1 calls)
     hinit0       :      3.37s CPU      2.34s WALL (       1 calls)

     Called by electrons:
     c_bands      :    818.57s CPU    414.88s WALL (      27 calls)
     sum_band     :    126.73s CPU     65.50s WALL (      27 calls)
     v_of_rho     :      4.74s CPU      2.58s WALL (      28 calls)
     newd         :      8.73s CPU      5.69s WALL (      28 calls)
     PAW_pot      :      5.19s CPU      2.67s WALL (      28 calls)
     mix_rho      :      2.36s CPU      1.24s WALL (      27 calls)

     Called by c_bands:
     init_us_2    :     29.05s CPU     14.55s WALL (    6441 calls)
     cegterg      :    771.64s CPU    391.14s WALL (    3051 calls)

     Called by *egterg:
     cdiaghg      :      6.54s CPU      3.33s WALL (   16274 calls)
     h_psi        :    648.72s CPU    329.34s WALL (   16387 calls)
     s_psi        :     25.57s CPU     12.82s WALL (   16387 calls)
     g_psi        :      5.59s CPU      2.81s WALL (   13223 calls)

     Called by h_psi:
     h_psi:calbec :     23.27s CPU     11.71s WALL (   16387 calls)
     vloc_psi     :    584.90s CPU    297.25s WALL (   16387 calls)
     add_vuspsi   :     34.78s CPU     17.45s WALL (   16387 calls)

     General routines
     calbec       :     29.42s CPU     14.81s WALL (   20003 calls)
     fft          :      1.97s CPU      1.01s WALL (     333 calls)
     ffts         :      0.14s CPU      0.08s WALL (      27 calls)
     fftw         :    565.29s CPU    287.77s WALL (  294611 calls)
 
     Parallel routines
 
     PWSCF        :  16m54.30s CPU   8m39.49s WALL

 
   This run was terminated on:  14:50:22   8Apr2022            

=------------------------------------------------------------------------------=
   JOB DONE.
=------------------------------------------------------------------------------=
