
     Program PWSCF v.6.8 starts on  8Apr2022 at 13:49: 5 

     This program is part of the open-source Quantum ESPRESSO suite
     for quantum simulation of materials; please cite
         "P. Giannozzi et al., J. Phys.:Condens. Matter 21 395502 (2009);
         "P. Giannozzi et al., J. Phys.:Condens. Matter 29 465901 (2017);
         "P. Giannozzi et al., J. Chem. Phys. 152 154105 (2020);
          URL http://www.quantum-espresso.org", 
     in publications or presentations arising from this work. More details at
     http://www.quantum-espresso.org/quote

     Parallel version (MPI & OpenMP), running on       4 processor cores
     Number of MPI processes:                 2
     Threads/MPI process:                     2

     MPI processes distributed on     1 nodes
     R & G space division:  proc/nbgrp/npool/nimage =       2
     125203 MiB available memory on the printing compute node when the environment starts
 
     Reading input from MoS2.scf.6.000.in
Warning: card  &CELL ignored
Warning: card     CELL_DYNAMICS='BFGS' ignored
Warning: card  / ignored

     Current dimensions of program PWSCF are:
     Max number of different atomic species (ntypx) = 10
     Max number of k-points (npk) =  40000
     Max angular momentum in pseudopotentials (lmaxx) =  4
     Message from routine iosys:
     restart disabled: needed files not found
     file Mo.pbesol-spn-kjpaw_psl.1.0.0.UPF: wavefunction(s)  4S 4D renormalized
     file S.pbesol-nl-kjpaw_psl.1.0.0.UPF: wavefunction(s)  3S renormalized

     Subspace diagonalization in iterative solution of the eigenvalue problem:
     a serial algorithm will be used

 
     Parallelization info
     --------------------
     sticks:   dense  smooth     PW     G-vecs:    dense   smooth      PW
     Min         708     708    210               110782   110782   17558
     Max         709     709    211               110795   110795   17577
     Sum        1417    1417    421               221577   221577   35135
 
     Using Slab Decomposition
 


     bravais-lattice index     =            0
     lattice parameter (alat)  =       6.0000  a.u.
     unit-cell volume          =     892.2901 (a.u.)^3
     number of atoms/cell      =            3
     number of atomic types    =            2
     number of electrons       =        26.00
     number of Kohn-Sham states=           13
     kinetic-energy cutoff     =     150.0000  Ry
     charge density cutoff     =     600.0000  Ry
     scf convergence threshold =      1.0E-12
     mixing beta               =       0.7000
     number of iterations used =            8  plain     mixing
     Exchange-correlation= SLA  PW   PSX  PSC
                           (   1   4  10   8   0   0   0)

     celldm(1)=   6.000000  celldm(2)=   0.000000  celldm(3)=   0.000000
     celldm(4)=   0.000000  celldm(5)=   0.000000  celldm(6)=   0.000000

     crystal axes: (cart. coord. in units of alat)
               a(1) = (   0.976384  -0.000017   0.000000 )  
               a(2) = (  -0.487931   0.846187   0.000000 )  
               a(3) = (   0.000000   0.000000   5.000000 )  

     reciprocal axes: (cart. coord. in units 2 pi/alat)
               b(1) = (  1.024198  0.590577  0.000000 )  
               b(2) = (  0.000021  1.181785  0.000000 )  
               b(3) = (  0.000000  0.000000  0.200000 )  


     PseudoPot. # 1 for Mo read from file:
     /shared/home/as3359/pseudo/Mo.pbesol-spn-kjpaw_psl.1.0.0.UPF
     MD5 check sum: de57925cfc675213e43241dcc441eda8
     Pseudo is Projector augmented-wave + core cor, Zval = 14.0
     Generated using &quot;atomic&quot; code by A. Dal Corso  v.6.3
     Shape of augmentation charge: PSQ
     Using radial grid of 1229 points,  6 beta functions with: 
                l(1) =   0
                l(2) =   0
                l(3) =   1
                l(4) =   1
                l(5) =   2
                l(6) =   2
     Q(r) pseudized with 0 coefficients 


     PseudoPot. # 2 for S  read from file:
     /shared/home/as3359/pseudo/S.pbesol-nl-kjpaw_psl.1.0.0.UPF
     MD5 check sum: bf3db50ec3f960682bbc396f1aadd1dd
     Pseudo is Projector augmented-wave + core cor, Zval =  6.0
     Generated using &quot;atomic&quot; code by A. Dal Corso  v.6.3
     Shape of augmentation charge: PSQ
     Using radial grid of 1151 points,  4 beta functions with: 
                l(1) =   0
                l(2) =   0
                l(3) =   1
                l(4) =   1
     Q(r) pseudized with 0 coefficients 


     atomic species   valence    mass     pseudopotential
        Mo            14.00    95.94000     Mo( 1.00)
        S              6.00    32.06500     S ( 1.00)

     No symmetry found



   Cartesian axes

     site n.     atom                  positions (alat units)
         1           Mo  tau(   1) = (   0.0000000   0.0000000   1.6880765  )
         2           S   tau(   2) = (   0.4883508   0.2821722   2.1737857  )
         3           S   tau(   3) = (   0.4883508   0.2821722   1.2023670  )

     number of k points=   113

     Number of k-points >= 100: set verbosity='high' to print them.

     Dense  grid:   221577 G-vectors     FFT dimensions: (  45,  45, 240)

     Estimated max dynamical RAM per process >     730.00 MB

     Estimated total dynamical RAM >       1.43 GB
     Cannot read rho : file not found

     Initial potential from superposition of free atoms

     starting charge   25.99914, renormalised to   26.00000

     negative rho (up, down):  8.518E-05 0.000E+00
     Message from routine qexsd_readschema :
     xml data file /scratch/as3359/Mos2_ct_lat/MoS2.save/data-file-schema.xml not fou
     Cannot read wfcs: file not found
     Starting wfcs are   18 randomized atomic wfcs
     Checking if some PAW data can be deallocated... 

     total cpu time spent up to now is       10.4 secs

     Self-consistent Calculation

     iteration #  1     ecut=   150.00 Ry     beta= 0.70
     Davidson diagonalization with overlap
     ethr =  1.00E-05,  avg # of iterations = 10.4

     negative rho (up, down):  1.165E-04 0.000E+00

     total cpu time spent up to now is       50.5 secs

     total energy              =    -489.67325300 Ry
     estimated scf accuracy    <       0.17206714 Ry

     iteration #  2     ecut=   150.00 Ry     beta= 0.70
     Davidson diagonalization with overlap
     ethr =  6.62E-04,  avg # of iterations =  5.0

     negative rho (up, down):  1.035E-04 0.000E+00

     total cpu time spent up to now is       71.2 secs

     total energy              =    -489.61851188 Ry
     estimated scf accuracy    <       0.73486351 Ry

     iteration #  3     ecut=   150.00 Ry     beta= 0.70
     Davidson diagonalization with overlap
     ethr =  6.62E-04,  avg # of iterations =  5.1

     negative rho (up, down):  1.045E-04 0.000E+00

     total cpu time spent up to now is       91.0 secs

     total energy              =    -489.75031263 Ry
     estimated scf accuracy    <       0.03288474 Ry

     iteration #  4     ecut=   150.00 Ry     beta= 0.70
     Davidson diagonalization with overlap
     ethr =  1.26E-04,  avg # of iterations =  2.4

     negative rho (up, down):  1.117E-04 0.000E+00

     total cpu time spent up to now is      105.5 secs

     total energy              =    -489.75273376 Ry
     estimated scf accuracy    <       0.00491064 Ry

     iteration #  5     ecut=   150.00 Ry     beta= 0.70
     Davidson diagonalization with overlap
     ethr =  1.89E-05,  avg # of iterations =  4.7

     negative rho (up, down):  1.132E-04 0.000E+00

     total cpu time spent up to now is      124.8 secs

     total energy              =    -489.75500038 Ry
     estimated scf accuracy    <       0.00439351 Ry

     iteration #  6     ecut=   150.00 Ry     beta= 0.70
     Davidson diagonalization with overlap
     ethr =  1.69E-05,  avg # of iterations =  2.0

     negative rho (up, down):  1.144E-04 0.000E+00

     total cpu time spent up to now is      137.8 secs

     total energy              =    -489.75484219 Ry
     estimated scf accuracy    <       0.00111297 Ry

     iteration #  7     ecut=   150.00 Ry     beta= 0.70
     Davidson diagonalization with overlap
     ethr =  4.28E-06,  avg # of iterations =  5.0

     negative rho (up, down):  1.151E-04 0.000E+00

     total cpu time spent up to now is      156.5 secs

     total energy              =    -489.75547882 Ry
     estimated scf accuracy    <       0.00049358 Ry

     iteration #  8     ecut=   150.00 Ry     beta= 0.70
     Davidson diagonalization with overlap
     ethr =  1.90E-06,  avg # of iterations =  3.4

     negative rho (up, down):  1.151E-04 0.000E+00

     total cpu time spent up to now is      171.5 secs

     total energy              =    -489.75530794 Ry
     estimated scf accuracy    <       0.00121776 Ry

     iteration #  9     ecut=   150.00 Ry     beta= 0.70
     Davidson diagonalization with overlap
     ethr =  1.90E-06,  avg # of iterations =  2.2

     negative rho (up, down):  1.152E-04 0.000E+00

     total cpu time spent up to now is      184.6 secs

     total energy              =    -489.75516152 Ry
     estimated scf accuracy    <       0.00053047 Ry

     iteration # 10     ecut=   150.00 Ry     beta= 0.70
     Davidson diagonalization with overlap
     ethr =  1.90E-06,  avg # of iterations =  4.1

     negative rho (up, down):  1.154E-04 0.000E+00

     total cpu time spent up to now is      201.4 secs

     total energy              =    -489.75530395 Ry
     estimated scf accuracy    <       0.00004113 Ry

     iteration # 11     ecut=   150.00 Ry     beta= 0.70
     Davidson diagonalization with overlap
     ethr =  1.58E-07,  avg # of iterations =  2.8

     negative rho (up, down):  1.154E-04 0.000E+00

     total cpu time spent up to now is      215.5 secs

     total energy              =    -489.75530369 Ry
     estimated scf accuracy    <       0.00002263 Ry

     iteration # 12     ecut=   150.00 Ry     beta= 0.70
     Davidson diagonalization with overlap
     ethr =  8.70E-08,  avg # of iterations =  2.8

     negative rho (up, down):  1.154E-04 0.000E+00

     total cpu time spent up to now is      229.2 secs

     total energy              =    -489.75530514 Ry
     estimated scf accuracy    <       0.00000415 Ry

     iteration # 13     ecut=   150.00 Ry     beta= 0.70
     Davidson diagonalization with overlap
     ethr =  1.60E-08,  avg # of iterations =  4.1

     negative rho (up, down):  1.155E-04 0.000E+00

     total cpu time spent up to now is      245.6 secs

     total energy              =    -489.75530587 Ry
     estimated scf accuracy    <       0.00000020 Ry

     iteration # 14     ecut=   150.00 Ry     beta= 0.70
     Davidson diagonalization with overlap
     ethr =  7.69E-10,  avg # of iterations =  5.7

     negative rho (up, down):  1.155E-04 0.000E+00

     total cpu time spent up to now is      268.1 secs

     total energy              =    -489.75530602 Ry
     estimated scf accuracy    <       0.00000029 Ry

     iteration # 15     ecut=   150.00 Ry     beta= 0.70
     Davidson diagonalization with overlap
     ethr =  7.69E-10,  avg # of iterations =  2.5

     negative rho (up, down):  1.155E-04 0.000E+00

     total cpu time spent up to now is      282.9 secs

     total energy              =    -489.75530603 Ry
     estimated scf accuracy    <       0.00000003 Ry

     iteration # 16     ecut=   150.00 Ry     beta= 0.70
     Davidson diagonalization with overlap
     ethr =  1.34E-10,  avg # of iterations =  5.8

     negative rho (up, down):  1.155E-04 0.000E+00

     total cpu time spent up to now is      304.9 secs

     total energy              =    -489.75530606 Ry
     estimated scf accuracy    <       0.00000011 Ry

     iteration # 17     ecut=   150.00 Ry     beta= 0.70
     Davidson diagonalization with overlap
     ethr =  1.34E-10,  avg # of iterations =  1.2

     negative rho (up, down):  1.155E-04 0.000E+00

     total cpu time spent up to now is      317.1 secs

     total energy              =    -489.75530604 Ry
     estimated scf accuracy    <       0.00000007 Ry

     iteration # 18     ecut=   150.00 Ry     beta= 0.70
     Davidson diagonalization with overlap
     ethr =  1.34E-10,  avg # of iterations =  4.4

     negative rho (up, down):  1.155E-04 0.000E+00

     total cpu time spent up to now is      334.6 secs

     total energy              =    -489.75530605 Ry
     estimated scf accuracy    <          1.8E-09 Ry

     iteration # 19     ecut=   150.00 Ry     beta= 0.70
     Davidson diagonalization with overlap
     ethr =  7.10E-12,  avg # of iterations =  4.0

     negative rho (up, down):  1.155E-04 0.000E+00

     total cpu time spent up to now is      351.1 secs

     total energy              =    -489.75530605 Ry
     estimated scf accuracy    <          3.0E-09 Ry

     iteration # 20     ecut=   150.00 Ry     beta= 0.70
     Davidson diagonalization with overlap
     ethr =  7.10E-12,  avg # of iterations =  3.6

     negative rho (up, down):  1.155E-04 0.000E+00

     total cpu time spent up to now is      366.8 secs

     total energy              =    -489.75530605 Ry
     estimated scf accuracy    <          3.2E-11 Ry

     iteration # 21     ecut=   150.00 Ry     beta= 0.70
     Davidson diagonalization with overlap
     ethr =  1.24E-13,  avg # of iterations =  6.8

     negative rho (up, down):  1.155E-04 0.000E+00

     total cpu time spent up to now is      393.0 secs

     total energy              =    -489.75530605 Ry
     estimated scf accuracy    <          1.8E-10 Ry

     iteration # 22     ecut=   150.00 Ry     beta= 0.70
     Davidson diagonalization with overlap
     ethr =  1.24E-13,  avg # of iterations =  4.8

     negative rho (up, down):  1.155E-04 0.000E+00

     total cpu time spent up to now is      411.7 secs

     End of self-consistent calculation

     Number of k-points >= 100: set verbosity='high' to print the bands.

     highest occupied level (ev):     0.5892

!    total energy              =    -489.75530605 Ry

     total all-electron energy =     -9688.213151 Ry
     estimated scf accuracy    <          2.8E-13 Ry

     The total energy is the sum of the following terms:
     one-electron contribution =    -820.29565990 Ry
     hartree contribution      =     414.19742261 Ry
     xc contribution           =     -29.61720669 Ry
     ewald contribution        =     258.85787305 Ry
     one-center paw contrib.   =    -312.89773512 Ry

     convergence has been achieved in  22 iterations

     negative rho (up, down):  1.155E-04 0.000E+00

     Forces acting on atoms (cartesian axes, Ry/au):

     atom    1 type  1   force =     0.00030617    0.00010905   -0.00000027
     atom    2 type  2   force =    -0.00015308   -0.00005453    0.02498555
     atom    3 type  2   force =    -0.00015309   -0.00005452   -0.02498528

     Total force =     0.035337     Total SCF correction =     0.000002


     Computing stress (Cartesian axis) and pressure


     negative rho (up, down):  1.155E-04 0.000E+00
          total   stress  (Ry/bohr**3)                   (kbar)     P=       23.86
   0.00016365  -0.00000096  -0.00000000           24.07       -0.14       -0.00
  -0.00000096   0.00016026   0.00000000           -0.14       23.58        0.00
  -0.00000000   0.00000000   0.00016268           -0.00        0.00       23.93


     Writing output data file /scratch/as3359/Mos2_ct_lat/MoS2.save/
 
     init_run     :     18.94s CPU     10.27s WALL (       1 calls)
     electrons    :    788.56s CPU    401.35s WALL (       1 calls)
     forces       :      5.15s CPU      2.63s WALL (       1 calls)
     stress       :     16.58s CPU      8.48s WALL (       1 calls)

     Called by init_run:
     wfcinit      :     13.83s CPU      7.07s WALL (       1 calls)
     potinit      :      1.45s CPU      0.74s WALL (       1 calls)
     hinit0       :      3.03s CPU      2.09s WALL (       1 calls)

     Called by electrons:
     c_bands      :    672.00s CPU    340.27s WALL (      22 calls)
     sum_band     :    101.90s CPU     52.52s WALL (      22 calls)
     v_of_rho     :      3.29s CPU      1.82s WALL (      23 calls)
     newd         :      6.13s CPU      4.05s WALL (      23 calls)
     PAW_pot      :      4.34s CPU      2.23s WALL (      23 calls)
     mix_rho      :      1.30s CPU      0.71s WALL (      22 calls)

     Called by c_bands:
     init_us_2    :     20.48s CPU     10.27s WALL (    5311 calls)
     cegterg      :    638.73s CPU    323.39s WALL (    2486 calls)

     Called by *egterg:
     cdiaghg      :      5.29s CPU      2.70s WALL (   12971 calls)
     h_psi        :    556.34s CPU    281.98s WALL (   13084 calls)
     s_psi        :     17.66s CPU      8.87s WALL (   13084 calls)
     g_psi        :      3.97s CPU      2.00s WALL (   10485 calls)

     Called by h_psi:
     h_psi:calbec :     16.08s CPU      8.10s WALL (   13084 calls)
     vloc_psi     :    512.11s CPU    259.73s WALL (   13084 calls)
     add_vuspsi   :     23.94s CPU     12.03s WALL (   13084 calls)

     General routines
     calbec       :     20.31s CPU     10.24s WALL (   16135 calls)
     fft          :      1.45s CPU      0.75s WALL (     278 calls)
     ffts         :      0.11s CPU      0.06s WALL (      22 calls)
     fftw         :    512.20s CPU    259.89s WALL (  244068 calls)
 
     Parallel routines
 
     PWSCF        :  13m51.52s CPU   7m 4.75s WALL

 
   This run was terminated on:  13:56:10   8Apr2022            

=------------------------------------------------------------------------------=
   JOB DONE.
=------------------------------------------------------------------------------=
