
     Program PWSCF v.6.8 starts on 17Apr2022 at 16:27:24 

     This program is part of the open-source Quantum ESPRESSO suite
     for quantum simulation of materials; please cite
         "P. Giannozzi et al., J. Phys.:Condens. Matter 21 395502 (2009);
         "P. Giannozzi et al., J. Phys.:Condens. Matter 29 465901 (2017);
         "P. Giannozzi et al., J. Chem. Phys. 152 154105 (2020);
          URL http://www.quantum-espresso.org", 
     in publications or presentations arising from this work. More details at
     http://www.quantum-espresso.org/quote

     Parallel version (MPI & OpenMP), running on       4 processor cores
     Number of MPI processes:                 2
     Threads/MPI process:                     2

     MPI processes distributed on     1 nodes
     R & G space division:  proc/nbgrp/npool/nimage =       2
     125012 MiB available memory on the printing compute node when the environment starts
 
     Reading input from MoS2.scf.6.096.in
Warning: card  &CELL ignored
Warning: card     CELL_DYNAMICS='BFGS' ignored
Warning: card  / ignored

     Current dimensions of program PWSCF are:
     Max number of different atomic species (ntypx) = 10
     Max number of k-points (npk) =  40000
     Max angular momentum in pseudopotentials (lmaxx) =  4
     Message from routine iosys:
     restart disabled: needed files not found
     file Mo.pbesol-spn-kjpaw_psl.1.0.0.UPF: wavefunction(s)  4S 4D renormalized
     file S.pbesol-nl-kjpaw_psl.1.0.0.UPF: wavefunction(s)  3S renormalized

     Subspace diagonalization in iterative solution of the eigenvalue problem:
     a serial algorithm will be used

 
     Parallelization info
     --------------------
     sticks:   dense  smooth     PW     G-vecs:    dense   smooth      PW
     Min         741     741    216               116189   116189   18367
     Max         742     742    217               116198   116198   18374
     Sum        1483    1483    433               232387   232387   36741
 
     Using Slab Decomposition
 


     bravais-lattice index     =            0
     lattice parameter (alat)  =       6.0960  a.u.
     unit-cell volume          =     935.8089 (a.u.)^3
     number of atoms/cell      =            3
     number of atomic types    =            2
     number of electrons       =        26.00
     number of Kohn-Sham states=           13
     kinetic-energy cutoff     =     150.0000  Ry
     charge density cutoff     =     600.0000  Ry
     scf convergence threshold =      1.0E-12
     mixing beta               =       0.7000
     number of iterations used =            8  plain     mixing
     Exchange-correlation= SLA  PW   PSX  PSC
                           (   1   4  10   8   0   0   0)

     celldm(1)=   6.096000  celldm(2)=   0.000000  celldm(3)=   0.000000
     celldm(4)=   0.000000  celldm(5)=   0.000000  celldm(6)=   0.000000

     crystal axes: (cart. coord. in units of alat)
               a(1) = (   0.976384  -0.000017   0.000000 )  
               a(2) = (  -0.487931   0.846187   0.000000 )  
               a(3) = (   0.000000   0.000000   5.000000 )  

     reciprocal axes: (cart. coord. in units 2 pi/alat)
               b(1) = (  1.024198  0.590577  0.000000 )  
               b(2) = (  0.000021  1.181785  0.000000 )  
               b(3) = (  0.000000  0.000000  0.200000 )  


     PseudoPot. # 1 for Mo read from file:
     /shared/home/as3359/pseudo/Mo.pbesol-spn-kjpaw_psl.1.0.0.UPF
     MD5 check sum: de57925cfc675213e43241dcc441eda8
     Pseudo is Projector augmented-wave + core cor, Zval = 14.0
     Generated using &quot;atomic&quot; code by A. Dal Corso  v.6.3
     Shape of augmentation charge: PSQ
     Using radial grid of 1229 points,  6 beta functions with: 
                l(1) =   0
                l(2) =   0
                l(3) =   1
                l(4) =   1
                l(5) =   2
                l(6) =   2
     Q(r) pseudized with 0 coefficients 


     PseudoPot. # 2 for S  read from file:
     /shared/home/as3359/pseudo/S.pbesol-nl-kjpaw_psl.1.0.0.UPF
     MD5 check sum: bf3db50ec3f960682bbc396f1aadd1dd
     Pseudo is Projector augmented-wave + core cor, Zval =  6.0
     Generated using &quot;atomic&quot; code by A. Dal Corso  v.6.3
     Shape of augmentation charge: PSQ
     Using radial grid of 1151 points,  4 beta functions with: 
                l(1) =   0
                l(2) =   0
                l(3) =   1
                l(4) =   1
     Q(r) pseudized with 0 coefficients 


     atomic species   valence    mass     pseudopotential
        Mo            14.00    95.94000     Mo( 1.00)
        S              6.00    32.06500     S ( 1.00)

     No symmetry found



   Cartesian axes

     site n.     atom                  positions (alat units)
         1           Mo  tau(   1) = (   0.0000000   0.0000000   1.6880765  )
         2           S   tau(   2) = (   0.4883508   0.2821722   2.1737857  )
         3           S   tau(   3) = (   0.4883508   0.2821722   1.2023670  )

     number of k points=   113

     Number of k-points >= 100: set verbosity='high' to print them.

     Dense  grid:   232387 G-vectors     FFT dimensions: (  48,  48, 240)

     Estimated max dynamical RAM per process >     766.95 MB

     Estimated total dynamical RAM >       1.50 GB
     Cannot read rho : file not found

     Initial potential from superposition of free atoms

     starting charge   25.99914, renormalised to   26.00000

     negative rho (up, down):  9.018E-05 0.000E+00
     Message from routine qexsd_readschema :
     xml data file /scratch/as3359/Mos2_ct_lat/MoS2.save/data-file-schema.xml not fou
     Cannot read wfcs: file not found
     Starting wfcs are   18 randomized atomic wfcs
     Checking if some PAW data can be deallocated... 

     total cpu time spent up to now is       11.0 secs

     Self-consistent Calculation

     iteration #  1     ecut=   150.00 Ry     beta= 0.70
     Davidson diagonalization with overlap
     ethr =  1.00E-05,  avg # of iterations = 10.3

     negative rho (up, down):  1.224E-04 0.000E+00

     total cpu time spent up to now is       41.9 secs

     total energy              =    -489.69303893 Ry
     estimated scf accuracy    <       0.14446606 Ry

     iteration #  2     ecut=   150.00 Ry     beta= 0.70
     Davidson diagonalization with overlap
     ethr =  5.56E-04,  avg # of iterations =  4.9

     negative rho (up, down):  1.131E-04 0.000E+00

     total cpu time spent up to now is       57.6 secs

     total energy              =    -489.65740110 Ry
     estimated scf accuracy    <       0.49959618 Ry

     iteration #  3     ecut=   150.00 Ry     beta= 0.70
     Davidson diagonalization with overlap
     ethr =  5.56E-04,  avg # of iterations =  5.0

     negative rho (up, down):  1.141E-04 0.000E+00

     total cpu time spent up to now is       72.9 secs

     total energy              =    -489.75145922 Ry
     estimated scf accuracy    <       0.04692861 Ry

     iteration #  4     ecut=   150.00 Ry     beta= 0.70
     Davidson diagonalization with overlap
     ethr =  1.80E-04,  avg # of iterations =  2.4

     negative rho (up, down):  1.191E-04 0.000E+00

     total cpu time spent up to now is       84.2 secs

     total energy              =    -489.75438803 Ry
     estimated scf accuracy    <       0.00555481 Ry

     iteration #  5     ecut=   150.00 Ry     beta= 0.70
     Davidson diagonalization with overlap
     ethr =  2.14E-05,  avg # of iterations =  5.3

     negative rho (up, down):  1.202E-04 0.000E+00

     total cpu time spent up to now is      100.6 secs

     total energy              =    -489.75764577 Ry
     estimated scf accuracy    <       0.01048027 Ry

     iteration #  6     ecut=   150.00 Ry     beta= 0.70
     Davidson diagonalization with overlap
     ethr =  2.14E-05,  avg # of iterations =  1.9

     negative rho (up, down):  1.218E-04 0.000E+00

     total cpu time spent up to now is      110.9 secs

     total energy              =    -489.75614556 Ry
     estimated scf accuracy    <       0.00425005 Ry

     iteration #  7     ecut=   150.00 Ry     beta= 0.70
     Davidson diagonalization with overlap
     ethr =  1.63E-05,  avg # of iterations =  4.5

     negative rho (up, down):  1.221E-04 0.000E+00

     total cpu time spent up to now is      124.9 secs

     total energy              =    -489.75814733 Ry
     estimated scf accuracy    <       0.00202223 Ry

     iteration #  8     ecut=   150.00 Ry     beta= 0.70
     Davidson diagonalization with overlap
     ethr =  7.78E-06,  avg # of iterations =  1.0

     negative rho (up, down):  1.223E-04 0.000E+00

     total cpu time spent up to now is      134.5 secs

     total energy              =    -489.75763664 Ry
     estimated scf accuracy    <       0.00224709 Ry

     iteration #  9     ecut=   150.00 Ry     beta= 0.70
     Davidson diagonalization with overlap
     ethr =  7.78E-06,  avg # of iterations =  1.8

     negative rho (up, down):  1.223E-04 0.000E+00

     total cpu time spent up to now is      144.7 secs

     total energy              =    -489.75774366 Ry
     estimated scf accuracy    <       0.00072158 Ry

     iteration # 10     ecut=   150.00 Ry     beta= 0.70
     Davidson diagonalization with overlap
     ethr =  2.78E-06,  avg # of iterations =  1.1

     negative rho (up, down):  1.222E-04 0.000E+00

     total cpu time spent up to now is      154.3 secs

     total energy              =    -489.75772223 Ry
     estimated scf accuracy    <       0.00065614 Ry

     iteration # 11     ecut=   150.00 Ry     beta= 0.70
     Davidson diagonalization with overlap
     ethr =  2.52E-06,  avg # of iterations =  1.2

     negative rho (up, down):  1.222E-04 0.000E+00

     total cpu time spent up to now is      164.0 secs

     total energy              =    -489.75776781 Ry
     estimated scf accuracy    <       0.00041709 Ry

     iteration # 12     ecut=   150.00 Ry     beta= 0.70
     Davidson diagonalization with overlap
     ethr =  1.60E-06,  avg # of iterations =  1.1

     negative rho (up, down):  1.226E-04 0.000E+00

     total cpu time spent up to now is      173.5 secs

     total energy              =    -489.75776874 Ry
     estimated scf accuracy    <       0.00043719 Ry

     iteration # 13     ecut=   150.00 Ry     beta= 0.70
     Davidson diagonalization with overlap
     ethr =  1.60E-06,  avg # of iterations =  1.0

     negative rho (up, down):  1.227E-04 0.000E+00

     total cpu time spent up to now is      183.1 secs

     total energy              =    -489.75779784 Ry
     estimated scf accuracy    <       0.00035840 Ry

     iteration # 14     ecut=   150.00 Ry     beta= 0.70
     Davidson diagonalization with overlap
     ethr =  1.38E-06,  avg # of iterations =  1.0

     negative rho (up, down):  1.228E-04 0.000E+00

     total cpu time spent up to now is      192.7 secs

     total energy              =    -489.75774776 Ry
     estimated scf accuracy    <       0.00040467 Ry

     iteration # 15     ecut=   150.00 Ry     beta= 0.70
     Davidson diagonalization with overlap
     ethr =  1.38E-06,  avg # of iterations =  1.8

     negative rho (up, down):  1.227E-04 0.000E+00

     total cpu time spent up to now is      202.8 secs

     total energy              =    -489.75770778 Ry
     estimated scf accuracy    <       0.00017651 Ry

     iteration # 16     ecut=   150.00 Ry     beta= 0.70
     Davidson diagonalization with overlap
     ethr =  6.79E-07,  avg # of iterations =  3.2

     negative rho (up, down):  1.227E-04 0.000E+00

     total cpu time spent up to now is      214.8 secs

     total energy              =    -489.75773386 Ry
     estimated scf accuracy    <       0.00001101 Ry

     iteration # 17     ecut=   150.00 Ry     beta= 0.70
     Davidson diagonalization with overlap
     ethr =  4.23E-08,  avg # of iterations =  4.9

     negative rho (up, down):  1.228E-04 0.000E+00

     total cpu time spent up to now is      229.6 secs

     total energy              =    -489.75773982 Ry
     estimated scf accuracy    <       0.00000611 Ry

     iteration # 18     ecut=   150.00 Ry     beta= 0.70
     Davidson diagonalization with overlap
     ethr =  2.35E-08,  avg # of iterations =  3.4

     negative rho (up, down):  1.224E-04 0.000E+00

     total cpu time spent up to now is      242.2 secs

     total energy              =    -489.75773599 Ry
     estimated scf accuracy    <       0.00001238 Ry

     iteration # 19     ecut=   150.00 Ry     beta= 0.70
     Davidson diagonalization with overlap
     ethr =  2.35E-08,  avg # of iterations =  8.3

     negative rho (up, down):  1.224E-04 0.000E+00

     total cpu time spent up to now is      266.5 secs

     total energy              =    -489.75776781 Ry
     estimated scf accuracy    <       0.00059636 Ry

     iteration # 20     ecut=   150.00 Ry     beta= 0.70
     Davidson diagonalization with overlap
     ethr =  2.35E-08,  avg # of iterations =  5.5

     negative rho (up, down):  1.224E-04 0.000E+00

     total cpu time spent up to now is      283.3 secs

     total energy              =    -489.75776183 Ry
     estimated scf accuracy    <       0.00028283 Ry

     iteration # 21     ecut=   150.00 Ry     beta= 0.70
     Davidson diagonalization with overlap
     ethr =  2.35E-08,  avg # of iterations =  3.5

     negative rho (up, down):  1.222E-04 0.000E+00

     total cpu time spent up to now is      296.0 secs

     total energy              =    -489.75781696 Ry
     estimated scf accuracy    <       0.00020213 Ry

     iteration # 22     ecut=   150.00 Ry     beta= 0.70
     Davidson diagonalization with overlap
     ethr =  2.35E-08,  avg # of iterations =  6.2

     negative rho (up, down):  1.227E-04 0.000E+00

     total cpu time spent up to now is      315.5 secs

     total energy              =    -489.75769547 Ry
     estimated scf accuracy    <       0.00064440 Ry

     iteration # 23     ecut=   150.00 Ry     beta= 0.70
     Davidson diagonalization with overlap
     ethr =  2.35E-08,  avg # of iterations =  7.7

     negative rho (up, down):  1.229E-04 0.000E+00

     total cpu time spent up to now is      338.2 secs

     total energy              =    -489.75773497 Ry
     estimated scf accuracy    <       0.00003575 Ry

     iteration # 24     ecut=   150.00 Ry     beta= 0.70
     Davidson diagonalization with overlap
     ethr =  2.35E-08,  avg # of iterations =  4.2

     negative rho (up, down):  1.230E-04 0.000E+00

     total cpu time spent up to now is      351.9 secs

     total energy              =    -489.75773600 Ry
     estimated scf accuracy    <       0.00000400 Ry

     iteration # 25     ecut=   150.00 Ry     beta= 0.70
     Davidson diagonalization with overlap
     ethr =  1.54E-08,  avg # of iterations =  4.9

     negative rho (up, down):  1.229E-04 0.000E+00

     total cpu time spent up to now is      367.0 secs

     total energy              =    -489.75773761 Ry
     estimated scf accuracy    <       0.00000229 Ry

     iteration # 26     ecut=   150.00 Ry     beta= 0.70
     Davidson diagonalization with overlap
     ethr =  8.82E-09,  avg # of iterations =  1.6

     negative rho (up, down):  1.229E-04 0.000E+00

     total cpu time spent up to now is      377.1 secs

     total energy              =    -489.75773751 Ry
     estimated scf accuracy    <       0.00000102 Ry

     iteration # 27     ecut=   150.00 Ry     beta= 0.70
     Davidson diagonalization with overlap
     ethr =  3.91E-09,  avg # of iterations =  2.9

     negative rho (up, down):  1.229E-04 0.000E+00

     total cpu time spent up to now is      388.4 secs

     total energy              =    -489.75773762 Ry
     estimated scf accuracy    <       0.00000015 Ry

     iteration # 28     ecut=   150.00 Ry     beta= 0.70
     Davidson diagonalization with overlap
     ethr =  5.60E-10,  avg # of iterations =  4.0

     negative rho (up, down):  1.229E-04 0.000E+00

     total cpu time spent up to now is      400.5 secs

     total energy              =    -489.75773764 Ry
     estimated scf accuracy    <       0.00000004 Ry

     iteration # 29     ecut=   150.00 Ry     beta= 0.70
     Davidson diagonalization with overlap
     ethr =  1.62E-10,  avg # of iterations =  2.6

     negative rho (up, down):  1.229E-04 0.000E+00

     total cpu time spent up to now is      411.2 secs

     total energy              =    -489.75773765 Ry
     estimated scf accuracy    <       0.00000003 Ry

     iteration # 30     ecut=   150.00 Ry     beta= 0.70
     Davidson diagonalization with overlap
     ethr =  1.19E-10,  avg # of iterations =  2.0

     negative rho (up, down):  1.229E-04 0.000E+00

     total cpu time spent up to now is      421.5 secs

     total energy              =    -489.75773765 Ry
     estimated scf accuracy    <       0.00000006 Ry

     iteration # 31     ecut=   150.00 Ry     beta= 0.70
     Davidson diagonalization with overlap
     ethr =  1.19E-10,  avg # of iterations =  1.0

     negative rho (up, down):  1.229E-04 0.000E+00

     total cpu time spent up to now is      431.0 secs

     total energy              =    -489.75773765 Ry
     estimated scf accuracy    <       0.00000006 Ry

     iteration # 32     ecut=   150.00 Ry     beta= 0.70
     Davidson diagonalization with overlap
     ethr =  1.19E-10,  avg # of iterations =  1.0

     negative rho (up, down):  1.229E-04 0.000E+00

     total cpu time spent up to now is      440.5 secs

     total energy              =    -489.75773764 Ry
     estimated scf accuracy    <       0.00000007 Ry

     iteration # 33     ecut=   150.00 Ry     beta= 0.70
     Davidson diagonalization with overlap
     ethr =  1.19E-10,  avg # of iterations =  1.0

     negative rho (up, down):  1.229E-04 0.000E+00

     total cpu time spent up to now is      450.0 secs

     total energy              =    -489.75773764 Ry
     estimated scf accuracy    <       0.00000005 Ry

     iteration # 34     ecut=   150.00 Ry     beta= 0.70
     Davidson diagonalization with overlap
     ethr =  1.19E-10,  avg # of iterations =  1.0

     negative rho (up, down):  1.229E-04 0.000E+00

     total cpu time spent up to now is      459.5 secs

     total energy              =    -489.75773764 Ry
     estimated scf accuracy    <       0.00000003 Ry

     iteration # 35     ecut=   150.00 Ry     beta= 0.70
     Davidson diagonalization with overlap
     ethr =  1.11E-10,  avg # of iterations =  1.0

     negative rho (up, down):  1.229E-04 0.000E+00

     total cpu time spent up to now is      469.0 secs

     total energy              =    -489.75773764 Ry
     estimated scf accuracy    <       0.00000003 Ry

     iteration # 36     ecut=   150.00 Ry     beta= 0.70
     Davidson diagonalization with overlap
     ethr =  1.11E-10,  avg # of iterations =  1.0

     negative rho (up, down):  1.229E-04 0.000E+00

     total cpu time spent up to now is      478.5 secs

     total energy              =    -489.75773763 Ry
     estimated scf accuracy    <       0.00000003 Ry

     iteration # 37     ecut=   150.00 Ry     beta= 0.70
     Davidson diagonalization with overlap
     ethr =  1.11E-10,  avg # of iterations =  4.9

     negative rho (up, down):  1.229E-04 0.000E+00

     total cpu time spent up to now is      493.2 secs

     total energy              =    -489.75773764 Ry
     estimated scf accuracy    <       0.00000004 Ry

     iteration # 38     ecut=   150.00 Ry     beta= 0.70
     Davidson diagonalization with overlap
     ethr =  1.11E-10,  avg # of iterations =  2.3

     negative rho (up, down):  1.229E-04 0.000E+00

     total cpu time spent up to now is      503.8 secs

     total energy              =    -489.75773764 Ry
     estimated scf accuracy    <       0.00000001 Ry

     iteration # 39     ecut=   150.00 Ry     beta= 0.70
     Davidson diagonalization with overlap
     ethr =  4.84E-11,  avg # of iterations =  1.6

     negative rho (up, down):  1.229E-04 0.000E+00

     total cpu time spent up to now is      513.7 secs

     total energy              =    -489.75773764 Ry
     estimated scf accuracy    <          8.3E-09 Ry

     iteration # 40     ecut=   150.00 Ry     beta= 0.70
     Davidson diagonalization with overlap
     ethr =  3.21E-11,  avg # of iterations =  1.0

     negative rho (up, down):  1.229E-04 0.000E+00

     total cpu time spent up to now is      523.2 secs

     total energy              =    -489.75773764 Ry
     estimated scf accuracy    <          8.0E-09 Ry

     iteration # 41     ecut=   150.00 Ry     beta= 0.70
     Davidson diagonalization with overlap
     ethr =  3.06E-11,  avg # of iterations =  3.4

     negative rho (up, down):  1.229E-04 0.000E+00

     total cpu time spent up to now is      535.5 secs

     total energy              =    -489.75773764 Ry
     estimated scf accuracy    <          9.5E-11 Ry

     iteration # 42     ecut=   150.00 Ry     beta= 0.70
     Davidson diagonalization with overlap
     ethr =  3.64E-13,  avg # of iterations =  5.8

     negative rho (up, down):  1.229E-04 0.000E+00

     total cpu time spent up to now is      553.2 secs

     total energy              =    -489.75773764 Ry
     estimated scf accuracy    <          1.5E-11 Ry

     iteration # 43     ecut=   150.00 Ry     beta= 0.70
     Davidson diagonalization with overlap
     ethr =  1.00E-13,  avg # of iterations =  6.6

     negative rho (up, down):  1.229E-04 0.000E+00

     total cpu time spent up to now is      572.5 secs

     total energy              =    -489.75773764 Ry
     estimated scf accuracy    <          5.8E-10 Ry

     iteration # 44     ecut=   150.00 Ry     beta= 0.70
     Davidson diagonalization with overlap
     ethr =  1.00E-13,  avg # of iterations =  1.2

     negative rho (up, down):  1.229E-04 0.000E+00

     total cpu time spent up to now is      582.2 secs

     total energy              =    -489.75773764 Ry
     estimated scf accuracy    <          4.9E-10 Ry

     iteration # 45     ecut=   150.00 Ry     beta= 0.70
     Davidson diagonalization with overlap
     ethr =  1.00E-13,  avg # of iterations =  1.0

     negative rho (up, down):  1.229E-04 0.000E+00

     total cpu time spent up to now is      591.7 secs

     total energy              =    -489.75773764 Ry
     estimated scf accuracy    <          5.1E-10 Ry

     iteration # 46     ecut=   150.00 Ry     beta= 0.70
     Davidson diagonalization with overlap
     ethr =  1.00E-13,  avg # of iterations =  1.1

     negative rho (up, down):  1.229E-04 0.000E+00

     total cpu time spent up to now is      601.2 secs

     total energy              =    -489.75773764 Ry
     estimated scf accuracy    <          5.8E-10 Ry

     iteration # 47     ecut=   150.00 Ry     beta= 0.70
     Davidson diagonalization with overlap
     ethr =  1.00E-13,  avg # of iterations =  1.0

     negative rho (up, down):  1.229E-04 0.000E+00

     total cpu time spent up to now is      610.7 secs

     total energy              =    -489.75773764 Ry
     estimated scf accuracy    <          5.7E-10 Ry

     iteration # 48     ecut=   150.00 Ry     beta= 0.70
     Davidson diagonalization with overlap
     ethr =  1.00E-13,  avg # of iterations =  2.0

     negative rho (up, down):  1.229E-04 0.000E+00

     total cpu time spent up to now is      621.5 secs

     total energy              =    -489.75773764 Ry
     estimated scf accuracy    <          4.4E-10 Ry

     iteration # 49     ecut=   150.00 Ry     beta= 0.70
     Davidson diagonalization with overlap
     ethr =  1.00E-13,  avg # of iterations =  6.6

     negative rho (up, down):  1.229E-04 0.000E+00

     total cpu time spent up to now is      640.5 secs

     total energy              =    -489.75773764 Ry
     estimated scf accuracy    <          6.2E-12 Ry

     iteration # 50     ecut=   150.00 Ry     beta= 0.70
     Davidson diagonalization with overlap
     ethr =  1.00E-13,  avg # of iterations =  1.1

     negative rho (up, down):  1.229E-04 0.000E+00

     total cpu time spent up to now is      650.1 secs

     total energy              =    -489.75773764 Ry
     estimated scf accuracy    <          1.2E-11 Ry

     iteration # 51     ecut=   150.00 Ry     beta= 0.70
     Davidson diagonalization with overlap
     ethr =  1.00E-13,  avg # of iterations =  1.0

     negative rho (up, down):  1.229E-04 0.000E+00

     total cpu time spent up to now is      659.6 secs

     total energy              =    -489.75773764 Ry
     estimated scf accuracy    <          4.8E-12 Ry

     iteration # 52     ecut=   150.00 Ry     beta= 0.70
     Davidson diagonalization with overlap
     ethr =  1.00E-13,  avg # of iterations =  1.2

     negative rho (up, down):  1.229E-04 0.000E+00

     total cpu time spent up to now is      669.2 secs

     End of self-consistent calculation

     Number of k-points >= 100: set verbosity='high' to print the bands.

     highest occupied level (ev):     0.3055

!    total energy              =    -489.75773764 Ry

     total all-electron energy =     -9688.215583 Ry
     estimated scf accuracy    <          4.5E-13 Ry

     The total energy is the sum of the following terms:
     one-electron contribution =    -811.80795233 Ry
     hartree contribution      =     409.65068909 Ry
     xc contribution           =     -29.49497156 Ry
     ewald contribution        =     254.78137111 Ry
     one-center paw contrib.   =    -312.88687395 Ry

     convergence has been achieved in  52 iterations

     negative rho (up, down):  1.229E-04 0.000E+00

     Forces acting on atoms (cartesian axes, Ry/au):

     atom    1 type  1   force =     0.00025720    0.00013509   -0.00000031
     atom    2 type  2   force =    -0.00012860   -0.00006754   -0.00813520
     atom    3 type  2   force =    -0.00012860   -0.00006755    0.00813551

     Total force =     0.011511     Total SCF correction =     0.000001


     Computing stress (Cartesian axis) and pressure


     negative rho (up, down):  1.229E-04 0.000E+00
          total   stress  (Ry/bohr**3)                   (kbar)     P=       -6.29
  -0.00003666  -0.00000082  -0.00000000           -5.39       -0.12       -0.00
  -0.00000082  -0.00003972  -0.00000000           -0.12       -5.84       -0.00
  -0.00000000  -0.00000000  -0.00005197           -0.00       -0.00       -7.65


     Writing output data file /scratch/as3359/Mos2_ct_lat/MoS2.save/
 
     init_run     :     19.46s CPU     10.82s WALL (       1 calls)
     electrons    :   1290.47s CPU    658.30s WALL (       1 calls)
     forces       :      5.17s CPU      2.63s WALL (       1 calls)
     stress       :     16.64s CPU      8.46s WALL (       1 calls)

     Called by init_run:
     wfcinit      :     12.84s CPU      6.58s WALL (       1 calls)
     potinit      :      2.15s CPU      1.22s WALL (       1 calls)
     hinit0       :      3.70s CPU      2.59s WALL (       1 calls)

     Called by electrons:
     c_bands      :   1055.35s CPU    535.48s WALL (      52 calls)
     sum_band     :    202.33s CPU    104.09s WALL (      52 calls)
     v_of_rho     :      7.21s CPU      3.95s WALL (      53 calls)
     newd         :     12.74s CPU      7.84s WALL (      53 calls)
     PAW_pot      :     10.15s CPU      5.28s WALL (      53 calls)
     mix_rho      :      2.95s CPU      1.75s WALL (      52 calls)

     Called by c_bands:
     init_us_2    :     40.46s CPU     20.30s WALL (   12091 calls)
     cegterg      :    982.70s CPU    498.80s WALL (    5876 calls)

     Called by *egterg:
     cdiaghg      :      8.39s CPU      4.27s WALL (   23610 calls)
     h_psi        :    854.62s CPU    434.32s WALL (   23723 calls)
     s_psi        :     19.64s CPU      9.90s WALL (   23723 calls)
     g_psi        :      7.44s CPU      3.74s WALL (   17734 calls)

     Called by h_psi:
     h_psi:calbec :     29.74s CPU     15.00s WALL (   23723 calls)
     vloc_psi     :    795.97s CPU    404.75s WALL (   23723 calls)
     add_vuspsi   :     21.49s CPU     10.81s WALL (   23723 calls)

     General routines
     calbec       :     39.34s CPU     19.84s WALL (   30164 calls)
     fft          :      3.39s CPU      1.90s WALL (     608 calls)
     ffts         :      0.19s CPU      0.10s WALL (      52 calls)
     fftw         :    795.08s CPU    404.85s WALL (  505248 calls)
 
     Parallel routines
 
     PWSCF        :  22m14.87s CPU  11m23.19s WALL

 
   This run was terminated on:  16:38:47  17Apr2022            

=------------------------------------------------------------------------------=
   JOB DONE.
=------------------------------------------------------------------------------=
