
     Program PWSCF v.6.8 starts on  8Apr2022 at 13:34:56 

     This program is part of the open-source Quantum ESPRESSO suite
     for quantum simulation of materials; please cite
         "P. Giannozzi et al., J. Phys.:Condens. Matter 21 395502 (2009);
         "P. Giannozzi et al., J. Phys.:Condens. Matter 29 465901 (2017);
         "P. Giannozzi et al., J. Chem. Phys. 152 154105 (2020);
          URL http://www.quantum-espresso.org", 
     in publications or presentations arising from this work. More details at
     http://www.quantum-espresso.org/quote

     Parallel version (MPI & OpenMP), running on       4 processor cores
     Number of MPI processes:                 2
     Threads/MPI process:                     2

     MPI processes distributed on     1 nodes
     R & G space division:  proc/nbgrp/npool/nimage =       2
     125201 MiB available memory on the printing compute node when the environment starts
 
     Reading input from MoS2.scf.5.900.in
Warning: card  &CELL ignored
Warning: card     CELL_DYNAMICS='BFGS' ignored
Warning: card  / ignored

     Current dimensions of program PWSCF are:
     Max number of different atomic species (ntypx) = 10
     Max number of k-points (npk) =  40000
     Max angular momentum in pseudopotentials (lmaxx) =  4
     Message from routine iosys:
     restart disabled: needed files not found
     file Mo.pbesol-spn-kjpaw_psl.1.0.0.UPF: wavefunction(s)  4S 4D renormalized
     file S.pbesol-nl-kjpaw_psl.1.0.0.UPF: wavefunction(s)  3S renormalized

     Subspace diagonalization in iterative solution of the eigenvalue problem:
     a serial algorithm will be used

 
     Parallelization info
     --------------------
     sticks:   dense  smooth     PW     G-vecs:    dense   smooth      PW
     Min         684     684    200               105296   105296   16649
     Max         685     685    203               105319   105319   16650
     Sum        1369    1369    403               210615   210615   33299
 
     Using Slab Decomposition
 


     bravais-lattice index     =            0
     lattice parameter (alat)  =       5.9000  a.u.
     unit-cell volume          =     848.4150 (a.u.)^3
     number of atoms/cell      =            3
     number of atomic types    =            2
     number of electrons       =        26.00
     number of Kohn-Sham states=           13
     kinetic-energy cutoff     =     150.0000  Ry
     charge density cutoff     =     600.0000  Ry
     scf convergence threshold =      1.0E-12
     mixing beta               =       0.7000
     number of iterations used =            8  plain     mixing
     Exchange-correlation= SLA  PW   PSX  PSC
                           (   1   4  10   8   0   0   0)

     celldm(1)=   5.900000  celldm(2)=   0.000000  celldm(3)=   0.000000
     celldm(4)=   0.000000  celldm(5)=   0.000000  celldm(6)=   0.000000

     crystal axes: (cart. coord. in units of alat)
               a(1) = (   0.976384  -0.000017   0.000000 )  
               a(2) = (  -0.487931   0.846187   0.000000 )  
               a(3) = (   0.000000   0.000000   5.000000 )  

     reciprocal axes: (cart. coord. in units 2 pi/alat)
               b(1) = (  1.024198  0.590577  0.000000 )  
               b(2) = (  0.000021  1.181785  0.000000 )  
               b(3) = (  0.000000  0.000000  0.200000 )  


     PseudoPot. # 1 for Mo read from file:
     /shared/home/as3359/pseudo/Mo.pbesol-spn-kjpaw_psl.1.0.0.UPF
     MD5 check sum: de57925cfc675213e43241dcc441eda8
     Pseudo is Projector augmented-wave + core cor, Zval = 14.0
     Generated using &quot;atomic&quot; code by A. Dal Corso  v.6.3
     Shape of augmentation charge: PSQ
     Using radial grid of 1229 points,  6 beta functions with: 
                l(1) =   0
                l(2) =   0
                l(3) =   1
                l(4) =   1
                l(5) =   2
                l(6) =   2
     Q(r) pseudized with 0 coefficients 


     PseudoPot. # 2 for S  read from file:
     /shared/home/as3359/pseudo/S.pbesol-nl-kjpaw_psl.1.0.0.UPF
     MD5 check sum: bf3db50ec3f960682bbc396f1aadd1dd
     Pseudo is Projector augmented-wave + core cor, Zval =  6.0
     Generated using &quot;atomic&quot; code by A. Dal Corso  v.6.3
     Shape of augmentation charge: PSQ
     Using radial grid of 1151 points,  4 beta functions with: 
                l(1) =   0
                l(2) =   0
                l(3) =   1
                l(4) =   1
     Q(r) pseudized with 0 coefficients 


     atomic species   valence    mass     pseudopotential
        Mo            14.00    95.94000     Mo( 1.00)
        S              6.00    32.06500     S ( 1.00)

     No symmetry found



   Cartesian axes

     site n.     atom                  positions (alat units)
         1           Mo  tau(   1) = (   0.0000000   0.0000000   1.6880765  )
         2           S   tau(   2) = (   0.4883508   0.2821722   2.1737857  )
         3           S   tau(   3) = (   0.4883508   0.2821722   1.2023670  )

     number of k points=   113

     Number of k-points >= 100: set verbosity='high' to print them.

     Dense  grid:   210615 G-vectors     FFT dimensions: (  45,  45, 240)

     Estimated max dynamical RAM per process >     694.98 MB

     Estimated total dynamical RAM >       1.36 GB
     Cannot read rho : file not found

     Initial potential from superposition of free atoms

     starting charge   25.99914, renormalised to   26.00000

     negative rho (up, down):  7.916E-05 0.000E+00
     Message from routine qexsd_readschema :
     xml data file /scratch/as3359/Mos2_ct_lat/MoS2.save/data-file-schema.xml not fou
     Cannot read wfcs: file not found
     Starting wfcs are   18 randomized atomic wfcs
     Checking if some PAW data can be deallocated... 

     total cpu time spent up to now is       10.0 secs

     Self-consistent Calculation

     iteration #  1     ecut=   150.00 Ry     beta= 0.70
     Davidson diagonalization with overlap
     ethr =  1.00E-05,  avg # of iterations = 10.4

     negative rho (up, down):  1.097E-04 0.000E+00

     total cpu time spent up to now is       49.2 secs

     total energy              =    -489.63863188 Ry
     estimated scf accuracy    <       0.20668752 Ry

     iteration #  2     ecut=   150.00 Ry     beta= 0.70
     Davidson diagonalization with overlap
     ethr =  7.95E-04,  avg # of iterations =  5.1

     negative rho (up, down):  9.235E-05 0.000E+00

     total cpu time spent up to now is       69.5 secs

     total energy              =    -489.56532563 Ry
     estimated scf accuracy    <       1.00060267 Ry

     iteration #  3     ecut=   150.00 Ry     beta= 0.70
     Davidson diagonalization with overlap
     ethr =  7.95E-04,  avg # of iterations =  5.1

     negative rho (up, down):  9.354E-05 0.000E+00

     total cpu time spent up to now is       88.8 secs

     total energy              =    -489.73767697 Ry
     estimated scf accuracy    <       0.02634740 Ry

     iteration #  4     ecut=   150.00 Ry     beta= 0.70
     Davidson diagonalization with overlap
     ethr =  1.01E-04,  avg # of iterations =  2.8

     negative rho (up, down):  1.027E-04 0.000E+00

     total cpu time spent up to now is      103.6 secs

     total energy              =    -489.74068061 Ry
     estimated scf accuracy    <       0.00398749 Ry

     iteration #  5     ecut=   150.00 Ry     beta= 0.70
     Davidson diagonalization with overlap
     ethr =  1.53E-05,  avg # of iterations =  4.7

     negative rho (up, down):  1.050E-04 0.000E+00

     total cpu time spent up to now is      122.1 secs

     total energy              =    -489.74221968 Ry
     estimated scf accuracy    <       0.00198553 Ry

     iteration #  6     ecut=   150.00 Ry     beta= 0.70
     Davidson diagonalization with overlap
     ethr =  7.64E-06,  avg # of iterations =  2.9

     negative rho (up, down):  1.062E-04 0.000E+00

     total cpu time spent up to now is      136.5 secs

     total energy              =    -489.74249290 Ry
     estimated scf accuracy    <       0.00005893 Ry

     iteration #  7     ecut=   150.00 Ry     beta= 0.70
     Davidson diagonalization with overlap
     ethr =  2.27E-07,  avg # of iterations =  6.4

     negative rho (up, down):  1.064E-04 0.000E+00

     total cpu time spent up to now is      161.1 secs

     total energy              =    -489.74259978 Ry
     estimated scf accuracy    <       0.00039520 Ry

     iteration #  8     ecut=   150.00 Ry     beta= 0.70
     Davidson diagonalization with overlap
     ethr =  2.27E-07,  avg # of iterations =  2.0

     negative rho (up, down):  1.064E-04 0.000E+00

     total cpu time spent up to now is      174.6 secs

     total energy              =    -489.74251432 Ry
     estimated scf accuracy    <       0.00025599 Ry

     iteration #  9     ecut=   150.00 Ry     beta= 0.70
     Davidson diagonalization with overlap
     ethr =  2.27E-07,  avg # of iterations =  5.2

     negative rho (up, down):  1.067E-04 0.000E+00

     total cpu time spent up to now is      194.1 secs

     total energy              =    -489.74257122 Ry
     estimated scf accuracy    <       0.00001734 Ry

     iteration # 10     ecut=   150.00 Ry     beta= 0.70
     Davidson diagonalization with overlap
     ethr =  6.67E-08,  avg # of iterations =  1.8

     negative rho (up, down):  1.067E-04 0.000E+00

     total cpu time spent up to now is      206.4 secs

     total energy              =    -489.74256939 Ry
     estimated scf accuracy    <       0.00000850 Ry

     iteration # 11     ecut=   150.00 Ry     beta= 0.70
     Davidson diagonalization with overlap
     ethr =  3.27E-08,  avg # of iterations =  4.2

     negative rho (up, down):  1.068E-04 0.000E+00

     total cpu time spent up to now is      222.2 secs

     total energy              =    -489.74257136 Ry
     estimated scf accuracy    <       0.00000017 Ry

     iteration # 12     ecut=   150.00 Ry     beta= 0.70
     Davidson diagonalization with overlap
     ethr =  6.46E-10,  avg # of iterations =  5.0

     negative rho (up, down):  1.068E-04 0.000E+00

     total cpu time spent up to now is      240.2 secs

     total energy              =    -489.74257144 Ry
     estimated scf accuracy    <       0.00000001 Ry

     iteration # 13     ecut=   150.00 Ry     beta= 0.70
     Davidson diagonalization with overlap
     ethr =  4.91E-11,  avg # of iterations =  4.9

     negative rho (up, down):  1.068E-04 0.000E+00

     total cpu time spent up to now is      259.5 secs

     total energy              =    -489.74257145 Ry
     estimated scf accuracy    <          9.1E-09 Ry

     iteration # 14     ecut=   150.00 Ry     beta= 0.70
     Davidson diagonalization with overlap
     ethr =  3.51E-11,  avg # of iterations =  2.2

     negative rho (up, down):  1.068E-04 0.000E+00

     total cpu time spent up to now is      272.9 secs

     total energy              =    -489.74257145 Ry
     estimated scf accuracy    <          2.2E-09 Ry

     iteration # 15     ecut=   150.00 Ry     beta= 0.70
     Davidson diagonalization with overlap
     ethr =  8.31E-12,  avg # of iterations =  4.5

     negative rho (up, down):  1.068E-04 0.000E+00

     total cpu time spent up to now is      290.0 secs

     total energy              =    -489.74257145 Ry
     estimated scf accuracy    <          7.2E-10 Ry

     iteration # 16     ecut=   150.00 Ry     beta= 0.70
     Davidson diagonalization with overlap
     ethr =  2.76E-12,  avg # of iterations =  1.9

     negative rho (up, down):  1.068E-04 0.000E+00

     total cpu time spent up to now is      302.5 secs

     total energy              =    -489.74257145 Ry
     estimated scf accuracy    <          2.6E-10 Ry

     iteration # 17     ecut=   150.00 Ry     beta= 0.70
     Davidson diagonalization with overlap
     ethr =  9.85E-13,  avg # of iterations =  4.8

     negative rho (up, down):  1.068E-04 0.000E+00

     total cpu time spent up to now is      320.8 secs

     total energy              =    -489.74257145 Ry
     estimated scf accuracy    <          4.2E-10 Ry

     iteration # 18     ecut=   150.00 Ry     beta= 0.70
     Davidson diagonalization with overlap
     ethr =  9.85E-13,  avg # of iterations =  1.9

     negative rho (up, down):  1.068E-04 0.000E+00

     total cpu time spent up to now is      333.3 secs

     total energy              =    -489.74257145 Ry
     estimated scf accuracy    <          1.6E-10 Ry

     iteration # 19     ecut=   150.00 Ry     beta= 0.70
     Davidson diagonalization with overlap
     ethr =  6.30E-13,  avg # of iterations =  2.8

     negative rho (up, down):  1.068E-04 0.000E+00

     total cpu time spent up to now is      347.5 secs

     total energy              =    -489.74257145 Ry
     estimated scf accuracy    <          1.2E-11 Ry

     iteration # 20     ecut=   150.00 Ry     beta= 0.70
     Davidson diagonalization with overlap
     ethr =  1.00E-13,  avg # of iterations =  4.4

     negative rho (up, down):  1.068E-04 0.000E+00

     total cpu time spent up to now is      364.9 secs

     total energy              =    -489.74257145 Ry
     estimated scf accuracy    <          7.5E-12 Ry

     iteration # 21     ecut=   150.00 Ry     beta= 0.70
     Davidson diagonalization with overlap
     ethr =  1.00E-13,  avg # of iterations =  1.1

     negative rho (up, down):  1.068E-04 0.000E+00

     total cpu time spent up to now is      376.5 secs

     total energy              =    -489.74257145 Ry
     estimated scf accuracy    <          1.2E-12 Ry

     iteration # 22     ecut=   150.00 Ry     beta= 0.70
     Davidson diagonalization with overlap
     ethr =  1.00E-13,  avg # of iterations =  2.0

     negative rho (up, down):  1.068E-04 0.000E+00

     total cpu time spent up to now is      389.3 secs

     total energy              =    -489.74257145 Ry
     estimated scf accuracy    <          3.0E-12 Ry

     iteration # 23     ecut=   150.00 Ry     beta= 0.70
     Davidson diagonalization with overlap
     ethr =  1.00E-13,  avg # of iterations =  1.0

     negative rho (up, down):  1.068E-04 0.000E+00

     total cpu time spent up to now is      401.0 secs

     End of self-consistent calculation

     Number of k-points >= 100: set verbosity='high' to print the bands.

     highest occupied level (ev):     0.8961

!    total energy              =    -489.74257145 Ry

     total all-electron energy =     -9688.200417 Ry
     estimated scf accuracy    <          4.4E-13 Ry

     The total energy is the sum of the following terms:
     one-electron contribution =    -829.41168580 Ry
     hartree contribution      =     419.08818681 Ry
     xc contribution           =     -29.75385099 Ry
     ewald contribution        =     263.24529463 Ry
     one-center paw contrib.   =    -312.91051609 Ry

     convergence has been achieved in  23 iterations

     negative rho (up, down):  1.068E-04 0.000E+00

     Forces acting on atoms (cartesian axes, Ry/au):

     atom    1 type  1   force =     0.00036312    0.00007645    0.00000067
     atom    2 type  2   force =    -0.00018156   -0.00003823    0.06525353
     atom    3 type  2   force =    -0.00018156   -0.00003822   -0.06525421

     Total force =     0.092284     Total SCF correction =     0.000005


     Computing stress (Cartesian axis) and pressure


     negative rho (up, down):  1.068E-04 0.000E+00
          total   stress  (Ry/bohr**3)                   (kbar)     P=       63.05
   0.00042464  -0.00000114   0.00000000           62.47       -0.17        0.00
  -0.00000114   0.00042086   0.00000000           -0.17       61.91        0.00
   0.00000000   0.00000000   0.00044027            0.00        0.00       64.77


     Writing output data file /scratch/as3359/Mos2_ct_lat/MoS2.save/
 
     init_run     :     18.16s CPU      9.83s WALL (       1 calls)
     electrons    :    768.67s CPU    391.07s WALL (       1 calls)
     forces       :      4.89s CPU      2.50s WALL (       1 calls)
     stress       :     15.55s CPU      7.94s WALL (       1 calls)

     Called by init_run:
     wfcinit      :     13.26s CPU      6.78s WALL (       1 calls)
     potinit      :      1.38s CPU      0.71s WALL (       1 calls)
     hinit0       :      2.91s CPU      1.99s WALL (       1 calls)

     Called by electrons:
     c_bands      :    649.82s CPU    328.85s WALL (      23 calls)
     sum_band     :    103.88s CPU     53.51s WALL (      23 calls)
     v_of_rho     :      3.43s CPU      1.88s WALL (      24 calls)
     newd         :      6.12s CPU      4.01s WALL (      24 calls)
     PAW_pot      :      4.53s CPU      2.35s WALL (      24 calls)
     mix_rho      :      1.26s CPU      0.68s WALL (      23 calls)

     Called by c_bands:
     init_us_2    :     19.78s CPU      9.92s WALL (    5537 calls)
     cegterg      :    617.46s CPU    312.45s WALL (    2599 calls)

     Called by *egterg:
     cdiaghg      :      5.03s CPU      2.56s WALL (   12453 calls)
     h_psi        :    542.76s CPU    274.92s WALL (   12566 calls)
     s_psi        :     16.15s CPU      8.12s WALL (   12566 calls)
     g_psi        :      3.73s CPU      1.88s WALL (    9854 calls)

     Called by h_psi:
     h_psi:calbec :     15.27s CPU      7.72s WALL (   12566 calls)
     vloc_psi     :    501.84s CPU    254.32s WALL (   12566 calls)
     add_vuspsi   :     22.00s CPU     11.04s WALL (   12566 calls)

     General routines
     calbec       :     19.56s CPU      9.89s WALL (   15730 calls)
     fft          :      1.54s CPU      0.79s WALL (     289 calls)
     ffts         :      0.11s CPU      0.06s WALL (      23 calls)
     fftw         :    506.97s CPU    257.06s WALL (  244725 calls)
 
     Parallel routines
 
     PWSCF        :  13m29.44s CPU   6m53.27s WALL

 
   This run was terminated on:  13:41:49   8Apr2022            

=------------------------------------------------------------------------------=
   JOB DONE.
=------------------------------------------------------------------------------=
