
     Program PWSCF v.6.8 starts on  8Apr2022 at 14:50:23 

     This program is part of the open-source Quantum ESPRESSO suite
     for quantum simulation of materials; please cite
         "P. Giannozzi et al., J. Phys.:Condens. Matter 21 395502 (2009);
         "P. Giannozzi et al., J. Phys.:Condens. Matter 29 465901 (2017);
         "P. Giannozzi et al., J. Chem. Phys. 152 154105 (2020);
          URL http://www.quantum-espresso.org", 
     in publications or presentations arising from this work. More details at
     http://www.quantum-espresso.org/quote

     Parallel version (MPI & OpenMP), running on       4 processor cores
     Number of MPI processes:                 2
     Threads/MPI process:                     2

     MPI processes distributed on     1 nodes
     R & G space division:  proc/nbgrp/npool/nimage =       2
     125183 MiB available memory on the printing compute node when the environment starts
 
     Reading input from MoS2.scf.6.350.in
Warning: card  &CELL ignored
Warning: card     CELL_DYNAMICS='BFGS' ignored
Warning: card  / ignored

     Current dimensions of program PWSCF are:
     Max number of different atomic species (ntypx) = 10
     Max number of k-points (npk) =  40000
     Max angular momentum in pseudopotentials (lmaxx) =  4
     Message from routine iosys:
     restart disabled: needed files not found
     file Mo.pbesol-spn-kjpaw_psl.1.0.0.UPF: wavefunction(s)  4S 4D renormalized
     file S.pbesol-nl-kjpaw_psl.1.0.0.UPF: wavefunction(s)  3S renormalized

     Subspace diagonalization in iterative solution of the eigenvalue problem:
     a serial algorithm will be used

 
     Parallelization info
     --------------------
     sticks:   dense  smooth     PW     G-vecs:    dense   smooth      PW
     Min         792     792    231               131170   131170   20455
     Max         793     793    232               131181   131181   20456
     Sum        1585    1585    463               262351   262351   40911
 
     Using Slab Decomposition
 


     bravais-lattice index     =            0
     lattice parameter (alat)  =       6.3500  a.u.
     unit-cell volume          =    1057.7267 (a.u.)^3
     number of atoms/cell      =            3
     number of atomic types    =            2
     number of electrons       =        26.00
     number of Kohn-Sham states=           13
     kinetic-energy cutoff     =     150.0000  Ry
     charge density cutoff     =     600.0000  Ry
     scf convergence threshold =      1.0E-12
     mixing beta               =       0.7000
     number of iterations used =            8  plain     mixing
     Exchange-correlation= SLA  PW   PSX  PSC
                           (   1   4  10   8   0   0   0)

     celldm(1)=   6.350000  celldm(2)=   0.000000  celldm(3)=   0.000000
     celldm(4)=   0.000000  celldm(5)=   0.000000  celldm(6)=   0.000000

     crystal axes: (cart. coord. in units of alat)
               a(1) = (   0.976384  -0.000017   0.000000 )  
               a(2) = (  -0.487931   0.846187   0.000000 )  
               a(3) = (   0.000000   0.000000   5.000000 )  

     reciprocal axes: (cart. coord. in units 2 pi/alat)
               b(1) = (  1.024198  0.590577  0.000000 )  
               b(2) = (  0.000021  1.181785  0.000000 )  
               b(3) = (  0.000000  0.000000  0.200000 )  


     PseudoPot. # 1 for Mo read from file:
     /shared/home/as3359/pseudo/Mo.pbesol-spn-kjpaw_psl.1.0.0.UPF
     MD5 check sum: de57925cfc675213e43241dcc441eda8
     Pseudo is Projector augmented-wave + core cor, Zval = 14.0
     Generated using &quot;atomic&quot; code by A. Dal Corso  v.6.3
     Shape of augmentation charge: PSQ
     Using radial grid of 1229 points,  6 beta functions with: 
                l(1) =   0
                l(2) =   0
                l(3) =   1
                l(4) =   1
                l(5) =   2
                l(6) =   2
     Q(r) pseudized with 0 coefficients 


     PseudoPot. # 2 for S  read from file:
     /shared/home/as3359/pseudo/S.pbesol-nl-kjpaw_psl.1.0.0.UPF
     MD5 check sum: bf3db50ec3f960682bbc396f1aadd1dd
     Pseudo is Projector augmented-wave + core cor, Zval =  6.0
     Generated using &quot;atomic&quot; code by A. Dal Corso  v.6.3
     Shape of augmentation charge: PSQ
     Using radial grid of 1151 points,  4 beta functions with: 
                l(1) =   0
                l(2) =   0
                l(3) =   1
                l(4) =   1
     Q(r) pseudized with 0 coefficients 


     atomic species   valence    mass     pseudopotential
        Mo            14.00    95.94000     Mo( 1.00)
        S              6.00    32.06500     S ( 1.00)

     No symmetry found



   Cartesian axes

     site n.     atom                  positions (alat units)
         1           Mo  tau(   1) = (   0.0000000   0.0000000   1.6880765  )
         2           S   tau(   2) = (   0.4883508   0.2821722   2.1737857  )
         3           S   tau(   3) = (   0.4883508   0.2821722   1.2023670  )

     number of k points=   113

     Number of k-points >= 100: set verbosity='high' to print them.

     Dense  grid:   262351 G-vectors     FFT dimensions: (  50,  50, 250)

     Estimated max dynamical RAM per process >     865.76 MB

     Estimated total dynamical RAM >       1.69 GB
     Cannot read rho : file not found

     Initial potential from superposition of free atoms

     starting charge   25.99914, renormalised to   26.00000

     negative rho (up, down):  1.027E-04 0.000E+00
     Message from routine qexsd_readschema :
     xml data file /scratch/as3359/Mos2_ct_lat/MoS2.save/data-file-schema.xml not fou
     Cannot read wfcs: file not found
     Starting wfcs are   18 randomized atomic wfcs
     Checking if some PAW data can be deallocated... 

     total cpu time spent up to now is       12.1 secs

     Self-consistent Calculation

     iteration #  1     ecut=   150.00 Ry     beta= 0.70
     Davidson diagonalization with overlap
     ethr =  1.00E-05,  avg # of iterations = 10.2

     negative rho (up, down):  1.358E-04 0.000E+00

     total cpu time spent up to now is       57.7 secs

     total energy              =    -489.69316503 Ry
     estimated scf accuracy    <       0.09548098 Ry

     iteration #  2     ecut=   150.00 Ry     beta= 0.70
     Davidson diagonalization with overlap
     ethr =  3.67E-04,  avg # of iterations =  3.1

     negative rho (up, down):  1.335E-04 0.000E+00

     total cpu time spent up to now is       78.1 secs

     total energy              =    -489.70217841 Ry
     estimated scf accuracy    <       0.09623595 Ry

     iteration #  3     ecut=   150.00 Ry     beta= 0.70
     Davidson diagonalization with overlap
     ethr =  3.67E-04,  avg # of iterations =  4.1

     negative rho (up, down):  1.348E-04 0.000E+00

     total cpu time spent up to now is       98.9 secs

     total energy              =    -489.71906758 Ry
     estimated scf accuracy    <       0.05995111 Ry

     iteration #  4     ecut=   150.00 Ry     beta= 0.70
     Davidson diagonalization with overlap
     ethr =  2.31E-04,  avg # of iterations =  3.1

     negative rho (up, down):  1.376E-04 0.000E+00

     total cpu time spent up to now is      116.1 secs

     total energy              =    -489.72567974 Ry
     estimated scf accuracy    <       0.00221900 Ry

     iteration #  5     ecut=   150.00 Ry     beta= 0.70
     Davidson diagonalization with overlap
     ethr =  8.53E-06,  avg # of iterations =  6.2

     negative rho (up, down):  1.381E-04 0.000E+00

     total cpu time spent up to now is      144.2 secs

     total energy              =    -489.72770332 Ry
     estimated scf accuracy    <       0.01567896 Ry

     iteration #  6     ecut=   150.00 Ry     beta= 0.70
     Davidson diagonalization with overlap
     ethr =  8.53E-06,  avg # of iterations =  3.9

     negative rho (up, down):  1.387E-04 0.000E+00

     total cpu time spent up to now is      163.3 secs

     total energy              =    -489.72748017 Ry
     estimated scf accuracy    <       0.00448287 Ry

     iteration #  7     ecut=   150.00 Ry     beta= 0.70
     Davidson diagonalization with overlap
     ethr =  8.53E-06,  avg # of iterations =  4.3

     negative rho (up, down):  1.394E-04 0.000E+00

     total cpu time spent up to now is      182.9 secs

     total energy              =    -489.72782746 Ry
     estimated scf accuracy    <       0.00034614 Ry

     iteration #  8     ecut=   150.00 Ry     beta= 0.70
     Davidson diagonalization with overlap
     ethr =  1.33E-06,  avg # of iterations =  5.4

     negative rho (up, down):  1.401E-04 0.000E+00

     total cpu time spent up to now is      206.2 secs

     total energy              =    -489.72800284 Ry
     estimated scf accuracy    <       0.00019679 Ry

     iteration #  9     ecut=   150.00 Ry     beta= 0.70
     Davidson diagonalization with overlap
     ethr =  7.57E-07,  avg # of iterations =  1.1

     negative rho (up, down):  1.403E-04 0.000E+00

     total cpu time spent up to now is      220.4 secs

     total energy              =    -489.72796552 Ry
     estimated scf accuracy    <       0.00013535 Ry

     iteration # 10     ecut=   150.00 Ry     beta= 0.70
     Davidson diagonalization with overlap
     ethr =  5.21E-07,  avg # of iterations =  3.6

     negative rho (up, down):  1.403E-04 0.000E+00

     total cpu time spent up to now is      239.0 secs

     total energy              =    -489.72799071 Ry
     estimated scf accuracy    <       0.00000019 Ry

     iteration # 11     ecut=   150.00 Ry     beta= 0.70
     Davidson diagonalization with overlap
     ethr =  7.33E-10,  avg # of iterations =  8.9

     negative rho (up, down):  1.403E-04 0.000E+00

     total cpu time spent up to now is      276.9 secs

     total energy              =    -489.72799224 Ry
     estimated scf accuracy    <       0.00000019 Ry

     iteration # 12     ecut=   150.00 Ry     beta= 0.70
     Davidson diagonalization with overlap
     ethr =  7.25E-10,  avg # of iterations =  6.2

     negative rho (up, down):  1.403E-04 0.000E+00

     total cpu time spent up to now is      305.1 secs

     total energy              =    -489.72799181 Ry
     estimated scf accuracy    <       0.00000187 Ry

     iteration # 13     ecut=   150.00 Ry     beta= 0.70
     Davidson diagonalization with overlap
     ethr =  7.25E-10,  avg # of iterations =  7.0

     negative rho (up, down):  1.403E-04 0.000E+00

     total cpu time spent up to now is      336.2 secs

     total energy              =    -489.72799240 Ry
     estimated scf accuracy    <       0.00000121 Ry

     iteration # 14     ecut=   150.00 Ry     beta= 0.70
     Davidson diagonalization with overlap
     ethr =  7.25E-10,  avg # of iterations =  1.8

     negative rho (up, down):  1.403E-04 0.000E+00

     total cpu time spent up to now is      351.3 secs

     total energy              =    -489.72799232 Ry
     estimated scf accuracy    <       0.00000079 Ry

     iteration # 15     ecut=   150.00 Ry     beta= 0.70
     Davidson diagonalization with overlap
     ethr =  7.25E-10,  avg # of iterations =  3.5

     negative rho (up, down):  1.403E-04 0.000E+00

     total cpu time spent up to now is      369.3 secs

     total energy              =    -489.72799233 Ry
     estimated scf accuracy    <       0.00000026 Ry

     iteration # 16     ecut=   150.00 Ry     beta= 0.70
     Davidson diagonalization with overlap
     ethr =  7.25E-10,  avg # of iterations =  1.1

     negative rho (up, down):  1.403E-04 0.000E+00

     total cpu time spent up to now is      383.3 secs

     total energy              =    -489.72799233 Ry
     estimated scf accuracy    <       0.00000017 Ry

     iteration # 17     ecut=   150.00 Ry     beta= 0.70
     Davidson diagonalization with overlap
     ethr =  6.48E-10,  avg # of iterations =  1.0

     negative rho (up, down):  1.403E-04 0.000E+00

     total cpu time spent up to now is      397.3 secs

     total energy              =    -489.72799231 Ry
     estimated scf accuracy    <       0.00000012 Ry

     iteration # 18     ecut=   150.00 Ry     beta= 0.70
     Davidson diagonalization with overlap
     ethr =  4.64E-10,  avg # of iterations =  4.5

     negative rho (up, down):  1.403E-04 0.000E+00

     total cpu time spent up to now is      417.5 secs

     total energy              =    -489.72799233 Ry
     estimated scf accuracy    <          2.9E-09 Ry

     iteration # 19     ecut=   150.00 Ry     beta= 0.70
     Davidson diagonalization with overlap
     ethr =  1.12E-11,  avg # of iterations =  5.8

     negative rho (up, down):  1.403E-04 0.000E+00

     total cpu time spent up to now is      440.7 secs

     total energy              =    -489.72799234 Ry
     estimated scf accuracy    <          9.4E-09 Ry

     iteration # 20     ecut=   150.00 Ry     beta= 0.70
     Davidson diagonalization with overlap
     ethr =  1.12E-11,  avg # of iterations =  1.7

     negative rho (up, down):  1.403E-04 0.000E+00

     total cpu time spent up to now is      455.8 secs

     total energy              =    -489.72799234 Ry
     estimated scf accuracy    <       0.00000001 Ry

     iteration # 21     ecut=   150.00 Ry     beta= 0.70
     Davidson diagonalization with overlap
     ethr =  1.12E-11,  avg # of iterations =  1.0

     negative rho (up, down):  1.403E-04 0.000E+00

     total cpu time spent up to now is      469.9 secs

     total energy              =    -489.72799234 Ry
     estimated scf accuracy    <       0.00000001 Ry

     iteration # 22     ecut=   150.00 Ry     beta= 0.70
     Davidson diagonalization with overlap
     ethr =  1.12E-11,  avg # of iterations =  1.0

     negative rho (up, down):  1.403E-04 0.000E+00

     total cpu time spent up to now is      484.0 secs

     total energy              =    -489.72799234 Ry
     estimated scf accuracy    <       0.00000001 Ry

     iteration # 23     ecut=   150.00 Ry     beta= 0.70
     Davidson diagonalization with overlap
     ethr =  1.12E-11,  avg # of iterations =  1.0

     negative rho (up, down):  1.403E-04 0.000E+00

     total cpu time spent up to now is      498.0 secs

     total energy              =    -489.72799233 Ry
     estimated scf accuracy    <          8.2E-09 Ry

     iteration # 24     ecut=   150.00 Ry     beta= 0.70
     Davidson diagonalization with overlap
     ethr =  1.12E-11,  avg # of iterations =  3.3

     negative rho (up, down):  1.403E-04 0.000E+00

     total cpu time spent up to now is      515.4 secs

     total energy              =    -489.72799233 Ry
     estimated scf accuracy    <          2.3E-09 Ry

     iteration # 25     ecut=   150.00 Ry     beta= 0.70
     Davidson diagonalization with overlap
     ethr =  8.95E-12,  avg # of iterations =  1.0

     negative rho (up, down):  1.403E-04 0.000E+00

     total cpu time spent up to now is      529.3 secs

     total energy              =    -489.72799233 Ry
     estimated scf accuracy    <          1.9E-09 Ry

     iteration # 26     ecut=   150.00 Ry     beta= 0.70
     Davidson diagonalization with overlap
     ethr =  7.16E-12,  avg # of iterations =  1.7

     negative rho (up, down):  1.403E-04 0.000E+00

     total cpu time spent up to now is      544.0 secs

     total energy              =    -489.72799233 Ry
     estimated scf accuracy    <          8.4E-10 Ry

     iteration # 27     ecut=   150.00 Ry     beta= 0.70
     Davidson diagonalization with overlap
     ethr =  3.25E-12,  avg # of iterations =  4.5

     negative rho (up, down):  1.403E-04 0.000E+00

     total cpu time spent up to now is      564.7 secs

     total energy              =    -489.72799233 Ry
     estimated scf accuracy    <          1.6E-11 Ry

     iteration # 28     ecut=   150.00 Ry     beta= 0.70
     Davidson diagonalization with overlap
     ethr =  1.00E-13,  avg # of iterations =  5.0

     negative rho (up, down):  1.403E-04 0.000E+00

     total cpu time spent up to now is      586.6 secs

     total energy              =    -489.72799233 Ry
     estimated scf accuracy    <          7.9E-12 Ry

     iteration # 29     ecut=   150.00 Ry     beta= 0.70
     Davidson diagonalization with overlap
     ethr =  1.00E-13,  avg # of iterations =  1.0

     negative rho (up, down):  1.403E-04 0.000E+00

     total cpu time spent up to now is      600.6 secs

     total energy              =    -489.72799233 Ry
     estimated scf accuracy    <          7.0E-12 Ry

     iteration # 30     ecut=   150.00 Ry     beta= 0.70
     Davidson diagonalization with overlap
     ethr =  1.00E-13,  avg # of iterations =  2.0

     negative rho (up, down):  1.403E-04 0.000E+00

     total cpu time spent up to now is      616.0 secs

     total energy              =    -489.72799233 Ry
     estimated scf accuracy    <          2.6E-11 Ry

     iteration # 31     ecut=   150.00 Ry     beta= 0.70
     Davidson diagonalization with overlap
     ethr =  1.00E-13,  avg # of iterations =  6.4

     negative rho (up, down):  1.403E-04 0.000E+00

     total cpu time spent up to now is      645.2 secs

     total energy              =    -489.72799233 Ry
     estimated scf accuracy    <          2.7E-10 Ry

     iteration # 32     ecut=   150.00 Ry     beta= 0.70
     Davidson diagonalization with overlap
     ethr =  1.00E-13,  avg # of iterations =  1.5

     negative rho (up, down):  1.403E-04 0.000E+00

     total cpu time spent up to now is      659.7 secs

     total energy              =    -489.72799233 Ry
     estimated scf accuracy    <          2.1E-10 Ry

     iteration # 33     ecut=   150.00 Ry     beta= 0.70
     Davidson diagonalization with overlap
     ethr =  1.00E-13,  avg # of iterations =  5.8

     negative rho (up, down):  1.403E-04 0.000E+00

     total cpu time spent up to now is      683.1 secs

     total energy              =    -489.72799233 Ry
     estimated scf accuracy    <          1.2E-12 Ry

     iteration # 34     ecut=   150.00 Ry     beta= 0.70
     Davidson diagonalization with overlap
     ethr =  1.00E-13,  avg # of iterations =  1.0

     negative rho (up, down):  1.403E-04 0.000E+00

     total cpu time spent up to now is      697.0 secs

     total energy              =    -489.72799233 Ry
     estimated scf accuracy    <          1.3E-12 Ry

     iteration # 35     ecut=   150.00 Ry     beta= 0.70
     Davidson diagonalization with overlap
     ethr =  1.00E-13,  avg # of iterations =  1.0

     negative rho (up, down):  1.403E-04 0.000E+00

     total cpu time spent up to now is      711.0 secs

     total energy              =    -489.72799233 Ry
     estimated scf accuracy    <          1.2E-12 Ry

     iteration # 36     ecut=   150.00 Ry     beta= 0.70
     Davidson diagonalization with overlap
     ethr =  1.00E-13,  avg # of iterations =  1.0

     negative rho (up, down):  1.403E-04 0.000E+00

     total cpu time spent up to now is      724.9 secs

     End of self-consistent calculation

     Number of k-points >= 100: set verbosity='high' to print the bands.

     highest occupied level (ev):    -0.3967

!    total energy              =    -489.72799233 Ry

     total all-electron energy =     -9688.185838 Ry
     estimated scf accuracy    <          5.1E-13 Ry

     The total energy is the sum of the following terms:
     one-electron contribution =    -790.52418784 Ry
     hartree contribution      =     398.27999991 Ry
     xc contribution           =     -29.21003212 Ry
     ewald contribution        =     244.59011627 Ry
     one-center paw contrib.   =    -312.86388855 Ry

     convergence has been achieved in  36 iterations

     negative rho (up, down):  1.403E-04 0.000E+00

     Forces acting on atoms (cartesian axes, Ry/au):

     atom    1 type  1   force =     0.00015135    0.00018342   -0.00000145
     atom    2 type  2   force =    -0.00007566   -0.00009169   -0.07416353
     atom    3 type  2   force =    -0.00007568   -0.00009173    0.07416498

     Total force =     0.104885     Total SCF correction =     0.000002


     Computing stress (Cartesian axis) and pressure


     negative rho (up, down):  1.403E-04 0.000E+00
          total   stress  (Ry/bohr**3)                   (kbar)     P=      -59.29
  -0.00038696  -0.00000052  -0.00000000          -56.92       -0.08       -0.00
  -0.00000052  -0.00038929  -0.00000000           -0.08      -57.27       -0.00
  -0.00000000  -0.00000000  -0.00043294           -0.00       -0.00      -63.69


     Writing output data file /scratch/as3359/Mos2_ct_lat/MoS2.save/
 
     init_run     :     22.17s CPU     12.01s WALL (       1 calls)
     electrons    :   1401.14s CPU    712.80s WALL (       1 calls)
     forces       :      6.19s CPU      3.16s WALL (       1 calls)
     stress       :     19.94s CPU     10.21s WALL (       1 calls)

     Called by init_run:
     wfcinit      :     16.26s CPU      8.30s WALL (       1 calls)
     potinit      :      1.68s CPU      0.86s WALL (       1 calls)
     hinit0       :      3.45s CPU      2.41s WALL (       1 calls)

     Called by electrons:
     c_bands      :   1177.33s CPU    595.41s WALL (      36 calls)
     sum_band     :    195.28s CPU    100.51s WALL (      36 calls)
     v_of_rho     :      6.66s CPU      3.66s WALL (      37 calls)
     newd         :     12.11s CPU      7.93s WALL (      37 calls)
     PAW_pot      :      7.02s CPU      3.67s WALL (      37 calls)
     mix_rho      :      3.08s CPU      1.83s WALL (      36 calls)

     Called by c_bands:
     init_us_2    :     39.49s CPU     19.78s WALL (    8475 calls)
     cegterg      :   1113.55s CPU    563.19s WALL (    4068 calls)

     Called by *egterg:
     cdiaghg      :      7.27s CPU      3.70s WALL (   18150 calls)
     h_psi        :    969.91s CPU    490.94s WALL (   18263 calls)
     s_psi        :     32.93s CPU     16.52s WALL (   18263 calls)
     g_psi        :      6.31s CPU      3.17s WALL (   14082 calls)

     Called by h_psi:
     h_psi:calbec :     27.66s CPU     13.92s WALL (   18263 calls)
     vloc_psi     :    892.11s CPU    451.81s WALL (   18263 calls)
     add_vuspsi   :     43.20s CPU     21.68s WALL (   18263 calls)

     General routines
     calbec       :     35.75s CPU     18.00s WALL (   22896 calls)
     fft          :      2.83s CPU      1.45s WALL (     432 calls)
     ffts         :      0.22s CPU      0.11s WALL (      36 calls)
     fftw         :    890.72s CPU    451.56s WALL (  368154 calls)
 
     Parallel routines
 
     PWSCF        :  24m12.06s CPU  12m20.53s WALL

 
   This run was terminated on:  15: 2:43   8Apr2022            

=------------------------------------------------------------------------------=
   JOB DONE.
=------------------------------------------------------------------------------=
