
     Program PWSCF v.6.8 starts on 17Apr2022 at 14:49:42 

     This program is part of the open-source Quantum ESPRESSO suite
     for quantum simulation of materials; please cite
         "P. Giannozzi et al., J. Phys.:Condens. Matter 21 395502 (2009);
         "P. Giannozzi et al., J. Phys.:Condens. Matter 29 465901 (2017);
         "P. Giannozzi et al., J. Chem. Phys. 152 154105 (2020);
          URL http://www.quantum-espresso.org", 
     in publications or presentations arising from this work. More details at
     http://www.quantum-espresso.org/quote

     Parallel version (MPI & OpenMP), running on       4 processor cores
     Number of MPI processes:                 2
     Threads/MPI process:                     2

     MPI processes distributed on     1 nodes
     R & G space division:  proc/nbgrp/npool/nimage =       2
     125219 MiB available memory on the printing compute node when the environment starts
 
     Reading input from MoS2.scf.6.070.in
Warning: card  &CELL ignored
Warning: card     CELL_DYNAMICS='BFGS' ignored
Warning: card  / ignored

     Current dimensions of program PWSCF are:
     Max number of different atomic species (ntypx) = 10
     Max number of k-points (npk) =  40000
     Max angular momentum in pseudopotentials (lmaxx) =  4
     Message from routine iosys:
     restart disabled: needed files not found
     file Mo.pbesol-spn-kjpaw_psl.1.0.0.UPF: wavefunction(s)  4S 4D renormalized
     file S.pbesol-nl-kjpaw_psl.1.0.0.UPF: wavefunction(s)  3S renormalized

     Subspace diagonalization in iterative solution of the eigenvalue problem:
     a serial algorithm will be used

 
     Parallelization info
     --------------------
     sticks:   dense  smooth     PW     G-vecs:    dense   smooth      PW
     Min         729     729    211               114563   114563   18088
     Max         730     730    216               114568   114568   18101
     Sum        1459    1459    427               229131   229131   36189
 
     Using Slab Decomposition
 


     bravais-lattice index     =            0
     lattice parameter (alat)  =       6.0700  a.u.
     unit-cell volume          =     923.8860 (a.u.)^3
     number of atoms/cell      =            3
     number of atomic types    =            2
     number of electrons       =        26.00
     number of Kohn-Sham states=           13
     kinetic-energy cutoff     =     150.0000  Ry
     charge density cutoff     =     600.0000  Ry
     scf convergence threshold =      1.0E-12
     mixing beta               =       0.7000
     number of iterations used =            8  plain     mixing
     Exchange-correlation= SLA  PW   PSX  PSC
                           (   1   4  10   8   0   0   0)

     celldm(1)=   6.070000  celldm(2)=   0.000000  celldm(3)=   0.000000
     celldm(4)=   0.000000  celldm(5)=   0.000000  celldm(6)=   0.000000

     crystal axes: (cart. coord. in units of alat)
               a(1) = (   0.976384  -0.000017   0.000000 )  
               a(2) = (  -0.487931   0.846187   0.000000 )  
               a(3) = (   0.000000   0.000000   5.000000 )  

     reciprocal axes: (cart. coord. in units 2 pi/alat)
               b(1) = (  1.024198  0.590577  0.000000 )  
               b(2) = (  0.000021  1.181785  0.000000 )  
               b(3) = (  0.000000  0.000000  0.200000 )  


     PseudoPot. # 1 for Mo read from file:
     /shared/home/as3359/pseudo/Mo.pbesol-spn-kjpaw_psl.1.0.0.UPF
     MD5 check sum: de57925cfc675213e43241dcc441eda8
     Pseudo is Projector augmented-wave + core cor, Zval = 14.0
     Generated using &quot;atomic&quot; code by A. Dal Corso  v.6.3
     Shape of augmentation charge: PSQ
     Using radial grid of 1229 points,  6 beta functions with: 
                l(1) =   0
                l(2) =   0
                l(3) =   1
                l(4) =   1
                l(5) =   2
                l(6) =   2
     Q(r) pseudized with 0 coefficients 


     PseudoPot. # 2 for S  read from file:
     /shared/home/as3359/pseudo/S.pbesol-nl-kjpaw_psl.1.0.0.UPF
     MD5 check sum: bf3db50ec3f960682bbc396f1aadd1dd
     Pseudo is Projector augmented-wave + core cor, Zval =  6.0
     Generated using &quot;atomic&quot; code by A. Dal Corso  v.6.3
     Shape of augmentation charge: PSQ
     Using radial grid of 1151 points,  4 beta functions with: 
                l(1) =   0
                l(2) =   0
                l(3) =   1
                l(4) =   1
     Q(r) pseudized with 0 coefficients 


     atomic species   valence    mass     pseudopotential
        Mo            14.00    95.94000     Mo( 1.00)
        S              6.00    32.06500     S ( 1.00)

     No symmetry found



   Cartesian axes

     site n.     atom                  positions (alat units)
         1           Mo  tau(   1) = (   0.0000000   0.0000000   1.6880765  )
         2           S   tau(   2) = (   0.4883508   0.2821722   2.1737857  )
         3           S   tau(   3) = (   0.4883508   0.2821722   1.2023670  )

     number of k points=   113

     Number of k-points >= 100: set verbosity='high' to print them.

     Dense  grid:   229131 G-vectors     FFT dimensions: (  48,  48, 240)

     Estimated max dynamical RAM per process >     756.92 MB

     Estimated total dynamical RAM >       1.48 GB
     Cannot read rho : file not found

     Initial potential from superposition of free atoms

     starting charge   25.99914, renormalised to   26.00000

     negative rho (up, down):  8.871E-05 0.000E+00
     Message from routine qexsd_readschema :
     xml data file /scratch/as3359/Mos2_ct_lat/MoS2.save/data-file-schema.xml not fou
     Cannot read wfcs: file not found
     Starting wfcs are   18 randomized atomic wfcs
     Checking if some PAW data can be deallocated... 

     total cpu time spent up to now is       10.2 secs

     Self-consistent Calculation

     iteration #  1     ecut=   150.00 Ry     beta= 0.70
     Davidson diagonalization with overlap
     ethr =  1.00E-05,  avg # of iterations = 10.4

     negative rho (up, down):  1.203E-04 0.000E+00

     total cpu time spent up to now is       40.3 secs

     total energy              =    -489.68894731 Ry
     estimated scf accuracy    <       0.15134452 Ry

     iteration #  2     ecut=   150.00 Ry     beta= 0.70
     Davidson diagonalization with overlap
     ethr =  5.82E-04,  avg # of iterations =  5.0

     negative rho (up, down):  1.101E-04 0.000E+00

     total cpu time spent up to now is       55.8 secs

     total energy              =    -489.64733948 Ry
     estimated scf accuracy    <       0.56304829 Ry

     iteration #  3     ecut=   150.00 Ry     beta= 0.70
     Davidson diagonalization with overlap
     ethr =  5.82E-04,  avg # of iterations =  5.1

     negative rho (up, down):  1.111E-04 0.000E+00

     total cpu time spent up to now is       70.9 secs

     total energy              =    -489.75220139 Ry
     estimated scf accuracy    <       0.04242981 Ry

     iteration #  4     ecut=   150.00 Ry     beta= 0.70
     Davidson diagonalization with overlap
     ethr =  1.63E-04,  avg # of iterations =  2.4

     negative rho (up, down):  1.167E-04 0.000E+00

     total cpu time spent up to now is       82.0 secs

     total energy              =    -489.75480072 Ry
     estimated scf accuracy    <       0.00553655 Ry

     iteration #  5     ecut=   150.00 Ry     beta= 0.70
     Davidson diagonalization with overlap
     ethr =  2.13E-05,  avg # of iterations =  5.1

     negative rho (up, down):  1.178E-04 0.000E+00

     total cpu time spent up to now is       97.6 secs

     total energy              =    -489.75772461 Ry
     estimated scf accuracy    <       0.00825225 Ry

     iteration #  6     ecut=   150.00 Ry     beta= 0.70
     Davidson diagonalization with overlap
     ethr =  2.13E-05,  avg # of iterations =  1.8

     negative rho (up, down):  1.195E-04 0.000E+00

     total cpu time spent up to now is      107.6 secs

     total energy              =    -489.75663788 Ry
     estimated scf accuracy    <       0.00295701 Ry

     iteration #  7     ecut=   150.00 Ry     beta= 0.70
     Davidson diagonalization with overlap
     ethr =  1.14E-05,  avg # of iterations =  4.9

     negative rho (up, down):  1.197E-04 0.000E+00

     total cpu time spent up to now is      121.9 secs

     total energy              =    -489.75834235 Ry
     estimated scf accuracy    <       0.00252785 Ry

     iteration #  8     ecut=   150.00 Ry     beta= 0.70
     Davidson diagonalization with overlap
     ethr =  9.72E-06,  avg # of iterations =  1.0

     negative rho (up, down):  1.199E-04 0.000E+00

     total cpu time spent up to now is      131.2 secs

     total energy              =    -489.75777693 Ry
     estimated scf accuracy    <       0.00241347 Ry

     iteration #  9     ecut=   150.00 Ry     beta= 0.70
     Davidson diagonalization with overlap
     ethr =  9.28E-06,  avg # of iterations =  2.1

     negative rho (up, down):  1.200E-04 0.000E+00

     total cpu time spent up to now is      141.3 secs

     total energy              =    -489.75793213 Ry
     estimated scf accuracy    <       0.00053295 Ry

     iteration # 10     ecut=   150.00 Ry     beta= 0.70
     Davidson diagonalization with overlap
     ethr =  2.05E-06,  avg # of iterations =  1.8

     negative rho (up, down):  1.198E-04 0.000E+00

     total cpu time spent up to now is      151.1 secs

     total energy              =    -489.75787856 Ry
     estimated scf accuracy    <       0.00047759 Ry

     iteration # 11     ecut=   150.00 Ry     beta= 0.70
     Davidson diagonalization with overlap
     ethr =  1.84E-06,  avg # of iterations =  3.1

     negative rho (up, down):  1.198E-04 0.000E+00

     total cpu time spent up to now is      162.3 secs

     total energy              =    -489.75797751 Ry
     estimated scf accuracy    <       0.00007776 Ry

     iteration # 12     ecut=   150.00 Ry     beta= 0.70
     Davidson diagonalization with overlap
     ethr =  2.99E-07,  avg # of iterations =  3.7

     negative rho (up, down):  1.202E-04 0.000E+00

     total cpu time spent up to now is      174.6 secs

     total energy              =    -489.75792821 Ry
     estimated scf accuracy    <       0.00031602 Ry

     iteration # 13     ecut=   150.00 Ry     beta= 0.70
     Davidson diagonalization with overlap
     ethr =  2.99E-07,  avg # of iterations =  3.5

     negative rho (up, down):  1.203E-04 0.000E+00

     total cpu time spent up to now is      186.8 secs

     total energy              =    -489.75790689 Ry
     estimated scf accuracy    <       0.00008394 Ry

     iteration # 14     ecut=   150.00 Ry     beta= 0.70
     Davidson diagonalization with overlap
     ethr =  2.99E-07,  avg # of iterations =  5.2

     negative rho (up, down):  1.202E-04 0.000E+00

     total cpu time spent up to now is      201.3 secs

     total energy              =    -489.75794087 Ry
     estimated scf accuracy    <       0.00009475 Ry

     iteration # 15     ecut=   150.00 Ry     beta= 0.70
     Davidson diagonalization with overlap
     ethr =  2.99E-07,  avg # of iterations =  1.8

     negative rho (up, down):  1.202E-04 0.000E+00

     total cpu time spent up to now is      211.1 secs

     total energy              =    -489.75792337 Ry
     estimated scf accuracy    <       0.00004476 Ry

     iteration # 16     ecut=   150.00 Ry     beta= 0.70
     Davidson diagonalization with overlap
     ethr =  1.72E-07,  avg # of iterations =  5.3

     negative rho (up, down):  1.202E-04 0.000E+00

     total cpu time spent up to now is      226.6 secs

     total energy              =    -489.75795058 Ry
     estimated scf accuracy    <       0.00015799 Ry

     iteration # 17     ecut=   150.00 Ry     beta= 0.70
     Davidson diagonalization with overlap
     ethr =  1.72E-07,  avg # of iterations =  2.0

     negative rho (up, down):  1.203E-04 0.000E+00

     total cpu time spent up to now is      236.9 secs

     total energy              =    -489.75791635 Ry
     estimated scf accuracy    <       0.00011766 Ry

     iteration # 18     ecut=   150.00 Ry     beta= 0.70
     Davidson diagonalization with overlap
     ethr =  1.72E-07,  avg # of iterations =  5.1

     negative rho (up, down):  1.204E-04 0.000E+00

     total cpu time spent up to now is      252.4 secs

     total energy              =    -489.75791380 Ry
     estimated scf accuracy    <       0.00011130 Ry

     iteration # 19     ecut=   150.00 Ry     beta= 0.70
     Davidson diagonalization with overlap
     ethr =  1.72E-07,  avg # of iterations =  4.9

     negative rho (up, down):  1.204E-04 0.000E+00

     total cpu time spent up to now is      267.1 secs

     total energy              =    -489.75794192 Ry
     estimated scf accuracy    <       0.00001685 Ry

     iteration # 20     ecut=   150.00 Ry     beta= 0.70
     Davidson diagonalization with overlap
     ethr =  6.48E-08,  avg # of iterations =  1.1

     negative rho (up, down):  1.204E-04 0.000E+00

     total cpu time spent up to now is      276.4 secs

     total energy              =    -489.75794174 Ry
     estimated scf accuracy    <       0.00001238 Ry

     iteration # 21     ecut=   150.00 Ry     beta= 0.70
     Davidson diagonalization with overlap
     ethr =  4.76E-08,  avg # of iterations =  1.0

     negative rho (up, down):  1.205E-04 0.000E+00

     total cpu time spent up to now is      285.7 secs

     total energy              =    -489.75794001 Ry
     estimated scf accuracy    <       0.00001050 Ry

     iteration # 22     ecut=   150.00 Ry     beta= 0.70
     Davidson diagonalization with overlap
     ethr =  4.04E-08,  avg # of iterations =  2.9

     negative rho (up, down):  1.204E-04 0.000E+00

     total cpu time spent up to now is      296.3 secs

     total energy              =    -489.75794135 Ry
     estimated scf accuracy    <       0.00000218 Ry

     iteration # 23     ecut=   150.00 Ry     beta= 0.70
     Davidson diagonalization with overlap
     ethr =  8.37E-09,  avg # of iterations =  2.5

     negative rho (up, down):  1.204E-04 0.000E+00

     total cpu time spent up to now is      306.9 secs

     total energy              =    -489.75794165 Ry
     estimated scf accuracy    <       0.00000393 Ry

     iteration # 24     ecut=   150.00 Ry     beta= 0.70
     Davidson diagonalization with overlap
     ethr =  8.37E-09,  avg # of iterations =  2.1

     negative rho (up, down):  1.204E-04 0.000E+00

     total cpu time spent up to now is      317.0 secs

     total energy              =    -489.75794089 Ry
     estimated scf accuracy    <       0.00000523 Ry

     iteration # 25     ecut=   150.00 Ry     beta= 0.70
     Davidson diagonalization with overlap
     ethr =  8.37E-09,  avg # of iterations =  2.7

     negative rho (up, down):  1.204E-04 0.000E+00

     total cpu time spent up to now is      327.9 secs

     total energy              =    -489.75794034 Ry
     estimated scf accuracy    <       0.00000209 Ry

     iteration # 26     ecut=   150.00 Ry     beta= 0.70
     Davidson diagonalization with overlap
     ethr =  8.03E-09,  avg # of iterations =  4.2

     negative rho (up, down):  1.204E-04 0.000E+00

     total cpu time spent up to now is      340.9 secs

     total energy              =    -489.75794098 Ry
     estimated scf accuracy    <       0.00000033 Ry

     iteration # 27     ecut=   150.00 Ry     beta= 0.70
     Davidson diagonalization with overlap
     ethr =  1.27E-09,  avg # of iterations =  2.3

     negative rho (up, down):  1.204E-04 0.000E+00

     total cpu time spent up to now is      351.3 secs

     total energy              =    -489.75794093 Ry
     estimated scf accuracy    <       0.00000038 Ry

     iteration # 28     ecut=   150.00 Ry     beta= 0.70
     Davidson diagonalization with overlap
     ethr =  1.27E-09,  avg # of iterations =  1.6

     negative rho (up, down):  1.204E-04 0.000E+00

     total cpu time spent up to now is      361.0 secs

     total energy              =    -489.75794090 Ry
     estimated scf accuracy    <       0.00000018 Ry

     iteration # 29     ecut=   150.00 Ry     beta= 0.70
     Davidson diagonalization with overlap
     ethr =  6.96E-10,  avg # of iterations =  3.7

     negative rho (up, down):  1.204E-04 0.000E+00

     total cpu time spent up to now is      372.9 secs

     total energy              =    -489.75794093 Ry
     estimated scf accuracy    <          1.3E-09 Ry

     iteration # 30     ecut=   150.00 Ry     beta= 0.70
     Davidson diagonalization with overlap
     ethr =  4.96E-12,  avg # of iterations =  8.5

     negative rho (up, down):  1.204E-04 0.000E+00

     total cpu time spent up to now is      397.6 secs

     total energy              =    -489.75794093 Ry
     estimated scf accuracy    <       0.00000003 Ry

     iteration # 31     ecut=   150.00 Ry     beta= 0.70
     Davidson diagonalization with overlap
     ethr =  4.96E-12,  avg # of iterations =  6.1

     negative rho (up, down):  1.204E-04 0.000E+00

     total cpu time spent up to now is      416.3 secs

     total energy              =    -489.75794093 Ry
     estimated scf accuracy    <          1.0E-10 Ry

     iteration # 32     ecut=   150.00 Ry     beta= 0.70
     Davidson diagonalization with overlap
     ethr =  3.86E-13,  avg # of iterations =  5.4

     negative rho (up, down):  1.204E-04 0.000E+00

     total cpu time spent up to now is      433.1 secs

     total energy              =    -489.75794093 Ry
     estimated scf accuracy    <          1.4E-09 Ry

     iteration # 33     ecut=   150.00 Ry     beta= 0.70
     Davidson diagonalization with overlap
     ethr =  3.86E-13,  avg # of iterations =  6.9

     negative rho (up, down):  1.204E-04 0.000E+00

     total cpu time spent up to now is      452.6 secs

     total energy              =    -489.75794093 Ry
     estimated scf accuracy    <          8.1E-09 Ry

     iteration # 34     ecut=   150.00 Ry     beta= 0.70
     Davidson diagonalization with overlap
     ethr =  3.86E-13,  avg # of iterations =  1.4

     negative rho (up, down):  1.204E-04 0.000E+00

     total cpu time spent up to now is      462.1 secs

     total energy              =    -489.75794093 Ry
     estimated scf accuracy    <          8.6E-09 Ry

     iteration # 35     ecut=   150.00 Ry     beta= 0.70
     Davidson diagonalization with overlap
     ethr =  3.86E-13,  avg # of iterations =  6.1

     negative rho (up, down):  1.204E-04 0.000E+00

     total cpu time spent up to now is      479.3 secs

     total energy              =    -489.75794093 Ry
     estimated scf accuracy    <       0.00000002 Ry

     iteration # 36     ecut=   150.00 Ry     beta= 0.70
     Davidson diagonalization with overlap
     ethr =  3.86E-13,  avg # of iterations =  8.3

     negative rho (up, down):  1.204E-04 0.000E+00

     total cpu time spent up to now is      502.5 secs

     total energy              =    -489.75794093 Ry
     estimated scf accuracy    <          1.0E-09 Ry

     iteration # 37     ecut=   150.00 Ry     beta= 0.70
     Davidson diagonalization with overlap
     ethr =  3.86E-13,  avg # of iterations =  2.7

     negative rho (up, down):  1.204E-04 0.000E+00

     total cpu time spent up to now is      513.7 secs

     total energy              =    -489.75794093 Ry
     estimated scf accuracy    <          6.1E-10 Ry

     iteration # 38     ecut=   150.00 Ry     beta= 0.70
     Davidson diagonalization with overlap
     ethr =  3.86E-13,  avg # of iterations =  4.0

     negative rho (up, down):  1.204E-04 0.000E+00

     total cpu time spent up to now is      526.6 secs

     total energy              =    -489.75794093 Ry
     estimated scf accuracy    <          3.4E-10 Ry

     iteration # 39     ecut=   150.00 Ry     beta= 0.70
     Davidson diagonalization with overlap
     ethr =  3.86E-13,  avg # of iterations =  4.7

     negative rho (up, down):  1.204E-04 0.000E+00

     total cpu time spent up to now is      541.0 secs

     total energy              =    -489.75794093 Ry
     estimated scf accuracy    <          2.7E-11 Ry

     iteration # 40     ecut=   150.00 Ry     beta= 0.70
     Davidson diagonalization with overlap
     ethr =  1.05E-13,  avg # of iterations =  2.4

     negative rho (up, down):  1.204E-04 0.000E+00

     total cpu time spent up to now is      551.7 secs

     total energy              =    -489.75794093 Ry
     estimated scf accuracy    <          1.4E-11 Ry

     iteration # 41     ecut=   150.00 Ry     beta= 0.70
     Davidson diagonalization with overlap
     ethr =  1.00E-13,  avg # of iterations =  3.3

     negative rho (up, down):  1.204E-04 0.000E+00

     total cpu time spent up to now is      563.4 secs

     total energy              =    -489.75794093 Ry
     estimated scf accuracy    <          1.1E-12 Ry

     iteration # 42     ecut=   150.00 Ry     beta= 0.70
     Davidson diagonalization with overlap
     ethr =  1.00E-13,  avg # of iterations =  1.0

     negative rho (up, down):  1.204E-04 0.000E+00

     total cpu time spent up to now is      572.7 secs

     total energy              =    -489.75794093 Ry
     estimated scf accuracy    <          1.6E-12 Ry

     iteration # 43     ecut=   150.00 Ry     beta= 0.70
     Davidson diagonalization with overlap
     ethr =  1.00E-13,  avg # of iterations =  1.0

     negative rho (up, down):  1.204E-04 0.000E+00

     total cpu time spent up to now is      582.0 secs

     End of self-consistent calculation

     Number of k-points >= 100: set verbosity='high' to print the bands.

     highest occupied level (ev):     0.3813

!    total energy              =    -489.75794093 Ry

     total all-electron energy =     -9688.215786 Ry
     estimated scf accuracy    <          7.5E-13 Ry

     The total energy is the sum of the following terms:
     one-electron contribution =    -814.08179914 Ry
     hartree contribution      =     410.86809598 Ry
     xc contribution           =     -29.52724285 Ry
     ewald contribution        =     255.87269165 Ry
     one-center paw contrib.   =    -312.88968657 Ry

     convergence has been achieved in  43 iterations

     negative rho (up, down):  1.204E-04 0.000E+00

     Forces acting on atoms (cartesian axes, Ry/au):

     atom    1 type  1   force =     0.00026963    0.00012870   -0.00000092
     atom    2 type  2   force =    -0.00013482   -0.00006435    0.00033675
     atom    3 type  2   force =    -0.00013481   -0.00006435   -0.00033583

     Total force =     0.000600     Total SCF correction =     0.000005


     Computing stress (Cartesian axis) and pressure


     negative rho (up, down):  1.204E-04 0.000E+00
          total   stress  (Ry/bohr**3)                   (kbar)     P=        1.22
   0.00001323  -0.00000086  -0.00000000            1.95       -0.13       -0.00
  -0.00000086   0.00001008  -0.00000000           -0.13        1.48       -0.00
  -0.00000000  -0.00000000   0.00000166           -0.00       -0.00        0.24


     Writing output data file /scratch/as3359/Mos2_ct_lat/MoS2.save/
 
     init_run     :     18.00s CPU     10.02s WALL (       1 calls)
     electrons    :   1121.90s CPU    571.84s WALL (       1 calls)
     forces       :      4.96s CPU      2.52s WALL (       1 calls)
     stress       :     16.14s CPU      8.20s WALL (       1 calls)

     Called by init_run:
     wfcinit      :     11.47s CPU      5.89s WALL (       1 calls)
     potinit      :      2.11s CPU      1.18s WALL (       1 calls)
     hinit0       :      3.64s CPU      2.52s WALL (       1 calls)

     Called by electrons:
     c_bands      :    933.23s CPU    473.27s WALL (      43 calls)
     sum_band     :    162.09s CPU     83.40s WALL (      43 calls)
     v_of_rho     :      5.91s CPU      3.26s WALL (      44 calls)
     newd         :     10.34s CPU      6.37s WALL (      44 calls)
     PAW_pot      :      8.35s CPU      4.31s WALL (      44 calls)
     mix_rho      :      2.33s CPU      1.39s WALL (      43 calls)

     Called by c_bands:
     init_us_2    :     33.14s CPU     16.63s WALL (   10057 calls)
     cegterg      :    873.70s CPU    443.20s WALL (    4859 calls)

     Called by *egterg:
     cdiaghg      :      8.21s CPU      4.17s WALL (   22928 calls)
     h_psi        :    751.80s CPU    381.90s WALL (   23041 calls)
     s_psi        :     17.52s CPU      8.82s WALL (   23041 calls)
     g_psi        :      7.50s CPU      3.78s WALL (   18069 calls)

     Called by h_psi:
     h_psi:calbec :     26.67s CPU     13.45s WALL (   23041 calls)
     vloc_psi     :    699.19s CPU    355.39s WALL (   23041 calls)
     add_vuspsi   :     19.39s CPU      9.76s WALL (   23041 calls)

     General routines
     calbec       :     34.29s CPU     17.30s WALL (   28465 calls)
     fft          :      2.83s CPU      1.62s WALL (     509 calls)
     ffts         :      0.15s CPU      0.08s WALL (      43 calls)
     fftw         :    685.96s CPU    349.11s WALL (  449539 calls)
 
     Parallel routines
 
     PWSCF        :  19m24.05s CPU   9m55.48s WALL

 
   This run was terminated on:  14:59:37  17Apr2022            

=------------------------------------------------------------------------------=
   JOB DONE.
=------------------------------------------------------------------------------=
