
     Program PWSCF v.6.8 starts on  8Apr2022 at 15: 2:44 

     This program is part of the open-source Quantum ESPRESSO suite
     for quantum simulation of materials; please cite
         "P. Giannozzi et al., J. Phys.:Condens. Matter 21 395502 (2009);
         "P. Giannozzi et al., J. Phys.:Condens. Matter 29 465901 (2017);
         "P. Giannozzi et al., J. Chem. Phys. 152 154105 (2020);
          URL http://www.quantum-espresso.org", 
     in publications or presentations arising from this work. More details at
     http://www.quantum-espresso.org/quote

     Parallel version (MPI & OpenMP), running on       4 processor cores
     Number of MPI processes:                 2
     Threads/MPI process:                     2

     MPI processes distributed on     1 nodes
     R & G space division:  proc/nbgrp/npool/nimage =       2
     125195 MiB available memory on the printing compute node when the environment starts
 
     Reading input from MoS2.scf.6.400.in
Warning: card  &CELL ignored
Warning: card     CELL_DYNAMICS='BFGS' ignored
Warning: card  / ignored

     Current dimensions of program PWSCF are:
     Max number of different atomic species (ntypx) = 10
     Max number of k-points (npk) =  40000
     Max angular momentum in pseudopotentials (lmaxx) =  4
     Message from routine iosys:
     restart disabled: needed files not found
     file Mo.pbesol-spn-kjpaw_psl.1.0.0.UPF: wavefunction(s)  4S 4D renormalized
     file S.pbesol-nl-kjpaw_psl.1.0.0.UPF: wavefunction(s)  3S renormalized

     Subspace diagonalization in iterative solution of the eigenvalue problem:
     a serial algorithm will be used

 
     Parallelization info
     --------------------
     sticks:   dense  smooth     PW     G-vecs:    dense   smooth      PW
     Min         813     813    235               134519   134519   20932
     Max         814     814    236               134528   134528   20933
     Sum        1627    1627    471               269047   269047   41865
 
     Using Slab Decomposition
 


     bravais-lattice index     =            0
     lattice parameter (alat)  =       6.4000  a.u.
     unit-cell volume          =    1082.9097 (a.u.)^3
     number of atoms/cell      =            3
     number of atomic types    =            2
     number of electrons       =        26.00
     number of Kohn-Sham states=           13
     kinetic-energy cutoff     =     150.0000  Ry
     charge density cutoff     =     600.0000  Ry
     scf convergence threshold =      1.0E-12
     mixing beta               =       0.7000
     number of iterations used =            8  plain     mixing
     Exchange-correlation= SLA  PW   PSX  PSC
                           (   1   4  10   8   0   0   0)

     celldm(1)=   6.400000  celldm(2)=   0.000000  celldm(3)=   0.000000
     celldm(4)=   0.000000  celldm(5)=   0.000000  celldm(6)=   0.000000

     crystal axes: (cart. coord. in units of alat)
               a(1) = (   0.976384  -0.000017   0.000000 )  
               a(2) = (  -0.487931   0.846187   0.000000 )  
               a(3) = (   0.000000   0.000000   5.000000 )  

     reciprocal axes: (cart. coord. in units 2 pi/alat)
               b(1) = (  1.024198  0.590577  0.000000 )  
               b(2) = (  0.000021  1.181785  0.000000 )  
               b(3) = (  0.000000  0.000000  0.200000 )  


     PseudoPot. # 1 for Mo read from file:
     /shared/home/as3359/pseudo/Mo.pbesol-spn-kjpaw_psl.1.0.0.UPF
     MD5 check sum: de57925cfc675213e43241dcc441eda8
     Pseudo is Projector augmented-wave + core cor, Zval = 14.0
     Generated using &quot;atomic&quot; code by A. Dal Corso  v.6.3
     Shape of augmentation charge: PSQ
     Using radial grid of 1229 points,  6 beta functions with: 
                l(1) =   0
                l(2) =   0
                l(3) =   1
                l(4) =   1
                l(5) =   2
                l(6) =   2
     Q(r) pseudized with 0 coefficients 


     PseudoPot. # 2 for S  read from file:
     /shared/home/as3359/pseudo/S.pbesol-nl-kjpaw_psl.1.0.0.UPF
     MD5 check sum: bf3db50ec3f960682bbc396f1aadd1dd
     Pseudo is Projector augmented-wave + core cor, Zval =  6.0
     Generated using &quot;atomic&quot; code by A. Dal Corso  v.6.3
     Shape of augmentation charge: PSQ
     Using radial grid of 1151 points,  4 beta functions with: 
                l(1) =   0
                l(2) =   0
                l(3) =   1
                l(4) =   1
     Q(r) pseudized with 0 coefficients 


     atomic species   valence    mass     pseudopotential
        Mo            14.00    95.94000     Mo( 1.00)
        S              6.00    32.06500     S ( 1.00)

     No symmetry found



   Cartesian axes

     site n.     atom                  positions (alat units)
         1           Mo  tau(   1) = (   0.0000000   0.0000000   1.6880765  )
         2           S   tau(   2) = (   0.4883508   0.2821722   2.1737857  )
         3           S   tau(   3) = (   0.4883508   0.2821722   1.2023670  )

     number of k points=   113

     Number of k-points >= 100: set verbosity='high' to print them.

     Dense  grid:   269047 G-vectors     FFT dimensions: (  50,  50, 250)

     Estimated max dynamical RAM per process >     886.58 MB

     Estimated total dynamical RAM >       1.73 GB
     Cannot read rho : file not found

     Initial potential from superposition of free atoms

     starting charge   25.99914, renormalised to   26.00000

     negative rho (up, down):  1.049E-04 0.000E+00
     Message from routine qexsd_readschema :
     xml data file /scratch/as3359/Mos2_ct_lat/MoS2.save/data-file-schema.xml not fou
     Cannot read wfcs: file not found
     Starting wfcs are   18 randomized atomic wfcs
     Checking if some PAW data can be deallocated... 

     total cpu time spent up to now is       12.2 secs

     Self-consistent Calculation

     iteration #  1     ecut=   150.00 Ry     beta= 0.70
     Davidson diagonalization with overlap
     ethr =  1.00E-05,  avg # of iterations = 10.2

     negative rho (up, down):  1.384E-04 0.000E+00

     total cpu time spent up to now is       57.6 secs

     total energy              =    -489.68566802 Ry
     estimated scf accuracy    <       0.08968473 Ry

     iteration #  2     ecut=   150.00 Ry     beta= 0.70
     Davidson diagonalization with overlap
     ethr =  3.45E-04,  avg # of iterations =  3.0

     negative rho (up, down):  1.366E-04 0.000E+00

     total cpu time spent up to now is       76.9 secs

     total energy              =    -489.70052097 Ry
     estimated scf accuracy    <       0.06190546 Ry

     iteration #  3     ecut=   150.00 Ry     beta= 0.70
     Davidson diagonalization with overlap
     ethr =  2.38E-04,  avg # of iterations =  4.6

     negative rho (up, down):  1.380E-04 0.000E+00

     total cpu time spent up to now is       98.2 secs

     total energy              =    -489.70921677 Ry
     estimated scf accuracy    <       0.05351713 Ry

     iteration #  4     ecut=   150.00 Ry     beta= 0.70
     Davidson diagonalization with overlap
     ethr =  2.06E-04,  avg # of iterations =  3.2

     negative rho (up, down):  1.403E-04 0.000E+00

     total cpu time spent up to now is      115.7 secs

     total energy              =    -489.71527083 Ry
     estimated scf accuracy    <       0.00164031 Ry

     iteration #  5     ecut=   150.00 Ry     beta= 0.70
     Davidson diagonalization with overlap
     ethr =  6.31E-06,  avg # of iterations =  6.5

     negative rho (up, down):  1.412E-04 0.000E+00

     total cpu time spent up to now is      145.7 secs

     total energy              =    -489.71673425 Ry
     estimated scf accuracy    <       0.01527726 Ry

     iteration #  6     ecut=   150.00 Ry     beta= 0.70
     Davidson diagonalization with overlap
     ethr =  6.31E-06,  avg # of iterations =  4.1

     negative rho (up, down):  1.426E-04 0.000E+00

     total cpu time spent up to now is      166.0 secs

     total energy              =    -489.71655119 Ry
     estimated scf accuracy    <       0.00336348 Ry

     iteration #  7     ecut=   150.00 Ry     beta= 0.70
     Davidson diagonalization with overlap
     ethr =  6.31E-06,  avg # of iterations =  4.7

     negative rho (up, down):  1.430E-04 0.000E+00

     total cpu time spent up to now is      188.2 secs

     total energy              =    -489.71724129 Ry
     estimated scf accuracy    <       0.00005062 Ry

     iteration #  8     ecut=   150.00 Ry     beta= 0.70
     Davidson diagonalization with overlap
     ethr =  1.95E-07,  avg # of iterations =  7.0

     negative rho (up, down):  1.434E-04 0.000E+00

     total cpu time spent up to now is      217.6 secs

     total energy              =    -489.71723146 Ry
     estimated scf accuracy    <       0.00070338 Ry

     iteration #  9     ecut=   150.00 Ry     beta= 0.70
     Davidson diagonalization with overlap
     ethr =  1.95E-07,  avg # of iterations =  5.0

     negative rho (up, down):  1.436E-04 0.000E+00

     total cpu time spent up to now is      239.6 secs

     total energy              =    -489.71721025 Ry
     estimated scf accuracy    <       0.00016373 Ry

     iteration # 10     ecut=   150.00 Ry     beta= 0.70
     Davidson diagonalization with overlap
     ethr =  1.95E-07,  avg # of iterations =  6.0

     negative rho (up, down):  1.437E-04 0.000E+00

     total cpu time spent up to now is      264.0 secs

     total energy              =    -489.71724698 Ry
     estimated scf accuracy    <       0.00001840 Ry

     iteration # 11     ecut=   150.00 Ry     beta= 0.70
     Davidson diagonalization with overlap
     ethr =  7.08E-08,  avg # of iterations =  1.8

     negative rho (up, down):  1.437E-04 0.000E+00

     total cpu time spent up to now is      279.1 secs

     total energy              =    -489.71724538 Ry
     estimated scf accuracy    <       0.00000819 Ry

     iteration # 12     ecut=   150.00 Ry     beta= 0.70
     Davidson diagonalization with overlap
     ethr =  3.15E-08,  avg # of iterations =  4.4

     negative rho (up, down):  1.437E-04 0.000E+00

     total cpu time spent up to now is      298.7 secs

     total energy              =    -489.71724729 Ry
     estimated scf accuracy    <       0.00000042 Ry

     iteration # 13     ecut=   150.00 Ry     beta= 0.70
     Davidson diagonalization with overlap
     ethr =  1.60E-09,  avg # of iterations =  6.5

     negative rho (up, down):  1.437E-04 0.000E+00

     total cpu time spent up to now is      323.4 secs

     total energy              =    -489.71724760 Ry
     estimated scf accuracy    <       0.00000076 Ry

     iteration # 14     ecut=   150.00 Ry     beta= 0.70
     Davidson diagonalization with overlap
     ethr =  1.60E-09,  avg # of iterations =  1.0

     negative rho (up, down):  1.437E-04 0.000E+00

     total cpu time spent up to now is      337.4 secs

     total energy              =    -489.71724753 Ry
     estimated scf accuracy    <       0.00000067 Ry

     iteration # 15     ecut=   150.00 Ry     beta= 0.70
     Davidson diagonalization with overlap
     ethr =  1.60E-09,  avg # of iterations =  1.3

     negative rho (up, down):  1.437E-04 0.000E+00

     total cpu time spent up to now is      351.7 secs

     total energy              =    -489.71724751 Ry
     estimated scf accuracy    <       0.00000037 Ry

     iteration # 16     ecut=   150.00 Ry     beta= 0.70
     Davidson diagonalization with overlap
     ethr =  1.42E-09,  avg # of iterations =  1.2

     negative rho (up, down):  1.437E-04 0.000E+00

     total cpu time spent up to now is      366.0 secs

     total energy              =    -489.71724748 Ry
     estimated scf accuracy    <       0.00000023 Ry

     iteration # 17     ecut=   150.00 Ry     beta= 0.70
     Davidson diagonalization with overlap
     ethr =  9.03E-10,  avg # of iterations =  4.1

     negative rho (up, down):  1.437E-04 0.000E+00

     total cpu time spent up to now is      384.7 secs

     total energy              =    -489.71724752 Ry
     estimated scf accuracy    <          1.8E-09 Ry

     iteration # 18     ecut=   150.00 Ry     beta= 0.70
     Davidson diagonalization with overlap
     ethr =  6.93E-12,  avg # of iterations =  7.3

     negative rho (up, down):  1.437E-04 0.000E+00

     total cpu time spent up to now is      416.5 secs

     total energy              =    -489.71724753 Ry
     estimated scf accuracy    <          2.0E-09 Ry

     iteration # 19     ecut=   150.00 Ry     beta= 0.70
     Davidson diagonalization with overlap
     ethr =  6.93E-12,  avg # of iterations =  2.4

     negative rho (up, down):  1.437E-04 0.000E+00

     total cpu time spent up to now is      433.5 secs

     total energy              =    -489.71724753 Ry
     estimated scf accuracy    <          2.3E-09 Ry

     iteration # 20     ecut=   150.00 Ry     beta= 0.70
     Davidson diagonalization with overlap
     ethr =  6.93E-12,  avg # of iterations =  6.0

     negative rho (up, down):  1.437E-04 0.000E+00

     total cpu time spent up to now is      459.2 secs

     total energy              =    -489.71724753 Ry
     estimated scf accuracy    <       0.00000002 Ry

     iteration # 21     ecut=   150.00 Ry     beta= 0.70
     Davidson diagonalization with overlap
     ethr =  6.93E-12,  avg # of iterations =  5.4

     negative rho (up, down):  1.437E-04 0.000E+00

     total cpu time spent up to now is      481.5 secs

     total energy              =    -489.71724753 Ry
     estimated scf accuracy    <          3.4E-09 Ry

     iteration # 22     ecut=   150.00 Ry     beta= 0.70
     Davidson diagonalization with overlap
     ethr =  6.93E-12,  avg # of iterations =  7.6

     negative rho (up, down):  1.437E-04 0.000E+00

     total cpu time spent up to now is      514.5 secs

     total energy              =    -489.71724754 Ry
     estimated scf accuracy    <       0.00000005 Ry

     iteration # 23     ecut=   150.00 Ry     beta= 0.70
     Davidson diagonalization with overlap
     ethr =  6.93E-12,  avg # of iterations =  6.2

     negative rho (up, down):  1.437E-04 0.000E+00

     total cpu time spent up to now is      542.4 secs

     total energy              =    -489.71724756 Ry
     estimated scf accuracy    <       0.00000015 Ry

     iteration # 24     ecut=   150.00 Ry     beta= 0.70
     Davidson diagonalization with overlap
     ethr =  6.93E-12,  avg # of iterations =  6.0

     negative rho (up, down):  1.437E-04 0.000E+00

     total cpu time spent up to now is      568.8 secs

     total energy              =    -489.71724753 Ry
     estimated scf accuracy    <       0.00000029 Ry

     iteration # 25     ecut=   150.00 Ry     beta= 0.70
     Davidson diagonalization with overlap
     ethr =  6.93E-12,  avg # of iterations =  7.6

     negative rho (up, down):  1.437E-04 0.000E+00

     total cpu time spent up to now is      600.8 secs

     total energy              =    -489.71724753 Ry
     estimated scf accuracy    <       0.00000008 Ry

     iteration # 26     ecut=   150.00 Ry     beta= 0.70
     Davidson diagonalization with overlap
     ethr =  6.93E-12,  avg # of iterations =  6.0

     negative rho (up, down):  1.437E-04 0.000E+00

     total cpu time spent up to now is      627.0 secs

     total energy              =    -489.71724752 Ry
     estimated scf accuracy    <       0.00000002 Ry

     iteration # 27     ecut=   150.00 Ry     beta= 0.70
     Davidson diagonalization with overlap
     ethr =  6.93E-12,  avg # of iterations =  6.1

     negative rho (up, down):  1.437E-04 0.000E+00

     total cpu time spent up to now is      654.6 secs

     total energy              =    -489.71724753 Ry
     estimated scf accuracy    <          5.2E-10 Ry

     iteration # 28     ecut=   150.00 Ry     beta= 0.70
     Davidson diagonalization with overlap
     ethr =  2.00E-12,  avg # of iterations =  1.4

     negative rho (up, down):  1.437E-04 0.000E+00

     total cpu time spent up to now is      669.0 secs

     total energy              =    -489.71724753 Ry
     estimated scf accuracy    <          3.2E-10 Ry

     iteration # 29     ecut=   150.00 Ry     beta= 0.70
     Davidson diagonalization with overlap
     ethr =  1.23E-12,  avg # of iterations =  3.2

     negative rho (up, down):  1.437E-04 0.000E+00

     total cpu time spent up to now is      686.1 secs

     total energy              =    -489.71724753 Ry
     estimated scf accuracy    <          3.1E-11 Ry

     iteration # 30     ecut=   150.00 Ry     beta= 0.70
     Davidson diagonalization with overlap
     ethr =  1.19E-13,  avg # of iterations =  5.5

     negative rho (up, down):  1.437E-04 0.000E+00

     total cpu time spent up to now is      710.0 secs

     total energy              =    -489.71724753 Ry
     estimated scf accuracy    <          1.4E-11 Ry

     iteration # 31     ecut=   150.00 Ry     beta= 0.70
     Davidson diagonalization with overlap
     ethr =  1.00E-13,  avg # of iterations =  1.1

     negative rho (up, down):  1.437E-04 0.000E+00

     total cpu time spent up to now is      724.0 secs

     total energy              =    -489.71724753 Ry
     estimated scf accuracy    <          7.6E-12 Ry

     iteration # 32     ecut=   150.00 Ry     beta= 0.70
     Davidson diagonalization with overlap
     ethr =  1.00E-13,  avg # of iterations =  4.3

     negative rho (up, down):  1.437E-04 0.000E+00

     total cpu time spent up to now is      743.8 secs

     total energy              =    -489.71724753 Ry
     estimated scf accuracy    <          1.7E-11 Ry

     iteration # 33     ecut=   150.00 Ry     beta= 0.70
     Davidson diagonalization with overlap
     ethr =  1.00E-13,  avg # of iterations =  1.0

     negative rho (up, down):  1.437E-04 0.000E+00

     total cpu time spent up to now is      757.9 secs

     total energy              =    -489.71724753 Ry
     estimated scf accuracy    <          1.1E-11 Ry

     iteration # 34     ecut=   150.00 Ry     beta= 0.70
     Davidson diagonalization with overlap
     ethr =  1.00E-13,  avg # of iterations =  1.0

     negative rho (up, down):  1.437E-04 0.000E+00

     total cpu time spent up to now is      771.9 secs

     total energy              =    -489.71724753 Ry
     estimated scf accuracy    <          5.8E-12 Ry

     iteration # 35     ecut=   150.00 Ry     beta= 0.70
     Davidson diagonalization with overlap
     ethr =  1.00E-13,  avg # of iterations =  1.3

     negative rho (up, down):  1.437E-04 0.000E+00

     total cpu time spent up to now is      786.3 secs

     total energy              =    -489.71724753 Ry
     estimated scf accuracy    <          1.6E-12 Ry

     iteration # 36     ecut=   150.00 Ry     beta= 0.70
     Davidson diagonalization with overlap
     ethr =  1.00E-13,  avg # of iterations =  1.0

     negative rho (up, down):  1.437E-04 0.000E+00

     total cpu time spent up to now is      800.2 secs

     End of self-consistent calculation

     Number of k-points >= 100: set verbosity='high' to print the bands.

     highest occupied level (ev):    -0.5270

!    total energy              =    -489.71724753 Ry

     total all-electron energy =     -9688.175093 Ry
     estimated scf accuracy    <          9.3E-13 Ry

     The total energy is the sum of the following terms:
     one-electron contribution =    -786.52465437 Ry
     hartree contribution      =     396.14835955 Ry
     xc contribution           =     -29.15998726 Ry
     ewald contribution        =     242.67925598 Ry
     one-center paw contrib.   =    -312.86022143 Ry

     convergence has been achieved in  36 iterations

     negative rho (up, down):  1.437E-04 0.000E+00

     Forces acting on atoms (cartesian axes, Ry/au):

     atom    1 type  1   force =     0.00013404    0.00018984    0.00000145
     atom    2 type  2   force =    -0.00006702   -0.00009493   -0.08406816
     atom    3 type  2   force =    -0.00006702   -0.00009491    0.08406671

     Total force =     0.118890     Total SCF correction =     0.000002


     Computing stress (Cartesian axis) and pressure


     negative rho (up, down):  1.437E-04 0.000E+00
          total   stress  (Ry/bohr**3)                   (kbar)     P=      -66.18
  -0.00043219  -0.00000047   0.00000000          -63.58       -0.07        0.00
  -0.00000047  -0.00043440   0.00000000           -0.07      -63.90        0.00
   0.00000000   0.00000000  -0.00048305            0.00        0.00      -71.06


     Writing output data file /scratch/as3359/Mos2_ct_lat/MoS2.save/
 
     init_run     :     22.27s CPU     12.10s WALL (       1 calls)
     electrons    :   1549.52s CPU    787.97s WALL (       1 calls)
     forces       :      6.32s CPU      3.23s WALL (       1 calls)
     stress       :     20.25s CPU     10.37s WALL (       1 calls)

     Called by init_run:
     wfcinit      :     16.29s CPU      8.34s WALL (       1 calls)
     potinit      :      1.72s CPU      0.88s WALL (       1 calls)
     hinit0       :      3.47s CPU      2.44s WALL (       1 calls)

     Called by electrons:
     c_bands      :   1325.80s CPU    670.56s WALL (      36 calls)
     sum_band     :    195.23s CPU    100.54s WALL (      36 calls)
     v_of_rho     :      6.66s CPU      3.65s WALL (      37 calls)
     newd         :     12.06s CPU      7.90s WALL (      37 calls)
     PAW_pot      :      6.97s CPU      3.64s WALL (      37 calls)
     mix_rho      :      3.11s CPU      1.85s WALL (      36 calls)

     Called by c_bands:
     init_us_2    :     40.12s CPU     20.10s WALL (    8475 calls)
     cegterg      :   1260.66s CPU    637.64s WALL (    4068 calls)

     Called by *egterg:
     cdiaghg      :      8.77s CPU      4.46s WALL (   21580 calls)
     h_psi        :   1082.81s CPU    548.24s WALL (   21693 calls)
     s_psi        :     38.00s CPU     19.06s WALL (   21693 calls)
     g_psi        :      8.09s CPU      4.07s WALL (   17512 calls)

     Called by h_psi:
     h_psi:calbec :     32.16s CPU     16.19s WALL (   21693 calls)
     vloc_psi     :    993.31s CPU    503.22s WALL (   21693 calls)
     add_vuspsi   :     49.15s CPU     24.66s WALL (   21693 calls)

     General routines
     calbec       :     40.35s CPU     20.32s WALL (   26326 calls)
     fft          :      3.29s CPU      1.68s WALL (     432 calls)
     ffts         :      0.22s CPU      0.12s WALL (      36 calls)
     fftw         :    977.52s CPU    495.71s WALL (  403332 calls)
 
     Parallel routines
 
     PWSCF        :  26m40.92s CPU  13m35.93s WALL

 
   This run was terminated on:  15:16:20   8Apr2022            

=------------------------------------------------------------------------------=
   JOB DONE.
=------------------------------------------------------------------------------=
