
     Program PWSCF v.6.8 starts on 17Apr2022 at 14:25:42 

     This program is part of the open-source Quantum ESPRESSO suite
     for quantum simulation of materials; please cite
         "P. Giannozzi et al., J. Phys.:Condens. Matter 21 395502 (2009);
         "P. Giannozzi et al., J. Phys.:Condens. Matter 29 465901 (2017);
         "P. Giannozzi et al., J. Chem. Phys. 152 154105 (2020);
          URL http://www.quantum-espresso.org", 
     in publications or presentations arising from this work. More details at
     http://www.quantum-espresso.org/quote

     Parallel version (MPI & OpenMP), running on       4 processor cores
     Number of MPI processes:                 2
     Threads/MPI process:                     2

     MPI processes distributed on     1 nodes
     R & G space division:  proc/nbgrp/npool/nimage =       2
     125221 MiB available memory on the printing compute node when the environment starts
 
     Reading input from MoS2.scf.6.064.in
Warning: card  &CELL ignored
Warning: card     CELL_DYNAMICS='BFGS' ignored
Warning: card  / ignored

     Current dimensions of program PWSCF are:
     Max number of different atomic species (ntypx) = 10
     Max number of k-points (npk) =  40000
     Max angular momentum in pseudopotentials (lmaxx) =  4
     Message from routine iosys:
     restart disabled: needed files not found
     file Mo.pbesol-spn-kjpaw_psl.1.0.0.UPF: wavefunction(s)  4S 4D renormalized
     file S.pbesol-nl-kjpaw_psl.1.0.0.UPF: wavefunction(s)  3S renormalized

     Subspace diagonalization in iterative solution of the eigenvalue problem:
     a serial algorithm will be used

 
     Parallelization info
     --------------------
     sticks:   dense  smooth     PW     G-vecs:    dense   smooth      PW
     Min         727     727    210               114163   114163   18040
     Max         728     728    211               114168   114168   18063
     Sum        1455    1455    421               228331   228331   36103
 
     Using Slab Decomposition
 


     bravais-lattice index     =            0
     lattice parameter (alat)  =       6.0640  a.u.
     unit-cell volume          =     921.1490 (a.u.)^3
     number of atoms/cell      =            3
     number of atomic types    =            2
     number of electrons       =        26.00
     number of Kohn-Sham states=           13
     kinetic-energy cutoff     =     150.0000  Ry
     charge density cutoff     =     600.0000  Ry
     scf convergence threshold =      1.0E-12
     mixing beta               =       0.7000
     number of iterations used =            8  plain     mixing
     Exchange-correlation= SLA  PW   PSX  PSC
                           (   1   4  10   8   0   0   0)

     celldm(1)=   6.064000  celldm(2)=   0.000000  celldm(3)=   0.000000
     celldm(4)=   0.000000  celldm(5)=   0.000000  celldm(6)=   0.000000

     crystal axes: (cart. coord. in units of alat)
               a(1) = (   0.976384  -0.000017   0.000000 )  
               a(2) = (  -0.487931   0.846187   0.000000 )  
               a(3) = (   0.000000   0.000000   5.000000 )  

     reciprocal axes: (cart. coord. in units 2 pi/alat)
               b(1) = (  1.024198  0.590577  0.000000 )  
               b(2) = (  0.000021  1.181785  0.000000 )  
               b(3) = (  0.000000  0.000000  0.200000 )  


     PseudoPot. # 1 for Mo read from file:
     /shared/home/as3359/pseudo/Mo.pbesol-spn-kjpaw_psl.1.0.0.UPF
     MD5 check sum: de57925cfc675213e43241dcc441eda8
     Pseudo is Projector augmented-wave + core cor, Zval = 14.0
     Generated using &quot;atomic&quot; code by A. Dal Corso  v.6.3
     Shape of augmentation charge: PSQ
     Using radial grid of 1229 points,  6 beta functions with: 
                l(1) =   0
                l(2) =   0
                l(3) =   1
                l(4) =   1
                l(5) =   2
                l(6) =   2
     Q(r) pseudized with 0 coefficients 


     PseudoPot. # 2 for S  read from file:
     /shared/home/as3359/pseudo/S.pbesol-nl-kjpaw_psl.1.0.0.UPF
     MD5 check sum: bf3db50ec3f960682bbc396f1aadd1dd
     Pseudo is Projector augmented-wave + core cor, Zval =  6.0
     Generated using &quot;atomic&quot; code by A. Dal Corso  v.6.3
     Shape of augmentation charge: PSQ
     Using radial grid of 1151 points,  4 beta functions with: 
                l(1) =   0
                l(2) =   0
                l(3) =   1
                l(4) =   1
     Q(r) pseudized with 0 coefficients 


     atomic species   valence    mass     pseudopotential
        Mo            14.00    95.94000     Mo( 1.00)
        S              6.00    32.06500     S ( 1.00)

     No symmetry found



   Cartesian axes

     site n.     atom                  positions (alat units)
         1           Mo  tau(   1) = (   0.0000000   0.0000000   1.6880765  )
         2           S   tau(   2) = (   0.4883508   0.2821722   2.1737857  )
         3           S   tau(   3) = (   0.4883508   0.2821722   1.2023670  )

     number of k points=   113

     Number of k-points >= 100: set verbosity='high' to print them.

     Dense  grid:   228331 G-vectors     FFT dimensions: (  48,  48, 240)

     Estimated max dynamical RAM per process >     754.54 MB

     Estimated total dynamical RAM >       1.47 GB
     Cannot read rho : file not found

     Initial potential from superposition of free atoms

     starting charge   25.99914, renormalised to   26.00000

     negative rho (up, down):  8.913E-05 0.000E+00
     Message from routine qexsd_readschema :
     xml data file /scratch/as3359/Mos2_ct_lat/MoS2.save/data-file-schema.xml not fou
     Cannot read wfcs: file not found
     Starting wfcs are   18 randomized atomic wfcs
     Checking if some PAW data can be deallocated... 

     total cpu time spent up to now is       10.2 secs

     Self-consistent Calculation

     iteration #  1     ecut=   150.00 Ry     beta= 0.70
     Davidson diagonalization with overlap
     ethr =  1.00E-05,  avg # of iterations = 10.4

     negative rho (up, down):  1.212E-04 0.000E+00

     total cpu time spent up to now is       40.0 secs

     total energy              =    -489.68779117 Ry
     estimated scf accuracy    <       0.15309039 Ry

     iteration #  2     ecut=   150.00 Ry     beta= 0.70
     Davidson diagonalization with overlap
     ethr =  5.89E-04,  avg # of iterations =  5.0

     negative rho (up, down):  1.105E-04 0.000E+00

     total cpu time spent up to now is       55.4 secs

     total energy              =    -489.64420925 Ry
     estimated scf accuracy    <       0.58218786 Ry

     iteration #  3     ecut=   150.00 Ry     beta= 0.70
     Davidson diagonalization with overlap
     ethr =  5.89E-04,  avg # of iterations =  5.1

     negative rho (up, down):  1.115E-04 0.000E+00

     total cpu time spent up to now is       70.3 secs

     total energy              =    -489.75227366 Ry
     estimated scf accuracy    <       0.04157820 Ry

     iteration #  4     ecut=   150.00 Ry     beta= 0.70
     Davidson diagonalization with overlap
     ethr =  1.60E-04,  avg # of iterations =  2.3

     negative rho (up, down):  1.172E-04 0.000E+00

     total cpu time spent up to now is       81.1 secs

     total energy              =    -489.75472323 Ry
     estimated scf accuracy    <       0.00566339 Ry

     iteration #  5     ecut=   150.00 Ry     beta= 0.70
     Davidson diagonalization with overlap
     ethr =  2.18E-05,  avg # of iterations =  5.1

     negative rho (up, down):  1.184E-04 0.000E+00

     total cpu time spent up to now is       96.5 secs

     total energy              =    -489.75772211 Ry
     estimated scf accuracy    <       0.00792357 Ry

     iteration #  6     ecut=   150.00 Ry     beta= 0.70
     Davidson diagonalization with overlap
     ethr =  2.18E-05,  avg # of iterations =  1.8

     negative rho (up, down):  1.197E-04 0.000E+00

     total cpu time spent up to now is      106.2 secs

     total energy              =    -489.75688259 Ry
     estimated scf accuracy    <       0.00294230 Ry

     iteration #  7     ecut=   150.00 Ry     beta= 0.70
     Davidson diagonalization with overlap
     ethr =  1.13E-05,  avg # of iterations =  4.5

     negative rho (up, down):  1.204E-04 0.000E+00

     total cpu time spent up to now is      119.7 secs

     total energy              =    -489.75823753 Ry
     estimated scf accuracy    <       0.00087836 Ry

     iteration #  8     ecut=   150.00 Ry     beta= 0.70
     Davidson diagonalization with overlap
     ethr =  3.38E-06,  avg # of iterations =  3.5

     negative rho (up, down):  1.204E-04 0.000E+00

     total cpu time spent up to now is      131.4 secs

     total energy              =    -489.75783674 Ry
     estimated scf accuracy    <       0.00244194 Ry

     iteration #  9     ecut=   150.00 Ry     beta= 0.70
     Davidson diagonalization with overlap
     ethr =  3.38E-06,  avg # of iterations =  2.4

     negative rho (up, down):  1.208E-04 0.000E+00

     total cpu time spent up to now is      142.0 secs

     total energy              =    -489.75771225 Ry
     estimated scf accuracy    <       0.00080141 Ry

     iteration # 10     ecut=   150.00 Ry     beta= 0.70
     Davidson diagonalization with overlap
     ethr =  3.08E-06,  avg # of iterations =  4.2

     negative rho (up, down):  1.209E-04 0.000E+00

     total cpu time spent up to now is      154.6 secs

     total energy              =    -489.75789576 Ry
     estimated scf accuracy    <       0.00001465 Ry

     iteration # 11     ecut=   150.00 Ry     beta= 0.70
     Davidson diagonalization with overlap
     ethr =  5.64E-08,  avg # of iterations =  5.3

     negative rho (up, down):  1.209E-04 0.000E+00

     total cpu time spent up to now is      169.9 secs

     total energy              =    -489.75790343 Ry
     estimated scf accuracy    <       0.00005556 Ry

     iteration # 12     ecut=   150.00 Ry     beta= 0.70
     Davidson diagonalization with overlap
     ethr =  5.64E-08,  avg # of iterations =  1.7

     negative rho (up, down):  1.210E-04 0.000E+00

     total cpu time spent up to now is      179.5 secs

     total energy              =    -489.75789471 Ry
     estimated scf accuracy    <       0.00003679 Ry

     iteration # 13     ecut=   150.00 Ry     beta= 0.70
     Davidson diagonalization with overlap
     ethr =  5.64E-08,  avg # of iterations =  4.1

     negative rho (up, down):  1.210E-04 0.000E+00

     total cpu time spent up to now is      192.1 secs

     total energy              =    -489.75789959 Ry
     estimated scf accuracy    <       0.00000036 Ry

     iteration # 14     ecut=   150.00 Ry     beta= 0.70
     Davidson diagonalization with overlap
     ethr =  1.37E-09,  avg # of iterations =  7.2

     negative rho (up, down):  1.210E-04 0.000E+00

     total cpu time spent up to now is      213.6 secs

     total energy              =    -489.75790008 Ry
     estimated scf accuracy    <       0.00000484 Ry

     iteration # 15     ecut=   150.00 Ry     beta= 0.70
     Davidson diagonalization with overlap
     ethr =  1.37E-09,  avg # of iterations =  4.1

     negative rho (up, down):  1.210E-04 0.000E+00

     total cpu time spent up to now is      226.9 secs

     total energy              =    -489.75789981 Ry
     estimated scf accuracy    <       0.00000132 Ry

     iteration # 16     ecut=   150.00 Ry     beta= 0.70
     Davidson diagonalization with overlap
     ethr =  1.37E-09,  avg # of iterations =  5.5

     negative rho (up, down):  1.210E-04 0.000E+00

     total cpu time spent up to now is      242.7 secs

     total energy              =    -489.75790014 Ry
     estimated scf accuracy    <       0.00000017 Ry

     iteration # 17     ecut=   150.00 Ry     beta= 0.70
     Davidson diagonalization with overlap
     ethr =  6.37E-10,  avg # of iterations =  1.1

     negative rho (up, down):  1.210E-04 0.000E+00

     total cpu time spent up to now is      252.0 secs

     total energy              =    -489.75790013 Ry
     estimated scf accuracy    <       0.00000013 Ry

     iteration # 18     ecut=   150.00 Ry     beta= 0.70
     Davidson diagonalization with overlap
     ethr =  5.19E-10,  avg # of iterations =  1.3

     negative rho (up, down):  1.210E-04 0.000E+00

     total cpu time spent up to now is      261.4 secs

     total energy              =    -489.75790012 Ry
     estimated scf accuracy    <       0.00000007 Ry

     iteration # 19     ecut=   150.00 Ry     beta= 0.70
     Davidson diagonalization with overlap
     ethr =  2.58E-10,  avg # of iterations =  2.6

     negative rho (up, down):  1.210E-04 0.000E+00

     total cpu time spent up to now is      271.8 secs

     total energy              =    -489.75790012 Ry
     estimated scf accuracy    <       0.00000002 Ry

     iteration # 20     ecut=   150.00 Ry     beta= 0.70
     Davidson diagonalization with overlap
     ethr =  7.63E-11,  avg # of iterations =  4.1

     negative rho (up, down):  1.210E-04 0.000E+00

     total cpu time spent up to now is      283.7 secs

     total energy              =    -489.75790013 Ry
     estimated scf accuracy    <          1.6E-09 Ry

     iteration # 21     ecut=   150.00 Ry     beta= 0.70
     Davidson diagonalization with overlap
     ethr =  6.02E-12,  avg # of iterations =  4.7

     negative rho (up, down):  1.210E-04 0.000E+00

     total cpu time spent up to now is      296.3 secs

     total energy              =    -489.75790013 Ry
     estimated scf accuracy    <          5.4E-10 Ry

     iteration # 22     ecut=   150.00 Ry     beta= 0.70
     Davidson diagonalization with overlap
     ethr =  2.08E-12,  avg # of iterations =  2.7

     negative rho (up, down):  1.210E-04 0.000E+00

     total cpu time spent up to now is      307.2 secs

     total energy              =    -489.75790013 Ry
     estimated scf accuracy    <          1.4E-09 Ry

     iteration # 23     ecut=   150.00 Ry     beta= 0.70
     Davidson diagonalization with overlap
     ethr =  2.08E-12,  avg # of iterations =  5.6

     negative rho (up, down):  1.211E-04 0.000E+00

     total cpu time spent up to now is      322.3 secs

     total energy              =    -489.75790012 Ry
     estimated scf accuracy    <          7.2E-09 Ry

     iteration # 24     ecut=   150.00 Ry     beta= 0.70
     Davidson diagonalization with overlap
     ethr =  2.08E-12,  avg # of iterations =  9.1

     negative rho (up, down):  1.211E-04 0.000E+00

     total cpu time spent up to now is      347.5 secs

     total energy              =    -489.75790013 Ry
     estimated scf accuracy    <       0.00000005 Ry

     iteration # 25     ecut=   150.00 Ry     beta= 0.70
     Davidson diagonalization with overlap
     ethr =  2.08E-12,  avg # of iterations =  2.1

     negative rho (up, down):  1.211E-04 0.000E+00

     total cpu time spent up to now is      358.2 secs

     total energy              =    -489.75790012 Ry
     estimated scf accuracy    <       0.00000004 Ry

     iteration # 26     ecut=   150.00 Ry     beta= 0.70
     Davidson diagonalization with overlap
     ethr =  2.08E-12,  avg # of iterations =  7.4

     negative rho (up, down):  1.211E-04 0.000E+00

     total cpu time spent up to now is      378.4 secs

     total energy              =    -489.75790013 Ry
     estimated scf accuracy    <          3.5E-09 Ry

     iteration # 27     ecut=   150.00 Ry     beta= 0.70
     Davidson diagonalization with overlap
     ethr =  2.08E-12,  avg # of iterations =  1.0

     negative rho (up, down):  1.211E-04 0.000E+00

     total cpu time spent up to now is      387.6 secs

     total energy              =    -489.75790013 Ry
     estimated scf accuracy    <          3.3E-09 Ry

     iteration # 28     ecut=   150.00 Ry     beta= 0.70
     Davidson diagonalization with overlap
     ethr =  2.08E-12,  avg # of iterations =  2.7

     negative rho (up, down):  1.211E-04 0.000E+00

     total cpu time spent up to now is      398.8 secs

     total energy              =    -489.75790013 Ry
     estimated scf accuracy    <          1.8E-09 Ry

     iteration # 29     ecut=   150.00 Ry     beta= 0.70
     Davidson diagonalization with overlap
     ethr =  2.08E-12,  avg # of iterations =  4.4

     negative rho (up, down):  1.211E-04 0.000E+00

     total cpu time spent up to now is      411.6 secs

     total energy              =    -489.75790013 Ry
     estimated scf accuracy    <          2.8E-10 Ry

     iteration # 30     ecut=   150.00 Ry     beta= 0.70
     Davidson diagonalization with overlap
     ethr =  1.07E-12,  avg # of iterations =  2.7

     negative rho (up, down):  1.211E-04 0.000E+00

     total cpu time spent up to now is      422.9 secs

     total energy              =    -489.75790013 Ry
     estimated scf accuracy    <          3.4E-11 Ry

     iteration # 31     ecut=   150.00 Ry     beta= 0.70
     Davidson diagonalization with overlap
     ethr =  1.29E-13,  avg # of iterations =  4.6

     negative rho (up, down):  1.211E-04 0.000E+00

     total cpu time spent up to now is      436.7 secs

     total energy              =    -489.75790013 Ry
     estimated scf accuracy    <          5.3E-12 Ry

     iteration # 32     ecut=   150.00 Ry     beta= 0.70
     Davidson diagonalization with overlap
     ethr =  1.00E-13,  avg # of iterations =  1.0

     negative rho (up, down):  1.211E-04 0.000E+00

     total cpu time spent up to now is      446.0 secs

     total energy              =    -489.75790013 Ry
     estimated scf accuracy    <          1.2E-12 Ry

     iteration # 33     ecut=   150.00 Ry     beta= 0.70
     Davidson diagonalization with overlap
     ethr =  1.00E-13,  avg # of iterations =  1.4

     negative rho (up, down):  1.211E-04 0.000E+00

     total cpu time spent up to now is      455.5 secs

     total energy              =    -489.75790013 Ry
     estimated scf accuracy    <          1.5E-12 Ry

     iteration # 34     ecut=   150.00 Ry     beta= 0.70
     Davidson diagonalization with overlap
     ethr =  1.00E-13,  avg # of iterations =  1.0

     negative rho (up, down):  1.211E-04 0.000E+00

     total cpu time spent up to now is      464.6 secs

     total energy              =    -489.75790013 Ry
     estimated scf accuracy    <          1.1E-12 Ry

     iteration # 35     ecut=   150.00 Ry     beta= 0.70
     Davidson diagonalization with overlap
     ethr =  1.00E-13,  avg # of iterations =  1.0

     negative rho (up, down):  1.211E-04 0.000E+00

     total cpu time spent up to now is      473.8 secs

     End of self-consistent calculation

     Number of k-points >= 100: set verbosity='high' to print the bands.

     highest occupied level (ev):     0.3989

!    total energy              =    -489.75790013 Ry

     total all-electron energy =     -9688.215745 Ry
     estimated scf accuracy    <          8.4E-13 Ry

     The total energy is the sum of the following terms:
     one-electron contribution =    -814.60913967 Ry
     hartree contribution      =     411.15050161 Ry
     xc contribution           =     -29.53477693 Ry
     ewald contribution        =     256.12586384 Ry
     one-center paw contrib.   =    -312.89034898 Ry

     convergence has been achieved in  35 iterations

     negative rho (up, down):  1.211E-04 0.000E+00

     Forces acting on atoms (cartesian axes, Ry/au):

     atom    1 type  1   force =     0.00027256    0.00012679   -0.00000086
     atom    2 type  2   force =    -0.00013628   -0.00006340    0.00234321
     atom    3 type  2   force =    -0.00013627   -0.00006339   -0.00234235

     Total force =     0.003334     Total SCF correction =     0.000003


     Computing stress (Cartesian axis) and pressure


     negative rho (up, down):  1.211E-04 0.000E+00
          total   stress  (Ry/bohr**3)                   (kbar)     P=        3.03
   0.00002519  -0.00000086  -0.00000000            3.71       -0.13       -0.00
  -0.00000086   0.00002202  -0.00000000           -0.13        3.24       -0.00
  -0.00000000  -0.00000000   0.00001449           -0.00       -0.00        2.13


     Writing output data file /scratch/as3359/Mos2_ct_lat/MoS2.save/
 
     init_run     :     17.94s CPU     10.01s WALL (       1 calls)
     electrons    :    909.87s CPU    463.66s WALL (       1 calls)
     forces       :      4.99s CPU      2.54s WALL (       1 calls)
     stress       :     16.27s CPU      8.28s WALL (       1 calls)

     Called by init_run:
     wfcinit      :     11.42s CPU      5.85s WALL (       1 calls)
     potinit      :      2.12s CPU      1.20s WALL (       1 calls)
     hinit0       :      3.63s CPU      2.54s WALL (       1 calls)

     Called by electrons:
     c_bands      :    757.84s CPU    384.20s WALL (      35 calls)
     sum_band     :    130.32s CPU     67.05s WALL (      35 calls)
     v_of_rho     :      4.81s CPU      2.65s WALL (      36 calls)
     newd         :      8.54s CPU      5.24s WALL (      36 calls)
     PAW_pot      :      6.92s CPU      3.62s WALL (      36 calls)
     mix_rho      :      1.85s CPU      1.11s WALL (      35 calls)

     Called by c_bands:
     init_us_2    :     26.63s CPU     13.35s WALL (    8249 calls)
     cegterg      :    710.29s CPU    360.22s WALL (    3955 calls)

     Called by *egterg:
     cdiaghg      :      6.86s CPU      3.48s WALL (   18939 calls)
     h_psi        :    610.52s CPU    310.03s WALL (   19052 calls)
     s_psi        :     14.94s CPU      7.53s WALL (   19052 calls)
     g_psi        :      5.70s CPU      2.87s WALL (   14984 calls)

     Called by h_psi:
     h_psi:calbec :     21.73s CPU     10.95s WALL (   19052 calls)
     vloc_psi     :    567.02s CPU    288.12s WALL (   19052 calls)
     add_vuspsi   :     16.37s CPU      8.24s WALL (   19052 calls)

     General routines
     calbec       :     28.06s CPU     14.14s WALL (   23572 calls)
     fft          :      2.56s CPU      1.47s WALL (     421 calls)
     ffts         :      0.12s CPU      0.06s WALL (      35 calls)
     fftw         :    553.05s CPU    281.31s WALL (  368957 calls)
 
     Parallel routines
 
     PWSCF        :  15m52.53s CPU   8m 7.79s WALL

 
   This run was terminated on:  14:33:50  17Apr2022            

=------------------------------------------------------------------------------=
   JOB DONE.
=------------------------------------------------------------------------------=
