
     Program PWSCF v.6.8 starts on  8Apr2022 at 14:20:47 

     This program is part of the open-source Quantum ESPRESSO suite
     for quantum simulation of materials; please cite
         "P. Giannozzi et al., J. Phys.:Condens. Matter 21 395502 (2009);
         "P. Giannozzi et al., J. Phys.:Condens. Matter 29 465901 (2017);
         "P. Giannozzi et al., J. Chem. Phys. 152 154105 (2020);
          URL http://www.quantum-espresso.org", 
     in publications or presentations arising from this work. More details at
     http://www.quantum-espresso.org/quote

     Parallel version (MPI & OpenMP), running on       4 processor cores
     Number of MPI processes:                 2
     Threads/MPI process:                     2

     MPI processes distributed on     1 nodes
     R & G space division:  proc/nbgrp/npool/nimage =       2
     125188 MiB available memory on the printing compute node when the environment starts
 
     Reading input from MoS2.scf.6.200.in
Warning: card  &CELL ignored
Warning: card     CELL_DYNAMICS='BFGS' ignored
Warning: card  / ignored

     Current dimensions of program PWSCF are:
     Max number of different atomic species (ntypx) = 10
     Max number of k-points (npk) =  40000
     Max angular momentum in pseudopotentials (lmaxx) =  4
     Message from routine iosys:
     restart disabled: needed files not found
     file Mo.pbesol-spn-kjpaw_psl.1.0.0.UPF: wavefunction(s)  4S 4D renormalized
     file S.pbesol-nl-kjpaw_psl.1.0.0.UPF: wavefunction(s)  3S renormalized

     Subspace diagonalization in iterative solution of the eigenvalue problem:
     a serial algorithm will be used

 
     Parallelization info
     --------------------
     sticks:   dense  smooth     PW     G-vecs:    dense   smooth      PW
     Min         759     759    219               122242   122242   19185
     Max         760     760    220               122245   122245   19192
     Sum        1519    1519    439               244487   244487   38377
 
     Using Slab Decomposition
 


     bravais-lattice index     =            0
     lattice parameter (alat)  =       6.2000  a.u.
     unit-cell volume          =     984.5264 (a.u.)^3
     number of atoms/cell      =            3
     number of atomic types    =            2
     number of electrons       =        26.00
     number of Kohn-Sham states=           13
     kinetic-energy cutoff     =     150.0000  Ry
     charge density cutoff     =     600.0000  Ry
     scf convergence threshold =      1.0E-12
     mixing beta               =       0.7000
     number of iterations used =            8  plain     mixing
     Exchange-correlation= SLA  PW   PSX  PSC
                           (   1   4  10   8   0   0   0)

     celldm(1)=   6.200000  celldm(2)=   0.000000  celldm(3)=   0.000000
     celldm(4)=   0.000000  celldm(5)=   0.000000  celldm(6)=   0.000000

     crystal axes: (cart. coord. in units of alat)
               a(1) = (   0.976384  -0.000017   0.000000 )  
               a(2) = (  -0.487931   0.846187   0.000000 )  
               a(3) = (   0.000000   0.000000   5.000000 )  

     reciprocal axes: (cart. coord. in units 2 pi/alat)
               b(1) = (  1.024198  0.590577  0.000000 )  
               b(2) = (  0.000021  1.181785  0.000000 )  
               b(3) = (  0.000000  0.000000  0.200000 )  


     PseudoPot. # 1 for Mo read from file:
     /shared/home/as3359/pseudo/Mo.pbesol-spn-kjpaw_psl.1.0.0.UPF
     MD5 check sum: de57925cfc675213e43241dcc441eda8
     Pseudo is Projector augmented-wave + core cor, Zval = 14.0
     Generated using &quot;atomic&quot; code by A. Dal Corso  v.6.3
     Shape of augmentation charge: PSQ
     Using radial grid of 1229 points,  6 beta functions with: 
                l(1) =   0
                l(2) =   0
                l(3) =   1
                l(4) =   1
                l(5) =   2
                l(6) =   2
     Q(r) pseudized with 0 coefficients 


     PseudoPot. # 2 for S  read from file:
     /shared/home/as3359/pseudo/S.pbesol-nl-kjpaw_psl.1.0.0.UPF
     MD5 check sum: bf3db50ec3f960682bbc396f1aadd1dd
     Pseudo is Projector augmented-wave + core cor, Zval =  6.0
     Generated using &quot;atomic&quot; code by A. Dal Corso  v.6.3
     Shape of augmentation charge: PSQ
     Using radial grid of 1151 points,  4 beta functions with: 
                l(1) =   0
                l(2) =   0
                l(3) =   1
                l(4) =   1
     Q(r) pseudized with 0 coefficients 


     atomic species   valence    mass     pseudopotential
        Mo            14.00    95.94000     Mo( 1.00)
        S              6.00    32.06500     S ( 1.00)

     No symmetry found



   Cartesian axes

     site n.     atom                  positions (alat units)
         1           Mo  tau(   1) = (   0.0000000   0.0000000   1.6880765  )
         2           S   tau(   2) = (   0.4883508   0.2821722   2.1737857  )
         3           S   tau(   3) = (   0.4883508   0.2821722   1.2023670  )

     number of k points=   113

     Number of k-points >= 100: set verbosity='high' to print them.

     Dense  grid:   244487 G-vectors     FFT dimensions: (  48,  48, 243)

     Estimated max dynamical RAM per process >     805.97 MB

     Estimated total dynamical RAM >       1.57 GB
     Cannot read rho : file not found

     Initial potential from superposition of free atoms

     starting charge   25.99914, renormalised to   26.00000

     negative rho (up, down):  9.548E-05 0.000E+00
     Message from routine qexsd_readschema :
     xml data file /scratch/as3359/Mos2_ct_lat/MoS2.save/data-file-schema.xml not fou
     Cannot read wfcs: file not found
     Starting wfcs are   18 randomized atomic wfcs
     Checking if some PAW data can be deallocated... 

     total cpu time spent up to now is       10.6 secs

     Self-consistent Calculation

     iteration #  1     ecut=   150.00 Ry     beta= 0.70
     Davidson diagonalization with overlap
     ethr =  1.00E-05,  avg # of iterations = 10.3

     negative rho (up, down):  1.282E-04 0.000E+00

     total cpu time spent up to now is       48.8 secs

     total energy              =    -489.70147418 Ry
     estimated scf accuracy    <       0.12034507 Ry

     iteration #  2     ecut=   150.00 Ry     beta= 0.70
     Davidson diagonalization with overlap
     ethr =  4.63E-04,  avg # of iterations =  4.3

     negative rho (up, down):  1.219E-04 0.000E+00

     total cpu time spent up to now is       67.5 secs

     total energy              =    -489.68645782 Ry
     estimated scf accuracy    <       0.28719770 Ry

     iteration #  3     ecut=   150.00 Ry     beta= 0.70
     Davidson diagonalization with overlap
     ethr =  4.63E-04,  avg # of iterations =  4.8

     negative rho (up, down):  1.233E-04 0.000E+00

     total cpu time spent up to now is       86.4 secs

     total energy              =    -489.74305596 Ry
     estimated scf accuracy    <       0.06163371 Ry

     iteration #  4     ecut=   150.00 Ry     beta= 0.70
     Davidson diagonalization with overlap
     ethr =  2.37E-04,  avg # of iterations =  2.3

     negative rho (up, down):  1.265E-04 0.000E+00

     total cpu time spent up to now is      100.0 secs

     total energy              =    -489.74725871 Ry
     estimated scf accuracy    <       0.00566064 Ry

     iteration #  5     ecut=   150.00 Ry     beta= 0.70
     Davidson diagonalization with overlap
     ethr =  2.18E-05,  avg # of iterations =  5.4

     negative rho (up, down):  1.276E-04 0.000E+00

     total cpu time spent up to now is      121.4 secs

     total energy              =    -489.75105792 Ry
     estimated scf accuracy    <       0.01837543 Ry

     iteration #  6     ecut=   150.00 Ry     beta= 0.70
     Davidson diagonalization with overlap
     ethr =  2.18E-05,  avg # of iterations =  2.2

     negative rho (up, down):  1.290E-04 0.000E+00

     total cpu time spent up to now is      135.0 secs

     total energy              =    -489.74911676 Ry
     estimated scf accuracy    <       0.00736202 Ry

     iteration #  7     ecut=   150.00 Ry     beta= 0.70
     Davidson diagonalization with overlap
     ethr =  2.18E-05,  avg # of iterations =  4.3

     negative rho (up, down):  1.294E-04 0.000E+00

     total cpu time spent up to now is      152.3 secs

     total energy              =    -489.75139835 Ry
     estimated scf accuracy    <       0.00090946 Ry

     iteration #  8     ecut=   150.00 Ry     beta= 0.70
     Davidson diagonalization with overlap
     ethr =  3.50E-06,  avg # of iterations =  3.1

     negative rho (up, down):  1.297E-04 0.000E+00

     total cpu time spent up to now is      166.6 secs

     total energy              =    -489.75126323 Ry
     estimated scf accuracy    <       0.00160231 Ry

     iteration #  9     ecut=   150.00 Ry     beta= 0.70
     Davidson diagonalization with overlap
     ethr =  3.50E-06,  avg # of iterations =  1.5

     negative rho (up, down):  1.300E-04 0.000E+00

     total cpu time spent up to now is      178.7 secs

     total energy              =    -489.75102360 Ry
     estimated scf accuracy    <       0.00096534 Ry

     iteration # 10     ecut=   150.00 Ry     beta= 0.70
     Davidson diagonalization with overlap
     ethr =  3.50E-06,  avg # of iterations =  3.2

     negative rho (up, down):  1.302E-04 0.000E+00

     total cpu time spent up to now is      193.8 secs

     total energy              =    -489.75118264 Ry
     estimated scf accuracy    <       0.00000751 Ry

     iteration # 11     ecut=   150.00 Ry     beta= 0.70
     Davidson diagonalization with overlap
     ethr =  2.89E-08,  avg # of iterations =  6.4

     negative rho (up, down):  1.302E-04 0.000E+00

     total cpu time spent up to now is      217.4 secs

     total energy              =    -489.75119743 Ry
     estimated scf accuracy    <       0.00000812 Ry

     iteration # 12     ecut=   150.00 Ry     beta= 0.70
     Davidson diagonalization with overlap
     ethr =  2.89E-08,  avg # of iterations =  1.0

     negative rho (up, down):  1.303E-04 0.000E+00

     total cpu time spent up to now is      229.0 secs

     total energy              =    -489.75119429 Ry
     estimated scf accuracy    <       0.00000673 Ry

     iteration # 13     ecut=   150.00 Ry     beta= 0.70
     Davidson diagonalization with overlap
     ethr =  2.59E-08,  avg # of iterations =  4.2

     negative rho (up, down):  1.303E-04 0.000E+00

     total cpu time spent up to now is      246.0 secs

     total energy              =    -489.75119725 Ry
     estimated scf accuracy    <       0.00000396 Ry

     iteration # 14     ecut=   150.00 Ry     beta= 0.70
     Davidson diagonalization with overlap
     ethr =  1.52E-08,  avg # of iterations =  1.0

     negative rho (up, down):  1.303E-04 0.000E+00

     total cpu time spent up to now is      257.6 secs

     total energy              =    -489.75119654 Ry
     estimated scf accuracy    <       0.00000378 Ry

     iteration # 15     ecut=   150.00 Ry     beta= 0.70
     Davidson diagonalization with overlap
     ethr =  1.45E-08,  avg # of iterations =  1.6

     negative rho (up, down):  1.303E-04 0.000E+00

     total cpu time spent up to now is      269.8 secs

     total energy              =    -489.75119622 Ry
     estimated scf accuracy    <       0.00000124 Ry

     iteration # 16     ecut=   150.00 Ry     beta= 0.70
     Davidson diagonalization with overlap
     ethr =  4.78E-09,  avg # of iterations =  4.7

     negative rho (up, down):  1.303E-04 0.000E+00

     total cpu time spent up to now is      287.6 secs

     total energy              =    -489.75119674 Ry
     estimated scf accuracy    <       0.00000048 Ry

     iteration # 17     ecut=   150.00 Ry     beta= 0.70
     Davidson diagonalization with overlap
     ethr =  1.83E-09,  avg # of iterations =  1.1

     negative rho (up, down):  1.303E-04 0.000E+00

     total cpu time spent up to now is      299.3 secs

     total energy              =    -489.75119665 Ry
     estimated scf accuracy    <       0.00000045 Ry

     iteration # 18     ecut=   150.00 Ry     beta= 0.70
     Davidson diagonalization with overlap
     ethr =  1.74E-09,  avg # of iterations =  1.8

     negative rho (up, down):  1.303E-04 0.000E+00

     total cpu time spent up to now is      311.7 secs

     total energy              =    -489.75119665 Ry
     estimated scf accuracy    <       0.00000015 Ry

     iteration # 19     ecut=   150.00 Ry     beta= 0.70
     Davidson diagonalization with overlap
     ethr =  5.60E-10,  avg # of iterations =  2.8

     negative rho (up, down):  1.303E-04 0.000E+00

     total cpu time spent up to now is      325.2 secs

     total energy              =    -489.75119665 Ry
     estimated scf accuracy    <       0.00000005 Ry

     iteration # 20     ecut=   150.00 Ry     beta= 0.70
     Davidson diagonalization with overlap
     ethr =  1.93E-10,  avg # of iterations =  4.4

     negative rho (up, down):  1.303E-04 0.000E+00

     total cpu time spent up to now is      343.6 secs

     total energy              =    -489.75119667 Ry
     estimated scf accuracy    <          7.6E-09 Ry

     iteration # 21     ecut=   150.00 Ry     beta= 0.70
     Davidson diagonalization with overlap
     ethr =  2.93E-11,  avg # of iterations =  2.3

     negative rho (up, down):  1.303E-04 0.000E+00

     total cpu time spent up to now is      356.4 secs

     total energy              =    -489.75119667 Ry
     estimated scf accuracy    <          6.6E-09 Ry

     iteration # 22     ecut=   150.00 Ry     beta= 0.70
     Davidson diagonalization with overlap
     ethr =  2.53E-11,  avg # of iterations =  2.5

     negative rho (up, down):  1.303E-04 0.000E+00

     total cpu time spent up to now is      370.7 secs

     total energy              =    -489.75119667 Ry
     estimated scf accuracy    <          7.9E-10 Ry

     iteration # 23     ecut=   150.00 Ry     beta= 0.70
     Davidson diagonalization with overlap
     ethr =  3.02E-12,  avg # of iterations =  4.5

     negative rho (up, down):  1.303E-04 0.000E+00

     total cpu time spent up to now is      387.4 secs

     total energy              =    -489.75119667 Ry
     estimated scf accuracy    <          4.4E-10 Ry

     iteration # 24     ecut=   150.00 Ry     beta= 0.70
     Davidson diagonalization with overlap
     ethr =  1.71E-12,  avg # of iterations =  7.5

     negative rho (up, down):  1.303E-04 0.000E+00

     total cpu time spent up to now is      415.5 secs

     total energy              =    -489.75119666 Ry
     estimated scf accuracy    <       0.00000003 Ry

     iteration # 25     ecut=   150.00 Ry     beta= 0.70
     Davidson diagonalization with overlap
     ethr =  1.71E-12,  avg # of iterations =  7.8

     negative rho (up, down):  1.303E-04 0.000E+00

     total cpu time spent up to now is      443.5 secs

     total energy              =    -489.75119667 Ry
     estimated scf accuracy    <          9.6E-11 Ry

     iteration # 26     ecut=   150.00 Ry     beta= 0.70
     Davidson diagonalization with overlap
     ethr =  3.70E-13,  avg # of iterations =  3.8

     negative rho (up, down):  1.303E-04 0.000E+00

     total cpu time spent up to now is      459.3 secs

     total energy              =    -489.75119667 Ry
     estimated scf accuracy    <          7.9E-11 Ry

     iteration # 27     ecut=   150.00 Ry     beta= 0.70
     Davidson diagonalization with overlap
     ethr =  3.02E-13,  avg # of iterations =  1.5

     negative rho (up, down):  1.303E-04 0.000E+00

     total cpu time spent up to now is      471.5 secs

     total energy              =    -489.75119667 Ry
     estimated scf accuracy    <          2.9E-11 Ry

     iteration # 28     ecut=   150.00 Ry     beta= 0.70
     Davidson diagonalization with overlap
     ethr =  1.13E-13,  avg # of iterations =  3.5

     negative rho (up, down):  1.303E-04 0.000E+00

     total cpu time spent up to now is      486.7 secs

     total energy              =    -489.75119667 Ry
     estimated scf accuracy    <          7.7E-12 Ry

     iteration # 29     ecut=   150.00 Ry     beta= 0.70
     Davidson diagonalization with overlap
     ethr =  1.00E-13,  avg # of iterations =  1.0

     negative rho (up, down):  1.303E-04 0.000E+00

     total cpu time spent up to now is      498.3 secs

     total energy              =    -489.75119667 Ry
     estimated scf accuracy    <          2.5E-12 Ry

     iteration # 30     ecut=   150.00 Ry     beta= 0.70
     Davidson diagonalization with overlap
     ethr =  1.00E-13,  avg # of iterations =  1.0

     negative rho (up, down):  1.303E-04 0.000E+00

     total cpu time spent up to now is      510.0 secs

     total energy              =    -489.75119667 Ry
     estimated scf accuracy    <          3.6E-12 Ry

     iteration # 31     ecut=   150.00 Ry     beta= 0.70
     Davidson diagonalization with overlap
     ethr =  1.00E-13,  avg # of iterations =  1.0

     negative rho (up, down):  1.303E-04 0.000E+00

     total cpu time spent up to now is      521.7 secs

     total energy              =    -489.75119667 Ry
     estimated scf accuracy    <          5.3E-12 Ry

     iteration # 32     ecut=   150.00 Ry     beta= 0.70
     Davidson diagonalization with overlap
     ethr =  1.00E-13,  avg # of iterations =  1.0

     negative rho (up, down):  1.303E-04 0.000E+00

     total cpu time spent up to now is      533.5 secs

     total energy              =    -489.75119667 Ry
     estimated scf accuracy    <          1.4E-12 Ry

     iteration # 33     ecut=   150.00 Ry     beta= 0.70
     Davidson diagonalization with overlap
     ethr =  1.00E-13,  avg # of iterations =  1.0

     negative rho (up, down):  1.303E-04 0.000E+00

     total cpu time spent up to now is      545.2 secs

     End of self-consistent calculation

     Number of k-points >= 100: set verbosity='high' to print the bands.

     highest occupied level (ev):     0.0097

!    total energy              =    -489.75119667 Ry

     total all-electron energy =     -9688.209042 Ry
     estimated scf accuracy    <          6.5E-13 Ry

     The total energy is the sum of the following terms:
     one-electron contribution =    -802.89290460 Ry
     hartree contribution      =     404.88244223 Ry
     xc contribution           =     -29.37183313 Ry
     ewald contribution        =     250.50761908 Ry
     one-center paw contrib.   =    -312.87652025 Ry

     convergence has been achieved in  33 iterations

     negative rho (up, down):  1.303E-04 0.000E+00

     Forces acting on atoms (cartesian axes, Ry/au):

     atom    1 type  1   force =     0.00020991    0.00015814   -0.00000157
     atom    2 type  2   force =    -0.00010495   -0.00007907   -0.03863566
     atom    3 type  2   force =    -0.00010496   -0.00007907    0.03863722

     Total force =     0.054641     Total SCF correction =     0.000002


     Computing stress (Cartesian axis) and pressure


     negative rho (up, down):  1.303E-04 0.000E+00
          total   stress  (Ry/bohr**3)                   (kbar)     P=      -32.12
  -0.00020770  -0.00000068  -0.00000000          -30.55       -0.10       -0.00
  -0.00000068  -0.00021044   0.00000000           -0.10      -30.96        0.00
  -0.00000000   0.00000000  -0.00023682           -0.00        0.00      -34.84


     Writing output data file /scratch/as3359/Mos2_ct_lat/MoS2.save/
 
     init_run     :     19.05s CPU     10.41s WALL (       1 calls)
     electrons    :   1047.38s CPU    534.66s WALL (       1 calls)
     forces       :      5.84s CPU      2.98s WALL (       1 calls)
     stress       :     18.78s CPU      9.61s WALL (       1 calls)

     Called by init_run:
     wfcinit      :     13.49s CPU      6.92s WALL (       1 calls)
     potinit      :      1.58s CPU      0.81s WALL (       1 calls)
     hinit0       :      3.27s CPU      2.27s WALL (       1 calls)

     Called by electrons:
     c_bands      :    872.14s CPU    442.29s WALL (      33 calls)
     sum_band     :    150.68s CPU     77.90s WALL (      33 calls)
     v_of_rho     :      5.62s CPU      3.09s WALL (      34 calls)
     newd         :     10.25s CPU      6.71s WALL (      34 calls)
     PAW_pot      :      6.41s CPU      3.33s WALL (      34 calls)
     mix_rho      :      2.60s CPU      1.55s WALL (      33 calls)

     Called by c_bands:
     init_us_2    :     33.91s CPU     16.99s WALL (    7797 calls)
     cegterg      :    818.23s CPU    415.00s WALL (    3729 calls)

     Called by *egterg:
     cdiaghg      :      6.39s CPU      3.25s WALL (   16056 calls)
     h_psi        :    699.83s CPU    355.47s WALL (   16169 calls)
     s_psi        :     26.50s CPU     13.30s WALL (   16169 calls)
     g_psi        :      4.48s CPU      2.26s WALL (   12327 calls)

     Called by h_psi:
     h_psi:calbec :     23.56s CPU     11.85s WALL (   16169 calls)
     vloc_psi     :    634.22s CPU    322.47s WALL (   16169 calls)
     add_vuspsi   :     35.98s CPU     18.07s WALL (   16169 calls)

     General routines
     calbec       :     30.67s CPU     15.44s WALL (   20463 calls)
     fft          :      2.37s CPU      1.22s WALL (     399 calls)
     ffts         :      0.18s CPU      0.09s WALL (      33 calls)
     fftw         :    624.97s CPU    318.25s WALL (  331205 calls)
 
     Parallel routines
 
     PWSCF        :  18m13.78s CPU   9m21.35s WALL

 
   This run was terminated on:  14:30: 9   8Apr2022            

=------------------------------------------------------------------------------=
   JOB DONE.
=------------------------------------------------------------------------------=
