
     Program PWSCF v.6.8 starts on  8Apr2022 at 13:41:50 

     This program is part of the open-source Quantum ESPRESSO suite
     for quantum simulation of materials; please cite
         "P. Giannozzi et al., J. Phys.:Condens. Matter 21 395502 (2009);
         "P. Giannozzi et al., J. Phys.:Condens. Matter 29 465901 (2017);
         "P. Giannozzi et al., J. Chem. Phys. 152 154105 (2020);
          URL http://www.quantum-espresso.org", 
     in publications or presentations arising from this work. More details at
     http://www.quantum-espresso.org/quote

     Parallel version (MPI & OpenMP), running on       4 processor cores
     Number of MPI processes:                 2
     Threads/MPI process:                     2

     MPI processes distributed on     1 nodes
     R & G space division:  proc/nbgrp/npool/nimage =       2
     125207 MiB available memory on the printing compute node when the environment starts
 
     Reading input from MoS2.scf.5.950.in
Warning: card  &CELL ignored
Warning: card     CELL_DYNAMICS='BFGS' ignored
Warning: card  / ignored

     Current dimensions of program PWSCF are:
     Max number of different atomic species (ntypx) = 10
     Max number of k-points (npk) =  40000
     Max angular momentum in pseudopotentials (lmaxx) =  4
     Message from routine iosys:
     restart disabled: needed files not found
     file Mo.pbesol-spn-kjpaw_psl.1.0.0.UPF: wavefunction(s)  4S 4D renormalized
     file S.pbesol-nl-kjpaw_psl.1.0.0.UPF: wavefunction(s)  3S renormalized

     Subspace diagonalization in iterative solution of the eigenvalue problem:
     a serial algorithm will be used

 
     Parallelization info
     --------------------
     sticks:   dense  smooth     PW     G-vecs:    dense   smooth      PW
     Min         696     696    210               108058   108058   17164
     Max         697     697    211               108077   108077   17173
     Sum        1393    1393    421               216135   216135   34337
 
     Using Slab Decomposition
 


     bravais-lattice index     =            0
     lattice parameter (alat)  =       5.9500  a.u.
     unit-cell volume          =     870.1682 (a.u.)^3
     number of atoms/cell      =            3
     number of atomic types    =            2
     number of electrons       =        26.00
     number of Kohn-Sham states=           13
     kinetic-energy cutoff     =     150.0000  Ry
     charge density cutoff     =     600.0000  Ry
     scf convergence threshold =      1.0E-12
     mixing beta               =       0.7000
     number of iterations used =            8  plain     mixing
     Exchange-correlation= SLA  PW   PSX  PSC
                           (   1   4  10   8   0   0   0)

     celldm(1)=   5.950000  celldm(2)=   0.000000  celldm(3)=   0.000000
     celldm(4)=   0.000000  celldm(5)=   0.000000  celldm(6)=   0.000000

     crystal axes: (cart. coord. in units of alat)
               a(1) = (   0.976384  -0.000017   0.000000 )  
               a(2) = (  -0.487931   0.846187   0.000000 )  
               a(3) = (   0.000000   0.000000   5.000000 )  

     reciprocal axes: (cart. coord. in units 2 pi/alat)
               b(1) = (  1.024198  0.590577  0.000000 )  
               b(2) = (  0.000021  1.181785  0.000000 )  
               b(3) = (  0.000000  0.000000  0.200000 )  


     PseudoPot. # 1 for Mo read from file:
     /shared/home/as3359/pseudo/Mo.pbesol-spn-kjpaw_psl.1.0.0.UPF
     MD5 check sum: de57925cfc675213e43241dcc441eda8
     Pseudo is Projector augmented-wave + core cor, Zval = 14.0
     Generated using &quot;atomic&quot; code by A. Dal Corso  v.6.3
     Shape of augmentation charge: PSQ
     Using radial grid of 1229 points,  6 beta functions with: 
                l(1) =   0
                l(2) =   0
                l(3) =   1
                l(4) =   1
                l(5) =   2
                l(6) =   2
     Q(r) pseudized with 0 coefficients 


     PseudoPot. # 2 for S  read from file:
     /shared/home/as3359/pseudo/S.pbesol-nl-kjpaw_psl.1.0.0.UPF
     MD5 check sum: bf3db50ec3f960682bbc396f1aadd1dd
     Pseudo is Projector augmented-wave + core cor, Zval =  6.0
     Generated using &quot;atomic&quot; code by A. Dal Corso  v.6.3
     Shape of augmentation charge: PSQ
     Using radial grid of 1151 points,  4 beta functions with: 
                l(1) =   0
                l(2) =   0
                l(3) =   1
                l(4) =   1
     Q(r) pseudized with 0 coefficients 


     atomic species   valence    mass     pseudopotential
        Mo            14.00    95.94000     Mo( 1.00)
        S              6.00    32.06500     S ( 1.00)

     No symmetry found



   Cartesian axes

     site n.     atom                  positions (alat units)
         1           Mo  tau(   1) = (   0.0000000   0.0000000   1.6880765  )
         2           S   tau(   2) = (   0.4883508   0.2821722   2.1737857  )
         3           S   tau(   3) = (   0.4883508   0.2821722   1.2023670  )

     number of k points=   113

     Number of k-points >= 100: set verbosity='high' to print them.

     Dense  grid:   216135 G-vectors     FFT dimensions: (  45,  45, 240)

     Estimated max dynamical RAM per process >     712.48 MB

     Estimated total dynamical RAM >       1.39 GB
     Cannot read rho : file not found

     Initial potential from superposition of free atoms

     starting charge   25.99914, renormalised to   26.00000

     negative rho (up, down):  8.167E-05 0.000E+00
     Message from routine qexsd_readschema :
     xml data file /scratch/as3359/Mos2_ct_lat/MoS2.save/data-file-schema.xml not fou
     Cannot read wfcs: file not found
     Starting wfcs are   18 randomized atomic wfcs
     Checking if some PAW data can be deallocated... 

     total cpu time spent up to now is       10.2 secs

     Self-consistent Calculation

     iteration #  1     ecut=   150.00 Ry     beta= 0.70
     Davidson diagonalization with overlap
     ethr =  1.00E-05,  avg # of iterations = 10.4

     negative rho (up, down):  1.121E-04 0.000E+00

     total cpu time spent up to now is       49.6 secs

     total energy              =    -489.65775094 Ry
     estimated scf accuracy    <       0.18871144 Ry

     iteration #  2     ecut=   150.00 Ry     beta= 0.70
     Davidson diagonalization with overlap
     ethr =  7.26E-04,  avg # of iterations =  5.1

     negative rho (up, down):  9.719E-05 0.000E+00

     total cpu time spent up to now is       69.7 secs

     total energy              =    -489.59262805 Ry
     estimated scf accuracy    <       0.87127931 Ry

     iteration #  3     ecut=   150.00 Ry     beta= 0.70
     Davidson diagonalization with overlap
     ethr =  7.26E-04,  avg # of iterations =  5.2

     negative rho (up, down):  9.840E-05 0.000E+00

     total cpu time spent up to now is       88.9 secs

     total energy              =    -489.74514247 Ry
     estimated scf accuracy    <       0.03088828 Ry

     iteration #  4     ecut=   150.00 Ry     beta= 0.70
     Davidson diagonalization with overlap
     ethr =  1.19E-04,  avg # of iterations =  2.5

     negative rho (up, down):  1.064E-04 0.000E+00

     total cpu time spent up to now is      103.2 secs

     total energy              =    -489.74820497 Ry
     estimated scf accuracy    <       0.00414488 Ry

     iteration #  5     ecut=   150.00 Ry     beta= 0.70
     Davidson diagonalization with overlap
     ethr =  1.59E-05,  avg # of iterations =  4.9

     negative rho (up, down):  1.082E-04 0.000E+00

     total cpu time spent up to now is      122.1 secs

     total energy              =    -489.75000724 Ry
     estimated scf accuracy    <       0.00286815 Ry

     iteration #  6     ecut=   150.00 Ry     beta= 0.70
     Davidson diagonalization with overlap
     ethr =  1.10E-05,  avg # of iterations =  2.2

     negative rho (up, down):  1.089E-04 0.000E+00

     total cpu time spent up to now is      135.5 secs

     total energy              =    -489.75016168 Ry
     estimated scf accuracy    <       0.00042459 Ry

     iteration #  7     ecut=   150.00 Ry     beta= 0.70
     Davidson diagonalization with overlap
     ethr =  1.63E-06,  avg # of iterations =  5.1

     negative rho (up, down):  1.098E-04 0.000E+00

     total cpu time spent up to now is      154.3 secs

     total energy              =    -489.75035753 Ry
     estimated scf accuracy    <       0.00009881 Ry

     iteration #  8     ecut=   150.00 Ry     beta= 0.70
     Davidson diagonalization with overlap
     ethr =  3.80E-07,  avg # of iterations =  2.2

     negative rho (up, down):  1.101E-04 0.000E+00

     total cpu time spent up to now is      167.2 secs

     total energy              =    -489.75033571 Ry
     estimated scf accuracy    <       0.00009857 Ry

     iteration #  9     ecut=   150.00 Ry     beta= 0.70
     Davidson diagonalization with overlap
     ethr =  3.79E-07,  avg # of iterations =  2.1

     negative rho (up, down):  1.101E-04 0.000E+00

     total cpu time spent up to now is      180.3 secs

     total energy              =    -489.75033939 Ry
     estimated scf accuracy    <       0.00002068 Ry

     iteration # 10     ecut=   150.00 Ry     beta= 0.70
     Davidson diagonalization with overlap
     ethr =  7.95E-08,  avg # of iterations =  4.3

     negative rho (up, down):  1.102E-04 0.000E+00

     total cpu time spent up to now is      196.8 secs

     total energy              =    -489.75034432 Ry
     estimated scf accuracy    <       0.00000178 Ry

     iteration # 11     ecut=   150.00 Ry     beta= 0.70
     Davidson diagonalization with overlap
     ethr =  6.83E-09,  avg # of iterations =  4.5

     negative rho (up, down):  1.102E-04 0.000E+00

     total cpu time spent up to now is      213.7 secs

     total energy              =    -489.75034446 Ry
     estimated scf accuracy    <       0.00000099 Ry

     iteration # 12     ecut=   150.00 Ry     beta= 0.70
     Davidson diagonalization with overlap
     ethr =  3.81E-09,  avg # of iterations =  4.2

     negative rho (up, down):  1.102E-04 0.000E+00

     total cpu time spent up to now is      230.1 secs

     total energy              =    -489.75034478 Ry
     estimated scf accuracy    <       0.00000019 Ry

     iteration # 13     ecut=   150.00 Ry     beta= 0.70
     Davidson diagonalization with overlap
     ethr =  7.39E-10,  avg # of iterations =  2.0

     negative rho (up, down):  1.102E-04 0.000E+00

     total cpu time spent up to now is      243.0 secs

     total energy              =    -489.75034476 Ry
     estimated scf accuracy    <       0.00000021 Ry

     iteration # 14     ecut=   150.00 Ry     beta= 0.70
     Davidson diagonalization with overlap
     ethr =  7.39E-10,  avg # of iterations =  1.2

     negative rho (up, down):  1.102E-04 0.000E+00

     total cpu time spent up to now is      254.9 secs

     total energy              =    -489.75034473 Ry
     estimated scf accuracy    <       0.00000013 Ry

     iteration # 15     ecut=   150.00 Ry     beta= 0.70
     Davidson diagonalization with overlap
     ethr =  5.01E-10,  avg # of iterations =  3.6

     negative rho (up, down):  1.103E-04 0.000E+00

     total cpu time spent up to now is      270.0 secs

     total energy              =    -489.75034475 Ry
     estimated scf accuracy    <          3.7E-09 Ry

     iteration # 16     ecut=   150.00 Ry     beta= 0.70
     Davidson diagonalization with overlap
     ethr =  1.42E-11,  avg # of iterations =  5.4

     negative rho (up, down):  1.103E-04 0.000E+00

     total cpu time spent up to now is      290.5 secs

     total energy              =    -489.75034476 Ry
     estimated scf accuracy    <          4.9E-09 Ry

     iteration # 17     ecut=   150.00 Ry     beta= 0.70
     Davidson diagonalization with overlap
     ethr =  1.42E-11,  avg # of iterations =  1.1

     negative rho (up, down):  1.103E-04 0.000E+00

     total cpu time spent up to now is      302.1 secs

     total energy              =    -489.75034475 Ry
     estimated scf accuracy    <          4.5E-09 Ry

     iteration # 18     ecut=   150.00 Ry     beta= 0.70
     Davidson diagonalization with overlap
     ethr =  1.42E-11,  avg # of iterations =  2.4

     negative rho (up, down):  1.103E-04 0.000E+00

     total cpu time spent up to now is      316.1 secs

     total energy              =    -489.75034475 Ry
     estimated scf accuracy    <          8.0E-10 Ry

     iteration # 19     ecut=   150.00 Ry     beta= 0.70
     Davidson diagonalization with overlap
     ethr =  3.07E-12,  avg # of iterations =  4.7

     negative rho (up, down):  1.103E-04 0.000E+00

     total cpu time spent up to now is      334.4 secs

     total energy              =    -489.75034475 Ry
     estimated scf accuracy    <          4.0E-10 Ry

     iteration # 20     ecut=   150.00 Ry     beta= 0.70
     Davidson diagonalization with overlap
     ethr =  1.52E-12,  avg # of iterations =  3.6

     negative rho (up, down):  1.103E-04 0.000E+00

     total cpu time spent up to now is      350.1 secs

     total energy              =    -489.75034475 Ry
     estimated scf accuracy    <          4.0E-11 Ry

     iteration # 21     ecut=   150.00 Ry     beta= 0.70
     Davidson diagonalization with overlap
     ethr =  1.55E-13,  avg # of iterations =  4.8

     negative rho (up, down):  1.103E-04 0.000E+00

     total cpu time spent up to now is      368.9 secs

     total energy              =    -489.75034475 Ry
     estimated scf accuracy    <          1.3E-10 Ry

     iteration # 22     ecut=   150.00 Ry     beta= 0.70
     Davidson diagonalization with overlap
     ethr =  1.55E-13,  avg # of iterations =  2.9

     negative rho (up, down):  1.103E-04 0.000E+00

     total cpu time spent up to now is      383.9 secs

     total energy              =    -489.75034475 Ry
     estimated scf accuracy    <          3.0E-11 Ry

     iteration # 23     ecut=   150.00 Ry     beta= 0.70
     Davidson diagonalization with overlap
     ethr =  1.15E-13,  avg # of iterations =  3.1

     negative rho (up, down):  1.103E-04 0.000E+00

     total cpu time spent up to now is      398.6 secs

     total energy              =    -489.75034475 Ry
     estimated scf accuracy    <          2.4E-12 Ry

     iteration # 24     ecut=   150.00 Ry     beta= 0.70
     Davidson diagonalization with overlap
     ethr =  1.00E-13,  avg # of iterations =  1.0

     negative rho (up, down):  1.103E-04 0.000E+00

     total cpu time spent up to now is      410.2 secs

     total energy              =    -489.75034475 Ry
     estimated scf accuracy    <          1.1E-12 Ry

     iteration # 25     ecut=   150.00 Ry     beta= 0.70
     Davidson diagonalization with overlap
     ethr =  1.00E-13,  avg # of iterations =  1.0

     negative rho (up, down):  1.103E-04 0.000E+00

     total cpu time spent up to now is      421.7 secs

     End of self-consistent calculation

     Number of k-points >= 100: set verbosity='high' to print the bands.

     highest occupied level (ev):     0.7412

!    total energy              =    -489.75034475 Ry

     total all-electron energy =     -9688.208190 Ry
     estimated scf accuracy    <          2.6E-13 Ry

     The total energy is the sum of the following terms:
     one-electron contribution =    -824.81796337 Ry
     hartree contribution      =     416.62270339 Ry
     xc contribution           =     -29.68430426 Ry
     ewald contribution        =     261.03314929 Ry
     one-center paw contrib.   =    -312.90392980 Ry

     convergence has been achieved in  25 iterations

     negative rho (up, down):  1.103E-04 0.000E+00

     Forces acting on atoms (cartesian axes, Ry/au):

     atom    1 type  1   force =     0.00033361    0.00009362   -0.00000016
     atom    2 type  2   force =    -0.00016680   -0.00004682    0.04433787
     atom    3 type  2   force =    -0.00016680   -0.00004680   -0.04433770

     Total force =     0.062705     Total SCF correction =     0.000001


     Computing stress (Cartesian axis) and pressure


     negative rho (up, down):  1.103E-04 0.000E+00
          total   stress  (Ry/bohr**3)                   (kbar)     P=       42.37
   0.00028685  -0.00000105  -0.00000000           42.20       -0.15       -0.00
  -0.00000105   0.00028327   0.00000000           -0.15       41.67        0.00
  -0.00000000   0.00000000   0.00029397           -0.00        0.00       43.24


     Writing output data file /scratch/as3359/Mos2_ct_lat/MoS2.save/
 
     init_run     :     18.56s CPU     10.07s WALL (       1 calls)
     electrons    :    808.62s CPU    411.56s WALL (       1 calls)
     forces       :      5.00s CPU      2.55s WALL (       1 calls)
     stress       :     15.92s CPU      8.12s WALL (       1 calls)

     Called by init_run:
     wfcinit      :     13.54s CPU      6.94s WALL (       1 calls)
     potinit      :      1.42s CPU      0.72s WALL (       1 calls)
     hinit0       :      2.98s CPU      2.05s WALL (       1 calls)

     Called by electrons:
     c_bands      :    678.20s CPU    343.26s WALL (      25 calls)
     sum_band     :    113.95s CPU     58.68s WALL (      25 calls)
     v_of_rho     :      3.69s CPU      2.04s WALL (      26 calls)
     newd         :      6.82s CPU      4.48s WALL (      26 calls)
     PAW_pot      :      4.86s CPU      2.53s WALL (      26 calls)
     mix_rho      :      1.47s CPU      0.78s WALL (      25 calls)

     Called by c_bands:
     init_us_2    :     22.04s CPU     11.06s WALL (    5989 calls)
     cegterg      :    641.86s CPU    324.83s WALL (    2825 calls)

     Called by *egterg:
     cdiaghg      :      5.17s CPU      2.63s WALL (   12923 calls)
     h_psi        :    565.24s CPU    286.36s WALL (   13036 calls)
     s_psi        :     16.44s CPU      8.26s WALL (   13036 calls)
     g_psi        :      3.61s CPU      1.82s WALL (   10098 calls)

     Called by h_psi:
     h_psi:calbec :     15.62s CPU      7.88s WALL (   13036 calls)
     vloc_psi     :    522.60s CPU    264.91s WALL (   13036 calls)
     add_vuspsi   :     22.96s CPU     11.52s WALL (   13036 calls)

     General routines
     calbec       :     20.24s CPU     10.21s WALL (   16426 calls)
     fft          :      1.72s CPU      0.88s WALL (     311 calls)
     ffts         :      0.13s CPU      0.07s WALL (      25 calls)
     fftw         :    534.65s CPU    271.17s WALL (  256991 calls)
 
     Parallel routines
 
     PWSCF        :  14m10.30s CPU   7m14.30s WALL

 
   This run was terminated on:  13:49: 4   8Apr2022            

=------------------------------------------------------------------------------=
   JOB DONE.
=------------------------------------------------------------------------------=
