
     Program PWSCF v.6.8 starts on 17Apr2022 at 15:19: 7 

     This program is part of the open-source Quantum ESPRESSO suite
     for quantum simulation of materials; please cite
         "P. Giannozzi et al., J. Phys.:Condens. Matter 21 395502 (2009);
         "P. Giannozzi et al., J. Phys.:Condens. Matter 29 465901 (2017);
         "P. Giannozzi et al., J. Chem. Phys. 152 154105 (2020);
          URL http://www.quantum-espresso.org", 
     in publications or presentations arising from this work. More details at
     http://www.quantum-espresso.org/quote

     Parallel version (MPI & OpenMP), running on       4 processor cores
     Number of MPI processes:                 2
     Threads/MPI process:                     2

     MPI processes distributed on     1 nodes
     R & G space division:  proc/nbgrp/npool/nimage =       2
     125017 MiB available memory on the printing compute node when the environment starts
 
     Reading input from MoS2.scf.6.078.in
Warning: card  &CELL ignored
Warning: card     CELL_DYNAMICS='BFGS' ignored
Warning: card  / ignored

     Current dimensions of program PWSCF are:
     Max number of different atomic species (ntypx) = 10
     Max number of k-points (npk) =  40000
     Max angular momentum in pseudopotentials (lmaxx) =  4
     Message from routine iosys:
     restart disabled: needed files not found
     file Mo.pbesol-spn-kjpaw_psl.1.0.0.UPF: wavefunction(s)  4S 4D renormalized
     file S.pbesol-nl-kjpaw_psl.1.0.0.UPF: wavefunction(s)  3S renormalized

     Subspace diagonalization in iterative solution of the eigenvalue problem:
     a serial algorithm will be used

 
     Parallelization info
     --------------------
     sticks:   dense  smooth     PW     G-vecs:    dense   smooth      PW
     Min         729     729    215               115019   115019   18179
     Max         730     730    218               115032   115032   18182
     Sum        1459    1459    433               230051   230051   36361
 
     Using Slab Decomposition
 


     bravais-lattice index     =            0
     lattice parameter (alat)  =       6.0780  a.u.
     unit-cell volume          =     927.5437 (a.u.)^3
     number of atoms/cell      =            3
     number of atomic types    =            2
     number of electrons       =        26.00
     number of Kohn-Sham states=           13
     kinetic-energy cutoff     =     150.0000  Ry
     charge density cutoff     =     600.0000  Ry
     scf convergence threshold =      1.0E-12
     mixing beta               =       0.7000
     number of iterations used =            8  plain     mixing
     Exchange-correlation= SLA  PW   PSX  PSC
                           (   1   4  10   8   0   0   0)

     celldm(1)=   6.078000  celldm(2)=   0.000000  celldm(3)=   0.000000
     celldm(4)=   0.000000  celldm(5)=   0.000000  celldm(6)=   0.000000

     crystal axes: (cart. coord. in units of alat)
               a(1) = (   0.976384  -0.000017   0.000000 )  
               a(2) = (  -0.487931   0.846187   0.000000 )  
               a(3) = (   0.000000   0.000000   5.000000 )  

     reciprocal axes: (cart. coord. in units 2 pi/alat)
               b(1) = (  1.024198  0.590577  0.000000 )  
               b(2) = (  0.000021  1.181785  0.000000 )  
               b(3) = (  0.000000  0.000000  0.200000 )  


     PseudoPot. # 1 for Mo read from file:
     /shared/home/as3359/pseudo/Mo.pbesol-spn-kjpaw_psl.1.0.0.UPF
     MD5 check sum: de57925cfc675213e43241dcc441eda8
     Pseudo is Projector augmented-wave + core cor, Zval = 14.0
     Generated using &quot;atomic&quot; code by A. Dal Corso  v.6.3
     Shape of augmentation charge: PSQ
     Using radial grid of 1229 points,  6 beta functions with: 
                l(1) =   0
                l(2) =   0
                l(3) =   1
                l(4) =   1
                l(5) =   2
                l(6) =   2
     Q(r) pseudized with 0 coefficients 


     PseudoPot. # 2 for S  read from file:
     /shared/home/as3359/pseudo/S.pbesol-nl-kjpaw_psl.1.0.0.UPF
     MD5 check sum: bf3db50ec3f960682bbc396f1aadd1dd
     Pseudo is Projector augmented-wave + core cor, Zval =  6.0
     Generated using &quot;atomic&quot; code by A. Dal Corso  v.6.3
     Shape of augmentation charge: PSQ
     Using radial grid of 1151 points,  4 beta functions with: 
                l(1) =   0
                l(2) =   0
                l(3) =   1
                l(4) =   1
     Q(r) pseudized with 0 coefficients 


     atomic species   valence    mass     pseudopotential
        Mo            14.00    95.94000     Mo( 1.00)
        S              6.00    32.06500     S ( 1.00)

     No symmetry found



   Cartesian axes

     site n.     atom                  positions (alat units)
         1           Mo  tau(   1) = (   0.0000000   0.0000000   1.6880765  )
         2           S   tau(   2) = (   0.4883508   0.2821722   2.1737857  )
         3           S   tau(   3) = (   0.4883508   0.2821722   1.2023670  )

     number of k points=   113

     Number of k-points >= 100: set verbosity='high' to print them.

     Dense  grid:   230051 G-vectors     FFT dimensions: (  48,  48, 240)

     Estimated max dynamical RAM per process >     759.82 MB

     Estimated total dynamical RAM >       1.48 GB
     Cannot read rho : file not found

     Initial potential from superposition of free atoms

     starting charge   25.99914, renormalised to   26.00000

     negative rho (up, down):  8.891E-05 0.000E+00
     Message from routine qexsd_readschema :
     xml data file /scratch/as3359/Mos2_ct_lat/MoS2.save/data-file-schema.xml not fou
     Cannot read wfcs: file not found
     Starting wfcs are   18 randomized atomic wfcs
     Checking if some PAW data can be deallocated... 

     total cpu time spent up to now is       12.0 secs

     Self-consistent Calculation

     iteration #  1     ecut=   150.00 Ry     beta= 0.70
     Davidson diagonalization with overlap
     ethr =  1.00E-05,  avg # of iterations = 10.4

     negative rho (up, down):  1.205E-04 0.000E+00

     total cpu time spent up to now is       42.7 secs

     total energy              =    -489.69028240 Ry
     estimated scf accuracy    <       0.14920409 Ry

     iteration #  2     ecut=   150.00 Ry     beta= 0.70
     Davidson diagonalization with overlap
     ethr =  5.74E-04,  avg # of iterations =  5.0

     negative rho (up, down):  1.106E-04 0.000E+00

     total cpu time spent up to now is       58.3 secs

     total energy              =    -489.65049794 Ry
     estimated scf accuracy    <       0.54332406 Ry

     iteration #  3     ecut=   150.00 Ry     beta= 0.70
     Davidson diagonalization with overlap
     ethr =  5.74E-04,  avg # of iterations =  5.1

     negative rho (up, down):  1.116E-04 0.000E+00

     total cpu time spent up to now is       73.7 secs

     total energy              =    -489.75199464 Ry
     estimated scf accuracy    <       0.04396063 Ry

     iteration #  4     ecut=   150.00 Ry     beta= 0.70
     Davidson diagonalization with overlap
     ethr =  1.69E-04,  avg # of iterations =  2.4

     negative rho (up, down):  1.171E-04 0.000E+00

     total cpu time spent up to now is       85.0 secs

     total energy              =    -489.75477543 Ry
     estimated scf accuracy    <       0.00546880 Ry

     iteration #  5     ecut=   150.00 Ry     beta= 0.70
     Davidson diagonalization with overlap
     ethr =  2.10E-05,  avg # of iterations =  5.3

     negative rho (up, down):  1.182E-04 0.000E+00

     total cpu time spent up to now is      101.2 secs

     total energy              =    -489.75776386 Ry
     estimated scf accuracy    <       0.00883174 Ry

     iteration #  6     ecut=   150.00 Ry     beta= 0.70
     Davidson diagonalization with overlap
     ethr =  2.10E-05,  avg # of iterations =  1.9

     negative rho (up, down):  1.200E-04 0.000E+00

     total cpu time spent up to now is      111.3 secs

     total energy              =    -489.75644854 Ry
     estimated scf accuracy    <       0.00328232 Ry

     iteration #  7     ecut=   150.00 Ry     beta= 0.70
     Davidson diagonalization with overlap
     ethr =  1.26E-05,  avg # of iterations =  5.1

     negative rho (up, down):  1.200E-04 0.000E+00

     total cpu time spent up to now is      126.0 secs

     total energy              =    -489.75824594 Ry
     estimated scf accuracy    <       0.00343542 Ry

     iteration #  8     ecut=   150.00 Ry     beta= 0.70
     Davidson diagonalization with overlap
     ethr =  1.26E-05,  avg # of iterations =  1.0

     negative rho (up, down):  1.202E-04 0.000E+00

     total cpu time spent up to now is      135.5 secs

     total energy              =    -489.75776144 Ry
     estimated scf accuracy    <       0.00258620 Ry

     iteration #  9     ecut=   150.00 Ry     beta= 0.70
     Davidson diagonalization with overlap
     ethr =  9.95E-06,  avg # of iterations =  2.4

     negative rho (up, down):  1.203E-04 0.000E+00

     total cpu time spent up to now is      146.1 secs

     total energy              =    -489.75786864 Ry
     estimated scf accuracy    <       0.00052245 Ry

     iteration # 10     ecut=   150.00 Ry     beta= 0.70
     Davidson diagonalization with overlap
     ethr =  2.01E-06,  avg # of iterations =  3.3

     negative rho (up, down):  1.206E-04 0.000E+00

     total cpu time spent up to now is      157.6 secs

     total energy              =    -489.75788881 Ry
     estimated scf accuracy    <       0.00012763 Ry

     iteration # 11     ecut=   150.00 Ry     beta= 0.70
     Davidson diagonalization with overlap
     ethr =  4.91E-07,  avg # of iterations =  4.8

     negative rho (up, down):  1.206E-04 0.000E+00

     total cpu time spent up to now is      172.7 secs

     total energy              =    -489.75794929 Ry
     estimated scf accuracy    <       0.00004667 Ry

     iteration # 12     ecut=   150.00 Ry     beta= 0.70
     Davidson diagonalization with overlap
     ethr =  1.80E-07,  avg # of iterations =  1.1

     negative rho (up, down):  1.207E-04 0.000E+00

     total cpu time spent up to now is      182.3 secs

     total energy              =    -489.75794000 Ry
     estimated scf accuracy    <       0.00003956 Ry

     iteration # 13     ecut=   150.00 Ry     beta= 0.70
     Davidson diagonalization with overlap
     ethr =  1.52E-07,  avg # of iterations =  2.1

     negative rho (up, down):  1.207E-04 0.000E+00

     total cpu time spent up to now is      193.2 secs

     total energy              =    -489.75794152 Ry
     estimated scf accuracy    <       0.00000637 Ry

     iteration # 14     ecut=   150.00 Ry     beta= 0.70
     Davidson diagonalization with overlap
     ethr =  2.45E-08,  avg # of iterations =  4.4

     negative rho (up, down):  1.207E-04 0.000E+00

     total cpu time spent up to now is      207.5 secs

     total energy              =    -489.75794371 Ry
     estimated scf accuracy    <       0.00000090 Ry

     iteration # 15     ecut=   150.00 Ry     beta= 0.70
     Davidson diagonalization with overlap
     ethr =  3.45E-09,  avg # of iterations =  1.9

     negative rho (up, down):  1.207E-04 0.000E+00

     total cpu time spent up to now is      217.8 secs

     total energy              =    -489.75794354 Ry
     estimated scf accuracy    <       0.00000038 Ry

     iteration # 16     ecut=   150.00 Ry     beta= 0.70
     Davidson diagonalization with overlap
     ethr =  1.48E-09,  avg # of iterations =  5.5

     negative rho (up, down):  1.207E-04 0.000E+00

     total cpu time spent up to now is      233.8 secs

     total energy              =    -489.75794388 Ry
     estimated scf accuracy    <       0.00000097 Ry

     iteration # 17     ecut=   150.00 Ry     beta= 0.70
     Davidson diagonalization with overlap
     ethr =  1.48E-09,  avg # of iterations =  1.0

     negative rho (up, down):  1.207E-04 0.000E+00

     total cpu time spent up to now is      243.3 secs

     total energy              =    -489.75794382 Ry
     estimated scf accuracy    <       0.00000088 Ry

     iteration # 18     ecut=   150.00 Ry     beta= 0.70
     Davidson diagonalization with overlap
     ethr =  1.48E-09,  avg # of iterations =  1.0

     negative rho (up, down):  1.207E-04 0.000E+00

     total cpu time spent up to now is      252.8 secs

     total energy              =    -489.75794378 Ry
     estimated scf accuracy    <       0.00000067 Ry

     iteration # 19     ecut=   150.00 Ry     beta= 0.70
     Davidson diagonalization with overlap
     ethr =  1.48E-09,  avg # of iterations =  1.0

     negative rho (up, down):  1.207E-04 0.000E+00

     total cpu time spent up to now is      262.4 secs

     total energy              =    -489.75794377 Ry
     estimated scf accuracy    <       0.00000048 Ry

     iteration # 20     ecut=   150.00 Ry     beta= 0.70
     Davidson diagonalization with overlap
     ethr =  1.48E-09,  avg # of iterations =  1.0

     negative rho (up, down):  1.207E-04 0.000E+00

     total cpu time spent up to now is      271.9 secs

     total energy              =    -489.75794376 Ry
     estimated scf accuracy    <       0.00000039 Ry

     iteration # 21     ecut=   150.00 Ry     beta= 0.70
     Davidson diagonalization with overlap
     ethr =  1.48E-09,  avg # of iterations =  1.0

     negative rho (up, down):  1.207E-04 0.000E+00

     total cpu time spent up to now is      281.4 secs

     total energy              =    -489.75794367 Ry
     estimated scf accuracy    <       0.00000033 Ry

     iteration # 22     ecut=   150.00 Ry     beta= 0.70
     Davidson diagonalization with overlap
     ethr =  1.26E-09,  avg # of iterations =  4.3

     negative rho (up, down):  1.207E-04 0.000E+00

     total cpu time spent up to now is      294.6 secs

     total energy              =    -489.75794376 Ry
     estimated scf accuracy    <       0.00000002 Ry

     iteration # 23     ecut=   150.00 Ry     beta= 0.70
     Davidson diagonalization with overlap
     ethr =  8.20E-11,  avg # of iterations =  4.7

     negative rho (up, down):  1.207E-04 0.000E+00

     total cpu time spent up to now is      309.4 secs

     total energy              =    -489.75794375 Ry
     estimated scf accuracy    <       0.00000009 Ry

     iteration # 24     ecut=   150.00 Ry     beta= 0.70
     Davidson diagonalization with overlap
     ethr =  8.20E-11,  avg # of iterations =  1.9

     negative rho (up, down):  1.207E-04 0.000E+00

     total cpu time spent up to now is      319.8 secs

     total energy              =    -489.75794374 Ry
     estimated scf accuracy    <       0.00000005 Ry

     iteration # 25     ecut=   150.00 Ry     beta= 0.70
     Davidson diagonalization with overlap
     ethr =  8.20E-11,  avg # of iterations =  4.6

     negative rho (up, down):  1.207E-04 0.000E+00

     total cpu time spent up to now is      334.1 secs

     total energy              =    -489.75794375 Ry
     estimated scf accuracy    <          4.8E-09 Ry

     iteration # 26     ecut=   150.00 Ry     beta= 0.70
     Davidson diagonalization with overlap
     ethr =  1.84E-11,  avg # of iterations =  1.9

     negative rho (up, down):  1.207E-04 0.000E+00

     total cpu time spent up to now is      344.3 secs

     total energy              =    -489.75794375 Ry
     estimated scf accuracy    <          2.4E-09 Ry

     iteration # 27     ecut=   150.00 Ry     beta= 0.70
     Davidson diagonalization with overlap
     ethr =  9.41E-12,  avg # of iterations =  6.4

     negative rho (up, down):  1.207E-04 0.000E+00

     total cpu time spent up to now is      362.8 secs

     total energy              =    -489.75794375 Ry
     estimated scf accuracy    <       0.00000002 Ry

     iteration # 28     ecut=   150.00 Ry     beta= 0.70
     Davidson diagonalization with overlap
     ethr =  9.41E-12,  avg # of iterations =  4.4

     negative rho (up, down):  1.207E-04 0.000E+00

     total cpu time spent up to now is      376.8 secs

     total energy              =    -489.75794375 Ry
     estimated scf accuracy    <          3.5E-09 Ry

     iteration # 29     ecut=   150.00 Ry     beta= 0.70
     Davidson diagonalization with overlap
     ethr =  9.41E-12,  avg # of iterations =  1.0

     negative rho (up, down):  1.207E-04 0.000E+00

     total cpu time spent up to now is      386.3 secs

     total energy              =    -489.75794375 Ry
     estimated scf accuracy    <          3.1E-09 Ry

     iteration # 30     ecut=   150.00 Ry     beta= 0.70
     Davidson diagonalization with overlap
     ethr =  9.41E-12,  avg # of iterations =  2.5

     negative rho (up, down):  1.207E-04 0.000E+00

     total cpu time spent up to now is      397.2 secs

     total energy              =    -489.75794375 Ry
     estimated scf accuracy    <          7.8E-10 Ry

     iteration # 31     ecut=   150.00 Ry     beta= 0.70
     Davidson diagonalization with overlap
     ethr =  2.98E-12,  avg # of iterations =  4.4

     negative rho (up, down):  1.207E-04 0.000E+00

     total cpu time spent up to now is      410.5 secs

     total energy              =    -489.75794375 Ry
     estimated scf accuracy    <          4.0E-12 Ry

     iteration # 32     ecut=   150.00 Ry     beta= 0.70
     Davidson diagonalization with overlap
     ethr =  1.00E-13,  avg # of iterations =  5.7

     negative rho (up, down):  1.207E-04 0.000E+00

     total cpu time spent up to now is      427.3 secs

     total energy              =    -489.75794375 Ry
     estimated scf accuracy    <          8.5E-11 Ry

     iteration # 33     ecut=   150.00 Ry     beta= 0.70
     Davidson diagonalization with overlap
     ethr =  1.00E-13,  avg # of iterations =  1.0

     negative rho (up, down):  1.207E-04 0.000E+00

     total cpu time spent up to now is      436.8 secs

     total energy              =    -489.75794375 Ry
     estimated scf accuracy    <          8.2E-11 Ry

     iteration # 34     ecut=   150.00 Ry     beta= 0.70
     Davidson diagonalization with overlap
     ethr =  1.00E-13,  avg # of iterations =  1.0

     negative rho (up, down):  1.207E-04 0.000E+00

     total cpu time spent up to now is      446.3 secs

     total energy              =    -489.75794375 Ry
     estimated scf accuracy    <          8.0E-11 Ry

     iteration # 35     ecut=   150.00 Ry     beta= 0.70
     Davidson diagonalization with overlap
     ethr =  1.00E-13,  avg # of iterations =  3.7

     negative rho (up, down):  1.207E-04 0.000E+00

     total cpu time spent up to now is      459.4 secs

     total energy              =    -489.75794375 Ry
     estimated scf accuracy    <          1.0E-12 Ry

     iteration # 36     ecut=   150.00 Ry     beta= 0.70
     Davidson diagonalization with overlap
     ethr =  1.00E-13,  avg # of iterations =  4.0

     negative rho (up, down):  1.207E-04 0.000E+00

     total cpu time spent up to now is      472.3 secs

     total energy              =    -489.75794375 Ry
     estimated scf accuracy    <          1.8E-11 Ry

     iteration # 37     ecut=   150.00 Ry     beta= 0.70
     Davidson diagonalization with overlap
     ethr =  1.00E-13,  avg # of iterations =  1.0

     negative rho (up, down):  1.207E-04 0.000E+00

     total cpu time spent up to now is      481.8 secs

     total energy              =    -489.75794375 Ry
     estimated scf accuracy    <          1.4E-11 Ry

     iteration # 38     ecut=   150.00 Ry     beta= 0.70
     Davidson diagonalization with overlap
     ethr =  1.00E-13,  avg # of iterations =  1.0

     negative rho (up, down):  1.207E-04 0.000E+00

     total cpu time spent up to now is      491.3 secs

     total energy              =    -489.75794375 Ry
     estimated scf accuracy    <          7.2E-12 Ry

     iteration # 39     ecut=   150.00 Ry     beta= 0.70
     Davidson diagonalization with overlap
     ethr =  1.00E-13,  avg # of iterations =  1.0

     negative rho (up, down):  1.207E-04 0.000E+00

     total cpu time spent up to now is      500.7 secs

     total energy              =    -489.75794375 Ry
     estimated scf accuracy    <          6.4E-12 Ry

     iteration # 40     ecut=   150.00 Ry     beta= 0.70
     Davidson diagonalization with overlap
     ethr =  1.00E-13,  avg # of iterations =  2.0

     negative rho (up, down):  1.207E-04 0.000E+00

     total cpu time spent up to now is      511.0 secs

     End of self-consistent calculation

     Number of k-points >= 100: set verbosity='high' to print the bands.

     highest occupied level (ev):     0.3579

!    total energy              =    -489.75794375 Ry

     total all-electron energy =     -9688.215789 Ry
     estimated scf accuracy    <          3.2E-13 Ry

     The total energy is the sum of the following terms:
     one-electron contribution =    -813.38021815 Ry
     hartree contribution      =     410.49242810 Ry
     xc contribution           =     -29.51724873 Ry
     ewald contribution        =     255.53590627 Ry
     one-center paw contrib.   =    -312.88881123 Ry

     convergence has been achieved in  40 iterations

     negative rho (up, down):  1.207E-04 0.000E+00

     Forces acting on atoms (cartesian axes, Ry/au):

     atom    1 type  1   force =     0.00026581    0.00013100   -0.00000054
     atom    2 type  2   force =    -0.00013291   -0.00006550   -0.00230814
     atom    3 type  2   force =    -0.00013290   -0.00006550    0.00230868

     Total force =     0.003285     Total SCF correction =     0.000003


     Computing stress (Cartesian axis) and pressure


     negative rho (up, down):  1.207E-04 0.000E+00
          total   stress  (Ry/bohr**3)                   (kbar)     P=       -1.14
  -0.00000245  -0.00000084   0.00000000           -0.36       -0.12        0.00
  -0.00000084  -0.00000557   0.00000000           -0.12       -0.82        0.00
   0.00000000   0.00000000  -0.00001518            0.00        0.00       -2.23


     Writing output data file /scratch/as3359/Mos2_ct_lat/MoS2.save/
 
     init_run     :     21.59s CPU     11.83s WALL (       1 calls)
     electrons    :    978.32s CPU    499.04s WALL (       1 calls)
     forces       :      5.09s CPU      2.58s WALL (       1 calls)
     stress       :     16.26s CPU      8.26s WALL (       1 calls)

     Called by init_run:
     wfcinit      :     15.04s CPU      7.70s WALL (       1 calls)
     potinit      :      2.11s CPU      1.19s WALL (       1 calls)
     hinit0       :      3.65s CPU      2.53s WALL (       1 calls)

     Called by electrons:
     c_bands      :    799.13s CPU    405.44s WALL (      40 calls)
     sum_band     :    154.39s CPU     79.43s WALL (      40 calls)
     v_of_rho     :      5.56s CPU      3.05s WALL (      41 calls)
     newd         :      9.67s CPU      5.95s WALL (      41 calls)
     PAW_pot      :      7.80s CPU      4.05s WALL (      41 calls)
     mix_rho      :      2.17s CPU      1.30s WALL (      40 calls)

     Called by c_bands:
     init_us_2    :     31.49s CPU     15.80s WALL (    9379 calls)
     cegterg      :    743.03s CPU    377.10s WALL (    4520 calls)

     Called by *egterg:
     cdiaghg      :      6.51s CPU      3.31s WALL (   18438 calls)
     h_psi        :    648.61s CPU    329.60s WALL (   18551 calls)
     s_psi        :     15.25s CPU      7.68s WALL (   18551 calls)
     g_psi        :      6.02s CPU      3.03s WALL (   13918 calls)

     Called by h_psi:
     h_psi:calbec :     22.33s CPU     11.26s WALL (   18551 calls)
     vloc_psi     :    604.19s CPU    307.22s WALL (   18551 calls)
     add_vuspsi   :     16.52s CPU      8.32s WALL (   18551 calls)

     General routines
     calbec       :     29.77s CPU     15.01s WALL (   23636 calls)
     fft          :      2.63s CPU      1.50s WALL (     476 calls)
     ffts         :      0.15s CPU      0.08s WALL (      40 calls)
     fftw         :    602.69s CPU    306.89s WALL (  384852 calls)
 
     Parallel routines
 
     PWSCF        :  17m 4.27s CPU   8m44.62s WALL

 
   This run was terminated on:  15:27:51  17Apr2022            

=------------------------------------------------------------------------------=
   JOB DONE.
=------------------------------------------------------------------------------=
