
     Program PWSCF v.6.8 starts on 17Apr2022 at 15:27:52 

     This program is part of the open-source Quantum ESPRESSO suite
     for quantum simulation of materials; please cite
         "P. Giannozzi et al., J. Phys.:Condens. Matter 21 395502 (2009);
         "P. Giannozzi et al., J. Phys.:Condens. Matter 29 465901 (2017);
         "P. Giannozzi et al., J. Chem. Phys. 152 154105 (2020);
          URL http://www.quantum-espresso.org", 
     in publications or presentations arising from this work. More details at
     http://www.quantum-espresso.org/quote

     Parallel version (MPI & OpenMP), running on       4 processor cores
     Number of MPI processes:                 2
     Threads/MPI process:                     2

     MPI processes distributed on     1 nodes
     R & G space division:  proc/nbgrp/npool/nimage =       2
     125012 MiB available memory on the printing compute node when the environment starts
 
     Reading input from MoS2.scf.6.080.in
Warning: card  &CELL ignored
Warning: card     CELL_DYNAMICS='BFGS' ignored
Warning: card  / ignored

     Current dimensions of program PWSCF are:
     Max number of different atomic species (ntypx) = 10
     Max number of k-points (npk) =  40000
     Max angular momentum in pseudopotentials (lmaxx) =  4
     Message from routine iosys:
     restart disabled: needed files not found
     file Mo.pbesol-spn-kjpaw_psl.1.0.0.UPF: wavefunction(s)  4S 4D renormalized
     file S.pbesol-nl-kjpaw_psl.1.0.0.UPF: wavefunction(s)  3S renormalized

     Subspace diagonalization in iterative solution of the eigenvalue problem:
     a serial algorithm will be used

 
     Parallelization info
     --------------------
     sticks:   dense  smooth     PW     G-vecs:    dense   smooth      PW
     Min         729     729    215               115115   115115   18201
     Max         730     730    218               115128   115128   18204
     Sum        1459    1459    433               230243   230243   36405
 
     Using Slab Decomposition
 


     bravais-lattice index     =            0
     lattice parameter (alat)  =       6.0800  a.u.
     unit-cell volume          =     928.4597 (a.u.)^3
     number of atoms/cell      =            3
     number of atomic types    =            2
     number of electrons       =        26.00
     number of Kohn-Sham states=           13
     kinetic-energy cutoff     =     150.0000  Ry
     charge density cutoff     =     600.0000  Ry
     scf convergence threshold =      1.0E-12
     mixing beta               =       0.7000
     number of iterations used =            8  plain     mixing
     Exchange-correlation= SLA  PW   PSX  PSC
                           (   1   4  10   8   0   0   0)

     celldm(1)=   6.080000  celldm(2)=   0.000000  celldm(3)=   0.000000
     celldm(4)=   0.000000  celldm(5)=   0.000000  celldm(6)=   0.000000

     crystal axes: (cart. coord. in units of alat)
               a(1) = (   0.976384  -0.000017   0.000000 )  
               a(2) = (  -0.487931   0.846187   0.000000 )  
               a(3) = (   0.000000   0.000000   5.000000 )  

     reciprocal axes: (cart. coord. in units 2 pi/alat)
               b(1) = (  1.024198  0.590577  0.000000 )  
               b(2) = (  0.000021  1.181785  0.000000 )  
               b(3) = (  0.000000  0.000000  0.200000 )  


     PseudoPot. # 1 for Mo read from file:
     /shared/home/as3359/pseudo/Mo.pbesol-spn-kjpaw_psl.1.0.0.UPF
     MD5 check sum: de57925cfc675213e43241dcc441eda8
     Pseudo is Projector augmented-wave + core cor, Zval = 14.0
     Generated using &quot;atomic&quot; code by A. Dal Corso  v.6.3
     Shape of augmentation charge: PSQ
     Using radial grid of 1229 points,  6 beta functions with: 
                l(1) =   0
                l(2) =   0
                l(3) =   1
                l(4) =   1
                l(5) =   2
                l(6) =   2
     Q(r) pseudized with 0 coefficients 


     PseudoPot. # 2 for S  read from file:
     /shared/home/as3359/pseudo/S.pbesol-nl-kjpaw_psl.1.0.0.UPF
     MD5 check sum: bf3db50ec3f960682bbc396f1aadd1dd
     Pseudo is Projector augmented-wave + core cor, Zval =  6.0
     Generated using &quot;atomic&quot; code by A. Dal Corso  v.6.3
     Shape of augmentation charge: PSQ
     Using radial grid of 1151 points,  4 beta functions with: 
                l(1) =   0
                l(2) =   0
                l(3) =   1
                l(4) =   1
     Q(r) pseudized with 0 coefficients 


     atomic species   valence    mass     pseudopotential
        Mo            14.00    95.94000     Mo( 1.00)
        S              6.00    32.06500     S ( 1.00)

     No symmetry found



   Cartesian axes

     site n.     atom                  positions (alat units)
         1           Mo  tau(   1) = (   0.0000000   0.0000000   1.6880765  )
         2           S   tau(   2) = (   0.4883508   0.2821722   2.1737857  )
         3           S   tau(   3) = (   0.4883508   0.2821722   1.2023670  )

     number of k points=   113

     Number of k-points >= 100: set verbosity='high' to print them.

     Dense  grid:   230243 G-vectors     FFT dimensions: (  48,  48, 240)

     Estimated max dynamical RAM per process >     760.55 MB

     Estimated total dynamical RAM >       1.49 GB
     Cannot read rho : file not found

     Initial potential from superposition of free atoms

     starting charge   25.99914, renormalised to   26.00000

     negative rho (up, down):  8.900E-05 0.000E+00
     Message from routine qexsd_readschema :
     xml data file /scratch/as3359/Mos2_ct_lat/MoS2.save/data-file-schema.xml not fou
     Cannot read wfcs: file not found
     Starting wfcs are   18 randomized atomic wfcs
     Checking if some PAW data can be deallocated... 

     total cpu time spent up to now is       10.8 secs

     Self-consistent Calculation

     iteration #  1     ecut=   150.00 Ry     beta= 0.70
     Davidson diagonalization with overlap
     ethr =  1.00E-05,  avg # of iterations = 10.3

     negative rho (up, down):  1.205E-04 0.000E+00

     total cpu time spent up to now is       42.1 secs

     total energy              =    -489.69051845 Ry
     estimated scf accuracy    <       0.14877483 Ry

     iteration #  2     ecut=   150.00 Ry     beta= 0.70
     Davidson diagonalization with overlap
     ethr =  5.72E-04,  avg # of iterations =  5.0

     negative rho (up, down):  1.107E-04 0.000E+00

     total cpu time spent up to now is       58.0 secs

     total energy              =    -489.65128952 Ry
     estimated scf accuracy    <       0.53885102 Ry

     iteration #  3     ecut=   150.00 Ry     beta= 0.70
     Davidson diagonalization with overlap
     ethr =  5.72E-04,  avg # of iterations =  5.0

     negative rho (up, down):  1.116E-04 0.000E+00

     total cpu time spent up to now is       73.6 secs

     total energy              =    -489.75196658 Ry
     estimated scf accuracy    <       0.04420011 Ry

     iteration #  4     ecut=   150.00 Ry     beta= 0.70
     Davidson diagonalization with overlap
     ethr =  1.70E-04,  avg # of iterations =  2.4

     negative rho (up, down):  1.170E-04 0.000E+00

     total cpu time spent up to now is       85.1 secs

     total energy              =    -489.75475330 Ry
     estimated scf accuracy    <       0.00546493 Ry

     iteration #  5     ecut=   150.00 Ry     beta= 0.70
     Davidson diagonalization with overlap
     ethr =  2.10E-05,  avg # of iterations =  5.2

     negative rho (up, down):  1.181E-04 0.000E+00

     total cpu time spent up to now is      101.5 secs

     total energy              =    -489.75778523 Ry
     estimated scf accuracy    <       0.00906018 Ry

     iteration #  6     ecut=   150.00 Ry     beta= 0.70
     Davidson diagonalization with overlap
     ethr =  2.10E-05,  avg # of iterations =  1.9

     negative rho (up, down):  1.192E-04 0.000E+00

     total cpu time spent up to now is      111.8 secs

     total energy              =    -489.75695550 Ry
     estimated scf accuracy    <       0.00347278 Ry

     iteration #  7     ecut=   150.00 Ry     beta= 0.70
     Davidson diagonalization with overlap
     ethr =  1.34E-05,  avg # of iterations =  4.0

     negative rho (up, down):  1.201E-04 0.000E+00

     total cpu time spent up to now is      125.3 secs

     total energy              =    -489.75813498 Ry
     estimated scf accuracy    <       0.00031906 Ry

     iteration #  8     ecut=   150.00 Ry     beta= 0.70
     Davidson diagonalization with overlap
     ethr =  1.23E-06,  avg # of iterations =  5.5

     negative rho (up, down):  1.201E-04 0.000E+00

     total cpu time spent up to now is      142.0 secs

     total energy              =    -489.75784733 Ry
     estimated scf accuracy    <       0.00280357 Ry

     iteration #  9     ecut=   150.00 Ry     beta= 0.70
     Davidson diagonalization with overlap
     ethr =  1.23E-06,  avg # of iterations =  4.3

     negative rho (up, down):  1.207E-04 0.000E+00

     total cpu time spent up to now is      156.0 secs

     total energy              =    -489.75786212 Ry
     estimated scf accuracy    <       0.00058168 Ry

     iteration # 10     ecut=   150.00 Ry     beta= 0.70
     Davidson diagonalization with overlap
     ethr =  1.23E-06,  avg # of iterations =  3.6

     negative rho (up, down):  1.207E-04 0.000E+00

     total cpu time spent up to now is      168.8 secs

     total energy              =    -489.75791405 Ry
     estimated scf accuracy    <       0.00004996 Ry

     iteration # 11     ecut=   150.00 Ry     beta= 0.70
     Davidson diagonalization with overlap
     ethr =  1.92E-07,  avg # of iterations =  4.8

     negative rho (up, down):  1.207E-04 0.000E+00

     total cpu time spent up to now is      184.0 secs

     total energy              =    -489.75793709 Ry
     estimated scf accuracy    <       0.00000532 Ry

     iteration # 12     ecut=   150.00 Ry     beta= 0.70
     Davidson diagonalization with overlap
     ethr =  2.05E-08,  avg # of iterations =  4.9

     negative rho (up, down):  1.207E-04 0.000E+00

     total cpu time spent up to now is      198.2 secs

     total energy              =    -489.75793402 Ry
     estimated scf accuracy    <       0.00002206 Ry

     iteration # 13     ecut=   150.00 Ry     beta= 0.70
     Davidson diagonalization with overlap
     ethr =  2.05E-08,  avg # of iterations =  3.6

     negative rho (up, down):  1.208E-04 0.000E+00

     total cpu time spent up to now is      211.1 secs

     total energy              =    -489.75793227 Ry
     estimated scf accuracy    <       0.00000383 Ry

     iteration # 14     ecut=   150.00 Ry     beta= 0.70
     Davidson diagonalization with overlap
     ethr =  1.47E-08,  avg # of iterations =  6.7

     negative rho (up, down):  1.208E-04 0.000E+00

     total cpu time spent up to now is      231.0 secs

     total energy              =    -489.75792796 Ry
     estimated scf accuracy    <       0.00004833 Ry

     iteration # 15     ecut=   150.00 Ry     beta= 0.70
     Davidson diagonalization with overlap
     ethr =  1.47E-08,  avg # of iterations =  5.7

     negative rho (up, down):  1.208E-04 0.000E+00

     total cpu time spent up to now is      249.5 secs

     total energy              =    -489.75793549 Ry
     estimated scf accuracy    <       0.00000030 Ry

     iteration # 16     ecut=   150.00 Ry     beta= 0.70
     Davidson diagonalization with overlap
     ethr =  1.16E-09,  avg # of iterations =  6.1

     negative rho (up, down):  1.208E-04 0.000E+00

     total cpu time spent up to now is      266.6 secs

     total energy              =    -489.75793484 Ry
     estimated scf accuracy    <       0.00000343 Ry

     iteration # 17     ecut=   150.00 Ry     beta= 0.70
     Davidson diagonalization with overlap
     ethr =  1.16E-09,  avg # of iterations =  5.6

     negative rho (up, down):  1.208E-04 0.000E+00

     total cpu time spent up to now is      284.5 secs

     total energy              =    -489.75793525 Ry
     estimated scf accuracy    <          7.7E-09 Ry

     iteration # 18     ecut=   150.00 Ry     beta= 0.70
     Davidson diagonalization with overlap
     ethr =  2.97E-11,  avg # of iterations =  5.6

     negative rho (up, down):  1.208E-04 0.000E+00

     total cpu time spent up to now is      299.6 secs

     total energy              =    -489.75793525 Ry
     estimated scf accuracy    <          1.8E-10 Ry

     iteration # 19     ecut=   150.00 Ry     beta= 0.70
     Davidson diagonalization with overlap
     ethr =  7.09E-13,  avg # of iterations =  5.4

     negative rho (up, down):  1.208E-04 0.000E+00

     total cpu time spent up to now is      314.9 secs

     total energy              =    -489.75793525 Ry
     estimated scf accuracy    <          4.0E-10 Ry

     iteration # 20     ecut=   150.00 Ry     beta= 0.70
     Davidson diagonalization with overlap
     ethr =  7.09E-13,  avg # of iterations =  3.7

     negative rho (up, down):  1.208E-04 0.000E+00

     total cpu time spent up to now is      327.9 secs

     total energy              =    -489.75793525 Ry
     estimated scf accuracy    <          3.8E-11 Ry

     iteration # 21     ecut=   150.00 Ry     beta= 0.70
     Davidson diagonalization with overlap
     ethr =  1.44E-13,  avg # of iterations =  2.4

     negative rho (up, down):  1.208E-04 0.000E+00

     total cpu time spent up to now is      338.8 secs

     total energy              =    -489.75793525 Ry
     estimated scf accuracy    <          2.1E-11 Ry

     iteration # 22     ecut=   150.00 Ry     beta= 0.70
     Davidson diagonalization with overlap
     ethr =  1.00E-13,  avg # of iterations =  4.1

     negative rho (up, down):  1.208E-04 0.000E+00

     total cpu time spent up to now is      352.0 secs

     total energy              =    -489.75793525 Ry
     estimated scf accuracy    <          3.6E-12 Ry

     iteration # 23     ecut=   150.00 Ry     beta= 0.70
     Davidson diagonalization with overlap
     ethr =  1.00E-13,  avg # of iterations =  2.2

     negative rho (up, down):  1.208E-04 0.000E+00

     total cpu time spent up to now is      363.3 secs

     total energy              =    -489.75793525 Ry
     estimated scf accuracy    <          1.3E-11 Ry

     iteration # 24     ecut=   150.00 Ry     beta= 0.70
     Davidson diagonalization with overlap
     ethr =  1.00E-13,  avg # of iterations =  1.0

     negative rho (up, down):  1.208E-04 0.000E+00

     total cpu time spent up to now is      372.9 secs

     total energy              =    -489.75793525 Ry
     estimated scf accuracy    <          7.3E-12 Ry

     iteration # 25     ecut=   150.00 Ry     beta= 0.70
     Davidson diagonalization with overlap
     ethr =  1.00E-13,  avg # of iterations =  1.4

     negative rho (up, down):  1.208E-04 0.000E+00

     total cpu time spent up to now is      382.8 secs

     End of self-consistent calculation

     Number of k-points >= 100: set verbosity='high' to print the bands.

     highest occupied level (ev):     0.3521

!    total energy              =    -489.75793525 Ry

     total all-electron energy =     -9688.215781 Ry
     estimated scf accuracy    <          8.0E-13 Ry

     The total energy is the sum of the following terms:
     one-electron contribution =    -813.20507201 Ry
     hartree contribution      =     410.39864061 Ry
     xc contribution           =     -29.51475850 Ry
     ewald contribution        =     255.45184840 Ry
     one-center paw contrib.   =    -312.88859375 Ry

     convergence has been achieved in  25 iterations

     negative rho (up, down):  1.208E-04 0.000E+00

     Forces acting on atoms (cartesian axes, Ry/au):

     atom    1 type  1   force =     0.00026469    0.00013100   -0.00000118
     atom    2 type  2   force =    -0.00013235   -0.00006549   -0.00296348
     atom    3 type  2   force =    -0.00013235   -0.00006551    0.00296465

     Total force =     0.004207     Total SCF correction =     0.000002


     Computing stress (Cartesian axis) and pressure


     negative rho (up, down):  1.208E-04 0.000E+00
          total   stress  (Ry/bohr**3)                   (kbar)     P=       -1.72
  -0.00000632  -0.00000084  -0.00000000           -0.93       -0.12       -0.00
  -0.00000084  -0.00000944  -0.00000000           -0.12       -1.39       -0.00
  -0.00000000  -0.00000000  -0.00001935           -0.00       -0.00       -2.85


     Writing output data file /scratch/as3359/Mos2_ct_lat/MoS2.save/
 
     init_run     :     18.78s CPU     10.43s WALL (       1 calls)
     electrons    :    730.20s CPU    372.08s WALL (       1 calls)
     forces       :      5.01s CPU      2.54s WALL (       1 calls)
     stress       :     16.53s CPU      8.40s WALL (       1 calls)

     Called by init_run:
     wfcinit      :     12.25s CPU      6.28s WALL (       1 calls)
     potinit      :      2.12s CPU      1.20s WALL (       1 calls)
     hinit0       :      3.63s CPU      2.54s WALL (       1 calls)

     Called by electrons:
     c_bands      :    615.38s CPU    312.15s WALL (      25 calls)
     sum_band     :     99.15s CPU     51.01s WALL (      25 calls)
     v_of_rho     :      3.60s CPU      1.97s WALL (      26 calls)
     newd         :      6.32s CPU      3.86s WALL (      26 calls)
     PAW_pot      :      4.97s CPU      2.57s WALL (      26 calls)
     mix_rho      :      1.28s CPU      0.77s WALL (      25 calls)

     Called by c_bands:
     init_us_2    :     19.96s CPU     10.02s WALL (    5989 calls)
     cegterg      :    580.43s CPU    294.48s WALL (    2825 calls)

     Called by *egterg:
     cdiaghg      :      5.72s CPU      2.91s WALL (   15289 calls)
     h_psi        :    500.85s CPU    254.44s WALL (   15402 calls)
     s_psi        :     11.71s CPU      5.90s WALL (   15402 calls)
     g_psi        :      4.95s CPU      2.50s WALL (   12464 calls)

     Called by h_psi:
     h_psi:calbec :     17.41s CPU      8.77s WALL (   15402 calls)
     vloc_psi     :    466.14s CPU    236.95s WALL (   15402 calls)
     add_vuspsi   :     13.13s CPU      6.61s WALL (   15402 calls)

     General routines
     calbec       :     22.15s CPU     11.16s WALL (   18792 calls)
     fft          :      1.98s CPU      1.16s WALL (     311 calls)
     ffts         :      0.09s CPU      0.05s WALL (      25 calls)
     fftw         :    446.20s CPU    227.15s WALL (  282343 calls)
 
     Parallel routines
 
     PWSCF        :  12m53.78s CPU   6m36.87s WALL

 
   This run was terminated on:  15:34:29  17Apr2022            

=------------------------------------------------------------------------------=
   JOB DONE.
=------------------------------------------------------------------------------=
