
     Program PWSCF v.6.8 starts on 17Apr2022 at 14:42:44 

     This program is part of the open-source Quantum ESPRESSO suite
     for quantum simulation of materials; please cite
         "P. Giannozzi et al., J. Phys.:Condens. Matter 21 395502 (2009);
         "P. Giannozzi et al., J. Phys.:Condens. Matter 29 465901 (2017);
         "P. Giannozzi et al., J. Chem. Phys. 152 154105 (2020);
          URL http://www.quantum-espresso.org", 
     in publications or presentations arising from this work. More details at
     http://www.quantum-espresso.org/quote

     Parallel version (MPI & OpenMP), running on       4 processor cores
     Number of MPI processes:                 2
     Threads/MPI process:                     2

     MPI processes distributed on     1 nodes
     R & G space division:  proc/nbgrp/npool/nimage =       2
     125216 MiB available memory on the printing compute node when the environment starts
 
     Reading input from MoS2.scf.6.068.in
Warning: card  &CELL ignored
Warning: card     CELL_DYNAMICS='BFGS' ignored
Warning: card  / ignored

     Current dimensions of program PWSCF are:
     Max number of different atomic species (ntypx) = 10
     Max number of k-points (npk) =  40000
     Max angular momentum in pseudopotentials (lmaxx) =  4
     Message from routine iosys:
     restart disabled: needed files not found
     file Mo.pbesol-spn-kjpaw_psl.1.0.0.UPF: wavefunction(s)  4S 4D renormalized
     file S.pbesol-nl-kjpaw_psl.1.0.0.UPF: wavefunction(s)  3S renormalized

     Subspace diagonalization in iterative solution of the eigenvalue problem:
     a serial algorithm will be used

 
     Parallelization info
     --------------------
     sticks:   dense  smooth     PW     G-vecs:    dense   smooth      PW
     Min         729     729    211               114411   114411   18070
     Max         730     730    212               114416   114416   18091
     Sum        1459    1459    423               228827   228827   36161
 
     Using Slab Decomposition
 


     bravais-lattice index     =            0
     lattice parameter (alat)  =       6.0680  a.u.
     unit-cell volume          =     922.9731 (a.u.)^3
     number of atoms/cell      =            3
     number of atomic types    =            2
     number of electrons       =        26.00
     number of Kohn-Sham states=           13
     kinetic-energy cutoff     =     150.0000  Ry
     charge density cutoff     =     600.0000  Ry
     scf convergence threshold =      1.0E-12
     mixing beta               =       0.7000
     number of iterations used =            8  plain     mixing
     Exchange-correlation= SLA  PW   PSX  PSC
                           (   1   4  10   8   0   0   0)

     celldm(1)=   6.068000  celldm(2)=   0.000000  celldm(3)=   0.000000
     celldm(4)=   0.000000  celldm(5)=   0.000000  celldm(6)=   0.000000

     crystal axes: (cart. coord. in units of alat)
               a(1) = (   0.976384  -0.000017   0.000000 )  
               a(2) = (  -0.487931   0.846187   0.000000 )  
               a(3) = (   0.000000   0.000000   5.000000 )  

     reciprocal axes: (cart. coord. in units 2 pi/alat)
               b(1) = (  1.024198  0.590577  0.000000 )  
               b(2) = (  0.000021  1.181785  0.000000 )  
               b(3) = (  0.000000  0.000000  0.200000 )  


     PseudoPot. # 1 for Mo read from file:
     /shared/home/as3359/pseudo/Mo.pbesol-spn-kjpaw_psl.1.0.0.UPF
     MD5 check sum: de57925cfc675213e43241dcc441eda8
     Pseudo is Projector augmented-wave + core cor, Zval = 14.0
     Generated using &quot;atomic&quot; code by A. Dal Corso  v.6.3
     Shape of augmentation charge: PSQ
     Using radial grid of 1229 points,  6 beta functions with: 
                l(1) =   0
                l(2) =   0
                l(3) =   1
                l(4) =   1
                l(5) =   2
                l(6) =   2
     Q(r) pseudized with 0 coefficients 


     PseudoPot. # 2 for S  read from file:
     /shared/home/as3359/pseudo/S.pbesol-nl-kjpaw_psl.1.0.0.UPF
     MD5 check sum: bf3db50ec3f960682bbc396f1aadd1dd
     Pseudo is Projector augmented-wave + core cor, Zval =  6.0
     Generated using &quot;atomic&quot; code by A. Dal Corso  v.6.3
     Shape of augmentation charge: PSQ
     Using radial grid of 1151 points,  4 beta functions with: 
                l(1) =   0
                l(2) =   0
                l(3) =   1
                l(4) =   1
     Q(r) pseudized with 0 coefficients 


     atomic species   valence    mass     pseudopotential
        Mo            14.00    95.94000     Mo( 1.00)
        S              6.00    32.06500     S ( 1.00)

     No symmetry found



   Cartesian axes

     site n.     atom                  positions (alat units)
         1           Mo  tau(   1) = (   0.0000000   0.0000000   1.6880765  )
         2           S   tau(   2) = (   0.4883508   0.2821722   2.1737857  )
         3           S   tau(   3) = (   0.4883508   0.2821722   1.2023670  )

     number of k points=   113

     Number of k-points >= 100: set verbosity='high' to print them.

     Dense  grid:   228827 G-vectors     FFT dimensions: (  48,  48, 240)

     Estimated max dynamical RAM per process >     756.08 MB

     Estimated total dynamical RAM >       1.48 GB
     Cannot read rho : file not found

     Initial potential from superposition of free atoms

     starting charge   25.99914, renormalised to   26.00000

     negative rho (up, down):  8.960E-05 0.000E+00
     Message from routine qexsd_readschema :
     xml data file /scratch/as3359/Mos2_ct_lat/MoS2.save/data-file-schema.xml not fou
     Cannot read wfcs: file not found
     Starting wfcs are   18 randomized atomic wfcs
     Checking if some PAW data can be deallocated... 

     total cpu time spent up to now is        9.6 secs

     Self-consistent Calculation

     iteration #  1     ecut=   150.00 Ry     beta= 0.70
     Davidson diagonalization with overlap
     ethr =  1.00E-05,  avg # of iterations = 10.4

     negative rho (up, down):  1.213E-04 0.000E+00

     total cpu time spent up to now is       39.7 secs

     total energy              =    -489.68851399 Ry
     estimated scf accuracy    <       0.15198832 Ry

     iteration #  2     ecut=   150.00 Ry     beta= 0.70
     Davidson diagonalization with overlap
     ethr =  5.85E-04,  avg # of iterations =  5.0

     negative rho (up, down):  1.110E-04 0.000E+00

     total cpu time spent up to now is       55.2 secs

     total energy              =    -489.64577471 Ry
     estimated scf accuracy    <       0.57236509 Ry

     iteration #  3     ecut=   150.00 Ry     beta= 0.70
     Davidson diagonalization with overlap
     ethr =  5.85E-04,  avg # of iterations =  5.1

     negative rho (up, down):  1.121E-04 0.000E+00

     total cpu time spent up to now is       70.2 secs

     total energy              =    -489.75221082 Ry
     estimated scf accuracy    <       0.04242784 Ry

     iteration #  4     ecut=   150.00 Ry     beta= 0.70
     Davidson diagonalization with overlap
     ethr =  1.63E-04,  avg # of iterations =  2.3

     negative rho (up, down):  1.176E-04 0.000E+00

     total cpu time spent up to now is       81.2 secs

     total energy              =    -489.75473821 Ry
     estimated scf accuracy    <       0.00565745 Ry

     iteration #  5     ecut=   150.00 Ry     beta= 0.70
     Davidson diagonalization with overlap
     ethr =  2.18E-05,  avg # of iterations =  5.1

     negative rho (up, down):  1.187E-04 0.000E+00

     total cpu time spent up to now is       96.7 secs

     total energy              =    -489.75777027 Ry
     estimated scf accuracy    <       0.00810036 Ry

     iteration #  6     ecut=   150.00 Ry     beta= 0.70
     Davidson diagonalization with overlap
     ethr =  2.18E-05,  avg # of iterations =  1.8

     negative rho (up, down):  1.196E-04 0.000E+00

     total cpu time spent up to now is      106.6 secs

     total energy              =    -489.75726852 Ry
     estimated scf accuracy    <       0.00309482 Ry

     iteration #  7     ecut=   150.00 Ry     beta= 0.70
     Davidson diagonalization with overlap
     ethr =  1.19E-05,  avg # of iterations =  3.6

     negative rho (up, down):  1.207E-04 0.000E+00

     total cpu time spent up to now is      118.8 secs

     total energy              =    -489.75789500 Ry
     estimated scf accuracy    <       0.00004005 Ry

     iteration #  8     ecut=   150.00 Ry     beta= 0.70
     Davidson diagonalization with overlap
     ethr =  1.54E-07,  avg # of iterations =  8.8

     negative rho (up, down):  1.208E-04 0.000E+00

     total cpu time spent up to now is      143.8 secs

     total energy              =    -489.75784969 Ry
     estimated scf accuracy    <       0.00276268 Ry

     iteration #  9     ecut=   150.00 Ry     beta= 0.70
     Davidson diagonalization with overlap
     ethr =  1.54E-07,  avg # of iterations =  6.2

     negative rho (up, down):  1.213E-04 0.000E+00

     total cpu time spent up to now is      162.5 secs

     total energy              =    -489.75790279 Ry
     estimated scf accuracy    <       0.00041411 Ry

     iteration # 10     ecut=   150.00 Ry     beta= 0.70
     Davidson diagonalization with overlap
     ethr =  1.54E-07,  avg # of iterations =  5.1

     negative rho (up, down):  1.213E-04 0.000E+00

     total cpu time spent up to now is      177.2 secs

     total energy              =    -489.75792402 Ry
     estimated scf accuracy    <       0.00003984 Ry

     iteration # 11     ecut=   150.00 Ry     beta= 0.70
     Davidson diagonalization with overlap
     ethr =  1.53E-07,  avg # of iterations =  3.5

     negative rho (up, down):  1.213E-04 0.000E+00

     total cpu time spent up to now is      188.9 secs

     total energy              =    -489.75792943 Ry
     estimated scf accuracy    <       0.00000225 Ry

     iteration # 12     ecut=   150.00 Ry     beta= 0.70
     Davidson diagonalization with overlap
     ethr =  8.65E-09,  avg # of iterations =  5.4

     negative rho (up, down):  1.214E-04 0.000E+00

     total cpu time spent up to now is      204.4 secs

     total energy              =    -489.75793092 Ry
     estimated scf accuracy    <       0.00000067 Ry

     iteration # 13     ecut=   150.00 Ry     beta= 0.70
     Davidson diagonalization with overlap
     ethr =  2.58E-09,  avg # of iterations =  2.9

     negative rho (up, down):  1.214E-04 0.000E+00

     total cpu time spent up to now is      216.1 secs

     total energy              =    -489.75793104 Ry
     estimated scf accuracy    <       0.00000001 Ry

     iteration # 14     ecut=   150.00 Ry     beta= 0.70
     Davidson diagonalization with overlap
     ethr =  5.42E-11,  avg # of iterations =  5.9

     negative rho (up, down):  1.214E-04 0.000E+00

     total cpu time spent up to now is      231.2 secs

     total energy              =    -489.75793107 Ry
     estimated scf accuracy    <       0.00000004 Ry

     iteration # 15     ecut=   150.00 Ry     beta= 0.70
     Davidson diagonalization with overlap
     ethr =  5.42E-11,  avg # of iterations =  4.4

     negative rho (up, down):  1.214E-04 0.000E+00

     total cpu time spent up to now is      244.8 secs

     total energy              =    -489.75793106 Ry
     estimated scf accuracy    <       0.00000016 Ry

     iteration # 16     ecut=   150.00 Ry     beta= 0.70
     Davidson diagonalization with overlap
     ethr =  5.42E-11,  avg # of iterations =  2.2

     negative rho (up, down):  1.214E-04 0.000E+00

     total cpu time spent up to now is      255.0 secs

     total energy              =    -489.75793104 Ry
     estimated scf accuracy    <       0.00000012 Ry

     iteration # 17     ecut=   150.00 Ry     beta= 0.70
     Davidson diagonalization with overlap
     ethr =  5.42E-11,  avg # of iterations =  5.6

     negative rho (up, down):  1.214E-04 0.000E+00

     total cpu time spent up to now is      269.7 secs

     total energy              =    -489.75793104 Ry
     estimated scf accuracy    <          7.2E-09 Ry

     iteration # 18     ecut=   150.00 Ry     beta= 0.70
     Davidson diagonalization with overlap
     ethr =  2.76E-11,  avg # of iterations =  4.2

     negative rho (up, down):  1.214E-04 0.000E+00

     total cpu time spent up to now is      283.0 secs

     total energy              =    -489.75793105 Ry
     estimated scf accuracy    <          1.4E-10 Ry

     iteration # 19     ecut=   150.00 Ry     beta= 0.70
     Davidson diagonalization with overlap
     ethr =  5.30E-13,  avg # of iterations =  6.4

     negative rho (up, down):  1.214E-04 0.000E+00

     total cpu time spent up to now is      301.0 secs

     total energy              =    -489.75793105 Ry
     estimated scf accuracy    <          1.8E-09 Ry

     iteration # 20     ecut=   150.00 Ry     beta= 0.70
     Davidson diagonalization with overlap
     ethr =  5.30E-13,  avg # of iterations =  4.8

     negative rho (up, down):  1.214E-04 0.000E+00

     total cpu time spent up to now is      315.0 secs

     total energy              =    -489.75793105 Ry
     estimated scf accuracy    <          3.8E-10 Ry

     iteration # 21     ecut=   150.00 Ry     beta= 0.70
     Davidson diagonalization with overlap
     ethr =  5.30E-13,  avg # of iterations =  5.7

     negative rho (up, down):  1.214E-04 0.000E+00

     total cpu time spent up to now is      331.3 secs

     total energy              =    -489.75793105 Ry
     estimated scf accuracy    <          1.3E-10 Ry

     iteration # 22     ecut=   150.00 Ry     beta= 0.70
     Davidson diagonalization with overlap
     ethr =  4.91E-13,  avg # of iterations =  1.0

     negative rho (up, down):  1.214E-04 0.000E+00

     total cpu time spent up to now is      340.7 secs

     total energy              =    -489.75793105 Ry
     estimated scf accuracy    <          1.1E-10 Ry

     iteration # 23     ecut=   150.00 Ry     beta= 0.70
     Davidson diagonalization with overlap
     ethr =  4.09E-13,  avg # of iterations =  1.0

     negative rho (up, down):  1.214E-04 0.000E+00

     total cpu time spent up to now is      350.0 secs

     total energy              =    -489.75793105 Ry
     estimated scf accuracy    <          9.2E-11 Ry

     iteration # 24     ecut=   150.00 Ry     beta= 0.70
     Davidson diagonalization with overlap
     ethr =  3.53E-13,  avg # of iterations =  2.7

     negative rho (up, down):  1.214E-04 0.000E+00

     total cpu time spent up to now is      361.1 secs

     total energy              =    -489.75793105 Ry
     estimated scf accuracy    <          6.4E-12 Ry

     iteration # 25     ecut=   150.00 Ry     beta= 0.70
     Davidson diagonalization with overlap
     ethr =  1.00E-13,  avg # of iterations =  4.4

     negative rho (up, down):  1.214E-04 0.000E+00

     total cpu time spent up to now is      374.5 secs

     total energy              =    -489.75793105 Ry
     estimated scf accuracy    <          1.2E-11 Ry

     iteration # 26     ecut=   150.00 Ry     beta= 0.70
     Davidson diagonalization with overlap
     ethr =  1.00E-13,  avg # of iterations =  1.5

     negative rho (up, down):  1.214E-04 0.000E+00

     total cpu time spent up to now is      384.2 secs

     total energy              =    -489.75793105 Ry
     estimated scf accuracy    <          2.1E-12 Ry

     iteration # 27     ecut=   150.00 Ry     beta= 0.70
     Davidson diagonalization with overlap
     ethr =  1.00E-13,  avg # of iterations =  1.0

     negative rho (up, down):  1.214E-04 0.000E+00

     total cpu time spent up to now is      393.4 secs

     total energy              =    -489.75793105 Ry
     estimated scf accuracy    <          1.5E-12 Ry

     iteration # 28     ecut=   150.00 Ry     beta= 0.70
     Davidson diagonalization with overlap
     ethr =  1.00E-13,  avg # of iterations =  1.0

     negative rho (up, down):  1.214E-04 0.000E+00

     total cpu time spent up to now is      402.7 secs

     End of self-consistent calculation

     Number of k-points >= 100: set verbosity='high' to print the bands.

     highest occupied level (ev):     0.3872

!    total energy              =    -489.75793105 Ry

     total all-electron energy =     -9688.215776 Ry
     estimated scf accuracy    <          3.2E-13 Ry

     The total energy is the sum of the following terms:
     one-electron contribution =    -814.25746700 Ry
     hartree contribution      =     410.96216641 Ry
     xc contribution           =     -29.52975045 Ry
     ewald contribution        =     255.95702675 Ry
     one-center paw contrib.   =    -312.88990676 Ry

     convergence has been achieved in  28 iterations

     negative rho (up, down):  1.214E-04 0.000E+00

     Forces acting on atoms (cartesian axes, Ry/au):

     atom    1 type  1   force =     0.00027087    0.00012800   -0.00000067
     atom    2 type  2   force =    -0.00013544   -0.00006400    0.00100335
     atom    3 type  2   force =    -0.00013543   -0.00006400   -0.00100268

     Total force =     0.001465     Total SCF correction =     0.000001


     Computing stress (Cartesian axis) and pressure


     negative rho (up, down):  1.214E-04 0.000E+00
          total   stress  (Ry/bohr**3)                   (kbar)     P=        1.82
   0.00001720  -0.00000086   0.00000000            2.53       -0.13        0.00
  -0.00000086   0.00001404   0.00000000           -0.13        2.07        0.00
   0.00000000   0.00000000   0.00000591            0.00        0.00        0.87


     Writing output data file /scratch/as3359/Mos2_ct_lat/MoS2.save/
 
     init_run     :     16.97s CPU      9.40s WALL (       1 calls)
     electrons    :    771.10s CPU    393.15s WALL (       1 calls)
     forces       :      5.07s CPU      2.58s WALL (       1 calls)
     stress       :     16.29s CPU      8.27s WALL (       1 calls)

     Called by init_run:
     wfcinit      :     11.22s CPU      5.75s WALL (       1 calls)
     potinit      :      1.48s CPU      0.75s WALL (       1 calls)
     hinit0       :      3.63s CPU      2.54s WALL (       1 calls)

     Called by electrons:
     c_bands      :    648.81s CPU    329.23s WALL (      28 calls)
     sum_band     :    104.93s CPU     54.01s WALL (      28 calls)
     v_of_rho     :      3.89s CPU      2.13s WALL (      29 calls)
     newd         :      6.81s CPU      4.19s WALL (      29 calls)
     PAW_pot      :      5.55s CPU      2.89s WALL (      29 calls)
     mix_rho      :      1.43s CPU      0.86s WALL (      28 calls)

     Called by c_bands:
     init_us_2    :     22.18s CPU     11.13s WALL (    6667 calls)
     cegterg      :    610.06s CPU    309.66s WALL (    3164 calls)

     Called by *egterg:
     cdiaghg      :      5.95s CPU      3.02s WALL (   16380 calls)
     h_psi        :    523.35s CPU    266.04s WALL (   16493 calls)
     s_psi        :     12.68s CPU      6.39s WALL (   16493 calls)
     g_psi        :      5.03s CPU      2.53s WALL (   13216 calls)

     Called by h_psi:
     h_psi:calbec :     19.14s CPU      9.66s WALL (   16493 calls)
     vloc_psi     :    485.71s CPU    247.05s WALL (   16493 calls)
     add_vuspsi   :     14.00s CPU      7.06s WALL (   16493 calls)

     General routines
     calbec       :     24.43s CPU     12.33s WALL (   20222 calls)
     fft          :      2.14s CPU      1.24s WALL (     344 calls)
     ffts         :      0.10s CPU      0.05s WALL (      28 calls)
     fftw         :    471.05s CPU    239.89s WALL (  310726 calls)
 
     Parallel routines
 
     PWSCF        :  13m32.49s CPU   6m56.31s WALL

 
   This run was terminated on:  14:49:40  17Apr2022            

=------------------------------------------------------------------------------=
   JOB DONE.
=------------------------------------------------------------------------------=
