
     Program PWSCF v.6.8 starts on 17Apr2022 at 15:12: 1 

     This program is part of the open-source Quantum ESPRESSO suite
     for quantum simulation of materials; please cite
         "P. Giannozzi et al., J. Phys.:Condens. Matter 21 395502 (2009);
         "P. Giannozzi et al., J. Phys.:Condens. Matter 29 465901 (2017);
         "P. Giannozzi et al., J. Chem. Phys. 152 154105 (2020);
          URL http://www.quantum-espresso.org", 
     in publications or presentations arising from this work. More details at
     http://www.quantum-espresso.org/quote

     Parallel version (MPI & OpenMP), running on       4 processor cores
     Number of MPI processes:                 2
     Threads/MPI process:                     2

     MPI processes distributed on     1 nodes
     R & G space division:  proc/nbgrp/npool/nimage =       2
     125016 MiB available memory on the printing compute node when the environment starts
 
     Reading input from MoS2.scf.6.076.in
Warning: card  &CELL ignored
Warning: card     CELL_DYNAMICS='BFGS' ignored
Warning: card  / ignored

     Current dimensions of program PWSCF are:
     Max number of different atomic species (ntypx) = 10
     Max number of k-points (npk) =  40000
     Max angular momentum in pseudopotentials (lmaxx) =  4
     Message from routine iosys:
     restart disabled: needed files not found
     file Mo.pbesol-spn-kjpaw_psl.1.0.0.UPF: wavefunction(s)  4S 4D renormalized
     file S.pbesol-nl-kjpaw_psl.1.0.0.UPF: wavefunction(s)  3S renormalized

     Subspace diagonalization in iterative solution of the eigenvalue problem:
     a serial algorithm will be used

 
     Parallelization info
     --------------------
     sticks:   dense  smooth     PW     G-vecs:    dense   smooth      PW
     Min         729     729    215               114889   114889   18161
     Max         730     730    218               114902   114902   18162
     Sum        1459    1459    433               229791   229791   36323
 
     Using Slab Decomposition
 


     bravais-lattice index     =            0
     lattice parameter (alat)  =       6.0760  a.u.
     unit-cell volume          =     926.6284 (a.u.)^3
     number of atoms/cell      =            3
     number of atomic types    =            2
     number of electrons       =        26.00
     number of Kohn-Sham states=           13
     kinetic-energy cutoff     =     150.0000  Ry
     charge density cutoff     =     600.0000  Ry
     scf convergence threshold =      1.0E-12
     mixing beta               =       0.7000
     number of iterations used =            8  plain     mixing
     Exchange-correlation= SLA  PW   PSX  PSC
                           (   1   4  10   8   0   0   0)

     celldm(1)=   6.076000  celldm(2)=   0.000000  celldm(3)=   0.000000
     celldm(4)=   0.000000  celldm(5)=   0.000000  celldm(6)=   0.000000

     crystal axes: (cart. coord. in units of alat)
               a(1) = (   0.976384  -0.000017   0.000000 )  
               a(2) = (  -0.487931   0.846187   0.000000 )  
               a(3) = (   0.000000   0.000000   5.000000 )  

     reciprocal axes: (cart. coord. in units 2 pi/alat)
               b(1) = (  1.024198  0.590577  0.000000 )  
               b(2) = (  0.000021  1.181785  0.000000 )  
               b(3) = (  0.000000  0.000000  0.200000 )  


     PseudoPot. # 1 for Mo read from file:
     /shared/home/as3359/pseudo/Mo.pbesol-spn-kjpaw_psl.1.0.0.UPF
     MD5 check sum: de57925cfc675213e43241dcc441eda8
     Pseudo is Projector augmented-wave + core cor, Zval = 14.0
     Generated using &quot;atomic&quot; code by A. Dal Corso  v.6.3
     Shape of augmentation charge: PSQ
     Using radial grid of 1229 points,  6 beta functions with: 
                l(1) =   0
                l(2) =   0
                l(3) =   1
                l(4) =   1
                l(5) =   2
                l(6) =   2
     Q(r) pseudized with 0 coefficients 


     PseudoPot. # 2 for S  read from file:
     /shared/home/as3359/pseudo/S.pbesol-nl-kjpaw_psl.1.0.0.UPF
     MD5 check sum: bf3db50ec3f960682bbc396f1aadd1dd
     Pseudo is Projector augmented-wave + core cor, Zval =  6.0
     Generated using &quot;atomic&quot; code by A. Dal Corso  v.6.3
     Shape of augmentation charge: PSQ
     Using radial grid of 1151 points,  4 beta functions with: 
                l(1) =   0
                l(2) =   0
                l(3) =   1
                l(4) =   1
     Q(r) pseudized with 0 coefficients 


     atomic species   valence    mass     pseudopotential
        Mo            14.00    95.94000     Mo( 1.00)
        S              6.00    32.06500     S ( 1.00)

     No symmetry found



   Cartesian axes

     site n.     atom                  positions (alat units)
         1           Mo  tau(   1) = (   0.0000000   0.0000000   1.6880765  )
         2           S   tau(   2) = (   0.4883508   0.2821722   2.1737857  )
         3           S   tau(   3) = (   0.4883508   0.2821722   1.2023670  )

     number of k points=   113

     Number of k-points >= 100: set verbosity='high' to print them.

     Dense  grid:   229791 G-vectors     FFT dimensions: (  48,  48, 240)

     Estimated max dynamical RAM per process >     759.08 MB

     Estimated total dynamical RAM >       1.48 GB
     Cannot read rho : file not found

     Initial potential from superposition of free atoms

     starting charge   25.99914, renormalised to   26.00000

     negative rho (up, down):  8.897E-05 0.000E+00
     Message from routine qexsd_readschema :
     xml data file /scratch/as3359/Mos2_ct_lat/MoS2.save/data-file-schema.xml not fou
     Cannot read wfcs: file not found
     Starting wfcs are   18 randomized atomic wfcs
     Checking if some PAW data can be deallocated... 

     total cpu time spent up to now is       10.2 secs

     Self-consistent Calculation

     iteration #  1     ecut=   150.00 Ry     beta= 0.70
     Davidson diagonalization with overlap
     ethr =  1.00E-05,  avg # of iterations = 10.4

     negative rho (up, down):  1.208E-04 0.000E+00

     total cpu time spent up to now is       40.3 secs

     total energy              =    -489.68987200 Ry
     estimated scf accuracy    <       0.14983399 Ry

     iteration #  2     ecut=   150.00 Ry     beta= 0.70
     Davidson diagonalization with overlap
     ethr =  5.76E-04,  avg # of iterations =  5.0

     negative rho (up, down):  1.107E-04 0.000E+00

     total cpu time spent up to now is       55.8 secs

     total energy              =    -489.64940734 Ry
     estimated scf accuracy    <       0.55020190 Ry

     iteration #  3     ecut=   150.00 Ry     beta= 0.70
     Davidson diagonalization with overlap
     ethr =  5.76E-04,  avg # of iterations =  5.1

     negative rho (up, down):  1.117E-04 0.000E+00

     total cpu time spent up to now is       70.9 secs

     total energy              =    -489.75204990 Ry
     estimated scf accuracy    <       0.04375831 Ry

     iteration #  4     ecut=   150.00 Ry     beta= 0.70
     Davidson diagonalization with overlap
     ethr =  1.68E-04,  avg # of iterations =  2.4

     negative rho (up, down):  1.171E-04 0.000E+00

     total cpu time spent up to now is       81.9 secs

     total energy              =    -489.75473982 Ry
     estimated scf accuracy    <       0.00557734 Ry

     iteration #  5     ecut=   150.00 Ry     beta= 0.70
     Davidson diagonalization with overlap
     ethr =  2.15E-05,  avg # of iterations =  5.2

     negative rho (up, down):  1.182E-04 0.000E+00

     total cpu time spent up to now is       97.8 secs

     total energy              =    -489.75779853 Ry
     estimated scf accuracy    <       0.00887317 Ry

     iteration #  6     ecut=   150.00 Ry     beta= 0.70
     Davidson diagonalization with overlap
     ethr =  2.15E-05,  avg # of iterations =  1.8

     negative rho (up, down):  1.189E-04 0.000E+00

     total cpu time spent up to now is      107.8 secs

     total energy              =    -489.75742823 Ry
     estimated scf accuracy    <       0.00341869 Ry

     iteration #  7     ecut=   150.00 Ry     beta= 0.70
     Davidson diagonalization with overlap
     ethr =  1.31E-05,  avg # of iterations =  3.2

     negative rho (up, down):  1.202E-04 0.000E+00

     total cpu time spent up to now is      119.3 secs

     total energy              =    -489.75762837 Ry
     estimated scf accuracy    <       0.00034823 Ry

     iteration #  8     ecut=   150.00 Ry     beta= 0.70
     Davidson diagonalization with overlap
     ethr =  1.34E-06,  avg # of iterations =  6.4

     negative rho (up, down):  1.203E-04 0.000E+00

     total cpu time spent up to now is      137.7 secs

     total energy              =    -489.75789989 Ry
     estimated scf accuracy    <       0.00230662 Ry

     iteration #  9     ecut=   150.00 Ry     beta= 0.70
     Davidson diagonalization with overlap
     ethr =  1.34E-06,  avg # of iterations =  3.5

     negative rho (up, down):  1.207E-04 0.000E+00

     total cpu time spent up to now is      150.1 secs

     total energy              =    -489.75785918 Ry
     estimated scf accuracy    <       0.00063163 Ry

     iteration # 10     ecut=   150.00 Ry     beta= 0.70
     Davidson diagonalization with overlap
     ethr =  1.34E-06,  avg # of iterations =  4.2

     negative rho (up, down):  1.208E-04 0.000E+00

     total cpu time spent up to now is      163.2 secs

     total energy              =    -489.75793509 Ry
     estimated scf accuracy    <       0.00001880 Ry

     iteration # 11     ecut=   150.00 Ry     beta= 0.70
     Davidson diagonalization with overlap
     ethr =  7.23E-08,  avg # of iterations =  5.5

     negative rho (up, down):  1.208E-04 0.000E+00

     total cpu time spent up to now is      179.0 secs

     total energy              =    -489.75795129 Ry
     estimated scf accuracy    <       0.00001310 Ry

     iteration # 12     ecut=   150.00 Ry     beta= 0.70
     Davidson diagonalization with overlap
     ethr =  5.04E-08,  avg # of iterations =  1.0

     negative rho (up, down):  1.208E-04 0.000E+00

     total cpu time spent up to now is      188.4 secs

     total energy              =    -489.75794527 Ry
     estimated scf accuracy    <       0.00001453 Ry

     iteration # 13     ecut=   150.00 Ry     beta= 0.70
     Davidson diagonalization with overlap
     ethr =  5.04E-08,  avg # of iterations =  3.9

     negative rho (up, down):  1.209E-04 0.000E+00

     total cpu time spent up to now is      201.0 secs

     total energy              =    -489.75794876 Ry
     estimated scf accuracy    <       0.00000067 Ry

     iteration # 14     ecut=   150.00 Ry     beta= 0.70
     Davidson diagonalization with overlap
     ethr =  2.56E-09,  avg # of iterations =  4.8

     negative rho (up, down):  1.209E-04 0.000E+00

     total cpu time spent up to now is      215.6 secs

     total energy              =    -489.75794821 Ry
     estimated scf accuracy    <       0.00000284 Ry

     iteration # 15     ecut=   150.00 Ry     beta= 0.70
     Davidson diagonalization with overlap
     ethr =  2.56E-09,  avg # of iterations =  4.7

     negative rho (up, down):  1.209E-04 0.000E+00

     total cpu time spent up to now is      229.6 secs

     total energy              =    -489.75794863 Ry
     estimated scf accuracy    <          2.9E-09 Ry

     iteration # 16     ecut=   150.00 Ry     beta= 0.70
     Davidson diagonalization with overlap
     ethr =  1.11E-11,  avg # of iterations = 12.4

     negative rho (up, down):  1.209E-04 0.000E+00

     total cpu time spent up to now is      263.0 secs

     total energy              =    -489.75794866 Ry
     estimated scf accuracy    <       0.00000051 Ry

     iteration # 17     ecut=   150.00 Ry     beta= 0.70
     Davidson diagonalization with overlap
     ethr =  1.11E-11,  avg # of iterations =  6.8

     negative rho (up, down):  1.209E-04 0.000E+00

     total cpu time spent up to now is      282.7 secs

     total energy              =    -489.75794865 Ry
     estimated scf accuracy    <       0.00000019 Ry

     iteration # 18     ecut=   150.00 Ry     beta= 0.70
     Davidson diagonalization with overlap
     ethr =  1.11E-11,  avg # of iterations =  5.8

     negative rho (up, down):  1.209E-04 0.000E+00

     total cpu time spent up to now is      300.1 secs

     total energy              =    -489.75794864 Ry
     estimated scf accuracy    <       0.00000006 Ry

     iteration # 19     ecut=   150.00 Ry     beta= 0.70
     Davidson diagonalization with overlap
     ethr =  1.11E-11,  avg # of iterations =  6.6

     negative rho (up, down):  1.209E-04 0.000E+00

     total cpu time spent up to now is      318.8 secs

     total energy              =    -489.75794864 Ry
     estimated scf accuracy    <          1.5E-10 Ry

     iteration # 20     ecut=   150.00 Ry     beta= 0.70
     Davidson diagonalization with overlap
     ethr =  5.78E-13,  avg # of iterations =  6.8

     negative rho (up, down):  1.209E-04 0.000E+00

     total cpu time spent up to now is      336.9 secs

     total energy              =    -489.75794864 Ry
     estimated scf accuracy    <          7.2E-10 Ry

     iteration # 21     ecut=   150.00 Ry     beta= 0.70
     Davidson diagonalization with overlap
     ethr =  5.78E-13,  avg # of iterations =  4.2

     negative rho (up, down):  1.209E-04 0.000E+00

     total cpu time spent up to now is      350.0 secs

     total energy              =    -489.75794864 Ry
     estimated scf accuracy    <          8.0E-11 Ry

     iteration # 22     ecut=   150.00 Ry     beta= 0.70
     Davidson diagonalization with overlap
     ethr =  3.08E-13,  avg # of iterations =  1.3

     negative rho (up, down):  1.209E-04 0.000E+00

     total cpu time spent up to now is      359.5 secs

     total energy              =    -489.75794864 Ry
     estimated scf accuracy    <          5.5E-11 Ry

     iteration # 23     ecut=   150.00 Ry     beta= 0.70
     Davidson diagonalization with overlap
     ethr =  2.10E-13,  avg # of iterations =  4.6

     negative rho (up, down):  1.209E-04 0.000E+00

     total cpu time spent up to now is      373.6 secs

     total energy              =    -489.75794864 Ry
     estimated scf accuracy    <          1.4E-11 Ry

     iteration # 24     ecut=   150.00 Ry     beta= 0.70
     Davidson diagonalization with overlap
     ethr =  1.00E-13,  avg # of iterations =  1.1

     negative rho (up, down):  1.209E-04 0.000E+00

     total cpu time spent up to now is      383.0 secs

     total energy              =    -489.75794864 Ry
     estimated scf accuracy    <          9.2E-12 Ry

     iteration # 25     ecut=   150.00 Ry     beta= 0.70
     Davidson diagonalization with overlap
     ethr =  1.00E-13,  avg # of iterations =  1.0

     negative rho (up, down):  1.209E-04 0.000E+00

     total cpu time spent up to now is      392.3 secs

     total energy              =    -489.75794864 Ry
     estimated scf accuracy    <          3.8E-12 Ry

     iteration # 26     ecut=   150.00 Ry     beta= 0.70
     Davidson diagonalization with overlap
     ethr =  1.00E-13,  avg # of iterations =  1.0

     negative rho (up, down):  1.209E-04 0.000E+00

     total cpu time spent up to now is      401.7 secs

     total energy              =    -489.75794864 Ry
     estimated scf accuracy    <          1.1E-12 Ry

     iteration # 27     ecut=   150.00 Ry     beta= 0.70
     Davidson diagonalization with overlap
     ethr =  1.00E-13,  avg # of iterations =  1.0

     negative rho (up, down):  1.209E-04 0.000E+00

     total cpu time spent up to now is      411.0 secs

     End of self-consistent calculation

     Number of k-points >= 100: set verbosity='high' to print the bands.

     highest occupied level (ev):     0.3638

!    total energy              =    -489.75794864 Ry

     total all-electron energy =     -9688.215794 Ry
     estimated scf accuracy    <          1.4E-13 Ry

     The total energy is the sum of the following terms:
     one-electron contribution =    -813.55543056 Ry
     hartree contribution      =     410.58623304 Ry
     xc contribution           =     -29.51974137 Ry
     ewald contribution        =     255.62001947 Ry
     one-center paw contrib.   =    -312.88902922 Ry

     convergence has been achieved in  27 iterations

     negative rho (up, down):  1.209E-04 0.000E+00

     Forces acting on atoms (cartesian axes, Ry/au):

     atom    1 type  1   force =     0.00026686    0.00012991   -0.00000063
     atom    2 type  2   force =    -0.00013343   -0.00006497   -0.00164977
     atom    3 type  2   force =    -0.00013343   -0.00006494    0.00165040

     Total force =     0.002362     Total SCF correction =     0.000001


     Computing stress (Cartesian axis) and pressure


     negative rho (up, down):  1.209E-04 0.000E+00
          total   stress  (Ry/bohr**3)                   (kbar)     P=       -0.55
   0.00000145  -0.00000085   0.00000000            0.21       -0.12        0.00
  -0.00000085  -0.00000168  -0.00000000           -0.12       -0.25       -0.00
   0.00000000  -0.00000000  -0.00001100            0.00       -0.00       -1.62


     Writing output data file /scratch/as3359/Mos2_ct_lat/MoS2.save/
 
     init_run     :     18.04s CPU     10.05s WALL (       1 calls)
     electrons    :    786.52s CPU    400.86s WALL (       1 calls)
     forces       :      5.09s CPU      2.58s WALL (       1 calls)
     stress       :     16.32s CPU      8.29s WALL (       1 calls)

     Called by init_run:
     wfcinit      :     11.50s CPU      5.90s WALL (       1 calls)
     potinit      :      2.10s CPU      1.19s WALL (       1 calls)
     hinit0       :      3.66s CPU      2.53s WALL (       1 calls)

     Called by electrons:
     c_bands      :    668.29s CPU    339.06s WALL (      27 calls)
     sum_band     :    101.64s CPU     52.29s WALL (      27 calls)
     v_of_rho     :      3.74s CPU      2.08s WALL (      28 calls)
     newd         :      6.63s CPU      4.08s WALL (      28 calls)
     PAW_pot      :      5.33s CPU      2.78s WALL (      28 calls)
     mix_rho      :      1.36s CPU      0.83s WALL (      27 calls)

     Called by c_bands:
     init_us_2    :     21.36s CPU     10.72s WALL (    6441 calls)
     cegterg      :    630.42s CPU    319.91s WALL (    3051 calls)

     Called by *egterg:
     cdiaghg      :      6.20s CPU      3.14s WALL (   16575 calls)
     h_psi        :    541.89s CPU    275.42s WALL (   16688 calls)
     s_psi        :     12.68s CPU      6.38s WALL (   16688 calls)
     g_psi        :      5.28s CPU      2.66s WALL (   13524 calls)

     Called by h_psi:
     h_psi:calbec :     19.08s CPU      9.63s WALL (   16688 calls)
     vloc_psi     :    504.14s CPU    256.38s WALL (   16688 calls)
     add_vuspsi   :     14.14s CPU      7.12s WALL (   16688 calls)

     General routines
     calbec       :     24.09s CPU     12.16s WALL (   20304 calls)
     fft          :      2.02s CPU      1.19s WALL (     333 calls)
     ffts         :      0.10s CPU      0.05s WALL (      27 calls)
     fftw         :    484.83s CPU    246.87s WALL (  315617 calls)
 
     Parallel routines
 
     PWSCF        :  13m49.05s CPU   7m 4.70s WALL

 
   This run was terminated on:  15:19: 5  17Apr2022            

=------------------------------------------------------------------------------=
   JOB DONE.
=------------------------------------------------------------------------------=
