
     Program PWSCF v.6.8 starts on 17Apr2022 at 14:18:45 

     This program is part of the open-source Quantum ESPRESSO suite
     for quantum simulation of materials; please cite
         "P. Giannozzi et al., J. Phys.:Condens. Matter 21 395502 (2009);
         "P. Giannozzi et al., J. Phys.:Condens. Matter 29 465901 (2017);
         "P. Giannozzi et al., J. Chem. Phys. 152 154105 (2020);
          URL http://www.quantum-espresso.org", 
     in publications or presentations arising from this work. More details at
     http://www.quantum-espresso.org/quote

     Parallel version (MPI & OpenMP), running on       4 processor cores
     Number of MPI processes:                 2
     Threads/MPI process:                     2

     MPI processes distributed on     1 nodes
     R & G space division:  proc/nbgrp/npool/nimage =       2
     125224 MiB available memory on the printing compute node when the environment starts
 
     Reading input from MoS2.scf.6.062.in
Warning: card  &CELL ignored
Warning: card     CELL_DYNAMICS='BFGS' ignored
Warning: card  / ignored

     Current dimensions of program PWSCF are:
     Max number of different atomic species (ntypx) = 10
     Max number of k-points (npk) =  40000
     Max angular momentum in pseudopotentials (lmaxx) =  4
     Message from routine iosys:
     restart disabled: needed files not found
     file Mo.pbesol-spn-kjpaw_psl.1.0.0.UPF: wavefunction(s)  4S 4D renormalized
     file S.pbesol-nl-kjpaw_psl.1.0.0.UPF: wavefunction(s)  3S renormalized

     Subspace diagonalization in iterative solution of the eigenvalue problem:
     a serial algorithm will be used

 
     Parallelization info
     --------------------
     sticks:   dense  smooth     PW     G-vecs:    dense   smooth      PW
     Min         726     726    210               114038   114038   18020
     Max         727     727    211               114039   114039   18043
     Sum        1453    1453    421               228077   228077   36063
 
     Using Slab Decomposition
 


     bravais-lattice index     =            0
     lattice parameter (alat)  =       6.0620  a.u.
     unit-cell volume          =     920.2379 (a.u.)^3
     number of atoms/cell      =            3
     number of atomic types    =            2
     number of electrons       =        26.00
     number of Kohn-Sham states=           13
     kinetic-energy cutoff     =     150.0000  Ry
     charge density cutoff     =     600.0000  Ry
     scf convergence threshold =      1.0E-12
     mixing beta               =       0.7000
     number of iterations used =            8  plain     mixing
     Exchange-correlation= SLA  PW   PSX  PSC
                           (   1   4  10   8   0   0   0)

     celldm(1)=   6.062000  celldm(2)=   0.000000  celldm(3)=   0.000000
     celldm(4)=   0.000000  celldm(5)=   0.000000  celldm(6)=   0.000000

     crystal axes: (cart. coord. in units of alat)
               a(1) = (   0.976384  -0.000017   0.000000 )  
               a(2) = (  -0.487931   0.846187   0.000000 )  
               a(3) = (   0.000000   0.000000   5.000000 )  

     reciprocal axes: (cart. coord. in units 2 pi/alat)
               b(1) = (  1.024198  0.590577  0.000000 )  
               b(2) = (  0.000021  1.181785  0.000000 )  
               b(3) = (  0.000000  0.000000  0.200000 )  


     PseudoPot. # 1 for Mo read from file:
     /shared/home/as3359/pseudo/Mo.pbesol-spn-kjpaw_psl.1.0.0.UPF
     MD5 check sum: de57925cfc675213e43241dcc441eda8
     Pseudo is Projector augmented-wave + core cor, Zval = 14.0
     Generated using &quot;atomic&quot; code by A. Dal Corso  v.6.3
     Shape of augmentation charge: PSQ
     Using radial grid of 1229 points,  6 beta functions with: 
                l(1) =   0
                l(2) =   0
                l(3) =   1
                l(4) =   1
                l(5) =   2
                l(6) =   2
     Q(r) pseudized with 0 coefficients 


     PseudoPot. # 2 for S  read from file:
     /shared/home/as3359/pseudo/S.pbesol-nl-kjpaw_psl.1.0.0.UPF
     MD5 check sum: bf3db50ec3f960682bbc396f1aadd1dd
     Pseudo is Projector augmented-wave + core cor, Zval =  6.0
     Generated using &quot;atomic&quot; code by A. Dal Corso  v.6.3
     Shape of augmentation charge: PSQ
     Using radial grid of 1151 points,  4 beta functions with: 
                l(1) =   0
                l(2) =   0
                l(3) =   1
                l(4) =   1
     Q(r) pseudized with 0 coefficients 


     atomic species   valence    mass     pseudopotential
        Mo            14.00    95.94000     Mo( 1.00)
        S              6.00    32.06500     S ( 1.00)

     No symmetry found



   Cartesian axes

     site n.     atom                  positions (alat units)
         1           Mo  tau(   1) = (   0.0000000   0.0000000   1.6880765  )
         2           S   tau(   2) = (   0.4883508   0.2821722   2.1737857  )
         3           S   tau(   3) = (   0.4883508   0.2821722   1.2023670  )

     number of k points=   113

     Number of k-points >= 100: set verbosity='high' to print them.

     Dense  grid:   228077 G-vectors     FFT dimensions: (  48,  48, 240)

     Estimated max dynamical RAM per process >     753.76 MB

     Estimated total dynamical RAM >       1.47 GB
     Cannot read rho : file not found

     Initial potential from superposition of free atoms

     starting charge   25.99914, renormalised to   26.00000

     negative rho (up, down):  8.870E-05 0.000E+00
     Message from routine qexsd_readschema :
     xml data file /scratch/as3359/Mos2_ct_lat/MoS2.save/data-file-schema.xml not fou
     Cannot read wfcs: file not found
     Starting wfcs are   18 randomized atomic wfcs
     Checking if some PAW data can be deallocated... 

     total cpu time spent up to now is       10.0 secs

     Self-consistent Calculation

     iteration #  1     ecut=   150.00 Ry     beta= 0.70
     Davidson diagonalization with overlap
     ethr =  1.00E-05,  avg # of iterations = 10.4

     negative rho (up, down):  1.208E-04 0.000E+00

     total cpu time spent up to now is       40.4 secs

     total energy              =    -489.68738366 Ry
     estimated scf accuracy    <       0.15369141 Ry

     iteration #  2     ecut=   150.00 Ry     beta= 0.70
     Davidson diagonalization with overlap
     ethr =  5.91E-04,  avg # of iterations =  5.0

     negative rho (up, down):  1.100E-04 0.000E+00

     total cpu time spent up to now is       56.2 secs

     total energy              =    -489.64366024 Ry
     estimated scf accuracy    <       0.58614625 Ry

     iteration #  3     ecut=   150.00 Ry     beta= 0.70
     Davidson diagonalization with overlap
     ethr =  5.91E-04,  avg # of iterations =  5.1

     negative rho (up, down):  1.111E-04 0.000E+00

     total cpu time spent up to now is       71.4 secs

     total energy              =    -489.75224860 Ry
     estimated scf accuracy    <       0.04117425 Ry

     iteration #  4     ecut=   150.00 Ry     beta= 0.70
     Davidson diagonalization with overlap
     ethr =  1.58E-04,  avg # of iterations =  2.3

     negative rho (up, down):  1.169E-04 0.000E+00

     total cpu time spent up to now is       82.5 secs

     total energy              =    -489.75483331 Ry
     estimated scf accuracy    <       0.00545507 Ry

     iteration #  5     ecut=   150.00 Ry     beta= 0.70
     Davidson diagonalization with overlap
     ethr =  2.10E-05,  avg # of iterations =  5.1

     negative rho (up, down):  1.181E-04 0.000E+00

     total cpu time spent up to now is       98.2 secs

     total energy              =    -489.75765161 Ry
     estimated scf accuracy    <       0.00744585 Ry

     iteration #  6     ecut=   150.00 Ry     beta= 0.70
     Davidson diagonalization with overlap
     ethr =  2.10E-05,  avg # of iterations =  1.8

     negative rho (up, down):  1.198E-04 0.000E+00

     total cpu time spent up to now is      108.3 secs

     total energy              =    -489.75670139 Ry
     estimated scf accuracy    <       0.00258048 Ry

     iteration #  7     ecut=   150.00 Ry     beta= 0.70
     Davidson diagonalization with overlap
     ethr =  9.92E-06,  avg # of iterations =  5.3

     negative rho (up, down):  1.200E-04 0.000E+00

     total cpu time spent up to now is      123.1 secs

     total energy              =    -489.75827637 Ry
     estimated scf accuracy    <       0.00262493 Ry

     iteration #  8     ecut=   150.00 Ry     beta= 0.70
     Davidson diagonalization with overlap
     ethr =  9.92E-06,  avg # of iterations =  1.0

     negative rho (up, down):  1.202E-04 0.000E+00

     total cpu time spent up to now is      132.6 secs

     total energy              =    -489.75774739 Ry
     estimated scf accuracy    <       0.00247401 Ry

     iteration #  9     ecut=   150.00 Ry     beta= 0.70
     Davidson diagonalization with overlap
     ethr =  9.52E-06,  avg # of iterations =  1.9

     negative rho (up, down):  1.202E-04 0.000E+00

     total cpu time spent up to now is      142.8 secs

     total energy              =    -489.75788655 Ry
     estimated scf accuracy    <       0.00064117 Ry

     iteration # 10     ecut=   150.00 Ry     beta= 0.70
     Davidson diagonalization with overlap
     ethr =  2.47E-06,  avg # of iterations =  1.2

     negative rho (up, down):  1.200E-04 0.000E+00

     total cpu time spent up to now is      152.4 secs

     total energy              =    -489.75784238 Ry
     estimated scf accuracy    <       0.00060214 Ry

     iteration # 11     ecut=   150.00 Ry     beta= 0.70
     Davidson diagonalization with overlap
     ethr =  2.32E-06,  avg # of iterations =  1.9

     negative rho (up, down):  1.210E-04 0.000E+00

     total cpu time spent up to now is      162.4 secs

     total energy              =    -489.75782885 Ry
     estimated scf accuracy    <       0.00025406 Ry

     iteration # 12     ecut=   150.00 Ry     beta= 0.70
     Davidson diagonalization with overlap
     ethr =  9.77E-07,  avg # of iterations =  4.0

     negative rho (up, down):  1.209E-04 0.000E+00

     total cpu time spent up to now is      174.5 secs

     total energy              =    -489.75786299 Ry
     estimated scf accuracy    <       0.00001764 Ry

     iteration # 13     ecut=   150.00 Ry     beta= 0.70
     Davidson diagonalization with overlap
     ethr =  6.78E-08,  avg # of iterations =  6.8

     negative rho (up, down):  1.206E-04 0.000E+00

     total cpu time spent up to now is      195.4 secs

     total energy              =    -489.75788499 Ry
     estimated scf accuracy    <       0.00021853 Ry

     iteration # 14     ecut=   150.00 Ry     beta= 0.70
     Davidson diagonalization with overlap
     ethr =  6.78E-08,  avg # of iterations =  2.9

     negative rho (up, down):  1.205E-04 0.000E+00

     total cpu time spent up to now is      207.6 secs

     total energy              =    -489.75786639 Ry
     estimated scf accuracy    <       0.00009389 Ry

     iteration # 15     ecut=   150.00 Ry     beta= 0.70
     Davidson diagonalization with overlap
     ethr =  6.78E-08,  avg # of iterations =  5.1

     negative rho (up, down):  1.206E-04 0.000E+00

     total cpu time spent up to now is      222.6 secs

     total energy              =    -489.75787913 Ry
     estimated scf accuracy    <       0.00000125 Ry

     iteration # 16     ecut=   150.00 Ry     beta= 0.70
     Davidson diagonalization with overlap
     ethr =  4.81E-09,  avg # of iterations =  4.6

     negative rho (up, down):  1.206E-04 0.000E+00

     total cpu time spent up to now is      236.2 secs

     total energy              =    -489.75788018 Ry
     estimated scf accuracy    <       0.00000287 Ry

     iteration # 17     ecut=   150.00 Ry     beta= 0.70
     Davidson diagonalization with overlap
     ethr =  4.81E-09,  avg # of iterations =  2.7

     negative rho (up, down):  1.206E-04 0.000E+00

     total cpu time spent up to now is      247.6 secs

     total energy              =    -489.75787936 Ry
     estimated scf accuracy    <       0.00000654 Ry

     iteration # 18     ecut=   150.00 Ry     beta= 0.70
     Davidson diagonalization with overlap
     ethr =  4.81E-09,  avg # of iterations =  2.0

     negative rho (up, down):  1.206E-04 0.000E+00

     total cpu time spent up to now is      258.1 secs

     total energy              =    -489.75787871 Ry
     estimated scf accuracy    <       0.00000365 Ry

     iteration # 19     ecut=   150.00 Ry     beta= 0.70
     Davidson diagonalization with overlap
     ethr =  4.81E-09,  avg # of iterations =  3.9

     negative rho (up, down):  1.206E-04 0.000E+00

     total cpu time spent up to now is      271.0 secs

     total energy              =    -489.75787906 Ry
     estimated scf accuracy    <       0.00000036 Ry

     iteration # 20     ecut=   150.00 Ry     beta= 0.70
     Davidson diagonalization with overlap
     ethr =  1.38E-09,  avg # of iterations =  1.8

     negative rho (up, down):  1.207E-04 0.000E+00

     total cpu time spent up to now is      281.0 secs

     total energy              =    -489.75787906 Ry
     estimated scf accuracy    <       0.00000026 Ry

     iteration # 21     ecut=   150.00 Ry     beta= 0.70
     Davidson diagonalization with overlap
     ethr =  9.87E-10,  avg # of iterations =  2.3

     negative rho (up, down):  1.207E-04 0.000E+00

     total cpu time spent up to now is      291.4 secs

     total energy              =    -489.75787904 Ry
     estimated scf accuracy    <       0.00000015 Ry

     iteration # 22     ecut=   150.00 Ry     beta= 0.70
     Davidson diagonalization with overlap
     ethr =  5.62E-10,  avg # of iterations =  4.3

     negative rho (up, down):  1.207E-04 0.000E+00

     total cpu time spent up to now is      304.4 secs

     total energy              =    -489.75787907 Ry
     estimated scf accuracy    <       0.00000002 Ry

     iteration # 23     ecut=   150.00 Ry     beta= 0.70
     Davidson diagonalization with overlap
     ethr =  6.22E-11,  avg # of iterations =  4.5

     negative rho (up, down):  1.207E-04 0.000E+00

     total cpu time spent up to now is      317.4 secs

     total energy              =    -489.75787907 Ry
     estimated scf accuracy    <          9.9E-09 Ry

     iteration # 24     ecut=   150.00 Ry     beta= 0.70
     Davidson diagonalization with overlap
     ethr =  3.82E-11,  avg # of iterations =  1.7

     negative rho (up, down):  1.207E-04 0.000E+00

     total cpu time spent up to now is      327.3 secs

     total energy              =    -489.75787907 Ry
     estimated scf accuracy    <          4.7E-09 Ry

     iteration # 25     ecut=   150.00 Ry     beta= 0.70
     Davidson diagonalization with overlap
     ethr =  1.82E-11,  avg # of iterations =  2.9

     negative rho (up, down):  1.207E-04 0.000E+00

     total cpu time spent up to now is      338.9 secs

     total energy              =    -489.75787907 Ry
     estimated scf accuracy    <          4.3E-10 Ry

     iteration # 26     ecut=   150.00 Ry     beta= 0.70
     Davidson diagonalization with overlap
     ethr =  1.64E-12,  avg # of iterations =  5.4

     negative rho (up, down):  1.207E-04 0.000E+00

     total cpu time spent up to now is      355.1 secs

     total energy              =    -489.75787907 Ry
     estimated scf accuracy    <          1.2E-09 Ry

     iteration # 27     ecut=   150.00 Ry     beta= 0.70
     Davidson diagonalization with overlap
     ethr =  1.64E-12,  avg # of iterations =  3.5

     negative rho (up, down):  1.207E-04 0.000E+00

     total cpu time spent up to now is      367.7 secs

     total energy              =    -489.75787907 Ry
     estimated scf accuracy    <          9.9E-11 Ry

     iteration # 28     ecut=   150.00 Ry     beta= 0.70
     Davidson diagonalization with overlap
     ethr =  3.79E-13,  avg # of iterations =  4.7

     negative rho (up, down):  1.207E-04 0.000E+00

     total cpu time spent up to now is      382.3 secs

     total energy              =    -489.75787907 Ry
     estimated scf accuracy    <          1.1E-11 Ry

     iteration # 29     ecut=   150.00 Ry     beta= 0.70
     Davidson diagonalization with overlap
     ethr =  1.00E-13,  avg # of iterations =  1.5

     negative rho (up, down):  1.207E-04 0.000E+00

     total cpu time spent up to now is      392.0 secs

     total energy              =    -489.75787907 Ry
     estimated scf accuracy    <          6.5E-12 Ry

     iteration # 30     ecut=   150.00 Ry     beta= 0.70
     Davidson diagonalization with overlap
     ethr =  1.00E-13,  avg # of iterations =  1.9

     negative rho (up, down):  1.207E-04 0.000E+00

     total cpu time spent up to now is      402.0 secs

     End of self-consistent calculation

     Number of k-points >= 100: set verbosity='high' to print the bands.

     highest occupied level (ev):     0.4048

!    total energy              =    -489.75787907 Ry

     total all-electron energy =     -9688.215724 Ry
     estimated scf accuracy    <          2.3E-13 Ry

     The total energy is the sum of the following terms:
     one-electron contribution =    -814.78513844 Ry
     hartree contribution      =     411.24475984 Ry
     xc contribution           =     -29.53729556 Ry
     ewald contribution        =     256.21036593 Ry
     one-center paw contrib.   =    -312.89057085 Ry

     convergence has been achieved in  30 iterations

     negative rho (up, down):  1.207E-04 0.000E+00

     Forces acting on atoms (cartesian axes, Ry/au):

     atom    1 type  1   force =     0.00027396    0.00012630   -0.00000020
     atom    2 type  2   force =    -0.00013698   -0.00006315    0.00301581
     atom    3 type  2   force =    -0.00013698   -0.00006315   -0.00301560

     Total force =     0.004281     Total SCF correction =     0.000002


     Computing stress (Cartesian axis) and pressure


     negative rho (up, down):  1.207E-04 0.000E+00
          total   stress  (Ry/bohr**3)                   (kbar)     P=        3.63
   0.00002921  -0.00000087  -0.00000000            4.30       -0.13       -0.00
  -0.00000087   0.00002604  -0.00000000           -0.13        3.83       -0.00
  -0.00000000  -0.00000000   0.00001880           -0.00       -0.00        2.77


     Writing output data file /scratch/as3359/Mos2_ct_lat/MoS2.save/
 
     init_run     :     17.59s CPU      9.82s WALL (       1 calls)
     electrons    :    768.82s CPU    392.11s WALL (       1 calls)
     forces       :      4.95s CPU      2.52s WALL (       1 calls)
     stress       :     16.17s CPU      8.23s WALL (       1 calls)

     Called by init_run:
     wfcinit      :     11.30s CPU      5.80s WALL (       1 calls)
     potinit      :      2.03s CPU      1.13s WALL (       1 calls)
     hinit0       :      3.61s CPU      2.52s WALL (       1 calls)

     Called by electrons:
     c_bands      :    635.68s CPU    322.59s WALL (      30 calls)
     sum_band     :    114.53s CPU     58.90s WALL (      30 calls)
     v_of_rho     :      4.21s CPU      2.31s WALL (      31 calls)
     newd         :      7.28s CPU      4.47s WALL (      31 calls)
     PAW_pot      :      5.88s CPU      3.06s WALL (      31 calls)
     mix_rho      :      1.56s CPU      0.94s WALL (      30 calls)

     Called by c_bands:
     init_us_2    :     22.97s CPU     11.51s WALL (    7119 calls)
     cegterg      :    595.13s CPU    302.12s WALL (    3390 calls)

     Called by *egterg:
     cdiaghg      :      5.57s CPU      2.83s WALL (   15554 calls)
     h_psi        :    514.31s CPU    261.43s WALL (   15667 calls)
     s_psi        :     12.05s CPU      6.07s WALL (   15667 calls)
     g_psi        :      4.57s CPU      2.31s WALL (   12164 calls)

     Called by h_psi:
     h_psi:calbec :     18.48s CPU      9.31s WALL (   15667 calls)
     vloc_psi     :    478.15s CPU    243.22s WALL (   15667 calls)
     add_vuspsi   :     13.30s CPU      6.69s WALL (   15667 calls)

     General routines
     calbec       :     24.14s CPU     12.16s WALL (   19622 calls)
     fft          :      2.25s CPU      1.30s WALL (     366 calls)
     ffts         :      0.11s CPU      0.06s WALL (      30 calls)
     fftw         :    471.96s CPU    240.37s WALL (  304386 calls)
 
     Parallel routines
 
     PWSCF        :  13m30.68s CPU   6m55.66s WALL

 
   This run was terminated on:  14:25:41  17Apr2022            

=------------------------------------------------------------------------------=
   JOB DONE.
=------------------------------------------------------------------------------=
