
     Program PWSCF v.6.8 starts on 17Apr2022 at 16:38:49 

     This program is part of the open-source Quantum ESPRESSO suite
     for quantum simulation of materials; please cite
         "P. Giannozzi et al., J. Phys.:Condens. Matter 21 395502 (2009);
         "P. Giannozzi et al., J. Phys.:Condens. Matter 29 465901 (2017);
         "P. Giannozzi et al., J. Chem. Phys. 152 154105 (2020);
          URL http://www.quantum-espresso.org", 
     in publications or presentations arising from this work. More details at
     http://www.quantum-espresso.org/quote

     Parallel version (MPI & OpenMP), running on       4 processor cores
     Number of MPI processes:                 2
     Threads/MPI process:                     2

     MPI processes distributed on     1 nodes
     R & G space division:  proc/nbgrp/npool/nimage =       2
     125008 MiB available memory on the printing compute node when the environment starts
 
     Reading input from MoS2.scf.6.098.in
Warning: card  &CELL ignored
Warning: card     CELL_DYNAMICS='BFGS' ignored
Warning: card  / ignored

     Current dimensions of program PWSCF are:
     Max number of different atomic species (ntypx) = 10
     Max number of k-points (npk) =  40000
     Max angular momentum in pseudopotentials (lmaxx) =  4
     Message from routine iosys:
     restart disabled: needed files not found
     file Mo.pbesol-spn-kjpaw_psl.1.0.0.UPF: wavefunction(s)  4S 4D renormalized
     file S.pbesol-nl-kjpaw_psl.1.0.0.UPF: wavefunction(s)  3S renormalized

     Subspace diagonalization in iterative solution of the eigenvalue problem:
     a serial algorithm will be used

 
     Parallelization info
     --------------------
     sticks:   dense  smooth     PW     G-vecs:    dense   smooth      PW
     Min         741     741    216               116293   116293   18389
     Max         742     742    217               116302   116302   18392
     Sum        1483    1483    433               232595   232595   36781
 
     Using Slab Decomposition
 


     bravais-lattice index     =            0
     lattice parameter (alat)  =       6.0980  a.u.
     unit-cell volume          =     936.7303 (a.u.)^3
     number of atoms/cell      =            3
     number of atomic types    =            2
     number of electrons       =        26.00
     number of Kohn-Sham states=           13
     kinetic-energy cutoff     =     150.0000  Ry
     charge density cutoff     =     600.0000  Ry
     scf convergence threshold =      1.0E-12
     mixing beta               =       0.7000
     number of iterations used =            8  plain     mixing
     Exchange-correlation= SLA  PW   PSX  PSC
                           (   1   4  10   8   0   0   0)

     celldm(1)=   6.098000  celldm(2)=   0.000000  celldm(3)=   0.000000
     celldm(4)=   0.000000  celldm(5)=   0.000000  celldm(6)=   0.000000

     crystal axes: (cart. coord. in units of alat)
               a(1) = (   0.976384  -0.000017   0.000000 )  
               a(2) = (  -0.487931   0.846187   0.000000 )  
               a(3) = (   0.000000   0.000000   5.000000 )  

     reciprocal axes: (cart. coord. in units 2 pi/alat)
               b(1) = (  1.024198  0.590577  0.000000 )  
               b(2) = (  0.000021  1.181785  0.000000 )  
               b(3) = (  0.000000  0.000000  0.200000 )  


     PseudoPot. # 1 for Mo read from file:
     /shared/home/as3359/pseudo/Mo.pbesol-spn-kjpaw_psl.1.0.0.UPF
     MD5 check sum: de57925cfc675213e43241dcc441eda8
     Pseudo is Projector augmented-wave + core cor, Zval = 14.0
     Generated using &quot;atomic&quot; code by A. Dal Corso  v.6.3
     Shape of augmentation charge: PSQ
     Using radial grid of 1229 points,  6 beta functions with: 
                l(1) =   0
                l(2) =   0
                l(3) =   1
                l(4) =   1
                l(5) =   2
                l(6) =   2
     Q(r) pseudized with 0 coefficients 


     PseudoPot. # 2 for S  read from file:
     /shared/home/as3359/pseudo/S.pbesol-nl-kjpaw_psl.1.0.0.UPF
     MD5 check sum: bf3db50ec3f960682bbc396f1aadd1dd
     Pseudo is Projector augmented-wave + core cor, Zval =  6.0
     Generated using &quot;atomic&quot; code by A. Dal Corso  v.6.3
     Shape of augmentation charge: PSQ
     Using radial grid of 1151 points,  4 beta functions with: 
                l(1) =   0
                l(2) =   0
                l(3) =   1
                l(4) =   1
     Q(r) pseudized with 0 coefficients 


     atomic species   valence    mass     pseudopotential
        Mo            14.00    95.94000     Mo( 1.00)
        S              6.00    32.06500     S ( 1.00)

     No symmetry found



   Cartesian axes

     site n.     atom                  positions (alat units)
         1           Mo  tau(   1) = (   0.0000000   0.0000000   1.6880765  )
         2           S   tau(   2) = (   0.4883508   0.2821722   2.1737857  )
         3           S   tau(   3) = (   0.4883508   0.2821722   1.2023670  )

     number of k points=   113

     Number of k-points >= 100: set verbosity='high' to print them.

     Dense  grid:   232595 G-vectors     FFT dimensions: (  48,  48, 240)

     Estimated max dynamical RAM per process >     767.64 MB

     Estimated total dynamical RAM >       1.50 GB
     Cannot read rho : file not found

     Initial potential from superposition of free atoms

     starting charge   25.99914, renormalised to   26.00000

     negative rho (up, down):  9.060E-05 0.000E+00
     Message from routine qexsd_readschema :
     xml data file /scratch/as3359/Mos2_ct_lat/MoS2.save/data-file-schema.xml not fou
     Cannot read wfcs: file not found
     Starting wfcs are   18 randomized atomic wfcs
     Checking if some PAW data can be deallocated... 

     total cpu time spent up to now is       10.2 secs

     Self-consistent Calculation

     iteration #  1     ecut=   150.00 Ry     beta= 0.70
     Davidson diagonalization with overlap
     ethr =  1.00E-05,  avg # of iterations = 10.3

     negative rho (up, down):  1.228E-04 0.000E+00

     total cpu time spent up to now is       40.5 secs

     total energy              =    -489.69324599 Ry
     estimated scf accuracy    <       0.14403702 Ry

     iteration #  2     ecut=   150.00 Ry     beta= 0.70
     Davidson diagonalization with overlap
     ethr =  5.54E-04,  avg # of iterations =  4.8

     negative rho (up, down):  1.136E-04 0.000E+00

     total cpu time spent up to now is       55.8 secs

     total energy              =    -489.65803084 Ry
     estimated scf accuracy    <       0.49572923 Ry

     iteration #  3     ecut=   150.00 Ry     beta= 0.70
     Davidson diagonalization with overlap
     ethr =  5.54E-04,  avg # of iterations =  5.0

     negative rho (up, down):  1.147E-04 0.000E+00

     total cpu time spent up to now is       71.1 secs

     total energy              =    -489.75134099 Ry
     estimated scf accuracy    <       0.04752423 Ry

     iteration #  4     ecut=   150.00 Ry     beta= 0.70
     Davidson diagonalization with overlap
     ethr =  1.83E-04,  avg # of iterations =  2.4

     negative rho (up, down):  1.196E-04 0.000E+00

     total cpu time spent up to now is       82.2 secs

     total energy              =    -489.75435440 Ry
     estimated scf accuracy    <       0.00551213 Ry

     iteration #  5     ecut=   150.00 Ry     beta= 0.70
     Davidson diagonalization with overlap
     ethr =  2.12E-05,  avg # of iterations =  5.3

     negative rho (up, down):  1.207E-04 0.000E+00

     total cpu time spent up to now is       98.5 secs

     total energy              =    -489.75762328 Ry
     estimated scf accuracy    <       0.01069845 Ry

     iteration #  6     ecut=   150.00 Ry     beta= 0.70
     Davidson diagonalization with overlap
     ethr =  2.12E-05,  avg # of iterations =  1.9

     negative rho (up, down):  1.225E-04 0.000E+00

     total cpu time spent up to now is      108.7 secs

     total energy              =    -489.75589185 Ry
     estimated scf accuracy    <       0.00440085 Ry

     iteration #  7     ecut=   150.00 Ry     beta= 0.70
     Davidson diagonalization with overlap
     ethr =  1.69E-05,  avg # of iterations =  4.6

     negative rho (up, down):  1.225E-04 0.000E+00

     total cpu time spent up to now is      122.7 secs

     total energy              =    -489.75786823 Ry
     estimated scf accuracy    <       0.00311113 Ry

     iteration #  8     ecut=   150.00 Ry     beta= 0.70
     Davidson diagonalization with overlap
     ethr =  1.20E-05,  avg # of iterations =  1.1

     negative rho (up, down):  1.232E-04 0.000E+00

     total cpu time spent up to now is      132.1 secs

     total energy              =    -489.75733342 Ry
     estimated scf accuracy    <       0.00206947 Ry

     iteration #  9     ecut=   150.00 Ry     beta= 0.70
     Davidson diagonalization with overlap
     ethr =  7.96E-06,  avg # of iterations =  3.2

     negative rho (up, down):  1.233E-04 0.000E+00

     total cpu time spent up to now is      143.9 secs

     total energy              =    -489.75766019 Ry
     estimated scf accuracy    <       0.00001479 Ry

     iteration # 10     ecut=   150.00 Ry     beta= 0.70
     Davidson diagonalization with overlap
     ethr =  5.69E-08,  avg # of iterations =  7.4

     negative rho (up, down):  1.233E-04 0.000E+00

     total cpu time spent up to now is      165.7 secs

     total energy              =    -489.75770171 Ry
     estimated scf accuracy    <       0.00013446 Ry

     iteration # 11     ecut=   150.00 Ry     beta= 0.70
     Davidson diagonalization with overlap
     ethr =  5.69E-08,  avg # of iterations =  2.4

     negative rho (up, down):  1.233E-04 0.000E+00

     total cpu time spent up to now is      177.4 secs

     total energy              =    -489.75769468 Ry
     estimated scf accuracy    <       0.00007148 Ry

     iteration # 12     ecut=   150.00 Ry     beta= 0.70
     Davidson diagonalization with overlap
     ethr =  5.69E-08,  avg # of iterations =  4.1

     negative rho (up, down):  1.234E-04 0.000E+00

     total cpu time spent up to now is      190.4 secs

     total energy              =    -489.75768998 Ry
     estimated scf accuracy    <       0.00001798 Ry

     iteration # 13     ecut=   150.00 Ry     beta= 0.70
     Davidson diagonalization with overlap
     ethr =  5.69E-08,  avg # of iterations =  4.6

     negative rho (up, down):  1.234E-04 0.000E+00

     total cpu time spent up to now is      204.9 secs

     total energy              =    -489.75769908 Ry
     estimated scf accuracy    <       0.00001062 Ry

     iteration # 14     ecut=   150.00 Ry     beta= 0.70
     Davidson diagonalization with overlap
     ethr =  4.08E-08,  avg # of iterations =  1.0

     negative rho (up, down):  1.234E-04 0.000E+00

     total cpu time spent up to now is      214.4 secs

     total energy              =    -489.75769773 Ry
     estimated scf accuracy    <       0.00001139 Ry

     iteration # 15     ecut=   150.00 Ry     beta= 0.70
     Davidson diagonalization with overlap
     ethr =  4.08E-08,  avg # of iterations =  1.0

     negative rho (up, down):  1.234E-04 0.000E+00

     total cpu time spent up to now is      223.9 secs

     total energy              =    -489.75769624 Ry
     estimated scf accuracy    <       0.00000783 Ry

     iteration # 16     ecut=   150.00 Ry     beta= 0.70
     Davidson diagonalization with overlap
     ethr =  3.01E-08,  avg # of iterations =  2.1

     negative rho (up, down):  1.234E-04 0.000E+00

     total cpu time spent up to now is      234.4 secs

     total energy              =    -489.75769682 Ry
     estimated scf accuracy    <       0.00000144 Ry

     iteration # 17     ecut=   150.00 Ry     beta= 0.70
     Davidson diagonalization with overlap
     ethr =  5.53E-09,  avg # of iterations =  2.1

     negative rho (up, down):  1.234E-04 0.000E+00

     total cpu time spent up to now is      244.6 secs

     total energy              =    -489.75769688 Ry
     estimated scf accuracy    <       0.00000122 Ry

     iteration # 18     ecut=   150.00 Ry     beta= 0.70
     Davidson diagonalization with overlap
     ethr =  4.70E-09,  avg # of iterations =  1.0

     negative rho (up, down):  1.234E-04 0.000E+00

     total cpu time spent up to now is      254.0 secs

     total energy              =    -489.75769664 Ry
     estimated scf accuracy    <       0.00000103 Ry

     iteration # 19     ecut=   150.00 Ry     beta= 0.70
     Davidson diagonalization with overlap
     ethr =  3.98E-09,  avg # of iterations =  4.0

     negative rho (up, down):  1.234E-04 0.000E+00

     total cpu time spent up to now is      266.8 secs

     total energy              =    -489.75769685 Ry
     estimated scf accuracy    <       0.00000001 Ry

     iteration # 20     ecut=   150.00 Ry     beta= 0.70
     Davidson diagonalization with overlap
     ethr =  3.93E-11,  avg # of iterations =  7.4

     negative rho (up, down):  1.234E-04 0.000E+00

     total cpu time spent up to now is      287.0 secs

     total energy              =    -489.75769687 Ry
     estimated scf accuracy    <       0.00000013 Ry

     iteration # 21     ecut=   150.00 Ry     beta= 0.70
     Davidson diagonalization with overlap
     ethr =  3.93E-11,  avg # of iterations =  2.2

     negative rho (up, down):  1.234E-04 0.000E+00

     total cpu time spent up to now is      298.2 secs

     total energy              =    -489.75769683 Ry
     estimated scf accuracy    <       0.00000008 Ry

     iteration # 22     ecut=   150.00 Ry     beta= 0.70
     Davidson diagonalization with overlap
     ethr =  3.93E-11,  avg # of iterations =  7.5

     negative rho (up, down):  1.234E-04 0.000E+00

     total cpu time spent up to now is      319.7 secs

     total energy              =    -489.75769685 Ry
     estimated scf accuracy    <       0.00000016 Ry

     iteration # 23     ecut=   150.00 Ry     beta= 0.70
     Davidson diagonalization with overlap
     ethr =  3.93E-11,  avg # of iterations =  5.6

     negative rho (up, down):  1.234E-04 0.000E+00

     total cpu time spent up to now is      336.8 secs

     total energy              =    -489.75769687 Ry
     estimated scf accuracy    <          6.4E-09 Ry

     iteration # 24     ecut=   150.00 Ry     beta= 0.70
     Davidson diagonalization with overlap
     ethr =  2.48E-11,  avg # of iterations =  1.0

     negative rho (up, down):  1.234E-04 0.000E+00

     total cpu time spent up to now is      346.3 secs

     total energy              =    -489.75769687 Ry
     estimated scf accuracy    <          6.9E-09 Ry

     iteration # 25     ecut=   150.00 Ry     beta= 0.70
     Davidson diagonalization with overlap
     ethr =  2.48E-11,  avg # of iterations =  1.0

     negative rho (up, down):  1.234E-04 0.000E+00

     total cpu time spent up to now is      355.8 secs

     total energy              =    -489.75769687 Ry
     estimated scf accuracy    <          7.9E-09 Ry

     iteration # 26     ecut=   150.00 Ry     beta= 0.70
     Davidson diagonalization with overlap
     ethr =  2.48E-11,  avg # of iterations =  1.0

     negative rho (up, down):  1.234E-04 0.000E+00

     total cpu time spent up to now is      365.3 secs

     total energy              =    -489.75769687 Ry
     estimated scf accuracy    <          7.5E-09 Ry

     iteration # 27     ecut=   150.00 Ry     beta= 0.70
     Davidson diagonalization with overlap
     ethr =  2.48E-11,  avg # of iterations =  2.1

     negative rho (up, down):  1.234E-04 0.000E+00

     total cpu time spent up to now is      376.0 secs

     total energy              =    -489.75769687 Ry
     estimated scf accuracy    <          2.0E-09 Ry

     iteration # 28     ecut=   150.00 Ry     beta= 0.70
     Davidson diagonalization with overlap
     ethr =  7.61E-12,  avg # of iterations =  4.4

     negative rho (up, down):  1.234E-04 0.000E+00

     total cpu time spent up to now is      389.0 secs

     total energy              =    -489.75769687 Ry
     estimated scf accuracy    <          3.8E-10 Ry

     iteration # 29     ecut=   150.00 Ry     beta= 0.70
     Davidson diagonalization with overlap
     ethr =  1.47E-12,  avg # of iterations =  2.5

     negative rho (up, down):  1.234E-04 0.000E+00

     total cpu time spent up to now is      400.0 secs

     total energy              =    -489.75769687 Ry
     estimated scf accuracy    <          3.5E-10 Ry

     iteration # 30     ecut=   150.00 Ry     beta= 0.70
     Davidson diagonalization with overlap
     ethr =  1.36E-12,  avg # of iterations =  3.5

     negative rho (up, down):  1.234E-04 0.000E+00

     total cpu time spent up to now is      412.4 secs

     total energy              =    -489.75769687 Ry
     estimated scf accuracy    <          3.9E-11 Ry

     iteration # 31     ecut=   150.00 Ry     beta= 0.70
     Davidson diagonalization with overlap
     ethr =  1.52E-13,  avg # of iterations =  5.4

     negative rho (up, down):  1.234E-04 0.000E+00

     total cpu time spent up to now is      428.9 secs

     total energy              =    -489.75769687 Ry
     estimated scf accuracy    <          1.2E-10 Ry

     iteration # 32     ecut=   150.00 Ry     beta= 0.70
     Davidson diagonalization with overlap
     ethr =  1.52E-13,  avg # of iterations =  6.4

     negative rho (up, down):  1.234E-04 0.000E+00

     total cpu time spent up to now is      448.0 secs

     total energy              =    -489.75769687 Ry
     estimated scf accuracy    <          1.7E-09 Ry

     iteration # 33     ecut=   150.00 Ry     beta= 0.70
     Davidson diagonalization with overlap
     ethr =  1.52E-13,  avg # of iterations =  1.9

     negative rho (up, down):  1.234E-04 0.000E+00

     total cpu time spent up to now is      458.4 secs

     total energy              =    -489.75769687 Ry
     estimated scf accuracy    <          1.5E-09 Ry

     iteration # 34     ecut=   150.00 Ry     beta= 0.70
     Davidson diagonalization with overlap
     ethr =  1.52E-13,  avg # of iterations =  4.3

     negative rho (up, down):  1.234E-04 0.000E+00

     total cpu time spent up to now is      472.3 secs

     total energy              =    -489.75769687 Ry
     estimated scf accuracy    <          8.0E-10 Ry

     iteration # 35     ecut=   150.00 Ry     beta= 0.70
     Davidson diagonalization with overlap
     ethr =  1.52E-13,  avg # of iterations =  3.8

     negative rho (up, down):  1.234E-04 0.000E+00

     total cpu time spent up to now is      485.0 secs

     total energy              =    -489.75769687 Ry
     estimated scf accuracy    <          4.6E-10 Ry

     iteration # 36     ecut=   150.00 Ry     beta= 0.70
     Davidson diagonalization with overlap
     ethr =  1.52E-13,  avg # of iterations =  5.6

     negative rho (up, down):  1.234E-04 0.000E+00

     total cpu time spent up to now is      501.2 secs

     total energy              =    -489.75769687 Ry
     estimated scf accuracy    <          1.3E-11 Ry

     iteration # 37     ecut=   150.00 Ry     beta= 0.70
     Davidson diagonalization with overlap
     ethr =  1.00E-13,  avg # of iterations =  1.3

     negative rho (up, down):  1.234E-04 0.000E+00

     total cpu time spent up to now is      510.8 secs

     total energy              =    -489.75769687 Ry
     estimated scf accuracy    <          7.9E-12 Ry

     iteration # 38     ecut=   150.00 Ry     beta= 0.70
     Davidson diagonalization with overlap
     ethr =  1.00E-13,  avg # of iterations =  3.7

     negative rho (up, down):  1.234E-04 0.000E+00

     total cpu time spent up to now is      523.2 secs

     total energy              =    -489.75769687 Ry
     estimated scf accuracy    <          4.4E-12 Ry

     iteration # 39     ecut=   150.00 Ry     beta= 0.70
     Davidson diagonalization with overlap
     ethr =  1.00E-13,  avg # of iterations =  1.0

     negative rho (up, down):  1.234E-04 0.000E+00

     total cpu time spent up to now is      532.6 secs

     total energy              =    -489.75769687 Ry
     estimated scf accuracy    <          2.3E-12 Ry

     iteration # 40     ecut=   150.00 Ry     beta= 0.70
     Davidson diagonalization with overlap
     ethr =  1.00E-13,  avg # of iterations =  1.0

     negative rho (up, down):  1.234E-04 0.000E+00

     total cpu time spent up to now is      541.9 secs

     End of self-consistent calculation

     Number of k-points >= 100: set verbosity='high' to print the bands.

     highest occupied level (ev):     0.2997

!    total energy              =    -489.75769687 Ry

     total all-electron energy =     -9688.215542 Ry
     estimated scf accuracy    <          6.3E-13 Ry

     The total energy is the sum of the following terms:
     one-electron contribution =    -811.63379693 Ry
     hartree contribution      =     409.55746694 Ry
     xc contribution           =     -29.49251431 Ry
     ewald contribution        =     254.69780884 Ry
     one-center paw contrib.   =    -312.88666141 Ry

     convergence has been achieved in  40 iterations

     negative rho (up, down):  1.234E-04 0.000E+00

     Forces acting on atoms (cartesian axes, Ry/au):

     atom    1 type  1   force =     0.00025586    0.00013574    0.00000012
     atom    2 type  2   force =    -0.00012793   -0.00006786   -0.00877244
     atom    3 type  2   force =    -0.00012793   -0.00006788    0.00877233

     Total force =     0.012411     Total SCF correction =     0.000002


     Computing stress (Cartesian axis) and pressure


     negative rho (up, down):  1.234E-04 0.000E+00
          total   stress  (Ry/bohr**3)                   (kbar)     P=       -6.85
  -0.00004037  -0.00000082   0.00000000           -5.94       -0.12        0.00
  -0.00000082  -0.00004343  -0.00000000           -0.12       -6.39       -0.00
   0.00000000  -0.00000000  -0.00005597            0.00       -0.00       -8.23


     Writing output data file /scratch/as3359/Mos2_ct_lat/MoS2.save/
 
     init_run     :     18.01s CPU     10.07s WALL (       1 calls)
     electrons    :   1043.25s CPU    531.72s WALL (       1 calls)
     forces       :      5.09s CPU      2.58s WALL (       1 calls)
     stress       :     16.75s CPU      8.51s WALL (       1 calls)

     Called by init_run:
     wfcinit      :     11.38s CPU      5.82s WALL (       1 calls)
     potinit      :      2.15s CPU      1.22s WALL (       1 calls)
     hinit0       :      3.71s CPU      2.60s WALL (       1 calls)

     Called by electrons:
     c_bands      :    864.30s CPU    438.28s WALL (      40 calls)
     sum_band     :    153.87s CPU     79.10s WALL (      40 calls)
     v_of_rho     :      5.56s CPU      3.05s WALL (      41 calls)
     newd         :      9.86s CPU      6.10s WALL (      41 calls)
     PAW_pot      :      7.84s CPU      4.08s WALL (      41 calls)
     mix_rho      :      2.22s CPU      1.32s WALL (      40 calls)

     Called by c_bands:
     init_us_2    :     30.92s CPU     15.51s WALL (    9379 calls)
     cegterg      :    808.25s CPU    409.97s WALL (    4520 calls)

     Called by *egterg:
     cdiaghg      :      7.35s CPU      3.73s WALL (   20417 calls)
     h_psi        :    696.06s CPU    353.58s WALL (   20530 calls)
     s_psi        :     17.02s CPU      8.56s WALL (   20530 calls)
     g_psi        :      6.83s CPU      3.44s WALL (   15897 calls)

     Called by h_psi:
     h_psi:calbec :     24.60s CPU     12.41s WALL (   20530 calls)
     vloc_psi     :    646.87s CPU    328.80s WALL (   20530 calls)
     add_vuspsi   :     18.56s CPU      9.33s WALL (   20530 calls)

     General routines
     calbec       :     31.86s CPU     16.07s WALL (   25615 calls)
     fft          :      2.82s CPU      1.61s WALL (     476 calls)
     ffts         :      0.15s CPU      0.08s WALL (      40 calls)
     fftw         :    636.28s CPU    323.79s WALL (  412544 calls)
 
     Parallel routines
 
     PWSCF        :  18m 6.30s CPU   9m15.96s WALL

 
   This run was terminated on:  16:48: 5  17Apr2022            

=------------------------------------------------------------------------------=
   JOB DONE.
=------------------------------------------------------------------------------=
