
     Program PWSCF v.6.8 starts on 17Apr2022 at 16:14: 2 

     This program is part of the open-source Quantum ESPRESSO suite
     for quantum simulation of materials; please cite
         "P. Giannozzi et al., J. Phys.:Condens. Matter 21 395502 (2009);
         "P. Giannozzi et al., J. Phys.:Condens. Matter 29 465901 (2017);
         "P. Giannozzi et al., J. Chem. Phys. 152 154105 (2020);
          URL http://www.quantum-espresso.org", 
     in publications or presentations arising from this work. More details at
     http://www.quantum-espresso.org/quote

     Parallel version (MPI & OpenMP), running on       4 processor cores
     Number of MPI processes:                 2
     Threads/MPI process:                     2

     MPI processes distributed on     1 nodes
     R & G space division:  proc/nbgrp/npool/nimage =       2
     125013 MiB available memory on the printing compute node when the environment starts
 
     Reading input from MoS2.scf.6.092.in
Warning: card  &CELL ignored
Warning: card     CELL_DYNAMICS='BFGS' ignored
Warning: card  / ignored

     Current dimensions of program PWSCF are:
     Max number of different atomic species (ntypx) = 10
     Max number of k-points (npk) =  40000
     Max angular momentum in pseudopotentials (lmaxx) =  4
     Message from routine iosys:
     restart disabled: needed files not found
     file Mo.pbesol-spn-kjpaw_psl.1.0.0.UPF: wavefunction(s)  4S 4D renormalized
     file S.pbesol-nl-kjpaw_psl.1.0.0.UPF: wavefunction(s)  3S renormalized

     Subspace diagonalization in iterative solution of the eigenvalue problem:
     a serial algorithm will be used

 
     Parallelization info
     --------------------
     sticks:   dense  smooth     PW     G-vecs:    dense   smooth      PW
     Min         741     741    216               115919   115919   18347
     Max         742     742    217               115924   115924   18354
     Sum        1483    1483    433               231843   231843   36701
 
     Using Slab Decomposition
 


     bravais-lattice index     =            0
     lattice parameter (alat)  =       6.0920  a.u.
     unit-cell volume          =     933.9680 (a.u.)^3
     number of atoms/cell      =            3
     number of atomic types    =            2
     number of electrons       =        26.00
     number of Kohn-Sham states=           13
     kinetic-energy cutoff     =     150.0000  Ry
     charge density cutoff     =     600.0000  Ry
     scf convergence threshold =      1.0E-12
     mixing beta               =       0.7000
     number of iterations used =            8  plain     mixing
     Exchange-correlation= SLA  PW   PSX  PSC
                           (   1   4  10   8   0   0   0)

     celldm(1)=   6.092000  celldm(2)=   0.000000  celldm(3)=   0.000000
     celldm(4)=   0.000000  celldm(5)=   0.000000  celldm(6)=   0.000000

     crystal axes: (cart. coord. in units of alat)
               a(1) = (   0.976384  -0.000017   0.000000 )  
               a(2) = (  -0.487931   0.846187   0.000000 )  
               a(3) = (   0.000000   0.000000   5.000000 )  

     reciprocal axes: (cart. coord. in units 2 pi/alat)
               b(1) = (  1.024198  0.590577  0.000000 )  
               b(2) = (  0.000021  1.181785  0.000000 )  
               b(3) = (  0.000000  0.000000  0.200000 )  


     PseudoPot. # 1 for Mo read from file:
     /shared/home/as3359/pseudo/Mo.pbesol-spn-kjpaw_psl.1.0.0.UPF
     MD5 check sum: de57925cfc675213e43241dcc441eda8
     Pseudo is Projector augmented-wave + core cor, Zval = 14.0
     Generated using &quot;atomic&quot; code by A. Dal Corso  v.6.3
     Shape of augmentation charge: PSQ
     Using radial grid of 1229 points,  6 beta functions with: 
                l(1) =   0
                l(2) =   0
                l(3) =   1
                l(4) =   1
                l(5) =   2
                l(6) =   2
     Q(r) pseudized with 0 coefficients 


     PseudoPot. # 2 for S  read from file:
     /shared/home/as3359/pseudo/S.pbesol-nl-kjpaw_psl.1.0.0.UPF
     MD5 check sum: bf3db50ec3f960682bbc396f1aadd1dd
     Pseudo is Projector augmented-wave + core cor, Zval =  6.0
     Generated using &quot;atomic&quot; code by A. Dal Corso  v.6.3
     Shape of augmentation charge: PSQ
     Using radial grid of 1151 points,  4 beta functions with: 
                l(1) =   0
                l(2) =   0
                l(3) =   1
                l(4) =   1
     Q(r) pseudized with 0 coefficients 


     atomic species   valence    mass     pseudopotential
        Mo            14.00    95.94000     Mo( 1.00)
        S              6.00    32.06500     S ( 1.00)

     No symmetry found



   Cartesian axes

     site n.     atom                  positions (alat units)
         1           Mo  tau(   1) = (   0.0000000   0.0000000   1.6880765  )
         2           S   tau(   2) = (   0.4883508   0.2821722   2.1737857  )
         3           S   tau(   3) = (   0.4883508   0.2821722   1.2023670  )

     number of k points=   113

     Number of k-points >= 100: set verbosity='high' to print them.

     Dense  grid:   231843 G-vectors     FFT dimensions: (  48,  48, 240)

     Estimated max dynamical RAM per process >     765.31 MB

     Estimated total dynamical RAM >       1.49 GB
     Cannot read rho : file not found

     Initial potential from superposition of free atoms

     starting charge   25.99914, renormalised to   26.00000

     negative rho (up, down):  9.002E-05 0.000E+00
     Message from routine qexsd_readschema :
     xml data file /scratch/as3359/Mos2_ct_lat/MoS2.save/data-file-schema.xml not fou
     Cannot read wfcs: file not found
     Starting wfcs are   18 randomized atomic wfcs
     Checking if some PAW data can be deallocated... 

     total cpu time spent up to now is        9.6 secs

     Self-consistent Calculation

     iteration #  1     ecut=   150.00 Ry     beta= 0.70
     Davidson diagonalization with overlap
     ethr =  1.00E-05,  avg # of iterations = 10.3

     negative rho (up, down):  1.220E-04 0.000E+00

     total cpu time spent up to now is       39.8 secs

     total energy              =    -489.69243770 Ry
     estimated scf accuracy    <       0.14553084 Ry

     iteration #  2     ecut=   150.00 Ry     beta= 0.70
     Davidson diagonalization with overlap
     ethr =  5.60E-04,  avg # of iterations =  4.9

     negative rho (up, down):  1.126E-04 0.000E+00

     total cpu time spent up to now is       55.2 secs

     total energy              =    -489.65597412 Ry
     estimated scf accuracy    <       0.50904735 Ry

     iteration #  3     ecut=   150.00 Ry     beta= 0.70
     Davidson diagonalization with overlap
     ethr =  5.60E-04,  avg # of iterations =  5.1

     negative rho (up, down):  1.136E-04 0.000E+00

     total cpu time spent up to now is       70.4 secs

     total energy              =    -489.75156934 Ry
     estimated scf accuracy    <       0.04603648 Ry

     iteration #  4     ecut=   150.00 Ry     beta= 0.70
     Davidson diagonalization with overlap
     ethr =  1.77E-04,  avg # of iterations =  2.4

     negative rho (up, down):  1.186E-04 0.000E+00

     total cpu time spent up to now is       81.6 secs

     total energy              =    -489.75451670 Ry
     estimated scf accuracy    <       0.00547517 Ry

     iteration #  5     ecut=   150.00 Ry     beta= 0.70
     Davidson diagonalization with overlap
     ethr =  2.11E-05,  avg # of iterations =  5.3

     negative rho (up, down):  1.197E-04 0.000E+00

     total cpu time spent up to now is       97.8 secs

     total energy              =    -489.75770355 Ry
     estimated scf accuracy    <       0.00999626 Ry

     iteration #  6     ecut=   150.00 Ry     beta= 0.70
     Davidson diagonalization with overlap
     ethr =  2.11E-05,  avg # of iterations =  1.9

     negative rho (up, down):  1.205E-04 0.000E+00

     total cpu time spent up to now is      107.9 secs

     total energy              =    -489.75696730 Ry
     estimated scf accuracy    <       0.00401673 Ry

     iteration #  7     ecut=   150.00 Ry     beta= 0.70
     Davidson diagonalization with overlap
     ethr =  1.54E-05,  avg # of iterations =  3.6

     negative rho (up, down):  1.216E-04 0.000E+00

     total cpu time spent up to now is      120.2 secs

     total energy              =    -489.75774859 Ry
     estimated scf accuracy    <       0.00005188 Ry

     iteration #  8     ecut=   150.00 Ry     beta= 0.70
     Davidson diagonalization with overlap
     ethr =  2.00E-07,  avg # of iterations =  8.8

     negative rho (up, down):  1.216E-04 0.000E+00

     total cpu time spent up to now is      145.6 secs

     total energy              =    -489.75773784 Ry
     estimated scf accuracy    <       0.00348200 Ry

     iteration #  9     ecut=   150.00 Ry     beta= 0.70
     Davidson diagonalization with overlap
     ethr =  2.00E-07,  avg # of iterations =  6.0

     negative rho (up, down):  1.222E-04 0.000E+00

     total cpu time spent up to now is      164.2 secs

     total energy              =    -489.75775223 Ry
     estimated scf accuracy    <       0.00062140 Ry

     iteration # 10     ecut=   150.00 Ry     beta= 0.70
     Davidson diagonalization with overlap
     ethr =  2.00E-07,  avg # of iterations =  5.3

     negative rho (up, down):  1.223E-04 0.000E+00

     total cpu time spent up to now is      179.8 secs

     total energy              =    -489.75780318 Ry
     estimated scf accuracy    <       0.00002532 Ry

     iteration # 11     ecut=   150.00 Ry     beta= 0.70
     Davidson diagonalization with overlap
     ethr =  9.74E-08,  avg # of iterations =  3.8

     negative rho (up, down):  1.223E-04 0.000E+00

     total cpu time spent up to now is      192.4 secs

     total energy              =    -489.75780749 Ry
     estimated scf accuracy    <       0.00000081 Ry

     iteration # 12     ecut=   150.00 Ry     beta= 0.70
     Davidson diagonalization with overlap
     ethr =  3.10E-09,  avg # of iterations =  6.0

     negative rho (up, down):  1.223E-04 0.000E+00

     total cpu time spent up to now is      209.1 secs

     total energy              =    -489.75780820 Ry
     estimated scf accuracy    <       0.00000079 Ry

     iteration # 13     ecut=   150.00 Ry     beta= 0.70
     Davidson diagonalization with overlap
     ethr =  3.04E-09,  avg # of iterations =  3.8

     negative rho (up, down):  1.224E-04 0.000E+00

     total cpu time spent up to now is      221.9 secs

     total energy              =    -489.75780840 Ry
     estimated scf accuracy    <       0.00000008 Ry

     iteration # 14     ecut=   150.00 Ry     beta= 0.70
     Davidson diagonalization with overlap
     ethr =  3.19E-10,  avg # of iterations =  2.9

     negative rho (up, down):  1.224E-04 0.000E+00

     total cpu time spent up to now is      233.3 secs

     total energy              =    -489.75780840 Ry
     estimated scf accuracy    <       0.00000001 Ry

     iteration # 15     ecut=   150.00 Ry     beta= 0.70
     Davidson diagonalization with overlap
     ethr =  5.47E-11,  avg # of iterations =  5.3

     negative rho (up, down):  1.224E-04 0.000E+00

     total cpu time spent up to now is      248.8 secs

     total energy              =    -489.75780841 Ry
     estimated scf accuracy    <       0.00000002 Ry

     iteration # 16     ecut=   150.00 Ry     beta= 0.70
     Davidson diagonalization with overlap
     ethr =  5.47E-11,  avg # of iterations =  1.0

     negative rho (up, down):  1.224E-04 0.000E+00

     total cpu time spent up to now is      258.2 secs

     total energy              =    -489.75780841 Ry
     estimated scf accuracy    <       0.00000002 Ry

     iteration # 17     ecut=   150.00 Ry     beta= 0.70
     Davidson diagonalization with overlap
     ethr =  5.47E-11,  avg # of iterations =  2.8

     negative rho (up, down):  1.224E-04 0.000E+00

     total cpu time spent up to now is      269.6 secs

     total energy              =    -489.75780841 Ry
     estimated scf accuracy    <          1.7E-09 Ry

     iteration # 18     ecut=   150.00 Ry     beta= 0.70
     Davidson diagonalization with overlap
     ethr =  6.66E-12,  avg # of iterations =  4.6

     negative rho (up, down):  1.224E-04 0.000E+00

     total cpu time spent up to now is      283.8 secs

     total energy              =    -489.75780841 Ry
     estimated scf accuracy    <          5.9E-11 Ry

     iteration # 19     ecut=   150.00 Ry     beta= 0.70
     Davidson diagonalization with overlap
     ethr =  2.28E-13,  avg # of iterations =  5.8

     negative rho (up, down):  1.224E-04 0.000E+00

     total cpu time spent up to now is      299.7 secs

     total energy              =    -489.75780841 Ry
     estimated scf accuracy    <          4.0E-10 Ry

     iteration # 20     ecut=   150.00 Ry     beta= 0.70
     Davidson diagonalization with overlap
     ethr =  2.28E-13,  avg # of iterations =  5.6

     negative rho (up, down):  1.224E-04 0.000E+00

     total cpu time spent up to now is      317.1 secs

     total energy              =    -489.75780841 Ry
     estimated scf accuracy    <          2.3E-11 Ry

     iteration # 21     ecut=   150.00 Ry     beta= 0.70
     Davidson diagonalization with overlap
     ethr =  1.00E-13,  avg # of iterations =  3.7

     negative rho (up, down):  1.224E-04 0.000E+00

     total cpu time spent up to now is      329.0 secs

     total energy              =    -489.75780841 Ry
     estimated scf accuracy    <          7.4E-11 Ry

     iteration # 22     ecut=   150.00 Ry     beta= 0.70
     Davidson diagonalization with overlap
     ethr =  1.00E-13,  avg # of iterations =  1.0

     negative rho (up, down):  1.224E-04 0.000E+00

     total cpu time spent up to now is      338.4 secs

     total energy              =    -489.75780841 Ry
     estimated scf accuracy    <          7.1E-11 Ry

     iteration # 23     ecut=   150.00 Ry     beta= 0.70
     Davidson diagonalization with overlap
     ethr =  1.00E-13,  avg # of iterations =  1.8

     negative rho (up, down):  1.224E-04 0.000E+00

     total cpu time spent up to now is      348.4 secs

     total energy              =    -489.75780841 Ry
     estimated scf accuracy    <          3.5E-11 Ry

     iteration # 24     ecut=   150.00 Ry     beta= 0.70
     Davidson diagonalization with overlap
     ethr =  1.00E-13,  avg # of iterations =  1.1

     negative rho (up, down):  1.224E-04 0.000E+00

     total cpu time spent up to now is      357.9 secs

     total energy              =    -489.75780841 Ry
     estimated scf accuracy    <          2.1E-11 Ry

     iteration # 25     ecut=   150.00 Ry     beta= 0.70
     Davidson diagonalization with overlap
     ethr =  1.00E-13,  avg # of iterations =  1.3

     negative rho (up, down):  1.224E-04 0.000E+00

     total cpu time spent up to now is      367.5 secs

     total energy              =    -489.75780841 Ry
     estimated scf accuracy    <          1.2E-11 Ry

     iteration # 26     ecut=   150.00 Ry     beta= 0.70
     Davidson diagonalization with overlap
     ethr =  1.00E-13,  avg # of iterations =  1.0

     negative rho (up, down):  1.224E-04 0.000E+00

     total cpu time spent up to now is      376.9 secs

     total energy              =    -489.75780841 Ry
     estimated scf accuracy    <          1.1E-11 Ry

     iteration # 27     ecut=   150.00 Ry     beta= 0.70
     Davidson diagonalization with overlap
     ethr =  1.00E-13,  avg # of iterations =  3.3

     negative rho (up, down):  1.224E-04 0.000E+00

     total cpu time spent up to now is      388.4 secs

     End of self-consistent calculation

     Number of k-points >= 100: set verbosity='high' to print the bands.

     highest occupied level (ev):     0.3171

!    total energy              =    -489.75780841 Ry

     total all-electron energy =     -9688.215654 Ry
     estimated scf accuracy    <          3.1E-13 Ry

     The total energy is the sum of the following terms:
     one-electron contribution =    -812.15661362 Ry
     hartree contribution      =     409.83734324 Ry
     xc contribution           =     -29.49989763 Ry
     ewald contribution        =     254.94866026 Ry
     one-center paw contrib.   =    -312.88730065 Ry

     convergence has been achieved in  27 iterations

     negative rho (up, down):  1.224E-04 0.000E+00

     Forces acting on atoms (cartesian axes, Ry/au):

     atom    1 type  1   force =     0.00025913    0.00013399    0.00000008
     atom    2 type  2   force =    -0.00012956   -0.00006699   -0.00685535
     atom    3 type  2   force =    -0.00012956   -0.00006699    0.00685527

     Total force =     0.009701     Total SCF correction =     0.000001


     Computing stress (Cartesian axis) and pressure


     negative rho (up, down):  1.224E-04 0.000E+00
          total   stress  (Ry/bohr**3)                   (kbar)     P=       -5.17
  -0.00002918  -0.00000082  -0.00000000           -4.29       -0.12       -0.00
  -0.00000082  -0.00003226   0.00000000           -0.12       -4.75        0.00
  -0.00000000   0.00000000  -0.00004392           -0.00        0.00       -6.46


     Writing output data file /scratch/as3359/Mos2_ct_lat/MoS2.save/
 
     init_run     :     17.02s CPU      9.40s WALL (       1 calls)
     electrons    :    743.17s CPU    378.84s WALL (       1 calls)
     forces       :      5.16s CPU      2.61s WALL (       1 calls)
     stress       :     16.53s CPU      8.40s WALL (       1 calls)

     Called by init_run:
     wfcinit      :     11.25s CPU      5.76s WALL (       1 calls)
     potinit      :      1.48s CPU      0.76s WALL (       1 calls)
     hinit0       :      3.62s CPU      2.51s WALL (       1 calls)

     Called by electrons:
     c_bands      :    623.07s CPU    316.09s WALL (      27 calls)
     sum_band     :    103.19s CPU     53.08s WALL (      27 calls)
     v_of_rho     :      3.75s CPU      2.07s WALL (      28 calls)
     newd         :      6.70s CPU      4.12s WALL (      28 calls)
     PAW_pot      :      5.37s CPU      2.80s WALL (      28 calls)
     mix_rho      :      1.40s CPU      0.84s WALL (      27 calls)

     Called by c_bands:
     init_us_2    :     21.68s CPU     10.88s WALL (    6441 calls)
     cegterg      :    585.24s CPU    296.98s WALL (    3051 calls)

     Called by *egterg:
     cdiaghg      :      5.63s CPU      2.86s WALL (   15303 calls)
     h_psi        :    505.46s CPU    256.85s WALL (   15416 calls)
     s_psi        :     12.09s CPU      6.09s WALL (   15416 calls)
     g_psi        :      4.08s CPU      2.05s WALL (   12252 calls)

     Called by h_psi:
     h_psi:calbec :     18.22s CPU      9.18s WALL (   15416 calls)
     vloc_psi     :    469.43s CPU    238.71s WALL (   15416 calls)
     add_vuspsi   :     13.53s CPU      6.81s WALL (   15416 calls)

     General routines
     calbec       :     23.76s CPU     11.98s WALL (   19032 calls)
     fft          :      2.02s CPU      1.16s WALL (     333 calls)
     ffts         :      0.10s CPU      0.05s WALL (      27 calls)
     fftw         :    457.05s CPU    232.66s WALL (  295781 calls)
 
     Parallel routines
 
     PWSCF        :  13m 5.04s CPU   6m42.28s WALL

 
   This run was terminated on:  16:20:44  17Apr2022            

=------------------------------------------------------------------------------=
   JOB DONE.
=------------------------------------------------------------------------------=
