
     Program PWSCF v.6.8 starts on  8Apr2022 at 14:30: 9 

     This program is part of the open-source Quantum ESPRESSO suite
     for quantum simulation of materials; please cite
         "P. Giannozzi et al., J. Phys.:Condens. Matter 21 395502 (2009);
         "P. Giannozzi et al., J. Phys.:Condens. Matter 29 465901 (2017);
         "P. Giannozzi et al., J. Chem. Phys. 152 154105 (2020);
          URL http://www.quantum-espresso.org", 
     in publications or presentations arising from this work. More details at
     http://www.quantum-espresso.org/quote

     Parallel version (MPI & OpenMP), running on       4 processor cores
     Number of MPI processes:                 2
     Threads/MPI process:                     2

     MPI processes distributed on     1 nodes
     R & G space division:  proc/nbgrp/npool/nimage =       2
     125191 MiB available memory on the printing compute node when the environment starts
 
     Reading input from MoS2.scf.6.250.in
Warning: card  &CELL ignored
Warning: card     CELL_DYNAMICS='BFGS' ignored
Warning: card  / ignored

     Current dimensions of program PWSCF are:
     Max number of different atomic species (ntypx) = 10
     Max number of k-points (npk) =  40000
     Max angular momentum in pseudopotentials (lmaxx) =  4
     Message from routine iosys:
     restart disabled: needed files not found
     file Mo.pbesol-spn-kjpaw_psl.1.0.0.UPF: wavefunction(s)  4S 4D renormalized
     file S.pbesol-nl-kjpaw_psl.1.0.0.UPF: wavefunction(s)  3S renormalized

     Subspace diagonalization in iterative solution of the eigenvalue problem:
     a serial algorithm will be used

 
     Parallelization info
     --------------------
     sticks:   dense  smooth     PW     G-vecs:    dense   smooth      PW
     Min         765     765    219               125081   125081   19561
     Max         766     766    220               125100   125100   19576
     Sum        1531    1531    439               250181   250181   39137
 
     Using Slab Decomposition
 


     bravais-lattice index     =            0
     lattice parameter (alat)  =       6.2500  a.u.
     unit-cell volume          =    1008.5382 (a.u.)^3
     number of atoms/cell      =            3
     number of atomic types    =            2
     number of electrons       =        26.00
     number of Kohn-Sham states=           13
     kinetic-energy cutoff     =     150.0000  Ry
     charge density cutoff     =     600.0000  Ry
     scf convergence threshold =      1.0E-12
     mixing beta               =       0.7000
     number of iterations used =            8  plain     mixing
     Exchange-correlation= SLA  PW   PSX  PSC
                           (   1   4  10   8   0   0   0)

     celldm(1)=   6.250000  celldm(2)=   0.000000  celldm(3)=   0.000000
     celldm(4)=   0.000000  celldm(5)=   0.000000  celldm(6)=   0.000000

     crystal axes: (cart. coord. in units of alat)
               a(1) = (   0.976384  -0.000017   0.000000 )  
               a(2) = (  -0.487931   0.846187   0.000000 )  
               a(3) = (   0.000000   0.000000   5.000000 )  

     reciprocal axes: (cart. coord. in units 2 pi/alat)
               b(1) = (  1.024198  0.590577  0.000000 )  
               b(2) = (  0.000021  1.181785  0.000000 )  
               b(3) = (  0.000000  0.000000  0.200000 )  


     PseudoPot. # 1 for Mo read from file:
     /shared/home/as3359/pseudo/Mo.pbesol-spn-kjpaw_psl.1.0.0.UPF
     MD5 check sum: de57925cfc675213e43241dcc441eda8
     Pseudo is Projector augmented-wave + core cor, Zval = 14.0
     Generated using &quot;atomic&quot; code by A. Dal Corso  v.6.3
     Shape of augmentation charge: PSQ
     Using radial grid of 1229 points,  6 beta functions with: 
                l(1) =   0
                l(2) =   0
                l(3) =   1
                l(4) =   1
                l(5) =   2
                l(6) =   2
     Q(r) pseudized with 0 coefficients 


     PseudoPot. # 2 for S  read from file:
     /shared/home/as3359/pseudo/S.pbesol-nl-kjpaw_psl.1.0.0.UPF
     MD5 check sum: bf3db50ec3f960682bbc396f1aadd1dd
     Pseudo is Projector augmented-wave + core cor, Zval =  6.0
     Generated using &quot;atomic&quot; code by A. Dal Corso  v.6.3
     Shape of augmentation charge: PSQ
     Using radial grid of 1151 points,  4 beta functions with: 
                l(1) =   0
                l(2) =   0
                l(3) =   1
                l(4) =   1
     Q(r) pseudized with 0 coefficients 


     atomic species   valence    mass     pseudopotential
        Mo            14.00    95.94000     Mo( 1.00)
        S              6.00    32.06500     S ( 1.00)

     No symmetry found



   Cartesian axes

     site n.     atom                  positions (alat units)
         1           Mo  tau(   1) = (   0.0000000   0.0000000   1.6880765  )
         2           S   tau(   2) = (   0.4883508   0.2821722   2.1737857  )
         3           S   tau(   3) = (   0.4883508   0.2821722   1.2023670  )

     number of k points=   113

     Number of k-points >= 100: set verbosity='high' to print them.

     Dense  grid:   250181 G-vectors     FFT dimensions: (  48,  48, 243)

     Estimated max dynamical RAM per process >     824.56 MB

     Estimated total dynamical RAM >       1.61 GB
     Cannot read rho : file not found

     Initial potential from superposition of free atoms

     starting charge   25.99914, renormalised to   26.00000

     negative rho (up, down):  9.623E-05 0.000E+00
     Message from routine qexsd_readschema :
     xml data file /scratch/as3359/Mos2_ct_lat/MoS2.save/data-file-schema.xml not fou
     Cannot read wfcs: file not found
     Starting wfcs are   18 randomized atomic wfcs
     Checking if some PAW data can be deallocated... 

     total cpu time spent up to now is       10.7 secs

     Self-consistent Calculation

     iteration #  1     ecut=   150.00 Ry     beta= 0.70
     Davidson diagonalization with overlap
     ethr =  1.00E-05,  avg # of iterations = 10.3

     negative rho (up, down):  1.281E-04 0.000E+00

     total cpu time spent up to now is       49.8 secs

     total energy              =    -489.70119160 Ry
     estimated scf accuracy    <       0.11082174 Ry

     iteration #  2     ecut=   150.00 Ry     beta= 0.70
     Davidson diagonalization with overlap
     ethr =  4.26E-04,  avg # of iterations =  4.1

     negative rho (up, down):  1.234E-04 0.000E+00

     total cpu time spent up to now is       68.2 secs

     total energy              =    -489.69521065 Ry
     estimated scf accuracy    <       0.20769689 Ry

     iteration #  3     ecut=   150.00 Ry     beta= 0.70
     Davidson diagonalization with overlap
     ethr =  4.26E-04,  avg # of iterations =  4.9

     negative rho (up, down):  1.248E-04 0.000E+00

     total cpu time spent up to now is       87.3 secs

     total energy              =    -489.73562561 Ry
     estimated scf accuracy    <       0.06843851 Ry

     iteration #  4     ecut=   150.00 Ry     beta= 0.70
     Davidson diagonalization with overlap
     ethr =  2.63E-04,  avg # of iterations =  2.4

     negative rho (up, down):  1.271E-04 0.000E+00

     total cpu time spent up to now is      101.6 secs

     total energy              =    -489.74152443 Ry
     estimated scf accuracy    <       0.00460454 Ry

     iteration #  5     ecut=   150.00 Ry     beta= 0.70
     Davidson diagonalization with overlap
     ethr =  1.77E-05,  avg # of iterations =  5.7

     negative rho (up, down):  1.282E-04 0.000E+00

     total cpu time spent up to now is      124.3 secs

     total energy              =    -489.74490936 Ry
     estimated scf accuracy    <       0.01941794 Ry

     iteration #  6     ecut=   150.00 Ry     beta= 0.70
     Davidson diagonalization with overlap
     ethr =  1.77E-05,  avg # of iterations =  2.6

     negative rho (up, down):  1.288E-04 0.000E+00

     total cpu time spent up to now is      139.1 secs

     total energy              =    -489.74445107 Ry
     estimated scf accuracy    <       0.00719444 Ry

     iteration #  7     ecut=   150.00 Ry     beta= 0.70
     Davidson diagonalization with overlap
     ethr =  1.77E-05,  avg # of iterations =  3.2

     negative rho (up, down):  1.299E-04 0.000E+00

     total cpu time spent up to now is      154.0 secs

     total energy              =    -489.74439180 Ry
     estimated scf accuracy    <       0.00140834 Ry

     iteration #  8     ecut=   150.00 Ry     beta= 0.70
     Davidson diagonalization with overlap
     ethr =  5.42E-06,  avg # of iterations =  5.5

     negative rho (up, down):  1.302E-04 0.000E+00

     total cpu time spent up to now is      174.1 secs

     total energy              =    -489.74510705 Ry
     estimated scf accuracy    <       0.00165217 Ry

     iteration #  9     ecut=   150.00 Ry     beta= 0.70
     Davidson diagonalization with overlap
     ethr =  5.42E-06,  avg # of iterations =  1.3

     negative rho (up, down):  1.305E-04 0.000E+00

     total cpu time spent up to now is      186.4 secs

     total energy              =    -489.74488409 Ry
     estimated scf accuracy    <       0.00081411 Ry

     iteration # 10     ecut=   150.00 Ry     beta= 0.70
     Davidson diagonalization with overlap
     ethr =  3.13E-06,  avg # of iterations =  4.2

     negative rho (up, down):  1.306E-04 0.000E+00

     total cpu time spent up to now is      203.5 secs

     total energy              =    -489.74510892 Ry
     estimated scf accuracy    <       0.00007843 Ry

     iteration # 11     ecut=   150.00 Ry     beta= 0.70
     Davidson diagonalization with overlap
     ethr =  3.02E-07,  avg # of iterations =  3.0

     negative rho (up, down):  1.307E-04 0.000E+00

     total cpu time spent up to now is      218.4 secs

     total energy              =    -489.74510372 Ry
     estimated scf accuracy    <       0.00008039 Ry

     iteration # 12     ecut=   150.00 Ry     beta= 0.70
     Davidson diagonalization with overlap
     ethr =  3.02E-07,  avg # of iterations =  2.6

     negative rho (up, down):  1.307E-04 0.000E+00

     total cpu time spent up to now is      231.7 secs

     total energy              =    -489.74510675 Ry
     estimated scf accuracy    <       0.00002393 Ry

     iteration # 13     ecut=   150.00 Ry     beta= 0.70
     Davidson diagonalization with overlap
     ethr =  9.21E-08,  avg # of iterations =  1.8

     negative rho (up, down):  1.307E-04 0.000E+00

     total cpu time spent up to now is      244.4 secs

     total energy              =    -489.74510505 Ry
     estimated scf accuracy    <       0.00001527 Ry

     iteration # 14     ecut=   150.00 Ry     beta= 0.70
     Davidson diagonalization with overlap
     ethr =  5.87E-08,  avg # of iterations =  3.8

     negative rho (up, down):  1.308E-04 0.000E+00

     total cpu time spent up to now is      260.1 secs

     total energy              =    -489.74510688 Ry
     estimated scf accuracy    <       0.00000073 Ry

     iteration # 15     ecut=   150.00 Ry     beta= 0.70
     Davidson diagonalization with overlap
     ethr =  2.80E-09,  avg # of iterations =  6.8

     negative rho (up, down):  1.308E-04 0.000E+00

     total cpu time spent up to now is      284.8 secs

     total energy              =    -489.74510817 Ry
     estimated scf accuracy    <       0.00000472 Ry

     iteration # 16     ecut=   150.00 Ry     beta= 0.70
     Davidson diagonalization with overlap
     ethr =  2.80E-09,  avg # of iterations =  1.0

     negative rho (up, down):  1.308E-04 0.000E+00

     total cpu time spent up to now is      296.8 secs

     total energy              =    -489.74510770 Ry
     estimated scf accuracy    <       0.00000386 Ry

     iteration # 17     ecut=   150.00 Ry     beta= 0.70
     Davidson diagonalization with overlap
     ethr =  2.80E-09,  avg # of iterations =  3.0

     negative rho (up, down):  1.308E-04 0.000E+00

     total cpu time spent up to now is      312.4 secs

     total energy              =    -489.74510777 Ry
     estimated scf accuracy    <       0.00000129 Ry

     iteration # 18     ecut=   150.00 Ry     beta= 0.70
     Davidson diagonalization with overlap
     ethr =  2.80E-09,  avg # of iterations =  1.0

     negative rho (up, down):  1.308E-04 0.000E+00

     total cpu time spent up to now is      324.3 secs

     total energy              =    -489.74510752 Ry
     estimated scf accuracy    <       0.00000098 Ry

     iteration # 19     ecut=   150.00 Ry     beta= 0.70
     Davidson diagonalization with overlap
     ethr =  2.80E-09,  avg # of iterations =  4.6

     negative rho (up, down):  1.308E-04 0.000E+00

     total cpu time spent up to now is      342.2 secs

     total energy              =    -489.74510774 Ry
     estimated scf accuracy    <       0.00000003 Ry

     iteration # 20     ecut=   150.00 Ry     beta= 0.70
     Davidson diagonalization with overlap
     ethr =  1.12E-10,  avg # of iterations =  4.6

     negative rho (up, down):  1.308E-04 0.000E+00

     total cpu time spent up to now is      359.5 secs

     total energy              =    -489.74510774 Ry
     estimated scf accuracy    <       0.00000003 Ry

     iteration # 21     ecut=   150.00 Ry     beta= 0.70
     Davidson diagonalization with overlap
     ethr =  1.06E-10,  avg # of iterations =  2.9

     negative rho (up, down):  1.308E-04 0.000E+00

     total cpu time spent up to now is      374.0 secs

     total energy              =    -489.74510774 Ry
     estimated scf accuracy    <          2.6E-09 Ry

     iteration # 22     ecut=   150.00 Ry     beta= 0.70
     Davidson diagonalization with overlap
     ethr =  9.94E-12,  avg # of iterations =  5.6

     negative rho (up, down):  1.308E-04 0.000E+00

     total cpu time spent up to now is      394.9 secs

     total energy              =    -489.74510774 Ry
     estimated scf accuracy    <          3.7E-09 Ry

     iteration # 23     ecut=   150.00 Ry     beta= 0.70
     Davidson diagonalization with overlap
     ethr =  9.94E-12,  avg # of iterations =  1.0

     negative rho (up, down):  1.308E-04 0.000E+00

     total cpu time spent up to now is      406.9 secs

     total energy              =    -489.74510774 Ry
     estimated scf accuracy    <          4.4E-09 Ry

     iteration # 24     ecut=   150.00 Ry     beta= 0.70
     Davidson diagonalization with overlap
     ethr =  9.94E-12,  avg # of iterations =  1.9

     negative rho (up, down):  1.308E-04 0.000E+00

     total cpu time spent up to now is      419.8 secs

     total energy              =    -489.74510774 Ry
     estimated scf accuracy    <          1.7E-09 Ry

     iteration # 25     ecut=   150.00 Ry     beta= 0.70
     Davidson diagonalization with overlap
     ethr =  6.60E-12,  avg # of iterations =  1.0

     negative rho (up, down):  1.308E-04 0.000E+00

     total cpu time spent up to now is      431.7 secs

     total energy              =    -489.74510774 Ry
     estimated scf accuracy    <          1.5E-09 Ry

     iteration # 26     ecut=   150.00 Ry     beta= 0.70
     Davidson diagonalization with overlap
     ethr =  5.68E-12,  avg # of iterations =  1.1

     negative rho (up, down):  1.308E-04 0.000E+00

     total cpu time spent up to now is      443.7 secs

     total energy              =    -489.74510774 Ry
     estimated scf accuracy    <          2.7E-09 Ry

     iteration # 27     ecut=   150.00 Ry     beta= 0.70
     Davidson diagonalization with overlap
     ethr =  5.68E-12,  avg # of iterations =  5.8

     negative rho (up, down):  1.308E-04 0.000E+00

     total cpu time spent up to now is      466.1 secs

     total energy              =    -489.74510774 Ry
     estimated scf accuracy    <          4.6E-09 Ry

     iteration # 28     ecut=   150.00 Ry     beta= 0.70
     Davidson diagonalization with overlap
     ethr =  5.68E-12,  avg # of iterations =  2.4

     negative rho (up, down):  1.308E-04 0.000E+00

     total cpu time spent up to now is      479.7 secs

     total energy              =    -489.74510774 Ry
     estimated scf accuracy    <          7.8E-09 Ry

     iteration # 29     ecut=   150.00 Ry     beta= 0.70
     Davidson diagonalization with overlap
     ethr =  5.68E-12,  avg # of iterations =  1.0

     negative rho (up, down):  1.308E-04 0.000E+00

     total cpu time spent up to now is      491.5 secs

     total energy              =    -489.74510774 Ry
     estimated scf accuracy    <          6.7E-09 Ry

     iteration # 30     ecut=   150.00 Ry     beta= 0.70
     Davidson diagonalization with overlap
     ethr =  5.68E-12,  avg # of iterations =  1.5

     negative rho (up, down):  1.308E-04 0.000E+00

     total cpu time spent up to now is      503.9 secs

     total energy              =    -489.74510774 Ry
     estimated scf accuracy    <          9.3E-09 Ry

     iteration # 31     ecut=   150.00 Ry     beta= 0.70
     Davidson diagonalization with overlap
     ethr =  5.68E-12,  avg # of iterations =  1.0

     negative rho (up, down):  1.308E-04 0.000E+00

     total cpu time spent up to now is      515.7 secs

     total energy              =    -489.74510775 Ry
     estimated scf accuracy    <          8.4E-09 Ry

     iteration # 32     ecut=   150.00 Ry     beta= 0.70
     Davidson diagonalization with overlap
     ethr =  5.68E-12,  avg # of iterations =  2.6

     negative rho (up, down):  1.308E-04 0.000E+00

     total cpu time spent up to now is      530.6 secs

     total energy              =    -489.74510774 Ry
     estimated scf accuracy    <       0.00000002 Ry

     iteration # 33     ecut=   150.00 Ry     beta= 0.70
     Davidson diagonalization with overlap
     ethr =  5.68E-12,  avg # of iterations =  2.5

     negative rho (up, down):  1.308E-04 0.000E+00

     total cpu time spent up to now is      545.4 secs

     total energy              =    -489.74510774 Ry
     estimated scf accuracy    <          8.9E-09 Ry

     iteration # 34     ecut=   150.00 Ry     beta= 0.70
     Davidson diagonalization with overlap
     ethr =  5.68E-12,  avg # of iterations =  1.0

     negative rho (up, down):  1.308E-04 0.000E+00

     total cpu time spent up to now is      557.1 secs

     total energy              =    -489.74510774 Ry
     estimated scf accuracy    <          9.9E-09 Ry

     iteration # 35     ecut=   150.00 Ry     beta= 0.70
     Davidson diagonalization with overlap
     ethr =  5.68E-12,  avg # of iterations =  2.7

     negative rho (up, down):  1.308E-04 0.000E+00

     total cpu time spent up to now is      572.2 secs

     total energy              =    -489.74510774 Ry
     estimated scf accuracy    <          3.8E-09 Ry

     iteration # 36     ecut=   150.00 Ry     beta= 0.70
     Davidson diagonalization with overlap
     ethr =  5.68E-12,  avg # of iterations =  4.3

     negative rho (up, down):  1.308E-04 0.000E+00

     total cpu time spent up to now is      588.6 secs

     total energy              =    -489.74510774 Ry
     estimated scf accuracy    <          3.7E-10 Ry

     iteration # 37     ecut=   150.00 Ry     beta= 0.70
     Davidson diagonalization with overlap
     ethr =  1.43E-12,  avg # of iterations =  5.0

     negative rho (up, down):  1.308E-04 0.000E+00

     total cpu time spent up to now is      607.6 secs

     total energy              =    -489.74510774 Ry
     estimated scf accuracy    <          2.3E-10 Ry

     iteration # 38     ecut=   150.00 Ry     beta= 0.70
     Davidson diagonalization with overlap
     ethr =  8.84E-13,  avg # of iterations =  2.3

     negative rho (up, down):  1.308E-04 0.000E+00

     total cpu time spent up to now is      621.6 secs

     total energy              =    -489.74510774 Ry
     estimated scf accuracy    <          2.6E-11 Ry

     iteration # 39     ecut=   150.00 Ry     beta= 0.70
     Davidson diagonalization with overlap
     ethr =  1.00E-13,  avg # of iterations =  5.8

     negative rho (up, down):  1.308E-04 0.000E+00

     total cpu time spent up to now is      644.4 secs

     total energy              =    -489.74510774 Ry
     estimated scf accuracy    <          1.6E-10 Ry

     iteration # 40     ecut=   150.00 Ry     beta= 0.70
     Davidson diagonalization with overlap
     ethr =  1.00E-13,  avg # of iterations =  3.6

     negative rho (up, down):  1.308E-04 0.000E+00

     total cpu time spent up to now is      660.2 secs

     total energy              =    -489.74510774 Ry
     estimated scf accuracy    <          4.7E-11 Ry

     iteration # 41     ecut=   150.00 Ry     beta= 0.70
     Davidson diagonalization with overlap
     ethr =  1.00E-13,  avg # of iterations =  4.5

     negative rho (up, down):  1.308E-04 0.000E+00

     total cpu time spent up to now is      677.5 secs

     End of self-consistent calculation

     Number of k-points >= 100: set verbosity='high' to print the bands.

     highest occupied level (ev):    -0.1284

!    total energy              =    -489.74510774 Ry

     total all-electron energy =     -9688.202953 Ry
     estimated scf accuracy    <          9.1E-13 Ry

     The total energy is the sum of the following terms:
     one-electron contribution =    -798.70707596 Ry
     hartree contribution      =     402.64632607 Ry
     xc contribution           =     -29.31589248 Ry
     ewald contribution        =     248.50355813 Ry
     one-center paw contrib.   =    -312.87202351 Ry

     convergence has been achieved in  41 iterations

     negative rho (up, down):  1.308E-04 0.000E+00

     Forces acting on atoms (cartesian axes, Ry/au):

     atom    1 type  1   force =     0.00018949    0.00016697    0.00000017
     atom    2 type  2   force =    -0.00009475   -0.00008349   -0.05151544
     atom    3 type  2   force =    -0.00009474   -0.00008348    0.05151528

     Total force =     0.072854     Total SCF correction =     0.000006


     Computing stress (Cartesian axis) and pressure


     negative rho (up, down):  1.308E-04 0.000E+00
          total   stress  (Ry/bohr**3)                   (kbar)     P=      -42.37
  -0.00027545  -0.00000062   0.00000000          -40.52       -0.09        0.00
  -0.00000062  -0.00027804  -0.00000000           -0.09      -40.90       -0.00
   0.00000000  -0.00000000  -0.00031057            0.00       -0.00      -45.69


     Writing output data file /scratch/as3359/Mos2_ct_lat/MoS2.save/
 
     init_run     :     19.41s CPU     10.61s WALL (       1 calls)
     electrons    :   1306.36s CPU    666.80s WALL (       1 calls)
     forces       :      5.88s CPU      3.00s WALL (       1 calls)
     stress       :     18.89s CPU      9.65s WALL (       1 calls)

     Called by init_run:
     wfcinit      :     13.79s CPU      7.08s WALL (       1 calls)
     potinit      :      1.60s CPU      0.82s WALL (       1 calls)
     hinit0       :      3.29s CPU      2.29s WALL (       1 calls)

     Called by electrons:
     c_bands      :   1083.31s CPU    549.17s WALL (      41 calls)
     sum_band     :    191.85s CPU     99.23s WALL (      41 calls)
     v_of_rho     :      7.03s CPU      3.86s WALL (      42 calls)
     newd         :     13.14s CPU      8.58s WALL (      42 calls)
     PAW_pot      :      7.95s CPU      4.14s WALL (      42 calls)
     mix_rho      :      3.35s CPU      2.00s WALL (      41 calls)

     Called by c_bands:
     init_us_2    :     42.35s CPU     21.22s WALL (    9605 calls)
     cegterg      :   1013.22s CPU    513.73s WALL (    4633 calls)

     Called by *egterg:
     cdiaghg      :      7.91s CPU      4.04s WALL (   20031 calls)
     h_psi        :    860.71s CPU    437.03s WALL (   20144 calls)
     s_psi        :     33.03s CPU     16.57s WALL (   20144 calls)
     g_psi        :      6.84s CPU      3.44s WALL (   15398 calls)

     Called by h_psi:
     h_psi:calbec :     30.50s CPU     15.36s WALL (   20144 calls)
     vloc_psi     :    778.47s CPU    395.68s WALL (   20144 calls)
     add_vuspsi   :     44.18s CPU     22.16s WALL (   20144 calls)

     General routines
     calbec       :     39.85s CPU     20.08s WALL (   25342 calls)
     fft          :      3.04s CPU      1.55s WALL (     487 calls)
     ffts         :      0.22s CPU      0.12s WALL (      41 calls)
     fftw         :    770.87s CPU    392.45s WALL (  402713 calls)
 
     Parallel routines
 
     PWSCF        :  22m33.10s CPU  11m32.34s WALL

 
   This run was terminated on:  14:41:42   8Apr2022            

=------------------------------------------------------------------------------=
   JOB DONE.
=------------------------------------------------------------------------------=
