
     Program PWSCF v.6.8 starts on  6Apr2022 at 11:17:45 

     This program is part of the open-source Quantum ESPRESSO suite
     for quantum simulation of materials; please cite
         "P. Giannozzi et al., J. Phys.:Condens. Matter 21 395502 (2009);
         "P. Giannozzi et al., J. Phys.:Condens. Matter 29 465901 (2017);
         "P. Giannozzi et al., J. Chem. Phys. 152 154105 (2020);
          URL http://www.quantum-espresso.org", 
     in publications or presentations arising from this work. More details at
     http://www.quantum-espresso.org/quote

     Parallel version (MPI & OpenMP), running on       4 processor cores
     Number of MPI processes:                 2
     Threads/MPI process:                     2

     MPI processes distributed on     1 nodes
     R & G space division:  proc/nbgrp/npool/nimage =       2
     125068 MiB available memory on the printing compute node when the environment starts
 
     Reading input from MoS2.relax.in
Warning: card  &CELL ignored
Warning: card     CELL_DYNAMICS='BFGS', CELL_DOFREE ='2DXY' ignored
Warning: card  / ignored

     Current dimensions of program PWSCF are:
     Max number of different atomic species (ntypx) = 10
     Max number of k-points (npk) =  40000
     Max angular momentum in pseudopotentials (lmaxx) =  4
     file Mo.pbesol-spn-kjpaw_psl.1.0.0.UPF: wavefunction(s)  4S 4D renormalized
     file S.pbesol-nl-kjpaw_psl.1.0.0.UPF: wavefunction(s)  3S renormalized

     Subspace diagonalization in iterative solution of the eigenvalue problem:
     a serial algorithm will be used

 
     Parallelization info
     --------------------
     sticks:   dense  smooth     PW     G-vecs:    dense   smooth      PW
     Min         606     291     93                87236    29115    5293
     Max         607     292     94                87245    29132    5310
     Sum        1213     583    187               174481    58247   10603
 
     Using Slab Decomposition
 


     bravais-lattice index     =            0
     lattice parameter (alat)  =       6.0720  a.u.
     unit-cell volume          =     924.7995 (a.u.)^3
     number of atoms/cell      =            3
     number of atomic types    =            2
     number of electrons       =        26.00
     number of Kohn-Sham states=           13
     kinetic-energy cutoff     =      60.0000  Ry
     charge density cutoff     =     500.0000  Ry
     scf convergence threshold =      1.0E-12
     mixing beta               =       0.7000
     number of iterations used =            8  plain     mixing
     energy convergence thresh.=      1.0E-04
     force convergence thresh. =      1.0E-03
     Exchange-correlation= SLA  PW   PSX  PSC
                           (   1   4  10   8   0   0   0)
     nstep                     =           50


     celldm(1)=   6.072000  celldm(2)=   0.000000  celldm(3)=   0.000000
     celldm(4)=   0.000000  celldm(5)=   0.000000  celldm(6)=   0.000000

     crystal axes: (cart. coord. in units of alat)
               a(1) = (   0.976384  -0.000017   0.000000 )  
               a(2) = (  -0.487931   0.846187   0.000000 )  
               a(3) = (   0.000000   0.000000   5.000000 )  

     reciprocal axes: (cart. coord. in units 2 pi/alat)
               b(1) = (  1.024198  0.590577  0.000000 )  
               b(2) = (  0.000021  1.181785  0.000000 )  
               b(3) = (  0.000000  0.000000  0.200000 )  


     PseudoPot. # 1 for Mo read from file:
     /shared/home/as3359/pseudo/Mo.pbesol-spn-kjpaw_psl.1.0.0.UPF
     MD5 check sum: de57925cfc675213e43241dcc441eda8
     Pseudo is Projector augmented-wave + core cor, Zval = 14.0
     Generated using &quot;atomic&quot; code by A. Dal Corso  v.6.3
     Shape of augmentation charge: PSQ
     Using radial grid of 1229 points,  6 beta functions with: 
                l(1) =   0
                l(2) =   0
                l(3) =   1
                l(4) =   1
                l(5) =   2
                l(6) =   2
     Q(r) pseudized with 0 coefficients 


     PseudoPot. # 2 for S  read from file:
     /shared/home/as3359/pseudo/S.pbesol-nl-kjpaw_psl.1.0.0.UPF
     MD5 check sum: bf3db50ec3f960682bbc396f1aadd1dd
     Pseudo is Projector augmented-wave + core cor, Zval =  6.0
     Generated using &quot;atomic&quot; code by A. Dal Corso  v.6.3
     Shape of augmentation charge: PSQ
     Using radial grid of 1151 points,  4 beta functions with: 
                l(1) =   0
                l(2) =   0
                l(3) =   1
                l(4) =   1
     Q(r) pseudized with 0 coefficients 


     atomic species   valence    mass     pseudopotential
        Mo            14.00    95.94000     Mo( 1.00)
        S              6.00    32.06500     S ( 1.00)

     No symmetry found



   Cartesian axes

     site n.     atom                  positions (alat units)
         1           Mo  tau(   1) = (   0.0000000   0.0000000   1.6880765  )
         2           S   tau(   2) = (   0.4883508   0.2821722   2.1737857  )
         3           S   tau(   3) = (   0.4883508   0.2821722   1.2023670  )

     number of k points=    74
                       cart. coord. in units 2pi/alat
        k(    1) = (   0.0000000   0.0000000   0.0000000), wk =   0.0138889
        k(    2) = (   0.0000017   0.0984820   0.0000000), wk =   0.0277778
        k(    3) = (   0.0000035   0.1969641   0.0000000), wk =   0.0277778
        k(    4) = (   0.0000052   0.2954461   0.0000000), wk =   0.0277778
        k(    5) = (   0.0000070   0.3939282   0.0000000), wk =   0.0277778
        k(    6) = (   0.0000087   0.4924102   0.0000000), wk =   0.0277778
        k(    7) = (  -0.0000105  -0.5908923   0.0000000), wk =   0.0138889
        k(    8) = (   0.0853498   0.0492147   0.0000000), wk =   0.0277778
        k(    9) = (   0.0853516   0.1476968   0.0000000), wk =   0.0277778
        k(   10) = (   0.0853533   0.2461788   0.0000000), wk =   0.0277778
        k(   11) = (   0.0853550   0.3446609   0.0000000), wk =   0.0277778
        k(   12) = (   0.0853568   0.4431429   0.0000000), wk =   0.0277778
        k(   13) = (   0.0853585   0.5416249   0.0000000), wk =   0.0277778
        k(   14) = (   0.0853394  -0.5416775   0.0000000), wk =   0.0277778
        k(   15) = (   0.0853411  -0.4431955   0.0000000), wk =   0.0277778
        k(   16) = (   0.0853428  -0.3447135   0.0000000), wk =   0.0277778
        k(   17) = (   0.0853446  -0.2462314   0.0000000), wk =   0.0277778
        k(   18) = (   0.0853463  -0.1477494   0.0000000), wk =   0.0277778
        k(   19) = (   0.0853481  -0.0492673   0.0000000), wk =   0.0277778
        k(   20) = (   0.1706996   0.0984294   0.0000000), wk =   0.0277778
        k(   21) = (   0.1707014   0.1969115   0.0000000), wk =   0.0277778
        k(   22) = (   0.1707031   0.2953935   0.0000000), wk =   0.0277778
        k(   23) = (   0.1707049   0.3938756   0.0000000), wk =   0.0277778
        k(   24) = (   0.1707066   0.4923576   0.0000000), wk =   0.0277778
        k(   25) = (   0.1707083   0.5908397   0.0000000), wk =   0.0277778
        k(   26) = (   0.1706892  -0.4924628   0.0000000), wk =   0.0277778
        k(   27) = (   0.1706909  -0.3939808   0.0000000), wk =   0.0277778
        k(   28) = (   0.1706927  -0.2954987   0.0000000), wk =   0.0277778
        k(   29) = (   0.1706944  -0.1970167   0.0000000), wk =   0.0277778
        k(   30) = (   0.1706961  -0.0985346   0.0000000), wk =   0.0277778
        k(   31) = (   0.1706979  -0.0000526   0.0000000), wk =   0.0277778
        k(   32) = (   0.2560494   0.1476442   0.0000000), wk =   0.0277778
        k(   33) = (   0.2560512   0.2461262   0.0000000), wk =   0.0277778
        k(   34) = (   0.2560529   0.3446082   0.0000000), wk =   0.0277778
        k(   35) = (   0.2560547   0.4430903   0.0000000), wk =   0.0277778
        k(   36) = (   0.2560564   0.5415723   0.0000000), wk =   0.0277778
        k(   37) = (   0.2560582   0.6400544   0.0000000), wk =   0.0277778
        k(   38) = (   0.2560390  -0.4432481   0.0000000), wk =   0.0277778
        k(   39) = (   0.2560407  -0.3447661   0.0000000), wk =   0.0277778
        k(   40) = (   0.2560425  -0.2462840   0.0000000), wk =   0.0277778
        k(   41) = (   0.2560442  -0.1478020   0.0000000), wk =   0.0277778
        k(   42) = (   0.2560460  -0.0493199   0.0000000), wk =   0.0277778
        k(   43) = (   0.2560477   0.0491621   0.0000000), wk =   0.0277778
        k(   44) = (   0.3413993   0.1968589   0.0000000), wk =   0.0277778
        k(   45) = (   0.3414010   0.2953409   0.0000000), wk =   0.0277778
        k(   46) = (   0.3414027   0.3938230   0.0000000), wk =   0.0277778
        k(   47) = (   0.3414045   0.4923050   0.0000000), wk =   0.0277778
        k(   48) = (   0.3414062   0.5907871   0.0000000), wk =   0.0277778
        k(   49) = (   0.3414080   0.6892691   0.0000000), wk =   0.0277778
        k(   50) = (   0.3413888  -0.3940334   0.0000000), wk =   0.0277778
        k(   51) = (   0.3413905  -0.2955513   0.0000000), wk =   0.0277778
        k(   52) = (   0.3413923  -0.1970693   0.0000000), wk =   0.0277778
        k(   53) = (   0.3413940  -0.0985872   0.0000000), wk =   0.0277778
        k(   54) = (   0.3413958  -0.0001052   0.0000000), wk =   0.0277778
        k(   55) = (   0.3413975   0.0983768   0.0000000), wk =   0.0277778
        k(   56) = (   0.4267491   0.2460736   0.0000000), wk =   0.0277778
        k(   57) = (   0.4267508   0.3445556   0.0000000), wk =   0.0277778
        k(   58) = (   0.4267526   0.4430377   0.0000000), wk =   0.0277778
        k(   59) = (   0.4267543   0.5415197   0.0000000), wk =   0.0277778
        k(   60) = (   0.4267560   0.6400018   0.0000000), wk =   0.0277778
        k(   61) = (   0.4267578   0.7384838   0.0000000), wk =   0.0277778
        k(   62) = (   0.4267386  -0.3448187   0.0000000), wk =   0.0277778
        k(   63) = (   0.4267404  -0.2463366   0.0000000), wk =   0.0277778
        k(   64) = (   0.4267421  -0.1478546   0.0000000), wk =   0.0277778
        k(   65) = (   0.4267438  -0.0493725   0.0000000), wk =   0.0277778
        k(   66) = (   0.4267456   0.0491095   0.0000000), wk =   0.0277778
        k(   67) = (   0.4267473   0.1475916   0.0000000), wk =   0.0277778
        k(   68) = (  -0.5120989  -0.2952883   0.0000000), wk =   0.0138889
        k(   69) = (  -0.5120971  -0.1968063   0.0000000), wk =   0.0277778
        k(   70) = (  -0.5120954  -0.0983242   0.0000000), wk =   0.0277778
        k(   71) = (  -0.5120937   0.0001578   0.0000000), wk =   0.0277778
        k(   72) = (  -0.5120919   0.0986398   0.0000000), wk =   0.0277778
        k(   73) = (  -0.5120902   0.1971219   0.0000000), wk =   0.0277778
        k(   74) = (  -0.5121093  -0.8861806   0.0000000), wk =   0.0138889

     Dense  grid:   174481 G-vectors     FFT dimensions: (  45,  45, 225)

     Smooth grid:    58247 G-vectors     FFT dimensions: (  30,  30, 150)

     Estimated max dynamical RAM per process >     381.22 MB

     Estimated total dynamical RAM >     762.44 MB

     Initial potential from superposition of free atoms

     starting charge   25.99914, renormalised to   26.00000

     negative rho (up, down):  9.004E-05 0.000E+00
     Starting wfcs are   18 randomized atomic wfcs
     Checking if some PAW data can be deallocated... 

     total cpu time spent up to now is        3.8 secs

     Self-consistent Calculation

     iteration #  1     ecut=    60.00 Ry     beta= 0.70
     Davidson diagonalization with overlap
     ethr =  1.00E-02,  avg # of iterations =  2.0

     Threshold (ethr) on eigenvalues was too large:
     Diagonalizing with lowered threshold

     Davidson diagonalization with overlap
     ethr =  3.44E-04,  avg # of iterations =  3.9

     negative rho (up, down):  1.083E-04 0.000E+00

     total cpu time spent up to now is        9.4 secs

     total energy              =    -489.69219156 Ry
     estimated scf accuracy    <       0.14227573 Ry

     iteration #  2     ecut=    60.00 Ry     beta= 0.70
     Davidson diagonalization with overlap
     ethr =  5.47E-04,  avg # of iterations =  5.2

     negative rho (up, down):  1.027E-04 0.000E+00

     total cpu time spent up to now is       13.1 secs

     total energy              =    -489.64844870 Ry
     estimated scf accuracy    <       0.55739517 Ry

     iteration #  3     ecut=    60.00 Ry     beta= 0.70
     Davidson diagonalization with overlap
     ethr =  5.47E-04,  avg # of iterations =  5.2

     negative rho (up, down):  1.033E-04 0.000E+00

     total cpu time spent up to now is       16.7 secs

     total energy              =    -489.75129010 Ry
     estimated scf accuracy    <       0.03220130 Ry

     iteration #  4     ecut=    60.00 Ry     beta= 0.70
     Davidson diagonalization with overlap
     ethr =  1.24E-04,  avg # of iterations =  2.5

     negative rho (up, down):  1.096E-04 0.000E+00

     total cpu time spent up to now is       19.4 secs

     total energy              =    -489.75339886 Ry
     estimated scf accuracy    <       0.00469830 Ry

     iteration #  5     ecut=    60.00 Ry     beta= 0.70
     Davidson diagonalization with overlap
     ethr =  1.81E-05,  avg # of iterations =  4.9

     negative rho (up, down):  1.099E-04 0.000E+00

     total cpu time spent up to now is       22.8 secs

     total energy              =    -489.75615342 Ry
     estimated scf accuracy    <       0.00450603 Ry

     iteration #  6     ecut=    60.00 Ry     beta= 0.70
     Davidson diagonalization with overlap
     ethr =  1.73E-05,  avg # of iterations =  1.0

     negative rho (up, down):  1.113E-04 0.000E+00

     total cpu time spent up to now is       25.1 secs

     total energy              =    -489.75541992 Ry
     estimated scf accuracy    <       0.00319874 Ry

     iteration #  7     ecut=    60.00 Ry     beta= 0.70
     Davidson diagonalization with overlap
     ethr =  1.23E-05,  avg # of iterations =  2.7

     negative rho (up, down):  1.126E-04 0.000E+00

     total cpu time spent up to now is       27.8 secs

     total energy              =    -489.75568249 Ry
     estimated scf accuracy    <       0.00041744 Ry

     iteration #  8     ecut=    60.00 Ry     beta= 0.70
     Davidson diagonalization with overlap
     ethr =  1.61E-06,  avg # of iterations =  4.6

     negative rho (up, down):  1.149E-04 0.000E+00

     total cpu time spent up to now is       30.8 secs

     total energy              =    -489.75578958 Ry
     estimated scf accuracy    <       0.00002194 Ry

     iteration #  9     ecut=    60.00 Ry     beta= 0.70
     Davidson diagonalization with overlap
     ethr =  8.44E-08,  avg # of iterations =  5.7

     negative rho (up, down):  1.150E-04 0.000E+00

     total cpu time spent up to now is       34.8 secs

     total energy              =    -489.75580637 Ry
     estimated scf accuracy    <       0.00010448 Ry

     iteration # 10     ecut=    60.00 Ry     beta= 0.70
     Davidson diagonalization with overlap
     ethr =  8.44E-08,  avg # of iterations =  3.5

     negative rho (up, down):  1.150E-04 0.000E+00

     total cpu time spent up to now is       37.7 secs

     total energy              =    -489.75577966 Ry
     estimated scf accuracy    <       0.00009079 Ry

     iteration # 11     ecut=    60.00 Ry     beta= 0.70
     Davidson diagonalization with overlap
     ethr =  8.44E-08,  avg # of iterations =  5.1

     negative rho (up, down):  1.151E-04 0.000E+00

     total cpu time spent up to now is       41.2 secs

     total energy              =    -489.75579510 Ry
     estimated scf accuracy    <       0.00002449 Ry

     iteration # 12     ecut=    60.00 Ry     beta= 0.70
     Davidson diagonalization with overlap
     ethr =  8.44E-08,  avg # of iterations =  2.3

     negative rho (up, down):  1.150E-04 0.000E+00

     total cpu time spent up to now is       43.9 secs

     total energy              =    -489.75579663 Ry
     estimated scf accuracy    <       0.00000327 Ry

     iteration # 13     ecut=    60.00 Ry     beta= 0.70
     Davidson diagonalization with overlap
     ethr =  1.26E-08,  avg # of iterations =  4.7

     negative rho (up, down):  1.151E-04 0.000E+00

     total cpu time spent up to now is       47.2 secs

     total energy              =    -489.75579784 Ry
     estimated scf accuracy    <       0.00000076 Ry

     iteration # 14     ecut=    60.00 Ry     beta= 0.70
     Davidson diagonalization with overlap
     ethr =  2.94E-09,  avg # of iterations =  1.4

     negative rho (up, down):  1.151E-04 0.000E+00

     total cpu time spent up to now is       49.5 secs

     total energy              =    -489.75579777 Ry
     estimated scf accuracy    <       0.00000054 Ry

     iteration # 15     ecut=    60.00 Ry     beta= 0.70
     Davidson diagonalization with overlap
     ethr =  2.06E-09,  avg # of iterations =  2.3

     negative rho (up, down):  1.151E-04 0.000E+00

     total cpu time spent up to now is       52.1 secs

     total energy              =    -489.75579778 Ry
     estimated scf accuracy    <       0.00000012 Ry

     iteration # 16     ecut=    60.00 Ry     beta= 0.70
     Davidson diagonalization with overlap
     ethr =  4.45E-10,  avg # of iterations =  4.4

     negative rho (up, down):  1.151E-04 0.000E+00

     total cpu time spent up to now is       55.1 secs

     total energy              =    -489.75579781 Ry
     estimated scf accuracy    <          9.9E-09 Ry

     iteration # 17     ecut=    60.00 Ry     beta= 0.70
     Davidson diagonalization with overlap
     ethr =  3.79E-11,  avg # of iterations =  4.9

     negative rho (up, down):  1.151E-04 0.000E+00

     total cpu time spent up to now is       58.3 secs

     total energy              =    -489.75579781 Ry
     estimated scf accuracy    <          4.3E-09 Ry

     iteration # 18     ecut=    60.00 Ry     beta= 0.70
     Davidson diagonalization with overlap
     ethr =  1.67E-11,  avg # of iterations =  1.2

     negative rho (up, down):  1.151E-04 0.000E+00

     total cpu time spent up to now is       60.6 secs

     total energy              =    -489.75579781 Ry
     estimated scf accuracy    <          3.7E-09 Ry

     iteration # 19     ecut=    60.00 Ry     beta= 0.70
     Davidson diagonalization with overlap
     ethr =  1.43E-11,  avg # of iterations =  2.2

     negative rho (up, down):  1.151E-04 0.000E+00

     total cpu time spent up to now is       63.3 secs

     total energy              =    -489.75579781 Ry
     estimated scf accuracy    <          5.2E-10 Ry

     iteration # 20     ecut=    60.00 Ry     beta= 0.70
     Davidson diagonalization with overlap
     ethr =  1.99E-12,  avg # of iterations =  4.7

     negative rho (up, down):  1.151E-04 0.000E+00

     total cpu time spent up to now is       66.5 secs

     total energy              =    -489.75579781 Ry
     estimated scf accuracy    <          8.3E-11 Ry

     iteration # 21     ecut=    60.00 Ry     beta= 0.70
     Davidson diagonalization with overlap
     ethr =  3.18E-13,  avg # of iterations =  5.6

     negative rho (up, down):  1.151E-04 0.000E+00

     total cpu time spent up to now is       70.1 secs

     total energy              =    -489.75579781 Ry
     estimated scf accuracy    <          6.2E-10 Ry

     iteration # 22     ecut=    60.00 Ry     beta= 0.70
     Davidson diagonalization with overlap
     ethr =  3.18E-13,  avg # of iterations =  4.0

     negative rho (up, down):  1.151E-04 0.000E+00

     total cpu time spent up to now is       73.1 secs

     total energy              =    -489.75579781 Ry
     estimated scf accuracy    <          1.5E-10 Ry

     iteration # 23     ecut=    60.00 Ry     beta= 0.70
     Davidson diagonalization with overlap
     ethr =  3.18E-13,  avg # of iterations =  2.1

     negative rho (up, down):  1.151E-04 0.000E+00

     total cpu time spent up to now is       75.7 secs

     total energy              =    -489.75579781 Ry
     estimated scf accuracy    <          4.6E-11 Ry

     iteration # 24     ecut=    60.00 Ry     beta= 0.70
     Davidson diagonalization with overlap
     ethr =  1.75E-13,  avg # of iterations =  2.3

     negative rho (up, down):  1.151E-04 0.000E+00

     total cpu time spent up to now is       78.2 secs

     total energy              =    -489.75579781 Ry
     estimated scf accuracy    <          1.3E-11 Ry

     iteration # 25     ecut=    60.00 Ry     beta= 0.70
     Davidson diagonalization with overlap
     ethr =  1.00E-13,  avg # of iterations =  2.1

     negative rho (up, down):  1.151E-04 0.000E+00

     total cpu time spent up to now is       80.7 secs

     total energy              =    -489.75579781 Ry
     estimated scf accuracy    <          5.2E-12 Ry

     iteration # 26     ecut=    60.00 Ry     beta= 0.70
     Davidson diagonalization with overlap
     ethr =  1.00E-13,  avg # of iterations =  1.9

     negative rho (up, down):  1.151E-04 0.000E+00

     total cpu time spent up to now is       83.1 secs

     End of self-consistent calculation

          k = 0.0000 0.0000 0.0000 (  7313 PWs)   bands (ev):

   -60.3452 -34.5551 -34.2874 -34.2861 -13.8551 -12.5036  -5.4143  -2.2346
    -2.2259  -1.4939  -1.0733  -1.0669   0.2792

          k = 0.0000 0.0985 0.0000 (  7293 PWs)   bands (ev):

   -60.3421 -34.5491 -34.3173 -34.2928 -13.7453 -12.4582  -5.2904  -2.4746
    -2.1114  -1.9583  -1.2403  -0.7775   0.2369

          k = 0.0000 0.1970 0.0000 (  7283 PWs)   bands (ev):

   -60.3337 -34.5329 -34.3986 -34.3113 -13.4325 -12.3293  -4.9797  -3.0229
    -2.6260  -1.7910  -1.6469  -0.7040   0.0217

          k = 0.0000 0.2954 0.0000 (  7263 PWs)   bands (ev):

   -60.3223 -34.5106 -34.5081 -34.3363 -12.9679 -12.1393  -4.7597  -3.4844
    -3.3108  -2.1004  -1.3425  -0.9771  -0.4113

          k = 0.0000 0.3939 0.0000 (  7247 PWs)   bands (ev):

   -60.3108 -34.6157 -34.4882 -34.3612 -12.4427 -11.9294  -5.0168  -3.9458
    -3.5888  -2.4809  -1.3006  -0.8969  -0.6650

          k = 0.0000 0.4924 0.0000 (  7250 PWs)   bands (ev):

   -60.3024 -34.6934 -34.4718 -34.3794 -12.0008 -11.7597  -5.4146  -4.4117
    -3.7136  -2.7275  -1.5045  -0.5932  -0.4739

          k =-0.0000-0.5909 0.0000 (  7268 PWs)   bands (ev):

   -60.2994 -34.7217 -34.4657 -34.3860 -11.8219 -11.6935  -5.5871  -4.5846
    -3.8031  -2.8124  -1.5697  -0.4919  -0.2950

          k = 0.0853 0.0492 0.0000 (  7293 PWs)   bands (ev):

   -60.3421 -34.5491 -34.3166 -34.2936 -13.7452 -12.4581  -5.2903  -2.4712
    -2.1154  -1.9561  -1.2457  -0.7747   0.2373

          k = 0.0854 0.1477 0.0000 (  7259 PWs)   bands (ev):

   -60.3363 -34.5380 -34.3712 -34.3072 -13.5338 -12.3709  -5.0691  -2.8609
    -2.4002  -1.9033  -1.6497  -0.5821   0.1089

          k = 0.0854 0.2462 0.0000 (  7262 PWs)   bands (ev):

   -60.3264 -34.5187 -34.4627 -34.3328 -13.1441 -12.2102  -4.7708  -3.3489
    -2.9634  -2.2306  -1.5737  -0.6198  -0.2244

          k = 0.0854 0.3447 0.0000 (  7255 PWs)   bands (ev):

   -60.3150 -34.5666 -34.4964 -34.3624 -12.6453 -12.0068  -4.7990  -3.6378
    -3.5306  -2.6166  -1.3410  -0.9377  -0.5029

          k = 0.0854 0.4431 0.0000 (  7252 PWs)   bands (ev):

   -60.3051 -34.6552 -34.4770 -34.3880 -12.1523 -11.8106  -5.1609  -4.2546
    -3.5839  -2.7872  -1.2948  -1.2409  -0.3609

          k = 0.0854 0.5416 0.0000 (  7263 PWs)   bands (ev):

   -60.2994 -34.7058 -34.4657 -34.4027 -11.8300 -11.6867  -5.4416  -4.6160
    -3.7354  -2.8382  -1.5174  -1.0959  -0.1134

          k = 0.0853-0.5417 0.0000 (  7259 PWs)   bands (ev):

   -60.2994 -34.7059 -34.4657 -34.4027 -11.8299 -11.6867  -5.4418  -4.6159
    -3.7355  -2.8387  -1.5169  -1.0950  -0.1145

          k = 0.0853-0.4432 0.0000 (  7252 PWs)   bands (ev):

   -60.3051 -34.6553 -34.4770 -34.3880 -12.1519 -11.8105  -5.1613  -4.2545
    -3.5841  -2.7883  -1.2938  -1.2387  -0.3632

          k = 0.0853-0.3447 0.0000 (  7257 PWs)   bands (ev):

   -60.3150 -34.5667 -34.4964 -34.3624 -12.6449 -12.0066  -4.7992  -3.6378
    -3.5307  -2.6172  -1.3392  -0.9368  -0.5052

          k = 0.0853-0.2462 0.0000 (  7262 PWs)   bands (ev):

   -60.3264 -34.5187 -34.4628 -34.3329 -13.1438 -12.2101  -4.7706  -3.3483
    -2.9643  -2.2300  -1.5742  -0.6195  -0.2252

          k = 0.0853-0.1477 0.0000 (  7257 PWs)   bands (ev):

   -60.3363 -34.5380 -34.3710 -34.3075 -13.5336 -12.3708  -5.0689  -2.8588
    -2.4013  -1.9059  -1.6487  -0.5821   0.1088

          k = 0.0853-0.0493 0.0000 (  7293 PWs)   bands (ev):

   -60.3421 -34.5491 -34.3163 -34.2940 -13.7451 -12.4581  -5.2902  -2.4681
    -2.1188  -1.9565  -1.2453  -0.7747   0.2374

          k = 0.1707 0.0984 0.0000 (  7283 PWs)   bands (ev):

   -60.3337 -34.5328 -34.3980 -34.3121 -13.4322 -12.3288  -4.9795  -3.0204
    -2.6233  -1.7948  -1.6526  -0.7025   0.0234

          k = 0.1707 0.1969 0.0000 (  7264 PWs)   bands (ev):

   -60.3264 -34.5187 -34.4624 -34.3333 -13.1439 -12.2098  -4.7708  -3.3474
    -2.9611  -2.2343  -1.5757  -0.6198  -0.2231

          k = 0.1707 0.2954 0.0000 (  7255 PWs)   bands (ev):

   -60.3165 -34.5412 -34.4994 -34.3705 -12.7172 -12.0329  -4.6896  -3.4870
    -3.3882  -2.8932  -1.5785  -0.6546  -0.4344

          k = 0.1707 0.3939 0.0000 (  7257 PWs)   bands (ev):

   -60.3066 -34.6151 -34.4800 -34.4117 -12.2399 -11.8351  -4.8886  -4.1145
    -3.3892  -3.0078  -1.8997  -0.9772  -0.3636

          k = 0.1707 0.4924 0.0000 (  7250 PWs)   bands (ev):

   -60.2993 -34.6673 -34.4657 -34.4431 -11.8459 -11.6730  -5.1012  -4.6738
    -3.5275  -2.9126  -2.0140  -1.3739  -0.1092

          k = 0.1707 0.5908 0.0000 (  7266 PWs)   bands (ev):

   -60.2967 -34.6863 -34.4605 -34.4547 -11.6890 -11.6091  -5.1812  -4.8775
    -3.6693  -2.8311  -1.9984  -1.5661   0.0717

          k = 0.1707-0.4925 0.0000 (  7246 PWs)   bands (ev):

   -60.2993 -34.6675 -34.4657 -34.4430 -11.8454 -11.6729  -5.1020  -4.6736
    -3.5278  -2.9137  -2.0124  -1.3730  -0.1109

          k = 0.1707-0.3940 0.0000 (  7253 PWs)   bands (ev):

   -60.3066 -34.6154 -34.4799 -34.4117 -12.2392 -11.8349  -4.8893  -4.1143
    -3.3893  -3.0092  -1.8976  -0.9761  -0.3659

          k = 0.1707-0.2955 0.0000 (  7259 PWs)   bands (ev):

   -60.3165 -34.5413 -34.4993 -34.3707 -12.7164 -12.0327  -4.6897  -3.4862
    -3.3883  -2.8940  -1.5779  -0.6539  -0.4367

          k = 0.1707-0.1970 0.0000 (  7264 PWs)   bands (ev):

   -60.3264 -34.5187 -34.4623 -34.3336 -13.1433 -12.2096  -4.7705  -3.3456
    -2.9618  -2.2344  -1.5779  -0.6193  -0.2238

          k = 0.1707-0.0985 0.0000 (  7283 PWs)   bands (ev):

   -60.3337 -34.5328 -34.3978 -34.3125 -13.4319 -12.3287  -4.9792  -3.0180
    -2.6235  -1.7979  -1.6533  -0.7018   0.0235

          k = 0.1707-0.0001 0.0000 (  7259 PWs)   bands (ev):

   -60.3363 -34.5380 -34.3705 -34.3082 -13.5334 -12.3704  -5.0687  -2.8570
    -2.3994  -1.9089  -1.6522  -0.5812   0.1099

          k = 0.2560 0.1476 0.0000 (  7261 PWs)   bands (ev):

   -60.3222 -34.5105 -34.5076 -34.3373 -12.9672 -12.1381  -4.7598  -3.4821
    -3.3087  -2.1067  -1.3463  -0.9762  -0.4085

          k = 0.2561 0.2461 0.0000 (  7263 PWs)   bands (ev):

   -60.3150 -34.5662 -34.4963 -34.3632 -12.6447 -12.0056  -4.7990  -3.6361
    -3.5285  -2.6213  -1.3437  -0.9375  -0.5014

          k = 0.2561 0.3446 0.0000 (  7259 PWs)   bands (ev):

   -60.3066 -34.6149 -34.4800 -34.4121 -12.2396 -11.8344  -4.8883  -4.1144
    -3.3881  -3.0096  -1.9011  -0.9771  -0.3632

          k = 0.2561 0.4431 0.0000 (  7255 PWs)   bands (ev):

   -60.2993 -34.6415 -34.4700 -34.4657 -11.8535 -11.6656  -4.8957  -4.7008
    -3.2617  -2.9581  -2.6206  -1.2849  -0.1372

          k = 0.2561 0.5416 0.0000 (  7254 PWs)   bands (ev):

   -60.2951 -34.6470 -34.5133 -34.4575 -11.6122 -11.5569  -5.0668  -4.7707
    -3.5326  -2.8883  -2.7486  -1.6395   0.1800

          k = 0.2561 0.6401 0.0000 (  7256 PWs)   bands (ev):

   -60.2951 -34.6472 -34.5132 -34.4575 -11.6118 -11.5568  -5.0668  -4.7713
    -3.5330  -2.8873  -2.7493  -1.6391   0.1793

          k = 0.2560-0.4432 0.0000 (  7255 PWs)   bands (ev):

   -60.2993 -34.6417 -34.4701 -34.4657 -11.8526 -11.6653  -4.8967  -4.7008
    -3.2621  -2.9594  -2.6188  -1.2843  -0.1388

          k = 0.2560-0.3448 0.0000 (  7255 PWs)   bands (ev):

   -60.3065 -34.6151 -34.4799 -34.4123 -12.2385 -11.8340  -4.8889  -4.1141
    -3.3869  -3.0113  -1.9007  -0.9764  -0.3653

          k = 0.2560-0.2463 0.0000 (  7261 PWs)   bands (ev):

   -60.3149 -34.5662 -34.4963 -34.3636 -12.6437 -12.0052  -4.7989  -3.6359
    -3.5266  -2.6230  -1.3445  -0.9369  -0.5034

          k = 0.2560-0.1478 0.0000 (  7259 PWs)   bands (ev):

   -60.3222 -34.5104 -34.5075 -34.3377 -12.9665 -12.1378  -4.7594  -3.4799
    -3.3086  -2.1082  -1.3492  -0.9755  -0.4085

          k = 0.2560-0.0493 0.0000 (  7258 PWs)   bands (ev):

   -60.3264 -34.5186 -34.4622 -34.3340 -13.1429 -12.2090  -4.7703  -3.3460
    -2.9621  -2.2351  -1.5783  -0.6191  -0.2231

          k = 0.2560 0.0492 0.0000 (  7262 PWs)   bands (ev):

   -60.3264 -34.5187 -34.4623 -34.3337 -13.1432 -12.2091  -4.7705  -3.3472
    -2.9623  -2.2344  -1.5766  -0.6193  -0.2233

          k = 0.3414 0.1969 0.0000 (  7247 PWs)   bands (ev):

   -60.3107 -34.6153 -34.4881 -34.3623 -12.4416 -11.9274  -5.0166  -3.9452
    -3.5869  -2.4876  -1.2991  -0.9014  -0.6617

          k = 0.3414 0.2953 0.0000 (  7254 PWs)   bands (ev):

   -60.3050 -34.6548 -34.4769 -34.3890 -12.1514 -11.8087  -5.1601  -4.2548
    -3.5828  -2.7922  -1.2937  -1.2431  -0.3600

          k = 0.3414 0.3938 0.0000 (  7252 PWs)   bands (ev):

   -60.2993 -34.6671 -34.4657 -34.4438 -11.8452 -11.6715  -5.1003  -4.6749
    -3.5270  -2.9152  -2.0164  -1.3729  -0.1080

          k = 0.3414 0.4923 0.0000 (  7254 PWs)   bands (ev):

   -60.2951 -34.6469 -34.5137 -34.4575 -11.6118 -11.5561  -5.0676  -4.7703
    -3.5322  -2.8899  -2.7499  -1.6386   0.1805

          k = 0.3414 0.5908 0.0000 (  7241 PWs)   bands (ev):

   -60.2935 -34.6145 -34.5644 -34.4544 -11.5244 -11.5099  -5.2234  -4.3602
    -3.8340  -3.2103  -2.5873  -1.8343   0.3758

          k = 0.3414 0.6893 0.0000 (  7254 PWs)   bands (ev):

   -60.2951 -34.6470 -34.5138 -34.4574 -11.6110 -11.5558  -5.0677  -4.7709
    -3.5317  -2.8899  -2.7507  -1.6384   0.1800

          k = 0.3414-0.3940 0.0000 (  7254 PWs)   bands (ev):

   -60.2992 -34.6673 -34.4656 -34.4441 -11.8439 -11.6710  -5.1009  -4.6748
    -3.5259  -2.9168  -2.0170  -1.3726  -0.1092

          k = 0.3414-0.2956 0.0000 (  7256 PWs)   bands (ev):

   -60.3050 -34.6550 -34.4768 -34.3894 -12.1500 -11.8081  -5.1603  -4.2545
    -3.5810  -2.7945  -1.2932  -1.2438  -0.3620

          k = 0.3414-0.1971 0.0000 (  7247 PWs)   bands (ev):

   -60.3107 -34.6153 -34.4880 -34.3628 -12.4405 -11.9270  -5.0164  -3.9449
    -3.5847  -2.4898  -1.2987  -0.9041  -0.6620

          k = 0.3414-0.0986 0.0000 (  7265 PWs)   bands (ev):

   -60.3149 -34.5663 -34.4962 -34.3638 -12.6432 -12.0046  -4.7994  -3.6372
    -3.5273  -2.6227  -1.3428  -0.9367  -0.5044

          k = 0.3414-0.0001 0.0000 (  7256 PWs)   bands (ev):

   -60.3164 -34.5413 -34.4993 -34.3712 -12.7156 -12.0314  -4.6902  -3.4868
    -3.3897  -2.8947  -1.5765  -0.6537  -0.4373

          k = 0.3414 0.0984 0.0000 (  7263 PWs)   bands (ev):

   -60.3149 -34.5664 -34.4963 -34.3634 -12.6438 -12.0049  -4.7995  -3.6374
    -3.5293  -2.6217  -1.3402  -0.9364  -0.5048

          k = 0.4267 0.2461 0.0000 (  7254 PWs)   bands (ev):

   -60.3023 -34.6932 -34.4716 -34.3805 -11.9995 -11.7570  -5.4137  -4.4128
    -3.7130  -2.7345  -1.5019  -0.5986  -0.4702

          k = 0.4268 0.3446 0.0000 (  7263 PWs)   bands (ev):

   -60.2993 -34.7056 -34.4656 -34.4038 -11.8287 -11.6841  -5.4404  -4.6176
    -3.7354  -2.8438  -1.5150  -1.0989  -0.1120

          k = 0.4268 0.4430 0.0000 (  7264 PWs)   bands (ev):

   -60.2966 -34.6860 -34.4604 -34.4556 -11.6879 -11.6069  -5.1805  -4.8796
    -3.6692  -2.8346  -2.0008  -1.5639   0.0726

          k = 0.4268 0.5415 0.0000 (  7254 PWs)   bands (ev):

   -60.2951 -34.6471 -34.5137 -34.4574 -11.6110 -11.5554  -5.0685  -4.7721
    -3.5321  -2.8883  -2.7510  -1.6376   0.1785

          k = 0.4268 0.6400 0.0000 (  7258 PWs)   bands (ev):

   -60.2951 -34.6471 -34.5139 -34.4574 -11.6105 -11.5552  -5.0686  -4.7721
    -3.5312  -2.8894  -2.7512  -1.6379   0.1787

          k = 0.4268 0.7385 0.0000 (  7262 PWs)   bands (ev):

   -60.2966 -34.6861 -34.4603 -34.4559 -11.6867 -11.6064  -5.1806  -4.8797
    -3.6683  -2.8356  -2.0023  -1.5643   0.0728

          k = 0.4267-0.3448 0.0000 (  7265 PWs)   bands (ev):

   -60.2992 -34.7057 -34.4655 -34.4043 -11.8272 -11.6834  -5.4404  -4.6174
    -3.7342  -2.8461  -1.5148  -1.1004  -0.1127

          k = 0.4267-0.2463 0.0000 (  7254 PWs)   bands (ev):

   -60.3023 -34.6932 -34.4715 -34.3810 -11.9980 -11.7564  -5.4135  -4.4124
    -3.7115  -2.7370  -1.5017  -0.6015  -0.4699

          k = 0.4267-0.1479 0.0000 (  7254 PWs)   bands (ev):

   -60.3049 -34.6551 -34.4768 -34.3895 -12.1496 -11.8076  -5.1612  -4.2555
    -3.5810  -2.7945  -1.2928  -1.2424  -0.3636

          k = 0.4267-0.0494 0.0000 (  7255 PWs)   bands (ev):

   -60.3065 -34.6153 -34.4798 -34.4126 -12.2376 -11.8328  -4.8904  -4.1163
    -3.3875  -3.0112  -1.8980  -0.9759  -0.3676

          k = 0.4267 0.0491 0.0000 (  7255 PWs)   bands (ev):

   -60.3065 -34.6153 -34.4798 -34.4124 -12.2380 -11.8330  -4.8905  -4.1163
    -3.3889  -3.0109  -1.8963  -0.9755  -0.3678

          k = 0.4267 0.1476 0.0000 (  7254 PWs)   bands (ev):

   -60.3050 -34.6551 -34.4768 -34.3890 -12.1506 -11.8081  -5.1614  -4.2556
    -3.5829  -2.7932  -1.2922  -1.2396  -0.3639

          k =-0.5121-0.2953 0.0000 (  7272 PWs)   bands (ev):

   -60.2993 -34.7214 -34.4656 -34.3872 -11.8204 -11.6904  -5.5858  -4.5863
    -3.8031  -2.8195  -1.5666  -0.4977  -0.2911

          k =-0.5121-0.1968 0.0000 (  7263 PWs)   bands (ev):

   -60.2993 -34.7057 -34.4656 -34.4038 -11.8284 -11.6839  -5.4410  -4.6179
    -3.7353  -2.8444  -1.5142  -1.0974  -0.1139

          k =-0.5121-0.0983 0.0000 (  7252 PWs)   bands (ev):

   -60.2993 -34.6674 -34.4656 -34.4438 -11.8441 -11.6706  -5.1025  -4.6760
    -3.5271  -2.9166  -2.0133  -1.3713  -0.1118

          k =-0.5121 0.0002 0.0000 (  7255 PWs)   bands (ev):

   -60.2992 -34.6418 -34.4704 -34.4656 -11.8516 -11.6638  -4.8985  -4.7029
    -3.2622  -2.9602  -2.6170  -1.2833  -0.1411

          k =-0.5121 0.0986 0.0000 (  7252 PWs)   bands (ev):

   -60.2992 -34.6674 -34.4656 -34.4442 -11.8433 -11.6702  -5.1024  -4.6761
    -3.5257  -2.9170  -2.0155  -1.3720  -0.1114

          k =-0.5121 0.1971 0.0000 (  7265 PWs)   bands (ev):

   -60.2992 -34.7058 -34.4655 -34.4043 -11.8270 -11.6832  -5.4408  -4.6178
    -3.7341  -2.8461  -1.5146  -1.0998  -0.1136

          k =-0.5121-0.8862 0.0000 (  7272 PWs)   bands (ev):

   -60.2993 -34.7215 -34.4655 -34.3877 -11.8188 -11.6897  -5.5856  -4.5860
    -3.8020  -2.8221  -1.5665  -0.5007  -0.2904

     highest occupied level (ev):     0.3758

!    total energy              =    -489.75579781 Ry

     total all-electron energy =     -9688.213643 Ry
     estimated scf accuracy    <          7.6E-13 Ry

     The total energy is the sum of the following terms:
     one-electron contribution =    -813.89967691 Ry
     hartree contribution      =     410.77105404 Ry
     xc contribution           =     -29.52417024 Ry
     ewald contribution        =     255.78841210 Ry
     one-center paw contrib.   =    -312.89141681 Ry

     convergence has been achieved in  26 iterations

     negative rho (up, down):  1.151E-04 0.000E+00

     Forces acting on atoms (cartesian axes, Ry/au):

     atom    1 type  1   force =     0.00026839    0.00012934    0.00000036
     atom    2 type  2   force =    -0.00013421   -0.00006466   -0.00032544
     atom    3 type  2   force =    -0.00013418   -0.00006467    0.00032508

     Total force =     0.000587     Total SCF correction =     0.000002


     Computing stress (Cartesian axis) and pressure


     negative rho (up, down):  1.151E-04 0.000E+00
          total   stress  (Ry/bohr**3)                   (kbar)     P=       -0.45
   0.00000195  -0.00000085  -0.00000000            0.29       -0.13       -0.00
  -0.00000085  -0.00000119   0.00000000           -0.13       -0.18        0.00
  -0.00000000   0.00000000  -0.00000993           -0.00        0.00       -1.46


     BFGS Geometry Optimization
     Energy error            =      0.0E+00 Ry
     Gradient error          =      3.3E-04 Ry/Bohr

     bfgs converged in   1 scf cycles and   0 bfgs steps
     (criteria: energy <  1.0E-04 Ry, force <  1.0E-03 Ry/Bohr)

     End of BFGS Geometry Optimization

     Final energy             =    -489.7557978123 Ry
Begin final coordinates

ATOMIC_POSITIONS (alat)
Mo            0.0000000000        0.0000000000        1.6880765000
S             0.4883508000        0.2821722000        2.1737857000
S             0.4883508000        0.2821722000        1.2023670000
End final coordinates



     Writing output data file /scratch/as3359/MoS2_loop/Ta.save/
 
     init_run     :      6.41s CPU      3.70s WALL (       1 calls)
     electrons    :    152.39s CPU     79.32s WALL (       1 calls)
     forces       :      2.67s CPU      1.37s WALL (       1 calls)
     stress       :      6.88s CPU      3.56s WALL (       1 calls)

     Called by init_run:
     wfcinit      :      2.24s CPU      1.15s WALL (       1 calls)
     potinit      :      1.23s CPU      0.63s WALL (       1 calls)
     hinit0       :      2.60s CPU      1.70s WALL (       1 calls)

     Called by electrons:
     c_bands      :    111.94s CPU     56.95s WALL (      27 calls)
     sum_band     :     24.99s CPU     13.62s WALL (      27 calls)
     v_of_rho     :      3.64s CPU      1.90s WALL (      27 calls)
     newd         :      6.21s CPU      4.01s WALL (      27 calls)
     PAW_pot      :      5.04s CPU      2.58s WALL (      27 calls)
     mix_rho      :      0.67s CPU      0.35s WALL (      27 calls)

     Called by c_bands:
     init_us_2    :      4.06s CPU      2.09s WALL (    4218 calls)
     cegterg      :    104.89s CPU     53.34s WALL (    1998 calls)

     Called by *egterg:
     cdiaghg      :      3.09s CPU      1.58s WALL (    8758 calls)
     h_psi        :     91.40s CPU     46.49s WALL (    8906 calls)
     s_psi        :      2.10s CPU      1.07s WALL (    8906 calls)
     g_psi        :      0.58s CPU      0.29s WALL (    6834 calls)

     Called by h_psi:
     h_psi:calbec :      2.38s CPU      1.21s WALL (    8906 calls)
     vloc_psi     :     86.17s CPU     43.83s WALL (    8906 calls)
     add_vuspsi   :      2.17s CPU      1.11s WALL (    8906 calls)

     General routines
     calbec       :      3.13s CPU      1.60s WALL (   11274 calls)
     fft          :      1.82s CPU      0.93s WALL (     375 calls)
     ffts         :      0.07s CPU      0.04s WALL (      54 calls)
     fftw         :     90.12s CPU     45.85s WALL (  172568 calls)
     interpolate  :      0.25s CPU      0.13s WALL (      27 calls)
 
     Parallel routines
 
     PWSCF        :   2m49.25s CPU   1m28.80s WALL

 
   This run was terminated on:  11:19:14   6Apr2022            

=------------------------------------------------------------------------------=
   JOB DONE.
=------------------------------------------------------------------------------=
