
     Program PWSCF v.6.8 starts on  9Apr2022 at 19:15:27 

     This program is part of the open-source Quantum ESPRESSO suite
     for quantum simulation of materials; please cite
         "P. Giannozzi et al., J. Phys.:Condens. Matter 21 395502 (2009);
         "P. Giannozzi et al., J. Phys.:Condens. Matter 29 465901 (2017);
         "P. Giannozzi et al., J. Chem. Phys. 152 154105 (2020);
          URL http://www.quantum-espresso.org", 
     in publications or presentations arising from this work. More details at
     http://www.quantum-espresso.org/quote

     Parallel version (MPI & OpenMP), running on       4 processor cores
     Number of MPI processes:                 2
     Threads/MPI process:                     2

     MPI processes distributed on     1 nodes
     R & G space division:  proc/nbgrp/npool/nimage =       2
     124624 MiB available memory on the printing compute node when the environment starts
 
     Waiting for input...
     Reading input from standard input

     Current dimensions of program PWSCF are:
     Max number of different atomic species (ntypx) = 10
     Max number of k-points (npk) =  40000
     Max angular momentum in pseudopotentials (lmaxx) =  4
     file Mo.pbesol-spn-kjpaw_psl.1.0.0.UPF: wavefunction(s)  4S 4D renormalized
     file S.pbesol-nl-kjpaw_psl.1.0.0.UPF: wavefunction(s)  3S renormalized

     Subspace diagonalization in iterative solution of the eigenvalue problem:
     a serial algorithm will be used

 
     Parallelization info
     --------------------
     sticks:   dense  smooth     PW     G-vecs:    dense   smooth      PW
     Min         366     291     93                65062    46565    8523
     Max         367     292     94                65081    46596    8548
     Sum         733     583    187               130143    93161   17071
 
     Using Slab Decomposition
 


     bravais-lattice index     =            0
     lattice parameter (alat)  =       6.0720  a.u.
     unit-cell volume          =    1481.3262 (a.u.)^3
     number of atoms/cell      =            6
     number of atomic types    =            2
     number of electrons       =        52.00
     number of Kohn-Sham states=           26
     kinetic-energy cutoff     =      60.0000  Ry
     charge density cutoff     =     300.0000  Ry
     scf convergence threshold =      1.0E-12
     mixing beta               =       0.7000
     number of iterations used =            8  plain     mixing
     Exchange-correlation= SLA  PW   PSX  PSC
                           (   1   4  10   8   0   0   0)

     celldm(1)=   6.072000  celldm(2)=   0.000000  celldm(3)=   0.000000
     celldm(4)=   0.000000  celldm(5)=   0.000000  celldm(6)=   0.000000

     crystal axes: (cart. coord. in units of alat)
               a(1) = (   0.977224  -0.000137   0.000000 )  
               a(2) = (  -0.488455   0.846460   0.000000 )  
               a(3) = (   0.000000   0.000000   8.000000 )  

     reciprocal axes: (cart. coord. in units 2 pi/alat)
               b(1) = (  1.023389  0.590553  0.000000 )  
               b(2) = (  0.000165  1.181486  0.000000 )  
               b(3) = (  0.000000  0.000000  0.125000 )  


     PseudoPot. # 1 for Mo read from file:
     /shared/home/as3359/pseudo/Mo.pbesol-spn-kjpaw_psl.1.0.0.UPF
     MD5 check sum: de57925cfc675213e43241dcc441eda8
     Pseudo is Projector augmented-wave + core cor, Zval = 14.0
     Generated using &quot;atomic&quot; code by A. Dal Corso  v.6.3
     Shape of augmentation charge: PSQ
     Using radial grid of 1229 points,  6 beta functions with: 
                l(1) =   0
                l(2) =   0
                l(3) =   1
                l(4) =   1
                l(5) =   2
                l(6) =   2
     Q(r) pseudized with 0 coefficients 


     PseudoPot. # 2 for S  read from file:
     /shared/home/as3359/pseudo/S.pbesol-nl-kjpaw_psl.1.0.0.UPF
     MD5 check sum: bf3db50ec3f960682bbc396f1aadd1dd
     Pseudo is Projector augmented-wave + core cor, Zval =  6.0
     Generated using &quot;atomic&quot; code by A. Dal Corso  v.6.3
     Shape of augmentation charge: PSQ
     Using radial grid of 1151 points,  4 beta functions with: 
                l(1) =   0
                l(2) =   0
                l(3) =   1
                l(4) =   1
     Q(r) pseudized with 0 coefficients 


     atomic species   valence    mass     pseudopotential
        Mo            14.00    95.94000     Mo( 1.00)
        S              6.00    32.06500     S ( 1.00)

     No symmetry found



   Cartesian axes

     site n.     atom                  positions (alat units)
         1           Mo  tau(   1) = (   0.0000000   0.0000000   0.6672908  )
         2           S   tau(   2) = (   0.4887329   0.2818863   1.1527938  )
         3           S   tau(   3) = (   0.4886683   0.2820494   0.1818588  )
         4           Mo  tau(   4) = (   0.0000000   0.0000000   2.6927140  )
         5           S   tau(   5) = (  -0.4886682  -0.2820493   3.1781390  )
         6           S   tau(   6) = (  -0.4887328  -0.2818862   2.2072035  )

     number of k points=    74
                       cart. coord. in units 2pi/alat
        k(    1) = (   0.0000000   0.0000000   0.0000000), wk =   0.0138889
        k(    2) = (   0.0000138   0.0984572   0.0000000), wk =   0.0277778
        k(    3) = (   0.0000276   0.1969144   0.0000000), wk =   0.0277778
        k(    4) = (   0.0000413   0.2953716   0.0000000), wk =   0.0277778
        k(    5) = (   0.0000551   0.3938288   0.0000000), wk =   0.0277778
        k(    6) = (   0.0000689   0.4922860   0.0000000), wk =   0.0277778
        k(    7) = (  -0.0000827  -0.5907431   0.0000000), wk =   0.0138889
        k(    8) = (   0.0852825   0.0492127   0.0000000), wk =   0.0277778
        k(    9) = (   0.0852962   0.1476699   0.0000000), wk =   0.0277778
        k(   10) = (   0.0853100   0.2461271   0.0000000), wk =   0.0277778
        k(   11) = (   0.0853238   0.3445843   0.0000000), wk =   0.0277778
        k(   12) = (   0.0853376   0.4430415   0.0000000), wk =   0.0277778
        k(   13) = (   0.0853513   0.5414987   0.0000000), wk =   0.0277778
        k(   14) = (   0.0851998  -0.5415304   0.0000000), wk =   0.0277778
        k(   15) = (   0.0852136  -0.4430732   0.0000000), wk =   0.0277778
        k(   16) = (   0.0852273  -0.3446160   0.0000000), wk =   0.0277778
        k(   17) = (   0.0852411  -0.2461588   0.0000000), wk =   0.0277778
        k(   18) = (   0.0852549  -0.1477017   0.0000000), wk =   0.0277778
        k(   19) = (   0.0852687  -0.0492445   0.0000000), wk =   0.0277778
        k(   20) = (   0.1705649   0.0984255   0.0000000), wk =   0.0277778
        k(   21) = (   0.1705787   0.1968827   0.0000000), wk =   0.0277778
        k(   22) = (   0.1705925   0.2953398   0.0000000), wk =   0.0277778
        k(   23) = (   0.1706062   0.3937970   0.0000000), wk =   0.0277778
        k(   24) = (   0.1706200   0.4922542   0.0000000), wk =   0.0277778
        k(   25) = (   0.1706338   0.5907114   0.0000000), wk =   0.0277778
        k(   26) = (   0.1704823  -0.4923177   0.0000000), wk =   0.0277778
        k(   27) = (   0.1704960  -0.3938605   0.0000000), wk =   0.0277778
        k(   28) = (   0.1705098  -0.2954033   0.0000000), wk =   0.0277778
        k(   29) = (   0.1705236  -0.1969461   0.0000000), wk =   0.0277778
        k(   30) = (   0.1705374  -0.0984889   0.0000000), wk =   0.0277778
        k(   31) = (   0.1705511  -0.0000317   0.0000000), wk =   0.0277778
        k(   32) = (   0.2558474   0.1476382   0.0000000), wk =   0.0277778
        k(   33) = (   0.2558612   0.2460954   0.0000000), wk =   0.0277778
        k(   34) = (   0.2558749   0.3445526   0.0000000), wk =   0.0277778
        k(   35) = (   0.2558887   0.4430098   0.0000000), wk =   0.0277778
        k(   36) = (   0.2559025   0.5414670   0.0000000), wk =   0.0277778
        k(   37) = (   0.2559163   0.6399241   0.0000000), wk =   0.0277778
        k(   38) = (   0.2557647  -0.4431050   0.0000000), wk =   0.0277778
        k(   39) = (   0.2557785  -0.3446478   0.0000000), wk =   0.0277778
        k(   40) = (   0.2557923  -0.2461906   0.0000000), wk =   0.0277778
        k(   41) = (   0.2558060  -0.1477334   0.0000000), wk =   0.0277778
        k(   42) = (   0.2558198  -0.0492762   0.0000000), wk =   0.0277778
        k(   43) = (   0.2558336   0.0491810   0.0000000), wk =   0.0277778
        k(   44) = (   0.3411298   0.1968509   0.0000000), wk =   0.0277778
        k(   45) = (   0.3411436   0.2953081   0.0000000), wk =   0.0277778
        k(   46) = (   0.3411574   0.3937653   0.0000000), wk =   0.0277778
        k(   47) = (   0.3411712   0.4922225   0.0000000), wk =   0.0277778
        k(   48) = (   0.3411849   0.5906797   0.0000000), wk =   0.0277778
        k(   49) = (   0.3411987   0.6891369   0.0000000), wk =   0.0277778
        k(   50) = (   0.3410472  -0.3938922   0.0000000), wk =   0.0277778
        k(   51) = (   0.3410609  -0.2954350   0.0000000), wk =   0.0277778
        k(   52) = (   0.3410747  -0.1969778   0.0000000), wk =   0.0277778
        k(   53) = (   0.3410885  -0.0985206   0.0000000), wk =   0.0277778
        k(   54) = (   0.3411023  -0.0000635   0.0000000), wk =   0.0277778
        k(   55) = (   0.3411161   0.0983937   0.0000000), wk =   0.0277778
        k(   56) = (   0.4264123   0.2460637   0.0000000), wk =   0.0277778
        k(   57) = (   0.4264261   0.3445208   0.0000000), wk =   0.0277778
        k(   58) = (   0.4264398   0.4429780   0.0000000), wk =   0.0277778
        k(   59) = (   0.4264536   0.5414352   0.0000000), wk =   0.0277778
        k(   60) = (   0.4264674   0.6398924   0.0000000), wk =   0.0277778
        k(   61) = (   0.4264812   0.7383496   0.0000000), wk =   0.0277778
        k(   62) = (   0.4263296  -0.3446795   0.0000000), wk =   0.0277778
        k(   63) = (   0.4263434  -0.2462223   0.0000000), wk =   0.0277778
        k(   64) = (   0.4263572  -0.1477651   0.0000000), wk =   0.0277778
        k(   65) = (   0.4263710  -0.0493079   0.0000000), wk =   0.0277778
        k(   66) = (   0.4263847   0.0491493   0.0000000), wk =   0.0277778
        k(   67) = (   0.4263985   0.1476065   0.0000000), wk =   0.0277778
        k(   68) = (  -0.5116947  -0.2952764   0.0000000), wk =   0.0138889
        k(   69) = (  -0.5116810  -0.1968192   0.0000000), wk =   0.0277778
        k(   70) = (  -0.5116672  -0.0983620   0.0000000), wk =   0.0277778
        k(   71) = (  -0.5116534   0.0000952   0.0000000), wk =   0.0277778
        k(   72) = (  -0.5116396   0.0985524   0.0000000), wk =   0.0277778
        k(   73) = (  -0.5116259   0.1970096   0.0000000), wk =   0.0277778
        k(   74) = (  -0.5117774  -0.8860195   0.0000000), wk =   0.0138889

     Dense  grid:   130143 G-vectors     FFT dimensions: (  36,  36, 270)

     Smooth grid:    93161 G-vectors     FFT dimensions: (  30,  30, 240)

     Estimated max dynamical RAM per process >     422.23 MB

     Estimated total dynamical RAM >     844.47 MB

     Initial potential from superposition of free atoms

     starting charge   51.99828, renormalised to   52.00000

     negative rho (up, down):  2.740E-04 0.000E+00
     Starting wfcs are   36 randomized atomic wfcs
     Checking if some PAW data can be deallocated... 

     total cpu time spent up to now is        5.8 secs

     Self-consistent Calculation

     iteration #  1     ecut=    60.00 Ry     beta= 0.70
     Davidson diagonalization with overlap
     ethr =  1.00E-02,  avg # of iterations =  2.0

     Threshold (ethr) on eigenvalues was too large:
     Diagonalizing with lowered threshold

     Davidson diagonalization with overlap
     ethr =  3.35E-04,  avg # of iterations =  3.9

     negative rho (up, down):  3.288E-04 0.000E+00

     total cpu time spent up to now is       22.7 secs

     total energy              =    -979.39055139 Ry
     estimated scf accuracy    <       0.27643448 Ry

     iteration #  2     ecut=    60.00 Ry     beta= 0.70
     Davidson diagonalization with overlap
     ethr =  5.32E-04,  avg # of iterations =  5.3

     negative rho (up, down):  3.338E-04 0.000E+00

     total cpu time spent up to now is       33.8 secs

     total energy              =    -979.31002485 Ry
     estimated scf accuracy    <       1.02967513 Ry

     iteration #  3     ecut=    60.00 Ry     beta= 0.70
     Davidson diagonalization with overlap
     ethr =  5.32E-04,  avg # of iterations =  5.4

     negative rho (up, down):  3.309E-04 0.000E+00

     total cpu time spent up to now is       44.6 secs

     total energy              =    -979.49987958 Ry
     estimated scf accuracy    <       0.08064773 Ry

     iteration #  4     ecut=    60.00 Ry     beta= 0.70
     Davidson diagonalization with overlap
     ethr =  1.55E-04,  avg # of iterations =  3.0

     negative rho (up, down):  3.349E-04 0.000E+00

     total cpu time spent up to now is       52.7 secs

     total energy              =    -979.50680633 Ry
     estimated scf accuracy    <       0.02470346 Ry

     iteration #  5     ecut=    60.00 Ry     beta= 0.70
     Davidson diagonalization with overlap
     ethr =  4.75E-05,  avg # of iterations =  3.8

     negative rho (up, down):  3.504E-04 0.000E+00

     total cpu time spent up to now is       61.6 secs

     total energy              =    -979.51176951 Ry
     estimated scf accuracy    <       0.00723885 Ry

     iteration #  6     ecut=    60.00 Ry     beta= 0.70
     Davidson diagonalization with overlap
     ethr =  1.39E-05,  avg # of iterations =  3.0

     negative rho (up, down):  3.539E-04 0.000E+00

     total cpu time spent up to now is       69.6 secs

     total energy              =    -979.51256558 Ry
     estimated scf accuracy    <       0.00120790 Ry

     iteration #  7     ecut=    60.00 Ry     beta= 0.70
     Davidson diagonalization with overlap
     ethr =  2.32E-06,  avg # of iterations =  4.1

     negative rho (up, down):  3.593E-04 0.000E+00

     total cpu time spent up to now is       78.2 secs

     total energy              =    -979.51257676 Ry
     estimated scf accuracy    <       0.00068203 Ry

     iteration #  8     ecut=    60.00 Ry     beta= 0.70
     Davidson diagonalization with overlap
     ethr =  1.31E-06,  avg # of iterations =  3.4

     negative rho (up, down):  3.616E-04 0.000E+00

     total cpu time spent up to now is       86.5 secs

     total energy              =    -979.51266504 Ry
     estimated scf accuracy    <       0.00014691 Ry

     iteration #  9     ecut=    60.00 Ry     beta= 0.70
     Davidson diagonalization with overlap
     ethr =  2.83E-07,  avg # of iterations =  4.4

     negative rho (up, down):  3.634E-04 0.000E+00

     total cpu time spent up to now is       96.0 secs

     total energy              =    -979.51268521 Ry
     estimated scf accuracy    <       0.00012395 Ry

     iteration # 10     ecut=    60.00 Ry     beta= 0.70
     Davidson diagonalization with overlap
     ethr =  2.38E-07,  avg # of iterations =  2.0

     negative rho (up, down):  3.634E-04 0.000E+00

     total cpu time spent up to now is      103.1 secs

     total energy              =    -979.51268319 Ry
     estimated scf accuracy    <       0.00003293 Ry

     iteration # 11     ecut=    60.00 Ry     beta= 0.70
     Davidson diagonalization with overlap
     ethr =  6.33E-08,  avg # of iterations =  4.4

     negative rho (up, down):  3.635E-04 0.000E+00

     total cpu time spent up to now is      112.5 secs

     total energy              =    -979.51269137 Ry
     estimated scf accuracy    <       0.00001133 Ry

     iteration # 12     ecut=    60.00 Ry     beta= 0.70
     Davidson diagonalization with overlap
     ethr =  2.18E-08,  avg # of iterations =  1.9

     negative rho (up, down):  3.635E-04 0.000E+00

     total cpu time spent up to now is      119.4 secs

     total energy              =    -979.51269062 Ry
     estimated scf accuracy    <       0.00000457 Ry

     iteration # 13     ecut=    60.00 Ry     beta= 0.70
     Davidson diagonalization with overlap
     ethr =  8.80E-09,  avg # of iterations =  4.4

     negative rho (up, down):  3.637E-04 0.000E+00

     total cpu time spent up to now is      128.5 secs

     total energy              =    -979.51269183 Ry
     estimated scf accuracy    <       0.00000182 Ry

     iteration # 14     ecut=    60.00 Ry     beta= 0.70
     Davidson diagonalization with overlap
     ethr =  3.50E-09,  avg # of iterations =  1.7

     negative rho (up, down):  3.637E-04 0.000E+00

     total cpu time spent up to now is      135.3 secs

     total energy              =    -979.51269180 Ry
     estimated scf accuracy    <       0.00000080 Ry

     iteration # 15     ecut=    60.00 Ry     beta= 0.70
     Davidson diagonalization with overlap
     ethr =  1.55E-09,  avg # of iterations =  3.0

     negative rho (up, down):  3.637E-04 0.000E+00

     total cpu time spent up to now is      142.8 secs

     total energy              =    -979.51269185 Ry
     estimated scf accuracy    <       0.00000009 Ry

     iteration # 16     ecut=    60.00 Ry     beta= 0.70
     Davidson diagonalization with overlap
     ethr =  1.69E-10,  avg # of iterations =  5.2

     negative rho (up, down):  3.637E-04 0.000E+00

     total cpu time spent up to now is      152.9 secs

     total energy              =    -979.51269189 Ry
     estimated scf accuracy    <       0.00000003 Ry

     iteration # 17     ecut=    60.00 Ry     beta= 0.70
     Davidson diagonalization with overlap
     ethr =  5.58E-11,  avg # of iterations =  1.6

     negative rho (up, down):  3.637E-04 0.000E+00

     total cpu time spent up to now is      159.5 secs

     total energy              =    -979.51269188 Ry
     estimated scf accuracy    <       0.00000003 Ry

     iteration # 18     ecut=    60.00 Ry     beta= 0.70
     Davidson diagonalization with overlap
     ethr =  5.35E-11,  avg # of iterations =  2.1

     negative rho (up, down):  3.637E-04 0.000E+00

     total cpu time spent up to now is      166.8 secs

     total energy              =    -979.51269189 Ry
     estimated scf accuracy    <          5.5E-09 Ry

     iteration # 19     ecut=    60.00 Ry     beta= 0.70
     Davidson diagonalization with overlap
     ethr =  1.05E-11,  avg # of iterations =  4.9

     negative rho (up, down):  3.637E-04 0.000E+00

     total cpu time spent up to now is      176.2 secs

     total energy              =    -979.51269189 Ry
     estimated scf accuracy    <          8.1E-10 Ry

     iteration # 20     ecut=    60.00 Ry     beta= 0.70
     Davidson diagonalization with overlap
     ethr =  1.56E-12,  avg # of iterations =  4.2

     negative rho (up, down):  3.637E-04 0.000E+00

     total cpu time spent up to now is      184.6 secs

     total energy              =    -979.51269189 Ry
     estimated scf accuracy    <          1.9E-09 Ry

     iteration # 21     ecut=    60.00 Ry     beta= 0.70
     Davidson diagonalization with overlap
     ethr =  1.56E-12,  avg # of iterations =  3.7

     negative rho (up, down):  3.637E-04 0.000E+00

     total cpu time spent up to now is      193.1 secs

     total energy              =    -979.51269189 Ry
     estimated scf accuracy    <          3.4E-11 Ry

     iteration # 22     ecut=    60.00 Ry     beta= 0.70
     Davidson diagonalization with overlap
     ethr =  1.00E-13,  avg # of iterations =  6.3

     negative rho (up, down):  3.637E-04 0.000E+00

     total cpu time spent up to now is      206.1 secs

     total energy              =    -979.51269189 Ry
     estimated scf accuracy    <          7.6E-10 Ry

     iteration # 23     ecut=    60.00 Ry     beta= 0.70
     Davidson diagonalization with overlap
     ethr =  1.00E-13,  avg # of iterations =  5.4

     negative rho (up, down):  3.637E-04 0.000E+00

     total cpu time spent up to now is      217.5 secs

     total energy              =    -979.51269189 Ry
     estimated scf accuracy    <          2.8E-12 Ry

     iteration # 24     ecut=    60.00 Ry     beta= 0.70
     Davidson diagonalization with overlap
     ethr =  1.00E-13,  avg # of iterations =  1.3

     negative rho (up, down):  3.637E-04 0.000E+00

     total cpu time spent up to now is      224.0 secs

     total energy              =    -979.51269189 Ry
     estimated scf accuracy    <          2.5E-12 Ry

     iteration # 25     ecut=    60.00 Ry     beta= 0.70
     Davidson diagonalization with overlap
     ethr =  1.00E-13,  avg # of iterations =  1.0

     negative rho (up, down):  3.637E-04 0.000E+00

     total cpu time spent up to now is      230.4 secs

     total energy              =    -979.51269189 Ry
     estimated scf accuracy    <          4.5E-12 Ry

     iteration # 26     ecut=    60.00 Ry     beta= 0.70
     Davidson diagonalization with overlap
     ethr =  1.00E-13,  avg # of iterations =  1.0

     negative rho (up, down):  3.637E-04 0.000E+00

     total cpu time spent up to now is      236.8 secs

     total energy              =    -979.51269189 Ry
     estimated scf accuracy    <          5.0E-12 Ry

     iteration # 27     ecut=    60.00 Ry     beta= 0.70
     Davidson diagonalization with overlap
     ethr =  1.00E-13,  avg # of iterations =  1.0

     negative rho (up, down):  3.637E-04 0.000E+00

     total cpu time spent up to now is      243.1 secs

     total energy              =    -979.51269189 Ry
     estimated scf accuracy    <          3.9E-12 Ry

     iteration # 28     ecut=    60.00 Ry     beta= 0.70
     Davidson diagonalization with overlap
     ethr =  1.00E-13,  avg # of iterations =  1.0

     negative rho (up, down):  3.637E-04 0.000E+00

     total cpu time spent up to now is      249.5 secs

     End of self-consistent calculation

          k = 0.0000 0.0000 0.0000 ( 11729 PWs)   bands (ev):

   -58.7809 -58.7808 -32.9901 -32.9901 -32.7235 -32.7235 -32.7234 -32.7234
   -12.3251 -12.2575 -10.9948 -10.8799  -4.0261  -3.7039  -0.6735  -0.6714
    -0.6699  -0.6678  -0.3355   0.4548   0.4862   0.4884   0.4887   0.4910
     1.6759   2.1973

          k = 0.0000 0.0985 0.0000 ( 11707 PWs)   bands (ev):

   -58.7778 -58.7778 -32.9842 -32.9842 -32.7534 -32.7533 -32.7302 -32.7301
   -12.2153 -12.1480 -10.9476 -10.8363  -3.9025  -3.5815  -0.9147  -0.9103
    -0.6496  -0.5573  -0.5527  -0.1932   0.3109   0.3176   0.6454   0.9503
     1.6587   2.1074

          k = 0.0000 0.1969 0.0000 ( 11661 PWs)   bands (ev):

   -58.7694 -58.7694 -32.9680 -32.9680 -32.8343 -32.8343 -32.7485 -32.7485
   -11.9024 -11.8366 -10.8133 -10.7124  -3.5885  -3.2789  -1.4645  -1.4612
    -1.2195  -0.9123  -0.2393  -0.2314  -0.0971  -0.0861   0.6651   1.0355
     1.5035   1.7639

          k = 0.0000 0.2954 0.0000 ( 11667 PWs)   bands (ev):

   -58.7581 -58.7580 -32.9458 -32.9458 -32.9433 -32.9433 -32.7735 -32.7735
   -11.4365 -11.3750 -10.6147 -10.5305  -3.3316  -3.0976  -1.9743  -1.9160
    -1.8179  -1.6255  -0.5521  -0.5379   0.2051   0.2197   0.3854   0.7621
     1.1119   1.2495

          k = 0.0001 0.3938 0.0000 ( 11585 PWs)   bands (ev):

   -58.7466 -58.7465 -33.0505 -33.0504 -32.9236 -32.9235 -32.7984 -32.7983
   -10.9078 -10.8557 -10.3940 -10.3309  -3.5143  -3.4101  -2.4749  -2.3176
    -2.0522  -1.9776  -0.9331  -0.9172   0.0595   0.4360   0.6434   0.6700
     0.8569   0.9895

          k = 0.0001 0.4923 0.0000 ( 11602 PWs)   bands (ev):

   -58.7383 -58.7382 -33.1279 -33.1279 -32.9072 -32.9071 -32.8165 -32.8165
   -10.4590 -10.4230 -10.2131 -10.1722  -3.8770  -3.8300  -2.9205  -2.7858
    -2.1653  -2.1335  -1.1799  -1.1631  -0.1399   0.2346   0.9394   0.9797
     1.0291   1.1800

          k =-0.0001-0.5907 0.0000 ( 11612 PWs)   bands (ev):

   -58.7352 -58.7352 -33.1560 -33.1560 -32.9012 -32.9012 -32.8231 -32.8231
   -10.2738 -10.2510 -10.1409 -10.1122  -4.0390  -4.0092  -3.0892  -2.9603
    -2.2478  -2.2310  -1.2649  -1.2478  -0.2016   0.1699   1.0374   1.0838
     1.2080   1.3484

          k = 0.0853 0.0492 0.0000 ( 11705 PWs)   bands (ev):

   -58.7778 -58.7777 -32.9842 -32.9842 -32.7533 -32.7533 -32.7302 -32.7302
   -12.2153 -12.1480 -10.9476 -10.8363  -3.9025  -3.5814  -0.9137  -0.9093
    -0.6501  -0.5583  -0.5538  -0.1940   0.3121   0.3188   0.6447   0.9501
     1.6587   2.1073

          k = 0.0853 0.1477 0.0000 ( 11665 PWs)   bands (ev):

   -58.7721 -58.7720 -32.9732 -32.9731 -32.8072 -32.8072 -32.7443 -32.7442
   -12.0038 -11.9374 -10.8567 -10.7524  -3.6802  -3.3645  -1.3012  -1.2989
    -1.0273  -0.6681  -0.3493  -0.3436  -0.0922  -0.0889   0.8026   1.1389
     1.5755   1.8891

          k = 0.0853 0.2461 0.0000 ( 11632 PWs)   bands (ev):

   -58.7622 -58.7621 -32.9540 -32.9539 -32.8983 -32.8982 -32.7698 -32.7698
   -11.6133 -11.5498 -10.6891 -10.5984  -3.3663  -3.0865  -1.8024  -1.7831
    -1.5199  -1.2723  -0.6940  -0.6467  -0.0231  -0.0116   0.7720   1.0801
     1.3000   1.4443

          k = 0.0853 0.3446 0.0000 ( 11633 PWs)   bands (ev):

   -58.7508 -58.7508 -33.0016 -33.0016 -32.9317 -32.9317 -32.7994 -32.7994
   -11.1122 -11.0554 -10.4760 -10.4041  -3.3269  -3.1725  -2.1840  -2.0433
    -1.9755  -1.8894  -1.1031  -1.0107   0.1965   0.2319   0.4756   0.7670
     1.0340   1.1116

          k = 0.0853 0.4430 0.0000 ( 11618 PWs)   bands (ev):

   -58.7409 -58.7409 -33.0899 -33.0898 -32.9124 -32.9124 -32.8250 -32.8250
   -10.6139 -10.5701 -10.2687 -10.2188  -3.6366  -3.5689  -2.7558  -2.6387
    -2.0475  -1.9954  -1.2689  -1.1909   0.0938   0.3067   0.3222   0.4443
     1.1644   1.2482

          k = 0.0854 0.5415 0.0000 ( 11623 PWs)   bands (ev):

   -58.7353 -58.7352 -33.1403 -33.1403 -32.9012 -32.9012 -32.8397 -32.8396
   -10.2837 -10.2574 -10.1352 -10.1047  -3.8946  -3.8644  -3.1094  -3.0024
    -2.1788  -2.1680  -1.3023  -1.2606  -0.1273   0.2011   0.4403   0.4865
     1.4037   1.5057

          k = 0.0852-0.5415 0.0000 ( 11625 PWs)   bands (ev):

   -58.7353 -58.7352 -33.1403 -33.1403 -32.9012 -32.9012 -32.8397 -32.8396
   -10.2837 -10.2574 -10.1352 -10.1047  -3.8946  -3.8645  -3.1094  -3.0023
    -2.1788  -2.1680  -1.3025  -1.2608  -0.1271   0.2012   0.4406   0.4867
     1.4035   1.5054

          k = 0.0852-0.4431 0.0000 ( 11618 PWs)   bands (ev):

   -58.7409 -58.7409 -33.0899 -33.0899 -32.9124 -32.9124 -32.8250 -32.8249
   -10.6138 -10.5700 -10.2687 -10.2188  -3.6367  -3.5689  -2.7556  -2.6386
    -2.0475  -1.9955  -1.2692  -1.1913   0.0942   0.3072   0.3225   0.4448
     1.1639   1.2476

          k = 0.0852-0.3446 0.0000 ( 11633 PWs)   bands (ev):

   -58.7508 -58.7508 -33.0017 -33.0017 -32.9317 -32.9317 -32.7994 -32.7994
   -11.1121 -11.0553 -10.4760 -10.4041  -3.3269  -3.1725  -2.1839  -2.0431
    -1.9754  -1.8894  -1.1033  -1.0110   0.1970   0.2323   0.4757   0.7673
     1.0334   1.1110

          k = 0.0852-0.2462 0.0000 ( 11632 PWs)   bands (ev):

   -58.7622 -58.7621 -32.9540 -32.9539 -32.8983 -32.8983 -32.7698 -32.7698
   -11.6133 -11.5498 -10.6891 -10.5984  -3.3663  -3.0864  -1.8022  -1.7829
    -1.5201  -1.2725  -0.6937  -0.6465  -0.0233  -0.0118   0.7720   1.0803
     1.2998   1.4439

          k = 0.0853-0.1477 0.0000 ( 11663 PWs)   bands (ev):

   -58.7721 -58.7720 -32.9732 -32.9731 -32.8072 -32.8072 -32.7443 -32.7443
   -12.0037 -11.9374 -10.8567 -10.7524  -3.6802  -3.3644  -1.3007  -1.2984
    -1.0278  -0.6687  -0.3499  -0.3442  -0.0915  -0.0882   0.8023   1.1389
     1.5754   1.8890

          k = 0.0853-0.0492 0.0000 ( 11707 PWs)   bands (ev):

   -58.7778 -58.7777 -32.9842 -32.9842 -32.7533 -32.7533 -32.7302 -32.7302
   -12.2153 -12.1479 -10.9476 -10.8363  -3.9025  -3.5814  -0.9131  -0.9086
    -0.6503  -0.5590  -0.5545  -0.1945   0.3127   0.3194   0.6443   0.9499
     1.6587   2.1072

          k = 0.1706 0.0984 0.0000 ( 11663 PWs)   bands (ev):

   -58.7694 -58.7694 -32.9680 -32.9680 -32.8343 -32.8343 -32.7486 -32.7486
   -11.9022 -11.8365 -10.8133 -10.7125  -3.5884  -3.2788  -1.4638  -1.4604
    -1.2201  -0.9129  -0.2403  -0.2323  -0.0964  -0.0854   0.6650   1.0358
     1.5034   1.7635

          k = 0.1706 0.1969 0.0000 ( 11632 PWs)   bands (ev):

   -58.7622 -58.7621 -32.9540 -32.9539 -32.8983 -32.8982 -32.7699 -32.7699
   -11.6133 -11.5498 -10.6891 -10.5984  -3.3662  -3.0864  -1.8021  -1.7827
    -1.5201  -1.2726  -0.6938  -0.6463  -0.0236  -0.0121   0.7721   1.0803
     1.3000   1.4440

          k = 0.1706 0.2953 0.0000 ( 11625 PWs)   bands (ev):

   -58.7524 -58.7522 -32.9766 -32.9766 -32.9347 -32.9347 -32.8071 -32.8071
   -11.1847 -11.1265 -10.5043 -10.4292  -3.2350  -3.0506  -2.0124  -1.9158
    -1.8417  -1.7611  -1.3863  -1.2468  -0.0340  -0.0031   0.7852   1.0175
     1.1269   1.1411

          k = 0.1706 0.3938 0.0000 ( 11620 PWs)   bands (ev):

   -58.7425 -58.7424 -33.0502 -33.0501 -32.9154 -32.9154 -32.8482 -32.8482
   -10.7035 -10.6555 -10.2964 -10.2412  -3.3815  -3.2856  -2.5827  -2.5330
    -1.8895  -1.7862  -1.5206  -1.3515  -0.3554  -0.3191   0.4834   0.6818
     1.1733   1.2228

          k = 0.1706 0.4923 0.0000 ( 11626 PWs)   bands (ev):

   -58.7353 -58.7352 -33.1021 -33.1021 -32.9012 -32.9012 -32.8796 -32.8796
   -10.3026 -10.2707 -10.1237 -10.0899  -3.5661  -3.5169  -3.1409  -3.0847
    -1.9920  -1.9482  -1.4141  -1.2896  -0.4885  -0.4209   0.0770   0.2929
     1.4234   1.4882

          k = 0.1706 0.5907 0.0000 ( 11618 PWs)   bands (ev):

   -58.7326 -58.7326 -33.1208 -33.1208 -32.8960 -32.8960 -32.8912 -32.8912
   -10.1398 -10.1206 -10.0538 -10.0325  -3.6224  -3.6169  -3.3449  -3.2867
    -2.1240  -2.0946  -1.3089  -1.2347  -0.4832  -0.3995  -0.1273   0.1112
     1.5976   1.6790

          k = 0.1705-0.4923 0.0000 ( 11626 PWs)   bands (ev):

   -58.7353 -58.7352 -33.1021 -33.1021 -32.9012 -32.9012 -32.8796 -32.8795
   -10.3025 -10.2706 -10.1237 -10.0899  -3.5662  -3.5170  -3.1407  -3.0845
    -1.9921  -1.9483  -1.4144  -1.2899  -0.4881  -0.4205   0.0773   0.2932
     1.4231   1.4879

          k = 0.1705-0.3939 0.0000 ( 11620 PWs)   bands (ev):

   -58.7425 -58.7424 -33.0502 -33.0502 -32.9154 -32.9154 -32.8482 -32.8482
   -10.7033 -10.6554 -10.2965 -10.2412  -3.3816  -3.2856  -2.5824  -2.5327
    -1.8895  -1.7863  -1.5211  -1.3519  -0.3550  -0.3188   0.4836   0.6821
     1.1729   1.2223

          k = 0.1705-0.2954 0.0000 ( 11625 PWs)   bands (ev):

   -58.7523 -58.7522 -32.9767 -32.9767 -32.9347 -32.9347 -32.8071 -32.8071
   -11.1845 -11.1263 -10.5043 -10.4292  -3.2350  -3.0506  -2.0122  -1.9155
    -1.8416  -1.7609  -1.3863  -1.2471  -0.0340  -0.0030   0.7853   1.0179
     1.1263   1.1404

          k = 0.1705-0.1969 0.0000 ( 11632 PWs)   bands (ev):

   -58.7622 -58.7621 -32.9540 -32.9539 -32.8983 -32.8983 -32.7699 -32.7699
   -11.6131 -11.5496 -10.6892 -10.5984  -3.3661  -3.0863  -1.8017  -1.7823
    -1.5205  -1.2730  -0.6934  -0.6460  -0.0241  -0.0126   0.7720   1.0806
     1.2997   1.4435

          k = 0.1705-0.0985 0.0000 ( 11665 PWs)   bands (ev):

   -58.7694 -58.7694 -32.9680 -32.9680 -32.8343 -32.8343 -32.7486 -32.7486
   -11.9022 -11.8364 -10.8133 -10.7125  -3.5883  -3.2787  -1.4633  -1.4598
    -1.2204  -0.9133  -0.2409  -0.2330  -0.0961  -0.0850   0.6650   1.0360
     1.5033   1.7634

          k = 0.1706-0.0000 0.0000 ( 11661 PWs)   bands (ev):

   -58.7721 -58.7720 -32.9732 -32.9731 -32.8072 -32.8072 -32.7443 -32.7443
   -12.0037 -11.9373 -10.8567 -10.7524  -3.6801  -3.3643  -1.2999  -1.2976
    -1.0286  -0.6696  -0.3508  -0.3452  -0.0903  -0.0871   0.8019   1.1389
     1.5753   1.8887

          k = 0.2558 0.1476 0.0000 ( 11667 PWs)   bands (ev):

   -58.7581 -58.7580 -32.9458 -32.9458 -32.9433 -32.9433 -32.7736 -32.7736
   -11.4363 -11.3747 -10.6148 -10.5306  -3.3314  -3.0974  -1.9738  -1.9153
    -1.8180  -1.6257  -0.5517  -0.5376   0.2042   0.2188   0.3854   0.7626
     1.1116   1.2487

          k = 0.2559 0.2461 0.0000 ( 11629 PWs)   bands (ev):

   -58.7508 -58.7508 -33.0017 -33.0016 -32.9317 -32.9317 -32.7995 -32.7995
   -11.1119 -11.0552 -10.4760 -10.4041  -3.3268  -3.1724  -2.1839  -2.0433
    -1.9751  -1.8888  -1.1028  -1.0104   0.1955   0.2310   0.4754   0.7670
     1.0341   1.1112

          k = 0.2559 0.3446 0.0000 ( 11618 PWs)   bands (ev):

   -58.7425 -58.7424 -33.0502 -33.0502 -32.9154 -32.9154 -32.8482 -32.8482
   -10.7034 -10.6554 -10.2965 -10.2412  -3.3815  -3.2856  -2.5827  -2.5330
    -1.8891  -1.7856  -1.5204  -1.3513  -0.3561  -0.3197   0.4831   0.6816
     1.1734   1.2228

          k = 0.2559 0.4430 0.0000 ( 11595 PWs)   bands (ev):

   -58.7352 -58.7352 -33.0765 -33.0765 -32.9060 -32.9060 -32.9012 -32.9012
   -10.3115 -10.2773 -10.1179 -10.0824  -3.3757  -3.2996  -3.1448  -3.1327
    -1.7669  -1.6605  -1.4739  -1.3055  -1.0558  -1.0544   0.2065   0.3378
     1.4111   1.4408

          k = 0.2559 0.5415 0.0000 ( 11594 PWs)   bands (ev):

   -58.7310 -58.7310 -33.0819 -33.0819 -32.9492 -32.9492 -32.8930 -32.8930
   -10.0627 -10.0450  -9.9998  -9.9840  -3.5145  -3.4943  -3.2330  -3.1852
    -2.0201  -1.9263  -1.3824  -1.2850  -1.2445  -1.1221  -0.1418  -0.0229
     1.7293   1.7598

          k = 0.2559 0.6399 0.0000 ( 11594 PWs)   bands (ev):

   -58.7310 -58.7310 -33.0819 -33.0819 -32.9492 -32.9491 -32.8930 -32.8930
   -10.0626 -10.0449  -9.9999  -9.9840  -3.5145  -3.4942  -3.2331  -3.1853
    -2.0203  -1.9264  -1.3821  -1.2848  -1.2446  -1.1222  -0.1418  -0.0228
     1.7292   1.7597

          k = 0.2558-0.4431 0.0000 ( 11595 PWs)   bands (ev):

   -58.7352 -58.7352 -33.0766 -33.0766 -32.9060 -32.9060 -32.9012 -32.9012
   -10.3114 -10.2771 -10.1180 -10.0825  -3.3758  -3.2997  -3.1446  -3.1324
    -1.7671  -1.6606  -1.4743  -1.3058  -1.0555  -1.0540   0.2065   0.3380
     1.4109   1.4404

          k = 0.2558-0.3446 0.0000 ( 11618 PWs)   bands (ev):

   -58.7424 -58.7424 -33.0502 -33.0502 -32.9154 -32.9153 -32.8482 -32.8482
   -10.7031 -10.6551 -10.2965 -10.2413  -3.3816  -3.2856  -2.5824  -2.5327
    -1.8888  -1.7853  -1.5208  -1.3517  -0.3560  -0.3198   0.4831   0.6819
     1.1730   1.2222

          k = 0.2558-0.2462 0.0000 ( 11629 PWs)   bands (ev):

   -58.7508 -58.7508 -33.0017 -33.0017 -32.9317 -32.9317 -32.7995 -32.7995
   -11.1117 -11.0550 -10.4761 -10.4041  -3.3267  -3.1724  -2.1838  -2.0432
    -1.9748  -1.8884  -1.1028  -1.0105   0.1953   0.2308   0.4754   0.7674
     1.0336   1.1104

          k = 0.2558-0.1477 0.0000 ( 11667 PWs)   bands (ev):

   -58.7581 -58.7580 -32.9458 -32.9458 -32.9433 -32.9433 -32.7736 -32.7736
   -11.4361 -11.3746 -10.6148 -10.5306  -3.3313  -3.0973  -1.9734  -1.9149
    -1.8181  -1.6258  -0.5516  -0.5375   0.2037   0.2183   0.3854   0.7629
     1.1114   1.2482

          k = 0.2558-0.0493 0.0000 ( 11632 PWs)   bands (ev):

   -58.7622 -58.7621 -32.9539 -32.9539 -32.8983 -32.8983 -32.7699 -32.7699
   -11.6130 -11.5495 -10.6892 -10.5984  -3.3661  -3.0862  -1.8013  -1.7819
    -1.5210  -1.2733  -0.6928  -0.6457  -0.0243  -0.0128   0.7719   1.0809
     1.2993   1.4429

          k = 0.2558 0.0492 0.0000 ( 11632 PWs)   bands (ev):

   -58.7622 -58.7621 -32.9540 -32.9539 -32.8983 -32.8983 -32.7699 -32.7698
   -11.6131 -11.5496 -10.6892 -10.5984  -3.3661  -3.0863  -1.8015  -1.7821
    -1.5208  -1.2731  -0.6929  -0.6458  -0.0240  -0.0125   0.7719   1.0808
     1.2993   1.4431

          k = 0.3411 0.1969 0.0000 ( 11585 PWs)   bands (ev):

   -58.7465 -58.7465 -33.0505 -33.0505 -32.9235 -32.9235 -32.7984 -32.7984
   -10.9074 -10.8553 -10.3941 -10.3310  -3.5142  -3.4101  -2.4747  -2.3175
    -2.0515  -1.9767  -0.9330  -0.9171   0.0591   0.4362   0.6427   0.6693
     0.8566   0.9885

          k = 0.3411 0.2953 0.0000 ( 11618 PWs)   bands (ev):

   -58.7409 -58.7409 -33.0899 -33.0899 -32.9124 -32.9123 -32.8250 -32.8250
   -10.6135 -10.5697 -10.2688 -10.2189  -3.6366  -3.5689  -2.7556  -2.6386
    -2.0468  -1.9946  -1.2686  -1.1907   0.0928   0.3060   0.3217   0.4434
     1.1645   1.2481

          k = 0.3412 0.3938 0.0000 ( 11624 PWs)   bands (ev):

   -58.7352 -58.7352 -33.1021 -33.1021 -32.9012 -32.9012 -32.8796 -32.8796
   -10.3023 -10.2704 -10.1238 -10.0899  -3.5662  -3.5170  -3.1408  -3.0846
    -1.9915  -1.9474  -1.4138  -1.2893  -0.4892  -0.4216   0.0764   0.2926
     1.4235   1.4882

          k = 0.3412 0.4922 0.0000 ( 11594 PWs)   bands (ev):

   -58.7310 -58.7310 -33.0819 -33.0819 -32.9492 -32.9492 -32.8930 -32.8930
   -10.0625 -10.0448  -9.9999  -9.9840  -3.5145  -3.4941  -3.2331  -3.1853
    -2.0198  -1.9258  -1.3827  -1.2853  -1.2444  -1.1220  -0.1422  -0.0231
     1.7294   1.7597

          k = 0.3412 0.5907 0.0000 ( 11595 PWs)   bands (ev):

   -58.7295 -58.7294 -33.0496 -33.0496 -32.9997 -32.9997 -32.8900 -32.8900
    -9.9664  -9.9663  -9.9466  -9.9466  -3.6591  -3.6590  -2.8315  -2.7594
    -2.2816  -2.2815  -1.6477  -1.6476  -1.0871  -0.9586  -0.2796  -0.2793
     1.9407   1.9407

          k = 0.3412 0.6891 0.0000 ( 11596 PWs)   bands (ev):

   -58.7310 -58.7310 -33.0820 -33.0820 -32.9492 -32.9491 -32.8930 -32.8930
   -10.0624 -10.0446  -9.9999  -9.9840  -3.5144  -3.4940  -3.2332  -3.1854
    -2.0198  -1.9257  -1.3826  -1.2853  -1.2445  -1.1221  -0.1424  -0.0230
     1.7293   1.7596

          k = 0.3410-0.3939 0.0000 ( 11628 PWs)   bands (ev):

   -58.7352 -58.7352 -33.1022 -33.1022 -32.9012 -32.9012 -32.8796 -32.8796
   -10.3020 -10.2701 -10.1238 -10.0900  -3.5663  -3.5171  -3.1405  -3.0843
    -1.9913  -1.9470  -1.4141  -1.2895  -0.4893  -0.4217   0.0762   0.2926
     1.4233   1.4878

          k = 0.3411-0.2954 0.0000 ( 11620 PWs)   bands (ev):

   -58.7409 -58.7409 -33.0900 -33.0900 -32.9123 -32.9123 -32.8251 -32.8251
   -10.6133 -10.5694 -10.2689 -10.2189  -3.6366  -3.5690  -2.7554  -2.6384
    -2.0464  -1.9942  -1.2689  -1.1909   0.0926   0.3060   0.3217   0.4434
     1.1640   1.2475

          k = 0.3411-0.1970 0.0000 ( 11587 PWs)   bands (ev):

   -58.7465 -58.7465 -33.0506 -33.0505 -32.9235 -32.9235 -32.7985 -32.7985
   -10.9071 -10.8550 -10.3942 -10.3311  -3.5141  -3.4101  -2.4746  -2.3174
    -2.0511  -1.9762  -0.9331  -0.9172   0.0590   0.4364   0.6423   0.6689
     0.8564   0.9879

          k = 0.3411-0.0985 0.0000 ( 11629 PWs)   bands (ev):

   -58.7508 -58.7508 -33.0018 -33.0018 -32.9317 -32.9317 -32.7995 -32.7995
   -11.1116 -11.0548 -10.4761 -10.4042  -3.3267  -3.1724  -2.1837  -2.0429
    -1.9746  -1.8883  -1.1032  -1.0110   0.1961   0.2314   0.4756   0.7679
     1.0326   1.1094

          k = 0.3411-0.0001 0.0000 ( 11625 PWs)   bands (ev):

   -58.7523 -58.7522 -32.9768 -32.9768 -32.9347 -32.9347 -32.8071 -32.8071
   -11.1843 -11.1260 -10.5044 -10.4293  -3.2350  -3.0506  -2.0119  -1.9150
    -1.8415  -1.7605  -1.3864  -1.2475  -0.0339  -0.0030   0.7853   1.0186
     1.1254   1.1392

          k = 0.3411 0.0984 0.0000 ( 11629 PWs)   bands (ev):

   -58.7508 -58.7508 -33.0018 -33.0017 -32.9317 -32.9317 -32.7995 -32.7995
   -11.1117 -11.0550 -10.4761 -10.4042  -3.3268  -3.1725  -2.1837  -2.0429
    -1.9749  -1.8887  -1.1033  -1.0111   0.1967   0.2320   0.4757   0.7679
     1.0325   1.1096

          k = 0.4264 0.2461 0.0000 ( 11602 PWs)   bands (ev):

   -58.7383 -58.7382 -33.1280 -33.1279 -32.9071 -32.9071 -32.8166 -32.8166
   -10.4584 -10.4224 -10.2133 -10.1724  -3.8771  -3.8301  -2.9201  -2.7854
    -2.1646  -2.1328  -1.1800  -1.1632  -0.1405   0.2345   0.9388   0.9791
     1.0289   1.1793

          k = 0.4264 0.3445 0.0000 ( 11623 PWs)   bands (ev):

   -58.7353 -58.7352 -33.1404 -33.1403 -32.9012 -32.9011 -32.8397 -32.8397
   -10.2832 -10.2569 -10.1354 -10.1048  -3.8947  -3.8646  -3.1091  -3.0021
    -2.1781  -2.1674  -1.3022  -1.2606  -0.1282   0.2008   0.4396   0.4858
     1.4037   1.5055

          k = 0.4264 0.4430 0.0000 ( 11620 PWs)   bands (ev):

   -58.7326 -58.7326 -33.1209 -33.1209 -32.8960 -32.8960 -32.8913 -32.8913
   -10.1394 -10.1201 -10.0539 -10.0326  -3.6225  -3.6172  -3.3446  -3.2863
    -2.1237  -2.0939  -1.3087  -1.2347  -0.4836  -0.3999  -0.1280   0.1108
     1.5976   1.6788

          k = 0.4265 0.5414 0.0000 ( 11594 PWs)   bands (ev):

   -58.7310 -58.7310 -33.0820 -33.0820 -32.9491 -32.9491 -32.8930 -32.8930
   -10.0624 -10.0446  -9.9999  -9.9840  -3.5142  -3.4939  -3.2333  -3.1855
    -2.0203  -1.9262  -1.3819  -1.2847  -1.2447  -1.1223  -0.1421  -0.0228
     1.7291   1.7595

          k = 0.4265 0.6399 0.0000 ( 11596 PWs)   bands (ev):

   -58.7310 -58.7310 -33.0821 -33.0821 -32.9491 -32.9491 -32.8930 -32.8930
   -10.0623 -10.0445  -9.9999  -9.9840  -3.5142  -3.4938  -3.2333  -3.1855
    -2.0201  -1.9260  -1.3821  -1.2849  -1.2447  -1.1223  -0.1424  -0.0228
     1.7292   1.7595

          k = 0.4265 0.7383 0.0000 ( 11620 PWs)   bands (ev):

   -58.7326 -58.7325 -33.1209 -33.1209 -32.8960 -32.8960 -32.8913 -32.8913
   -10.1392 -10.1198 -10.0540 -10.0326  -3.6225  -3.6173  -3.3444  -3.2861
    -2.1235  -2.0935  -1.3087  -1.2347  -0.4838  -0.4002  -0.1284   0.1106
     1.5976   1.6787

          k = 0.4263-0.3447 0.0000 ( 11625 PWs)   bands (ev):

   -58.7353 -58.7352 -33.1404 -33.1404 -32.9011 -32.9011 -32.8398 -32.8398
   -10.2829 -10.2565 -10.1354 -10.1049  -3.8947  -3.8647  -3.1088  -3.0018
    -2.1777  -2.1671  -1.3024  -1.2608  -0.1285   0.2007   0.4394   0.4855
     1.4035   1.5052

          k = 0.4263-0.2462 0.0000 ( 11602 PWs)   bands (ev):

   -58.7382 -58.7382 -33.1280 -33.1280 -32.9071 -32.9071 -32.8166 -32.8166
   -10.4581 -10.4221 -10.2133 -10.1724  -3.8771  -3.8302  -2.9199  -2.7852
    -2.1642  -2.1324  -1.1802  -1.1634  -0.1409   0.2345   0.9384   0.9787
     1.0287   1.1790

          k = 0.4264-0.1478 0.0000 ( 11618 PWs)   bands (ev):

   -58.7409 -58.7409 -33.0900 -33.0900 -32.9123 -32.9123 -32.8251 -32.8251
   -10.6131 -10.5693 -10.2689 -10.2190  -3.6367  -3.5690  -2.7551  -2.6381
    -2.0464  -1.9943  -1.2696  -1.1915   0.0933   0.3066   0.3223   0.4442
     1.1632   1.2465

          k = 0.4264-0.0493 0.0000 ( 11620 PWs)   bands (ev):

   -58.7424 -58.7424 -33.0504 -33.0503 -32.9153 -32.9153 -32.8482 -32.8482
   -10.7029 -10.6549 -10.2966 -10.2414  -3.3817  -3.2858  -2.5819  -2.5321
    -1.8887  -1.7853  -1.5216  -1.3524  -0.3554  -0.3192   0.4835   0.6824
     1.1722   1.2213

          k = 0.4264 0.0491 0.0000 ( 11622 PWs)   bands (ev):

   -58.7425 -58.7424 -33.0504 -33.0503 -32.9154 -32.9153 -32.8482 -32.8482
   -10.7030 -10.6549 -10.2966 -10.2413  -3.3817  -3.2858  -2.5819  -2.5321
    -1.8890  -1.7857  -1.5217  -1.3525  -0.3550  -0.3188   0.4837   0.6825
     1.1722   1.2213

          k = 0.4264 0.1476 0.0000 ( 11620 PWs)   bands (ev):

   -58.7409 -58.7409 -33.0900 -33.0900 -32.9124 -32.9123 -32.8250 -32.8250
   -10.6134 -10.5695 -10.2689 -10.2190  -3.6367  -3.5690  -2.7552  -2.6381
    -2.0469  -1.9948  -1.2697  -1.1916   0.0939   0.3071   0.3226   0.4447
     1.1631   1.2465

          k =-0.5117-0.2953 0.0000 ( 11612 PWs)   bands (ev):

   -58.7352 -58.7352 -33.1561 -33.1561 -32.9011 -32.9011 -32.8232 -32.8232
   -10.2733 -10.2503 -10.1411 -10.1123  -4.0391  -4.0094  -3.0887  -2.9598
    -2.2470  -2.2305  -1.2650  -1.2480  -0.2023   0.1697   1.0368   1.0833
     1.2078   1.3480

          k =-0.5117-0.1968 0.0000 ( 11625 PWs)   bands (ev):

   -58.7353 -58.7352 -33.1404 -33.1404 -32.9012 -32.9011 -32.8397 -32.8397
   -10.2832 -10.2568 -10.1354 -10.1049  -3.8947  -3.8647  -3.1089  -3.0019
    -2.1781  -2.1675  -1.3028  -1.2610  -0.1278   0.2011   0.4402   0.4863
     1.4032   1.5048

          k =-0.5117-0.0984 0.0000 ( 11626 PWs)   bands (ev):

   -58.7352 -58.7352 -33.1022 -33.1022 -32.9012 -32.9012 -32.8796 -32.8796
   -10.3020 -10.2701 -10.1239 -10.0900  -3.5664  -3.5172  -3.1403  -3.0841
    -1.9917  -1.9477  -1.4148  -1.2902  -0.4882  -0.4206   0.0770   0.2932
     1.4227   1.4873

          k =-0.5117 0.0001 0.0000 ( 11595 PWs)   bands (ev):

   -58.7352 -58.7352 -33.0767 -33.0767 -32.9059 -32.9059 -32.9012 -32.9012
   -10.3111 -10.2767 -10.1181 -10.0826  -3.3760  -3.3000  -3.1442  -3.1320
    -1.7673  -1.6607  -1.4750  -1.3062  -1.0550  -1.0533   0.2066   0.3384
     1.4105   1.4399

          k =-0.5116 0.0986 0.0000 ( 11628 PWs)   bands (ev):

   -58.7352 -58.7352 -33.1023 -33.1023 -32.9012 -32.9012 -32.8796 -32.8796
   -10.3019 -10.2699 -10.1239 -10.0900  -3.5664  -3.5173  -3.1402  -3.0840
    -1.9914  -1.9472  -1.4147  -1.2901  -0.4887  -0.4211   0.0766   0.2930
     1.4228   1.4873

          k =-0.5116 0.1970 0.0000 ( 11625 PWs)   bands (ev):

   -58.7353 -58.7352 -33.1404 -33.1404 -32.9011 -32.9011 -32.8398 -32.8398
   -10.2829 -10.2564 -10.1354 -10.1049  -3.8948  -3.8648  -3.1087  -3.0017
    -2.1778  -2.1671  -1.3027  -1.2610  -0.1282   0.2009   0.4398   0.4859
     1.4032   1.5048

          k =-0.5118-0.8860 0.0000 ( 11612 PWs)   bands (ev):

   -58.7352 -58.7352 -33.1561 -33.1561 -32.9011 -32.9011 -32.8233 -32.8232
   -10.2729 -10.2499 -10.1412 -10.1124  -4.0391  -4.0095  -3.0884  -2.9596
    -2.2466  -2.2303  -1.2652  -1.2481  -0.2027   0.1696   1.0364   1.0829
     1.2078   1.3478

     highest occupied level (ev):     2.1973

!    total energy              =    -979.51269189 Ry

     total all-electron energy =    -19376.428382 Ry
     estimated scf accuracy    <          3.3E-13 Ry

     The total energy is the sum of the following terms:
     one-electron contribution =   -2754.30548710 Ry
     hartree contribution      =    1387.78602473 Ry
     xc contribution           =     -59.05436104 Ry
     ewald contribution        =    1071.84361532 Ry
     one-center paw contrib.   =    -625.78248379 Ry

     convergence has been achieved in  28 iterations

     negative rho (up, down):  3.637E-04 0.000E+00

     Forces acting on atoms (cartesian axes, Ry/au):

     atom    1 type  1   force =     0.00010762   -0.00027682    0.00004262
     atom    2 type  2   force =    -0.00009269    0.00023655   -0.00014282
     atom    3 type  2   force =    -0.00001508    0.00004079    0.00002363
     atom    4 type  1   force =    -0.00010745    0.00027723   -0.00006463
     atom    5 type  2   force =     0.00001501   -0.00004100   -0.00001272
     atom    6 type  2   force =     0.00009260   -0.00023676    0.00015394

     Total force =     0.000600     Total SCF correction =     0.000004


     Computing stress (Cartesian axis) and pressure


     negative rho (up, down):  3.637E-04 0.000E+00
          total   stress  (Ry/bohr**3)                   (kbar)     P=       -0.58
  -0.00000039  -0.00000022  -0.00000031           -0.06       -0.03       -0.05
  -0.00000022  -0.00000147   0.00000078           -0.03       -0.22        0.11
  -0.00000031   0.00000078  -0.00000994           -0.05        0.11       -1.46


     Writing output data file /scratch/as3359/MoS2_loop/Ta.save/
 
     init_run     :     10.43s CPU      5.61s WALL (       1 calls)
     electrons    :    476.74s CPU    243.72s WALL (       1 calls)
     forces       :      2.93s CPU      1.50s WALL (       1 calls)
     stress       :      9.05s CPU      4.62s WALL (       1 calls)

     Called by init_run:
     wfcinit      :      7.18s CPU      3.69s WALL (       1 calls)
     potinit      :      0.95s CPU      0.49s WALL (       1 calls)
     hinit0       :      2.01s CPU      1.26s WALL (       1 calls)

     Called by electrons:
     c_bands      :    395.39s CPU    200.58s WALL (      29 calls)
     sum_band     :     67.00s CPU     34.94s WALL (      29 calls)
     v_of_rho     :      2.64s CPU      1.46s WALL (      29 calls)
     newd         :      4.76s CPU      3.13s WALL (      29 calls)
     PAW_pot      :      6.25s CPU      3.23s WALL (      29 calls)
     mix_rho      :      0.73s CPU      0.38s WALL (      29 calls)

     Called by c_bands:
     init_us_2    :      8.21s CPU      4.13s WALL (    4514 calls)
     cegterg      :    374.93s CPU    190.17s WALL (    2146 calls)

     Called by *egterg:
     cdiaghg      :     10.62s CPU      5.45s WALL (    9033 calls)
     h_psi        :    310.59s CPU    157.75s WALL (    9181 calls)
     s_psi        :     11.11s CPU      5.59s WALL (    9181 calls)
     g_psi        :      1.74s CPU      0.88s WALL (    6961 calls)

     Called by h_psi:
     h_psi:calbec :     10.93s CPU      5.53s WALL (    9181 calls)
     vloc_psi     :    283.90s CPU    144.30s WALL (    9181 calls)
     add_vuspsi   :     13.53s CPU      6.80s WALL (    9181 calls)

     General routines
     calbec       :     14.56s CPU      7.36s WALL (   11697 calls)
     fft          :      1.34s CPU      0.68s WALL (     401 calls)
     ffts         :      0.13s CPU      0.08s WALL (      58 calls)
     fftw         :    297.15s CPU    151.00s WALL (  360166 calls)
     interpolate  :      0.23s CPU      0.14s WALL (      29 calls)
 
     Parallel routines
 
     PWSCF        :   8m21.34s CPU   4m17.61s WALL

 
   This run was terminated on:  19:19:45   9Apr2022            

=------------------------------------------------------------------------------=
   JOB DONE.
=------------------------------------------------------------------------------=
