
     Program PWSCF v.6.8 starts on  9Apr2022 at 16:47:36 

     This program is part of the open-source Quantum ESPRESSO suite
     for quantum simulation of materials; please cite
         "P. Giannozzi et al., J. Phys.:Condens. Matter 21 395502 (2009);
         "P. Giannozzi et al., J. Phys.:Condens. Matter 29 465901 (2017);
         "P. Giannozzi et al., J. Chem. Phys. 152 154105 (2020);
          URL http://www.quantum-espresso.org", 
     in publications or presentations arising from this work. More details at
     http://www.quantum-espresso.org/quote

     Parallel version (MPI & OpenMP), running on       4 processor cores
     Number of MPI processes:                 2
     Threads/MPI process:                     2

     MPI processes distributed on     1 nodes
     R & G space division:  proc/nbgrp/npool/nimage =       2
     125206 MiB available memory on the printing compute node when the environment starts
 
     Reading input from MoS2.vcrelax.in

     Current dimensions of program PWSCF are:
     Max number of different atomic species (ntypx) = 10
     Max number of k-points (npk) =  40000
     Max angular momentum in pseudopotentials (lmaxx) =  4
     file Mo.pbesol-spn-kjpaw_psl.1.0.0.UPF: wavefunction(s)  4S 4D renormalized
     file S.pbesol-nl-kjpaw_psl.1.0.0.UPF: wavefunction(s)  3S renormalized

     Subspace diagonalization in iterative solution of the eigenvalue problem:
     a serial algorithm will be used

 
     Parallelization info
     --------------------
     sticks:   dense  smooth     PW     G-vecs:    dense   smooth      PW
     Min         366     291     93                64972    46541    8519
     Max         367     292     94                64991    46568    8544
     Sum         733     583    187               129963    93109   17063
 
     Using Slab Decomposition
 


     bravais-lattice index     =            0
     lattice parameter (alat)  =       6.0720  a.u.
     unit-cell volume          =    1479.6792 (a.u.)^3
     number of atoms/cell      =            6
     number of atomic types    =            2
     number of electrons       =        52.00
     number of Kohn-Sham states=           26
     kinetic-energy cutoff     =      60.0000  Ry
     charge density cutoff     =     300.0000  Ry
     scf convergence threshold =      1.0E-12
     mixing beta               =       0.3000
     number of iterations used =            8  plain     mixing
     energy convergence thresh.=      1.0E-04
     force convergence thresh. =      1.0E-03
     press convergence thresh. =      5.0E-01
     Exchange-correlation= SLA  PW   PSX  PSC
                           (   1   4  10   8   0   0   0)
     nstep                     =           50


     celldm(1)=   6.072000  celldm(2)=   0.000000  celldm(3)=   0.000000
     celldm(4)=   0.000000  celldm(5)=   0.000000  celldm(6)=   0.000000

     crystal axes: (cart. coord. in units of alat)
               a(1) = (   0.976384  -0.000017   0.000000 )  
               a(2) = (  -0.487931   0.846187   0.000000 )  
               a(3) = (   0.000000   0.000000   8.000000 )  

     reciprocal axes: (cart. coord. in units 2 pi/alat)
               b(1) = (  1.024198  0.590577  0.000000 )  
               b(2) = (  0.000021  1.181785  0.000000 )  
               b(3) = (  0.000000  0.000000  0.125000 )  


     PseudoPot. # 1 for Mo read from file:
     /shared/home/as3359/pseudo/Mo.pbesol-spn-kjpaw_psl.1.0.0.UPF
     MD5 check sum: de57925cfc675213e43241dcc441eda8
     Pseudo is Projector augmented-wave + core cor, Zval = 14.0
     Generated using &quot;atomic&quot; code by A. Dal Corso  v.6.3
     Shape of augmentation charge: PSQ
     Using radial grid of 1229 points,  6 beta functions with: 
                l(1) =   0
                l(2) =   0
                l(3) =   1
                l(4) =   1
                l(5) =   2
                l(6) =   2
     Q(r) pseudized with 0 coefficients 


     PseudoPot. # 2 for S  read from file:
     /shared/home/as3359/pseudo/S.pbesol-nl-kjpaw_psl.1.0.0.UPF
     MD5 check sum: bf3db50ec3f960682bbc396f1aadd1dd
     Pseudo is Projector augmented-wave + core cor, Zval =  6.0
     Generated using &quot;atomic&quot; code by A. Dal Corso  v.6.3
     Shape of augmentation charge: PSQ
     Using radial grid of 1151 points,  4 beta functions with: 
                l(1) =   0
                l(2) =   0
                l(3) =   1
                l(4) =   1
     Q(r) pseudized with 0 coefficients 


     atomic species   valence    mass     pseudopotential
        Mo            14.00    95.94000     Mo( 1.00)
        S              6.00    32.06500     S ( 1.00)

     No symmetry found



   Cartesian axes

     site n.     atom                  positions (alat units)
         1           Mo  tau(   1) = (   0.0000000   0.0000000   0.9844997  )
         2           S   tau(   2) = (   0.4882867   0.2820177   1.4701535  )
         3           S   tau(   3) = (   0.4882882   0.2820111   0.4988906  )
         4           Mo  tau(   4) = (   0.0000000   0.0000000   2.3755003  )
         5           S   tau(   5) = (  -0.4882882  -0.2820111   2.8611094  )
         6           S   tau(   6) = (  -0.4882867  -0.2820177   1.8898465  )

     number of k points=    74
                       cart. coord. in units 2pi/alat
        k(    1) = (   0.0000000   0.0000000   0.0000000), wk =   0.0138889
        k(    2) = (   0.0000017   0.0984820   0.0000000), wk =   0.0277778
        k(    3) = (   0.0000035   0.1969641   0.0000000), wk =   0.0277778
        k(    4) = (   0.0000052   0.2954461   0.0000000), wk =   0.0277778
        k(    5) = (   0.0000070   0.3939282   0.0000000), wk =   0.0277778
        k(    6) = (   0.0000087   0.4924102   0.0000000), wk =   0.0277778
        k(    7) = (  -0.0000105  -0.5908923   0.0000000), wk =   0.0138889
        k(    8) = (   0.0853498   0.0492147   0.0000000), wk =   0.0277778
        k(    9) = (   0.0853516   0.1476968   0.0000000), wk =   0.0277778
        k(   10) = (   0.0853533   0.2461788   0.0000000), wk =   0.0277778
        k(   11) = (   0.0853550   0.3446609   0.0000000), wk =   0.0277778
        k(   12) = (   0.0853568   0.4431429   0.0000000), wk =   0.0277778
        k(   13) = (   0.0853585   0.5416249   0.0000000), wk =   0.0277778
        k(   14) = (   0.0853394  -0.5416775   0.0000000), wk =   0.0277778
        k(   15) = (   0.0853411  -0.4431955   0.0000000), wk =   0.0277778
        k(   16) = (   0.0853428  -0.3447135   0.0000000), wk =   0.0277778
        k(   17) = (   0.0853446  -0.2462314   0.0000000), wk =   0.0277778
        k(   18) = (   0.0853463  -0.1477494   0.0000000), wk =   0.0277778
        k(   19) = (   0.0853481  -0.0492673   0.0000000), wk =   0.0277778
        k(   20) = (   0.1706996   0.0984294   0.0000000), wk =   0.0277778
        k(   21) = (   0.1707014   0.1969115   0.0000000), wk =   0.0277778
        k(   22) = (   0.1707031   0.2953935   0.0000000), wk =   0.0277778
        k(   23) = (   0.1707049   0.3938756   0.0000000), wk =   0.0277778
        k(   24) = (   0.1707066   0.4923576   0.0000000), wk =   0.0277778
        k(   25) = (   0.1707083   0.5908397   0.0000000), wk =   0.0277778
        k(   26) = (   0.1706892  -0.4924628   0.0000000), wk =   0.0277778
        k(   27) = (   0.1706909  -0.3939808   0.0000000), wk =   0.0277778
        k(   28) = (   0.1706927  -0.2954987   0.0000000), wk =   0.0277778
        k(   29) = (   0.1706944  -0.1970167   0.0000000), wk =   0.0277778
        k(   30) = (   0.1706961  -0.0985346   0.0000000), wk =   0.0277778
        k(   31) = (   0.1706979  -0.0000526   0.0000000), wk =   0.0277778
        k(   32) = (   0.2560494   0.1476442   0.0000000), wk =   0.0277778
        k(   33) = (   0.2560512   0.2461262   0.0000000), wk =   0.0277778
        k(   34) = (   0.2560529   0.3446082   0.0000000), wk =   0.0277778
        k(   35) = (   0.2560547   0.4430903   0.0000000), wk =   0.0277778
        k(   36) = (   0.2560564   0.5415723   0.0000000), wk =   0.0277778
        k(   37) = (   0.2560582   0.6400544   0.0000000), wk =   0.0277778
        k(   38) = (   0.2560390  -0.4432481   0.0000000), wk =   0.0277778
        k(   39) = (   0.2560407  -0.3447661   0.0000000), wk =   0.0277778
        k(   40) = (   0.2560425  -0.2462840   0.0000000), wk =   0.0277778
        k(   41) = (   0.2560442  -0.1478020   0.0000000), wk =   0.0277778
        k(   42) = (   0.2560460  -0.0493199   0.0000000), wk =   0.0277778
        k(   43) = (   0.2560477   0.0491621   0.0000000), wk =   0.0277778
        k(   44) = (   0.3413993   0.1968589   0.0000000), wk =   0.0277778
        k(   45) = (   0.3414010   0.2953409   0.0000000), wk =   0.0277778
        k(   46) = (   0.3414027   0.3938230   0.0000000), wk =   0.0277778
        k(   47) = (   0.3414045   0.4923050   0.0000000), wk =   0.0277778
        k(   48) = (   0.3414062   0.5907871   0.0000000), wk =   0.0277778
        k(   49) = (   0.3414080   0.6892691   0.0000000), wk =   0.0277778
        k(   50) = (   0.3413888  -0.3940334   0.0000000), wk =   0.0277778
        k(   51) = (   0.3413905  -0.2955513   0.0000000), wk =   0.0277778
        k(   52) = (   0.3413923  -0.1970693   0.0000000), wk =   0.0277778
        k(   53) = (   0.3413940  -0.0985872   0.0000000), wk =   0.0277778
        k(   54) = (   0.3413958  -0.0001052   0.0000000), wk =   0.0277778
        k(   55) = (   0.3413975   0.0983768   0.0000000), wk =   0.0277778
        k(   56) = (   0.4267491   0.2460736   0.0000000), wk =   0.0277778
        k(   57) = (   0.4267508   0.3445556   0.0000000), wk =   0.0277778
        k(   58) = (   0.4267526   0.4430377   0.0000000), wk =   0.0277778
        k(   59) = (   0.4267543   0.5415197   0.0000000), wk =   0.0277778
        k(   60) = (   0.4267560   0.6400018   0.0000000), wk =   0.0277778
        k(   61) = (   0.4267578   0.7384838   0.0000000), wk =   0.0277778
        k(   62) = (   0.4267386  -0.3448187   0.0000000), wk =   0.0277778
        k(   63) = (   0.4267404  -0.2463366   0.0000000), wk =   0.0277778
        k(   64) = (   0.4267421  -0.1478546   0.0000000), wk =   0.0277778
        k(   65) = (   0.4267438  -0.0493725   0.0000000), wk =   0.0277778
        k(   66) = (   0.4267456   0.0491095   0.0000000), wk =   0.0277778
        k(   67) = (   0.4267473   0.1475916   0.0000000), wk =   0.0277778
        k(   68) = (  -0.5120989  -0.2952883   0.0000000), wk =   0.0138889
        k(   69) = (  -0.5120971  -0.1968063   0.0000000), wk =   0.0277778
        k(   70) = (  -0.5120954  -0.0983242   0.0000000), wk =   0.0277778
        k(   71) = (  -0.5120937   0.0001578   0.0000000), wk =   0.0277778
        k(   72) = (  -0.5120919   0.0986398   0.0000000), wk =   0.0277778
        k(   73) = (  -0.5120902   0.1971219   0.0000000), wk =   0.0277778
        k(   74) = (  -0.5121093  -0.8861806   0.0000000), wk =   0.0138889

     Dense  grid:   129963 G-vectors     FFT dimensions: (  36,  36, 270)

     Smooth grid:    93109 G-vectors     FFT dimensions: (  30,  30, 240)

     Estimated max dynamical RAM per process >     424.55 MB

     Estimated total dynamical RAM >     849.10 MB

     Initial potential from superposition of free atoms

     starting charge   51.99828, renormalised to   52.00000

     negative rho (up, down):  3.586E-04 0.000E+00
     Starting wfcs are   36 randomized atomic wfcs
     Checking if some PAW data can be deallocated... 

     total cpu time spent up to now is        7.7 secs

     Self-consistent Calculation

     iteration #  1     ecut=    60.00 Ry     beta= 0.30
     Davidson diagonalization with overlap
     ethr =  1.00E-02,  avg # of iterations =  2.5

     Threshold (ethr) on eigenvalues was too large:
     Diagonalizing with lowered threshold

     Davidson diagonalization with overlap
     ethr =  6.31E-04,  avg # of iterations =  3.9

     negative rho (up, down):  3.737E-04 0.000E+00

     total cpu time spent up to now is       24.1 secs

     total energy              =    -979.25523026 Ry
     estimated scf accuracy    <       0.31090476 Ry

     iteration #  2     ecut=    60.00 Ry     beta= 0.30
     Davidson diagonalization with overlap
     ethr =  5.98E-04,  avg # of iterations =  4.9

     negative rho (up, down):  3.938E-04 0.000E+00

     total cpu time spent up to now is       33.3 secs

     total energy              =    -979.30273140 Ry
     estimated scf accuracy    <       0.15227892 Ry

     iteration #  3     ecut=    60.00 Ry     beta= 0.30
     Davidson diagonalization with overlap
     ethr =  2.93E-04,  avg # of iterations =  4.2

     negative rho (up, down):  4.118E-04 0.000E+00

     total cpu time spent up to now is       41.2 secs

     total energy              =    -979.31338815 Ry
     estimated scf accuracy    <       0.03294791 Ry

     iteration #  4     ecut=    60.00 Ry     beta= 0.30
     Davidson diagonalization with overlap
     ethr =  6.34E-05,  avg # of iterations =  4.4

     negative rho (up, down):  4.319E-04 0.000E+00

     total cpu time spent up to now is       49.6 secs

     total energy              =    -979.31714695 Ry
     estimated scf accuracy    <       0.00803366 Ry

     iteration #  5     ecut=    60.00 Ry     beta= 0.30
     Davidson diagonalization with overlap
     ethr =  1.54E-05,  avg # of iterations =  4.4

     negative rho (up, down):  4.416E-04 0.000E+00

     total cpu time spent up to now is       59.0 secs

     total energy              =    -979.31823910 Ry
     estimated scf accuracy    <       0.00670247 Ry

     iteration #  6     ecut=    60.00 Ry     beta= 0.30
     Davidson diagonalization with overlap
     ethr =  1.29E-05,  avg # of iterations =  2.3

     negative rho (up, down):  4.597E-04 0.000E+00

     total cpu time spent up to now is       66.2 secs

     total energy              =    -979.31655373 Ry
     estimated scf accuracy    <       0.00316547 Ry

     iteration #  7     ecut=    60.00 Ry     beta= 0.30
     Davidson diagonalization with overlap
     ethr =  6.09E-06,  avg # of iterations =  6.8

     negative rho (up, down):  4.656E-04 0.000E+00

     total cpu time spent up to now is       79.2 secs

     total energy              =    -979.31683688 Ry
     estimated scf accuracy    <       0.04632209 Ry

     iteration #  8     ecut=    60.00 Ry     beta= 0.30
     Davidson diagonalization with overlap
     ethr =  6.09E-06,  avg # of iterations =  5.6

     negative rho (up, down):  4.702E-04 0.000E+00

     total cpu time spent up to now is       89.4 secs

     total energy              =    -979.31675993 Ry
     estimated scf accuracy    <       0.00819054 Ry

     iteration #  9     ecut=    60.00 Ry     beta= 0.30
     Davidson diagonalization with overlap
     ethr =  6.09E-06,  avg # of iterations =  5.4

     negative rho (up, down):  4.734E-04 0.000E+00

     total cpu time spent up to now is       99.1 secs

     total energy              =    -979.31822821 Ry
     estimated scf accuracy    <       0.00017034 Ry

     iteration # 10     ecut=    60.00 Ry     beta= 0.30
     Davidson diagonalization with overlap
     ethr =  3.28E-07,  avg # of iterations =  6.3

     negative rho (up, down):  4.746E-04 0.000E+00

     total cpu time spent up to now is      110.4 secs

     total energy              =    -979.31824991 Ry
     estimated scf accuracy    <       0.00041999 Ry

     iteration # 11     ecut=    60.00 Ry     beta= 0.30
     Davidson diagonalization with overlap
     ethr =  3.28E-07,  avg # of iterations =  4.2

     negative rho (up, down):  4.755E-04 0.000E+00

     total cpu time spent up to now is      119.0 secs

     total energy              =    -979.31828607 Ry
     estimated scf accuracy    <       0.00005899 Ry

     iteration # 12     ecut=    60.00 Ry     beta= 0.30
     Davidson diagonalization with overlap
     ethr =  1.13E-07,  avg # of iterations =  2.6

     negative rho (up, down):  4.764E-04 0.000E+00

     total cpu time spent up to now is      126.1 secs

     total energy              =    -979.31827971 Ry
     estimated scf accuracy    <       0.00003017 Ry

     iteration # 13     ecut=    60.00 Ry     beta= 0.30
     Davidson diagonalization with overlap
     ethr =  5.80E-08,  avg # of iterations =  7.3

     negative rho (up, down):  4.769E-04 0.000E+00

     total cpu time spent up to now is      136.7 secs

     total energy              =    -979.31829293 Ry
     estimated scf accuracy    <       0.00005518 Ry

     iteration # 14     ecut=    60.00 Ry     beta= 0.30
     Davidson diagonalization with overlap
     ethr =  5.80E-08,  avg # of iterations =  2.1

     negative rho (up, down):  4.774E-04 0.000E+00

     total cpu time spent up to now is      143.5 secs

     total energy              =    -979.31828836 Ry
     estimated scf accuracy    <       0.00003231 Ry

     iteration # 15     ecut=    60.00 Ry     beta= 0.30
     Davidson diagonalization with overlap
     ethr =  5.80E-08,  avg # of iterations =  5.0

     negative rho (up, down):  4.777E-04 0.000E+00

     total cpu time spent up to now is      151.4 secs

     total energy              =    -979.31829064 Ry
     estimated scf accuracy    <       0.00000908 Ry

     iteration # 16     ecut=    60.00 Ry     beta= 0.30
     Davidson diagonalization with overlap
     ethr =  1.75E-08,  avg # of iterations =  2.8

     negative rho (up, down):  4.779E-04 0.000E+00

     total cpu time spent up to now is      158.9 secs

     total energy              =    -979.31829116 Ry
     estimated scf accuracy    <       0.00000172 Ry

     iteration # 17     ecut=    60.00 Ry     beta= 0.30
     Davidson diagonalization with overlap
     c_bands:  1 eigenvalues not converged
     ethr =  3.31E-09,  avg # of iterations =  6.0

     negative rho (up, down):  4.780E-04 0.000E+00

     total cpu time spent up to now is      169.0 secs

     total energy              =    -979.31829190 Ry
     estimated scf accuracy    <       0.00000109 Ry

     iteration # 18     ecut=    60.00 Ry     beta= 0.30
     Davidson diagonalization with overlap
     ethr =  2.10E-09,  avg # of iterations =  1.3

     negative rho (up, down):  4.780E-04 0.000E+00

     total cpu time spent up to now is      175.3 secs

     total energy              =    -979.31829168 Ry
     estimated scf accuracy    <       0.00000140 Ry

     iteration # 19     ecut=    60.00 Ry     beta= 0.30
     Davidson diagonalization with overlap
     ethr =  2.10E-09,  avg # of iterations =  1.4

     negative rho (up, down):  4.781E-04 0.000E+00

     total cpu time spent up to now is      181.8 secs

     total energy              =    -979.31829160 Ry
     estimated scf accuracy    <       0.00000076 Ry

     iteration # 20     ecut=    60.00 Ry     beta= 0.30
     Davidson diagonalization with overlap
     ethr =  1.46E-09,  avg # of iterations =  2.3

     negative rho (up, down):  4.782E-04 0.000E+00

     total cpu time spent up to now is      188.7 secs

     total energy              =    -979.31829160 Ry
     estimated scf accuracy    <       0.00000028 Ry

     iteration # 21     ecut=    60.00 Ry     beta= 0.30
     Davidson diagonalization with overlap
     ethr =  5.36E-10,  avg # of iterations =  5.3

     negative rho (up, down):  4.782E-04 0.000E+00

     total cpu time spent up to now is      197.4 secs

     total energy              =    -979.31829169 Ry
     estimated scf accuracy    <       0.00000015 Ry

     iteration # 22     ecut=    60.00 Ry     beta= 0.30
     Davidson diagonalization with overlap
     ethr =  2.96E-10,  avg # of iterations =  4.1

     negative rho (up, down):  4.782E-04 0.000E+00

     total cpu time spent up to now is      205.6 secs

     total energy              =    -979.31829166 Ry
     estimated scf accuracy    <       0.00000046 Ry

     iteration # 23     ecut=    60.00 Ry     beta= 0.30
     Davidson diagonalization with overlap
     ethr =  2.96E-10,  avg # of iterations =  3.5

     negative rho (up, down):  4.782E-04 0.000E+00

     total cpu time spent up to now is      212.7 secs

     total energy              =    -979.31829161 Ry
     estimated scf accuracy    <       0.00000021 Ry

     iteration # 24     ecut=    60.00 Ry     beta= 0.30
     Davidson diagonalization with overlap
     ethr =  2.96E-10,  avg # of iterations =  5.9

     negative rho (up, down):  4.782E-04 0.000E+00

     total cpu time spent up to now is      222.4 secs

     total energy              =    -979.31829164 Ry
     estimated scf accuracy    <       0.00000023 Ry

     iteration # 25     ecut=    60.00 Ry     beta= 0.30
     Davidson diagonalization with overlap
     ethr =  2.96E-10,  avg # of iterations =  3.8

     negative rho (up, down):  4.783E-04 0.000E+00

     total cpu time spent up to now is      229.7 secs

     total energy              =    -979.31829165 Ry
     estimated scf accuracy    <       0.00000003 Ry

     iteration # 26     ecut=    60.00 Ry     beta= 0.30
     Davidson diagonalization with overlap
     c_bands:  1 eigenvalues not converged
     ethr =  6.64E-11,  avg # of iterations =  6.3

     negative rho (up, down):  4.783E-04 0.000E+00

     total cpu time spent up to now is      239.4 secs

     total energy              =    -979.31829165 Ry
     estimated scf accuracy    <       0.00000007 Ry

     iteration # 27     ecut=    60.00 Ry     beta= 0.30
     Davidson diagonalization with overlap
     ethr =  6.64E-11,  avg # of iterations =  6.0

     negative rho (up, down):  4.783E-04 0.000E+00

     total cpu time spent up to now is      248.7 secs

     total energy              =    -979.31829165 Ry
     estimated scf accuracy    <       0.00000004 Ry

     iteration # 28     ecut=    60.00 Ry     beta= 0.30
     Davidson diagonalization with overlap
     ethr =  6.64E-11,  avg # of iterations =  3.4

     negative rho (up, down):  4.783E-04 0.000E+00

     total cpu time spent up to now is      256.0 secs

     total energy              =    -979.31829165 Ry
     estimated scf accuracy    <          5.1E-09 Ry

     iteration # 29     ecut=    60.00 Ry     beta= 0.30
     Davidson diagonalization with overlap
     ethr =  9.78E-12,  avg # of iterations =  6.0

     negative rho (up, down):  4.783E-04 0.000E+00

     total cpu time spent up to now is      265.7 secs

     total energy              =    -979.31829166 Ry
     estimated scf accuracy    <          7.9E-09 Ry

     iteration # 30     ecut=    60.00 Ry     beta= 0.30
     Davidson diagonalization with overlap
     ethr =  9.78E-12,  avg # of iterations =  1.0

     negative rho (up, down):  4.783E-04 0.000E+00

     total cpu time spent up to now is      272.0 secs

     total energy              =    -979.31829166 Ry
     estimated scf accuracy    <          6.0E-09 Ry

     iteration # 31     ecut=    60.00 Ry     beta= 0.30
     Davidson diagonalization with overlap
     ethr =  9.78E-12,  avg # of iterations =  4.3

     negative rho (up, down):  4.783E-04 0.000E+00

     total cpu time spent up to now is      279.7 secs

     total energy              =    -979.31829166 Ry
     estimated scf accuracy    <          6.7E-11 Ry

     iteration # 32     ecut=    60.00 Ry     beta= 0.30
     Davidson diagonalization with overlap
     c_bands:  1 eigenvalues not converged
     ethr =  1.29E-13,  avg # of iterations = 10.9

     negative rho (up, down):  4.783E-04 0.000E+00

     total cpu time spent up to now is      293.4 secs

     total energy              =    -979.31829166 Ry
     estimated scf accuracy    <          2.1E-09 Ry

     iteration # 33     ecut=    60.00 Ry     beta= 0.30
     Davidson diagonalization with overlap
     c_bands:  1 eigenvalues not converged
     ethr =  1.29E-13,  avg # of iterations =  8.2

     negative rho (up, down):  4.783E-04 0.000E+00

     total cpu time spent up to now is      304.7 secs

     total energy              =    -979.31829166 Ry
     estimated scf accuracy    <          3.4E-10 Ry

     iteration # 34     ecut=    60.00 Ry     beta= 0.30
     Davidson diagonalization with overlap
     c_bands:  1 eigenvalues not converged
     ethr =  1.29E-13,  avg # of iterations =  8.1

     negative rho (up, down):  4.783E-04 0.000E+00

     total cpu time spent up to now is      316.0 secs

     total energy              =    -979.31829166 Ry
     estimated scf accuracy    <          6.3E-10 Ry

     iteration # 35     ecut=    60.00 Ry     beta= 0.30
     Davidson diagonalization with overlap
     c_bands:  1 eigenvalues not converged
     ethr =  1.29E-13,  avg # of iterations =  6.1

     negative rho (up, down):  4.783E-04 0.000E+00

     total cpu time spent up to now is      324.8 secs

     total energy              =    -979.31829166 Ry
     estimated scf accuracy    <          5.5E-11 Ry

     iteration # 36     ecut=    60.00 Ry     beta= 0.30
     Davidson diagonalization with overlap
     c_bands:  1 eigenvalues not converged
     ethr =  1.06E-13,  avg # of iterations =  5.0

     negative rho (up, down):  4.783E-04 0.000E+00

     total cpu time spent up to now is      332.6 secs

     total energy              =    -979.31829166 Ry
     estimated scf accuracy    <          9.1E-12 Ry

     iteration # 37     ecut=    60.00 Ry     beta= 0.30
     Davidson diagonalization with overlap
     c_bands:  1 eigenvalues not converged
     ethr =  1.00E-13,  avg # of iterations =  1.3

     negative rho (up, down):  4.783E-04 0.000E+00

     total cpu time spent up to now is      338.9 secs

     total energy              =    -979.31829166 Ry
     estimated scf accuracy    <          9.0E-12 Ry

     iteration # 38     ecut=    60.00 Ry     beta= 0.30
     Davidson diagonalization with overlap
     c_bands:  1 eigenvalues not converged
     ethr =  1.00E-13,  avg # of iterations =  2.4

     negative rho (up, down):  4.783E-04 0.000E+00

     total cpu time spent up to now is      345.6 secs

     total energy              =    -979.31829166 Ry
     estimated scf accuracy    <          1.5E-11 Ry

     iteration # 39     ecut=    60.00 Ry     beta= 0.30
     Davidson diagonalization with overlap
     c_bands:  1 eigenvalues not converged
     ethr =  1.00E-13,  avg # of iterations =  2.9

     negative rho (up, down):  4.783E-04 0.000E+00

     total cpu time spent up to now is      352.4 secs

     total energy              =    -979.31829166 Ry
     estimated scf accuracy    <          2.8E-11 Ry

     iteration # 40     ecut=    60.00 Ry     beta= 0.30
     Davidson diagonalization with overlap
     c_bands:  1 eigenvalues not converged
     ethr =  1.00E-13,  avg # of iterations =  1.3

     negative rho (up, down):  4.783E-04 0.000E+00

     total cpu time spent up to now is      358.6 secs

     total energy              =    -979.31829166 Ry
     estimated scf accuracy    <          2.8E-11 Ry

     iteration # 41     ecut=    60.00 Ry     beta= 0.30
     Davidson diagonalization with overlap
     ethr =  1.00E-13,  avg # of iterations =  1.4

     negative rho (up, down):  4.783E-04 0.000E+00

     total cpu time spent up to now is      365.0 secs

     total energy              =    -979.31829166 Ry
     estimated scf accuracy    <          9.8E-12 Ry

     iteration # 42     ecut=    60.00 Ry     beta= 0.30
     Davidson diagonalization with overlap
     ethr =  1.00E-13,  avg # of iterations =  1.0

     negative rho (up, down):  4.783E-04 0.000E+00

     total cpu time spent up to now is      371.2 secs

     total energy              =    -979.31829166 Ry
     estimated scf accuracy    <          8.6E-12 Ry

     iteration # 43     ecut=    60.00 Ry     beta= 0.30
     Davidson diagonalization with overlap
     c_bands:  1 eigenvalues not converged
     ethr =  1.00E-13,  avg # of iterations =  3.0

     negative rho (up, down):  4.783E-04 0.000E+00

     total cpu time spent up to now is      378.3 secs

     total energy              =    -979.31829166 Ry
     estimated scf accuracy    <          4.4E-12 Ry

     iteration # 44     ecut=    60.00 Ry     beta= 0.30
     Davidson diagonalization with overlap
     ethr =  1.00E-13,  avg # of iterations =  1.2

     negative rho (up, down):  4.783E-04 0.000E+00

     total cpu time spent up to now is      384.6 secs

     total energy              =    -979.31829166 Ry
     estimated scf accuracy    <          2.5E-12 Ry

     iteration # 45     ecut=    60.00 Ry     beta= 0.30
     Davidson diagonalization with overlap
     ethr =  1.00E-13,  avg # of iterations =  1.1

     negative rho (up, down):  4.783E-04 0.000E+00

     total cpu time spent up to now is      390.9 secs

     End of self-consistent calculation

          k = 0.0000 0.0000 0.0000 ( 11709 PWs)   bands (ev):

   -58.6061 -58.6061 -32.8419 -32.8335 -32.5725 -32.5723 -32.5717 -32.5715
   -16.0962 -11.9124 -11.5473  -9.7037  -4.8180  -2.6856  -1.8193  -1.8128
    -0.6496  -0.6406  -0.3271   0.1437   0.1489   0.2229   0.2255   1.3366
     1.8506   2.4727

          k = 0.0000 0.0985 0.0000 ( 11683 PWs)   bands (ev):

   -58.6030 -58.6029 -32.8355 -32.8274 -32.6024 -32.6020 -32.5793 -32.5791
   -15.9844 -11.8097 -11.4687  -9.6918  -4.7283  -2.7174  -2.3339  -1.9418
    -0.9358  -0.7207  -0.5114  -0.0705  -0.0563   0.2713   0.5662   1.3074
     1.7431   1.9105

          k = 0.0000 0.1970 0.0000 ( 11647 PWs)   bands (ev):

   -58.5945 -58.5944 -32.8181 -32.8107 -32.6854 -32.6848 -32.5981 -32.5978
   -15.6544 -11.5221 -11.2460  -9.6822  -4.5479  -3.7775  -2.4529  -2.3124
    -1.4431  -1.3026  -0.4022  -0.1770  -0.1105   0.0455   0.3717   1.3464
     1.3927   1.7446

          k = 0.0000 0.2954 0.0000 ( 11649 PWs)   bands (ev):

   -58.5829 -58.5828 -32.7987 -32.7966 -32.7924 -32.7876 -32.6235 -32.6232
   -15.1239 -11.1124 -10.9196  -9.7642  -5.1264  -4.4311  -2.7817  -2.5307
    -1.9825  -1.6674  -0.5961  -0.3645  -0.0823  -0.0608   0.4090   0.8198
     1.1247   1.7247

          k = 0.0000 0.3939 0.0000 ( 11567 PWs)   bands (ev):

   -58.5711 -58.5711 -32.9069 -32.9057 -32.7701 -32.7649 -32.6488 -32.6485
   -14.4305 -10.7134 -10.5605 -10.0609  -6.0208  -4.6724  -3.1905  -2.9054
    -2.5032  -1.7230  -0.7068  -0.6958  -0.4085  -0.0225   0.5339   0.8923
     0.9933   1.5988

          k = 0.0000 0.4924 0.0000 ( 11578 PWs)   bands (ev):

   -58.5627 -58.5626 -32.9862 -32.9847 -32.7525 -32.7480 -32.6673 -32.6670
   -13.6742 -10.8884 -10.2542 -10.1774  -6.3803  -5.0221  -3.4576  -3.2975
    -2.8674  -1.9077  -0.9372  -0.8632  -0.5319  -0.0387   0.5955   1.0647
     1.4519   1.4587

          k =-0.0000-0.5909 0.0000 ( 11612 PWs)   bands (ev):

   -58.5596 -58.5596 -33.0149 -33.0134 -32.7460 -32.7418 -32.6740 -32.6737
   -13.2403 -11.2763 -10.1261 -10.0897  -6.4262  -5.1977  -3.5496  -3.4568
    -3.0019  -2.0259  -1.0175  -0.9454  -0.5781  -0.0537   0.6598   1.3258
     1.3385   1.6365

          k = 0.0853 0.0492 0.0000 ( 11681 PWs)   bands (ev):

   -58.6030 -58.6029 -32.8355 -32.8274 -32.6029 -32.6025 -32.5789 -32.5787
   -15.9843 -11.8096 -11.4686  -9.6917  -4.7282  -2.7161  -2.3318  -1.9454
    -0.9333  -0.7182  -0.5159  -0.0668  -0.0594   0.2699   0.5653   1.3078
     1.7433   1.9104

          k = 0.0854 0.1477 0.0000 ( 11651 PWs)   bands (ev):

   -58.5972 -58.5970 -32.8236 -32.8160 -32.6576 -32.6571 -32.5938 -32.5935
   -15.7634 -11.6143 -11.3178  -9.6804  -4.5888  -3.3599  -2.4526  -2.3696
    -1.1297  -1.0945  -0.7034  -0.2239  -0.0532   0.1885   0.6736   1.1766
     1.5362   1.6589

          k = 0.0854 0.2462 0.0000 ( 11630 PWs)   bands (ev):

   -58.5871 -58.5870 -32.8030 -32.7963 -32.7507 -32.7500 -32.6200 -32.6197
   -15.3325 -11.2641 -11.0418  -9.7120  -4.5968  -4.4040  -2.9102  -2.4343
    -1.7206  -1.4141  -0.9691  -0.3468  -0.0436   0.2136   0.5079   1.1398
     1.2512   1.3612

          k = 0.0854 0.3447 0.0000 ( 11615 PWs)   bands (ev):

   -58.5755 -58.5754 -32.8568 -32.8557 -32.7788 -32.7733 -32.6502 -32.6498
   -14.7169 -10.8458 -10.6942  -9.9041  -5.6039  -4.5738  -3.3461  -2.6751
    -2.2881  -1.6104  -1.0382  -0.7160  -0.0898   0.1387   0.5252   0.8551
     1.0768   1.4716

          k = 0.0854 0.4431 0.0000 ( 11610 PWs)   bands (ev):

   -58.5654 -58.5654 -32.9471 -32.9458 -32.7581 -32.7534 -32.6762 -32.6758
   -13.9734 -10.6539 -10.3568 -10.2044  -6.2019  -4.8661  -3.7762  -3.0077
    -2.7407  -1.7346  -1.1876  -0.8408  -0.2996  -0.1091   0.6129   0.8711
     1.3499   1.5807

          k = 0.0854 0.5416 0.0000 ( 11605 PWs)   bands (ev):

   -58.5596 -58.5595 -32.9988 -32.9973 -32.7460 -32.7418 -32.6911 -32.6907
   -13.2906 -11.1631 -10.1273 -10.0924  -6.3693  -5.1040  -4.0758  -3.1649
    -3.0400  -1.8995  -1.3740  -0.7743  -0.5206  -0.2841   0.8586   1.0423
     1.5801   1.6354

          k = 0.0853-0.5417 0.0000 ( 11609 PWs)   bands (ev):

   -58.5596 -58.5595 -32.9989 -32.9974 -32.7460 -32.7418 -32.6911 -32.6907
   -13.2903 -11.1633 -10.1272 -10.0923  -6.3693  -5.1045  -4.0752  -3.1650
    -3.0404  -1.8996  -1.3738  -0.7749  -0.5195  -0.2845   0.8587   1.0424
     1.5801   1.6346

          k = 0.0853-0.4432 0.0000 ( 11610 PWs)   bands (ev):

   -58.5654 -58.5653 -32.9474 -32.9460 -32.7581 -32.7533 -32.6761 -32.6757
   -13.9729 -10.6539 -10.3565 -10.2044  -6.2022  -4.8671  -3.7746  -3.0080
    -2.7413  -1.7346  -1.1872  -0.8410  -0.2990  -0.1094   0.6135   0.8707
     1.3489   1.5803

          k = 0.0853-0.3447 0.0000 ( 11617 PWs)   bands (ev):

   -58.5755 -58.5754 -32.8572 -32.8560 -32.7788 -32.7732 -32.6500 -32.6496
   -14.7165 -10.8455 -10.6939  -9.9040  -5.6046  -4.5745  -3.3444  -2.6753
    -2.2886  -1.6104  -1.0376  -0.7159  -0.0903   0.1387   0.5260   0.8542
     1.0754   1.4717

          k = 0.0853-0.2462 0.0000 ( 11624 PWs)   bands (ev):

   -58.5871 -58.5869 -32.8030 -32.7963 -32.7511 -32.7504 -32.6197 -32.6194
   -15.3322 -11.2638 -11.0415  -9.7119  -4.5972  -4.4044  -2.9092  -2.4342
    -1.7205  -1.4137  -0.9682  -0.3470  -0.0445   0.2133   0.5068   1.1393
     1.2511   1.3612

          k = 0.0853-0.1477 0.0000 ( 11651 PWs)   bands (ev):

   -58.5972 -58.5970 -32.8236 -32.8160 -32.6580 -32.6575 -32.5935 -32.5932
   -15.7631 -11.6141 -11.3177  -9.6802  -4.5887  -3.3593  -2.4524  -2.3701
    -1.1285  -1.0933  -0.7032  -0.2261  -0.0542   0.1883   0.6726   1.1765
     1.5362   1.6587

          k = 0.0853-0.0493 0.0000 ( 11677 PWs)   bands (ev):

   -58.6030 -58.6028 -32.8355 -32.8274 -32.6031 -32.6028 -32.5787 -32.5785
   -15.9842 -11.8095 -11.4685  -9.6917  -4.7282  -2.7153  -2.3307  -1.9475
    -0.9318  -0.7165  -0.5188  -0.0644  -0.0616   0.2689   0.5650   1.3079
     1.7434   1.9104

          k = 0.1707 0.0984 0.0000 ( 11653 PWs)   bands (ev):

   -58.5945 -58.5944 -32.8180 -32.8107 -32.6860 -32.6854 -32.5977 -32.5975
   -15.6539 -11.5217 -11.2456  -9.6818  -4.5477  -3.7744  -2.4525  -2.3166
    -1.4421  -1.2995  -0.3990  -0.1807  -0.1149   0.0432   0.3712   1.3455
     1.3941   1.7437

          k = 0.1707 0.1969 0.0000 ( 11626 PWs)   bands (ev):

   -58.5871 -58.5869 -32.8030 -32.7962 -32.7510 -32.7503 -32.6199 -32.6196
   -15.3322 -11.2637 -11.0415  -9.7117  -4.5962  -4.4024  -2.9133  -2.4338
    -1.7194  -1.4132  -0.9692  -0.3485  -0.0451   0.2126   0.5080   1.1386
     1.2521   1.3607

          k = 0.1707 0.2954 0.0000 ( 11599 PWs)   bands (ev):

   -58.5770 -58.5769 -32.8313 -32.8301 -32.7820 -32.7763 -32.6582 -32.6578
   -14.8139 -10.8987 -10.7403  -9.8477  -5.2499  -4.6664  -3.5368  -2.5764
    -2.1880  -1.5008  -1.2187  -0.8998  -0.0214   0.2330   0.7964   0.8634
     1.1707   1.2062

          k = 0.1707 0.3939 0.0000 ( 11599 PWs)   bands (ev):

   -58.5669 -58.5669 -32.9063 -32.9051 -32.7613 -32.7564 -32.7003 -32.6998
   -14.1337 -10.5730 -10.4066 -10.1540  -5.8322  -5.0256  -4.0059  -2.8942
    -2.6384  -1.5926  -1.3227  -1.0894  -0.2353   0.0720   0.4168   0.8044
     1.3967   1.5977

          k = 0.1707 0.4924 0.0000 ( 11614 PWs)   bands (ev):

   -58.5596 -58.5595 -32.9595 -32.9582 -32.7461 -32.7419 -32.7323 -32.7318
   -13.3798 -10.9377 -10.1288 -10.1023  -6.1585  -5.1657  -4.5246  -3.1382
    -2.9167  -1.7221  -1.4164  -1.2853  -0.5216   0.0703   0.3760   0.8367
     1.6379   1.9127

          k = 0.1707 0.5908 0.0000 ( 11610 PWs)   bands (ev):

   -58.5569 -58.5568 -32.9788 -32.9775 -32.7443 -32.7437 -32.7403 -32.7364
   -12.9238 -11.3544 -10.0146 -10.0026  -6.2542  -5.0443  -4.8937  -3.2508
    -2.9656  -1.7343  -1.6816  -1.2088  -0.7213   0.0991   0.5322   0.7899
     1.7848   2.0506

          k = 0.1707-0.4925 0.0000 ( 11612 PWs)   bands (ev):

   -58.5596 -58.5595 -32.9599 -32.9586 -32.7460 -32.7418 -32.7321 -32.7316
   -13.3788 -10.9384 -10.1284 -10.1020  -6.1587  -5.1675  -4.5224  -3.1386
    -2.9174  -1.7222  -1.4163  -1.2852  -0.5209   0.0691   0.3768   0.8372
     1.6369   1.9114

          k = 0.1707-0.3940 0.0000 ( 11593 PWs)   bands (ev):

   -58.5669 -58.5668 -32.9070 -32.9058 -32.7612 -32.7564 -32.6999 -32.6995
   -14.1327 -10.5726 -10.4061 -10.1540  -5.8332  -5.0269  -4.0036  -2.8948
    -2.6391  -1.5926  -1.3230  -1.0888  -0.2344   0.0706   0.4174   0.8047
     1.3955   1.5962

          k = 0.1707-0.2955 0.0000 ( 11601 PWs)   bands (ev):

   -58.5770 -58.5768 -32.8320 -32.8308 -32.7819 -32.7762 -32.6578 -32.6574
   -14.8131 -10.8981 -10.7398  -9.8475  -5.2508  -4.6672  -3.5353  -2.5765
    -2.1881  -1.5009  -1.2176  -0.9002  -0.0223   0.2323   0.7968   0.8639
     1.1684   1.2054

          k = 0.1707-0.1970 0.0000 ( 11624 PWs)   bands (ev):

   -58.5871 -58.5869 -32.8029 -32.7962 -32.7516 -32.7508 -32.6196 -32.6193
   -15.3316 -11.2633 -11.0411  -9.7113  -4.5963  -4.4018  -2.9142  -2.4335
    -1.7185  -1.4122  -0.9684  -0.3497  -0.0469   0.2116   0.5069   1.1374
     1.2526   1.3603

          k = 0.1707-0.0985 0.0000 ( 11651 PWs)   bands (ev):

   -58.5944 -58.5943 -32.8180 -32.8107 -32.6863 -32.6857 -32.5975 -32.5973
   -15.6536 -11.5214 -11.2454  -9.6816  -4.5476  -3.7726  -2.4523  -2.3191
    -1.4413  -1.2976  -0.3970  -0.1830  -0.1176   0.0416   0.3710   1.3449
     1.3950   1.7432

          k = 0.1707-0.0001 0.0000 ( 11645 PWs)   bands (ev):

   -58.5972 -58.5970 -32.8235 -32.8160 -32.6587 -32.6582 -32.5929 -32.5927
   -15.7628 -11.6138 -11.3174  -9.6799  -4.5884  -3.3580  -2.4523  -2.3714
    -1.1265  -1.0914  -0.7027  -0.2296  -0.0556   0.1881   0.6706   1.1767
     1.5362   1.6583

          k = 0.2560 0.1476 0.0000 ( 11645 PWs)   bands (ev):

   -58.5828 -58.5827 -32.7990 -32.7970 -32.7929 -32.7877 -32.6232 -32.6230
   -15.1229 -11.1115 -10.9188  -9.7633  -5.1251  -4.4299  -2.7867  -2.5299
    -1.9807  -1.6654  -0.5937  -0.3678  -0.0827  -0.0650   0.4052   0.8194
     1.1260   1.7221

          k = 0.2561 0.2461 0.0000 ( 11615 PWs)   bands (ev):

   -58.5754 -58.5753 -32.8573 -32.8562 -32.7788 -32.7732 -32.6501 -32.6497
   -14.7159 -10.8450 -10.6935  -9.9032  -5.6027  -4.5731  -3.3509  -2.6743
    -2.2866  -1.6088  -1.0383  -0.7180  -0.0906   0.1364   0.5233   0.8559
     1.0774   1.4683

          k = 0.2561 0.3446 0.0000 ( 11595 PWs)   bands (ev):

   -58.5669 -58.5668 -32.9066 -32.9054 -32.7613 -32.7564 -32.7002 -32.6998
   -14.1330 -10.5724 -10.4061 -10.1536  -5.8317  -5.0262  -4.0076  -2.8936
    -2.6379  -1.5921  -1.3243  -1.0880  -0.2376   0.0717   0.4169   0.8046
     1.3968   1.5957

          k = 0.2561 0.4431 0.0000 ( 11581 PWs)   bands (ev):

   -58.5595 -58.5594 -32.9334 -32.9322 -32.7597 -32.7591 -32.7459 -32.7417
   -13.4194 -10.8225 -10.1276 -10.1119  -5.7926  -5.6604  -4.4982  -3.0836
    -2.9175  -1.6552  -1.6507  -0.8852  -0.8748   0.0452   0.2603   0.7714
     1.7302   1.8619

          k = 0.2561 0.5416 0.0000 ( 11590 PWs)   bands (ev):

   -58.5553 -58.5551 -32.9388 -32.9377 -32.8039 -32.8032 -32.7372 -32.7333
   -12.7060 -11.4214  -9.9493  -9.9462  -6.0944  -5.5124  -4.9728  -3.1768
    -2.9192  -1.9712  -1.6756  -1.2991  -0.8093   0.1211   0.2911   0.5924
     2.0130   2.1628

          k = 0.2561 0.6401 0.0000 ( 11588 PWs)   bands (ev):

   -58.5553 -58.5551 -32.9392 -32.9381 -32.8036 -32.8029 -32.7372 -32.7333
   -12.7048 -11.4224  -9.9490  -9.9459  -6.0947  -5.5133  -4.9717  -3.1771
    -2.9197  -1.9708  -1.6757  -1.2993  -0.8090   0.1209   0.2905   0.5934
     2.0124   2.1619

          k = 0.2560-0.4432 0.0000 ( 11585 PWs)   bands (ev):

   -58.5595 -58.5594 -32.9342 -32.9330 -32.7591 -32.7585 -32.7460 -32.7417
   -13.4177 -10.8232 -10.1270 -10.1113  -5.7935  -5.6616  -4.4966  -3.0843
    -2.9181  -1.6560  -1.6503  -0.8852  -0.8739   0.0436   0.2611   0.7724
     1.7291   1.8598

          k = 0.2560-0.3448 0.0000 ( 11597 PWs)   bands (ev):

   -58.5668 -58.5668 -32.9075 -32.9063 -32.7612 -32.7563 -32.6998 -32.6994
   -14.1316 -10.5717 -10.4053 -10.1533  -5.8324  -5.0277  -4.0063  -2.8938
    -2.6383  -1.5919  -1.3255  -1.0866  -0.2380   0.0701   0.4177   0.8051
     1.3957   1.5931

          k = 0.2560-0.2463 0.0000 ( 11615 PWs)   bands (ev):

   -58.5754 -58.5753 -32.8580 -32.8568 -32.7787 -32.7731 -32.6498 -32.6495
   -14.7148 -10.8442 -10.6927  -9.9027  -5.6028  -4.5734  -3.3520  -2.6741
    -2.2861  -1.6079  -1.0379  -0.7191  -0.0916   0.1351   0.5230   0.8555
     1.0764   1.4664

          k = 0.2560-0.1478 0.0000 ( 11641 PWs)   bands (ev):

   -58.5828 -58.5827 -32.7995 -32.7976 -32.7928 -32.7875 -32.6232 -32.6229
   -15.1222 -11.1109 -10.9183  -9.7627  -5.1245  -4.4292  -2.7897  -2.5294
    -1.9796  -1.6641  -0.5923  -0.3699  -0.0827  -0.0676   0.4029   0.8192
     1.1269   1.7204

          k = 0.2560-0.0493 0.0000 ( 11624 PWs)   bands (ev):

   -58.5871 -58.5869 -32.8029 -32.7961 -32.7523 -32.7516 -32.6191 -32.6188
   -15.3311 -11.2628 -11.0406  -9.7110  -4.5968  -4.4024  -2.9128  -2.4333
    -1.7182  -1.4114  -0.9669  -0.3500  -0.0485   0.2110   0.5051   1.1366
     1.2524   1.3603

          k = 0.2560 0.0492 0.0000 ( 11626 PWs)   bands (ev):

   -58.5871 -58.5869 -32.8029 -32.7962 -32.7522 -32.7514 -32.6191 -32.6188
   -15.3313 -11.2630 -11.0408  -9.7112  -4.5971  -4.4034  -2.9110  -2.4336
    -1.7190  -1.4120  -0.9668  -0.3490  -0.0476   0.2116   0.5050   1.1373
     1.2519   1.3606

          k = 0.3414 0.1969 0.0000 ( 11563 PWs)   bands (ev):

   -58.5711 -58.5710 -32.9079 -32.9066 -32.7700 -32.7647 -32.6487 -32.6483
   -14.4286 -10.7119 -10.5591 -10.0597  -6.0205  -4.6716  -3.1962  -2.9049
    -2.5016  -1.7207  -0.7108  -0.6937  -0.4090  -0.0272   0.5331   0.8937
     0.9898   1.5952

          k = 0.3414 0.2953 0.0000 ( 11614 PWs)   bands (ev):

   -58.5653 -58.5653 -32.9479 -32.9466 -32.7580 -32.7533 -32.6761 -32.6757
   -13.9714 -10.6525 -10.3555 -10.2034  -6.2018  -4.8652  -3.7813  -3.0072
    -2.7396  -1.7330  -1.1886  -0.8423  -0.3018  -0.1111   0.6122   0.8723
     1.3488   1.5761

          k = 0.3414 0.3938 0.0000 ( 11614 PWs)   bands (ev):

   -58.5595 -58.5595 -32.9602 -32.9589 -32.7461 -32.7419 -32.7320 -32.7315
   -13.3778 -10.9373 -10.1278 -10.1014  -6.1590  -5.1656  -4.5270  -3.1376
    -2.9161  -1.7220  -1.4160  -1.2874  -0.5237   0.0700   0.3759   0.8370
     1.6376   1.9101

          k = 0.3414 0.4923 0.0000 ( 11592 PWs)   bands (ev):

   -58.5553 -58.5551 -32.9394 -32.9383 -32.8035 -32.8028 -32.7371 -32.7333
   -12.7041 -11.4222  -9.9488  -9.9456  -6.0956  -5.5121  -4.9732  -3.1767
    -2.9187  -1.9713  -1.6768  -1.2991  -0.8103   0.1211   0.2919   0.5919
     2.0124   2.1627

          k = 0.3414 0.5908 0.0000 ( 11591 PWs)   bands (ev):

   -58.5537 -58.5535 -32.9064 -32.9063 -32.8544 -32.8543 -32.7339 -32.7302
   -12.0294 -12.0235  -9.8801  -9.8801  -6.1857  -5.3438  -5.3428  -2.9568
    -2.9562  -2.3183  -1.7792  -1.0696  -1.0690   0.2428   0.2437   0.3961
     2.2847   2.2862

          k = 0.3414 0.6893 0.0000 ( 11592 PWs)   bands (ev):

   -58.5552 -58.5551 -32.9402 -32.9390 -32.8030 -32.8023 -32.7371 -32.7332
   -12.7016 -11.4239  -9.9482  -9.9451  -6.0966  -5.5128  -4.9725  -3.1769
    -2.9189  -1.9710  -1.6777  -1.2993  -0.8107   0.1211   0.2917   0.5925
     2.0114   2.1616

          k = 0.3414-0.3940 0.0000 ( 11616 PWs)   bands (ev):

   -58.5595 -58.5594 -32.9610 -32.9597 -32.7459 -32.7417 -32.7318 -32.7313
   -13.3755 -10.9379 -10.1268 -10.1006  -6.1596  -5.1674  -4.5264  -3.1377
    -2.9164  -1.7220  -1.4157  -1.2886  -0.5242   0.0686   0.3767   0.8378
     1.6365   1.9072

          k = 0.3414-0.2956 0.0000 ( 11612 PWs)   bands (ev):

   -58.5653 -58.5652 -32.9486 -32.9472 -32.7579 -32.7531 -32.6760 -32.6756
   -13.9696 -10.6518 -10.3545 -10.2027  -6.2021  -4.8656  -3.7828  -3.0073
    -2.7395  -1.7320  -1.1889  -0.8434  -0.3025  -0.1125   0.6125   0.8726
     1.3471   1.5730

          k = 0.3414-0.1971 0.0000 ( 11565 PWs)   bands (ev):

   -58.5710 -58.5709 -32.9084 -32.9071 -32.7699 -32.7646 -32.6486 -32.6483
   -14.4273 -10.7110 -10.5583 -10.0591  -6.0203  -4.6712  -3.1997  -2.9045
    -2.5006  -1.7194  -0.7134  -0.6925  -0.4092  -0.0300   0.5328   0.8946
     0.9876   1.5930

          k = 0.3414-0.0986 0.0000 ( 11615 PWs)   bands (ev):

   -58.5754 -58.5753 -32.8586 -32.8575 -32.7787 -32.7731 -32.6494 -32.6491
   -14.7141 -10.8437 -10.6923  -9.9026  -5.6039  -4.5744  -3.3493  -2.6745
    -2.2868  -1.6078  -1.0368  -0.7190  -0.0924   0.1350   0.5245   0.8539
     1.0740   1.4666

          k = 0.3414-0.0001 0.0000 ( 11606 PWs)   bands (ev):

   -58.5769 -58.5768 -32.8332 -32.8320 -32.7819 -32.7762 -32.6571 -32.6567
   -14.8118 -10.8971 -10.7389  -9.8470  -5.2522  -4.6684  -3.5331  -2.5766
    -2.1883  -1.5008  -1.2156  -0.9008  -0.0238   0.2310   0.7973   0.8649
     1.1643   1.2042

          k = 0.3414 0.0984 0.0000 ( 11621 PWs)   bands (ev):

   -58.5754 -58.5753 -32.8584 -32.8572 -32.7787 -32.7732 -32.6495 -32.6491
   -14.7148 -10.8442 -10.6927  -9.9031  -5.6045  -4.5748  -3.3464  -2.6749
    -2.2877  -1.6087  -1.0367  -0.7178  -0.0919   0.1363   0.5256   0.8534
     1.0737   1.4686

          k = 0.4267 0.2461 0.0000 ( 11584 PWs)   bands (ev):

   -58.5626 -58.5625 -32.9872 -32.9858 -32.7523 -32.7478 -32.6672 -32.6668
   -13.6709 -10.8874 -10.2524 -10.1759  -6.3808  -5.0213  -3.4637  -3.2971
    -2.8665  -1.9058  -0.9418  -0.8611  -0.5328  -0.0438   0.5944   1.0665
     1.4487   1.4552

          k = 0.4268 0.3446 0.0000 ( 11609 PWs)   bands (ev):

   -58.5595 -58.5594 -32.9998 -32.9983 -32.7459 -32.7417 -32.6910 -32.6906
   -13.2868 -11.1630 -10.1256 -10.0908  -6.3700  -5.1029  -4.0805  -3.1651
    -3.0394  -1.8983  -1.3755  -0.7745  -0.5253  -0.2857   0.8596   1.0433
     1.5748   1.6334

          k = 0.4268 0.4430 0.0000 ( 11612 PWs)   bands (ev):

   -58.5568 -58.5567 -32.9799 -32.9785 -32.7441 -32.7437 -32.7398 -32.7361
   -12.9195 -11.3558 -10.0131 -10.0012  -6.2555  -5.0439  -4.8961  -3.2506
    -2.9652  -1.7349  -1.6808  -1.2124  -0.7219   0.0976   0.5327   0.7909
     1.7841   2.0468

          k = 0.4268 0.5415 0.0000 ( 11590 PWs)   bands (ev):

   -58.5552 -58.5551 -32.9405 -32.9394 -32.8027 -32.8020 -32.7371 -32.7332
   -12.7009 -11.4246  -9.9481  -9.9450  -6.0964  -5.5144  -4.9704  -3.1775
    -2.9200  -1.9704  -1.6772  -1.2996  -0.8096   0.1207   0.2901   0.5947
     2.0108   2.1602

          k = 0.4268 0.6400 0.0000 ( 11592 PWs)   bands (ev):

   -58.5552 -58.5551 -32.9408 -32.9397 -32.8026 -32.8018 -32.7371 -32.7332
   -12.6996 -11.4253  -9.9478  -9.9446  -6.0971  -5.5142  -4.9707  -3.1774
    -2.9196  -1.9704  -1.6779  -1.2997  -0.8102   0.1208   0.2905   0.5944
     2.0105   2.1601

          k = 0.4268 0.7385 0.0000 ( 11610 PWs)   bands (ev):

   -58.5568 -58.5566 -32.9805 -32.9791 -32.7438 -32.7433 -32.7399 -32.7361
   -12.9167 -11.3569 -10.0123 -10.0004  -6.2562  -5.0436  -4.8977  -3.2506
    -2.9649  -1.7352  -1.6804  -1.2147  -0.7222   0.0966   0.5331   0.7916
     1.7836   2.0445

          k = 0.4267-0.3448 0.0000 ( 11611 PWs)   bands (ev):

   -58.5594 -58.5594 -33.0004 -32.9990 -32.7458 -32.7416 -32.6909 -32.6905
   -13.2840 -11.1635 -10.1244 -10.0897  -6.3704  -5.1028  -4.0827  -3.1653
    -3.0393  -1.8976  -1.3763  -0.7752  -0.5271  -0.2871   0.8604   1.0439
     1.5717   1.6313

          k = 0.4267-0.2463 0.0000 ( 11586 PWs)   bands (ev):

   -58.5625 -58.5624 -32.9878 -32.9863 -32.7522 -32.7477 -32.6672 -32.6668
   -13.6688 -10.8871 -10.2513 -10.1749  -6.3810  -5.0209  -3.4674  -3.2968
    -2.8659  -1.9048  -0.9447  -0.8599  -0.5332  -0.0470   0.5937   1.0676
     1.4470   1.4528

          k = 0.4267-0.1479 0.0000 ( 11614 PWs)   bands (ev):

   -58.5652 -58.5652 -32.9490 -32.9477 -32.7578 -32.7531 -32.6757 -32.6753
   -13.9688 -10.6519 -10.3541 -10.2026  -6.2026  -4.8671  -3.7803  -3.0079
    -2.7404  -1.7320  -1.1883  -0.8439  -0.3014  -0.1130   0.6136   0.8717
     1.3454   1.5723

          k = 0.4267-0.0494 0.0000 ( 11593 PWs)   bands (ev):

   -58.5668 -58.5667 -32.9086 -32.9074 -32.7611 -32.7562 -32.6991 -32.6987
   -14.1300 -10.5711 -10.4045 -10.1533  -5.8339  -5.0297  -4.0027  -2.8948
    -2.6394  -1.5919  -1.3260  -1.0855  -0.2365   0.0676   0.4186   0.8057
     1.3938   1.5906

          k = 0.4267 0.0491 0.0000 ( 11599 PWs)   bands (ev):

   -58.5668 -58.5668 -32.9084 -32.9072 -32.7611 -32.7563 -32.6991 -32.6987
   -14.1305 -10.5715 -10.4048 -10.1535  -5.8343  -5.0294  -4.0017  -2.8952
    -2.6397  -1.5921  -1.3251  -1.0863  -0.2351   0.0678   0.4185   0.8056
     1.3937   1.5918

          k = 0.4267 0.1476 0.0000 ( 11612 PWs)   bands (ev):

   -58.5653 -58.5652 -32.9486 -32.9473 -32.7579 -32.7532 -32.6757 -32.6753
   -13.9701 -10.6526 -10.3549 -10.2032  -6.2026  -4.8676  -3.7772  -3.0081
    -2.7411  -1.7330  -1.1876  -0.8430  -0.3000  -0.1118   0.6139   0.8710
     1.3461   1.5751

          k =-0.5121-0.2953 0.0000 ( 11612 PWs)   bands (ev):

   -58.5595 -58.5594 -33.0160 -33.0145 -32.7459 -32.7417 -32.6739 -32.6736
   -13.2357 -11.2766 -10.1241 -10.0879  -6.4269  -5.1967  -3.5559  -3.4565
    -3.0012  -2.0245  -1.0222  -0.9434  -0.5791  -0.0590   0.6582   1.3226
     1.3416   1.6326

          k =-0.5121-0.1968 0.0000 ( 11611 PWs)   bands (ev):

   -58.5595 -58.5594 -33.0000 -32.9986 -32.7459 -32.7417 -32.6908 -32.6904
   -13.2860 -11.1636 -10.1253 -10.0906  -6.3701  -5.1042  -4.0788  -3.1653
    -3.0402  -1.8983  -1.3750  -0.7763  -0.5223  -0.2868   0.8600   1.0433
     1.5752   1.6309

          k =-0.5121-0.0983 0.0000 ( 11614 PWs)   bands (ev):

   -58.5595 -58.5594 -32.9613 -32.9599 -32.7460 -32.7418 -32.7313 -32.7309
   -13.3753 -10.9389 -10.1269 -10.1006  -6.1598  -5.1703  -4.5215  -3.1387
    -2.9180  -1.7221  -1.4158  -1.2871  -0.5219   0.0667   0.3780   0.8386
     1.6351   1.9066

          k =-0.5121 0.0002 0.0000 ( 11583 PWs)   bands (ev):

   -58.5594 -58.5593 -32.9356 -32.9344 -32.7583 -32.7577 -32.7457 -32.7416
   -13.4152 -10.8241 -10.1259 -10.1103  -5.7949  -5.6635  -4.4942  -3.0855
    -2.9191  -1.6570  -1.6499  -0.8849  -0.8729   0.0408   0.2622   0.7741
     1.7274   1.8564

          k =-0.5121 0.0986 0.0000 ( 11614 PWs)   bands (ev):

   -58.5594 -58.5594 -32.9616 -32.9603 -32.7459 -32.7417 -32.7313 -32.7308
   -13.3740 -10.9388 -10.1263 -10.1000  -6.1601  -5.1702  -4.5230  -3.1383
    -2.9176  -1.7220  -1.4157  -1.2883  -0.5231   0.0665   0.3780   0.8389
     1.6349   1.9050

          k =-0.5121 0.1971 0.0000 ( 11613 PWs)   bands (ev):

   -58.5594 -58.5594 -33.0006 -32.9991 -32.7458 -32.7416 -32.6908 -32.6904
   -13.2835 -11.1639 -10.1243 -10.0896  -6.3705  -5.1036  -4.0816  -3.1654
    -3.0398  -1.8977  -1.3760  -0.7763  -0.5252  -0.2878   0.8607   1.0439
     1.5721   1.6297

          k =-0.5121-0.8862 0.0000 ( 11612 PWs)   bands (ev):

   -58.5594 -58.5594 -33.0166 -33.0151 -32.7457 -32.7415 -32.6740 -32.6736
   -13.2326 -11.2772 -10.1229 -10.0867  -6.4273  -5.1962  -3.5597  -3.4562
    -3.0008  -2.0237  -1.0252  -0.9421  -0.5796  -0.0622   0.6572   1.3207
     1.3436   1.6301

     highest occupied level (ev):     2.4727

!    total energy              =    -979.31829166 Ry

     total all-electron energy =    -19376.233982 Ry
     estimated scf accuracy    <          3.4E-13 Ry

     The total energy is the sum of the following terms:
     one-electron contribution =   -3982.91082054 Ry
     hartree contribution      =    2001.94295714 Ry
     xc contribution           =     -59.57649771 Ry
     ewald contribution        =    1687.00868269 Ry
     one-center paw contrib.   =    -625.78261323 Ry

     convergence has been achieved in  45 iterations

     negative rho (up, down):  4.783E-04 0.000E+00

     Forces acting on atoms (cartesian axes, Ry/au):

     atom    1 type  1   force =    -0.00002631    0.00004690   -0.04218537
     atom    2 type  2   force =     0.00032187   -0.00080336   -0.20313094
     atom    3 type  2   force =    -0.00007342    0.00020645   -0.00510735
     atom    4 type  1   force =     0.00002663   -0.00004710    0.04215893
     atom    5 type  2   force =     0.00007330   -0.00020632    0.00512047
     atom    6 type  2   force =    -0.00032208    0.00080342    0.20314426

     Total force =     0.293497     Total SCF correction =     0.000004


     Computing stress (Cartesian axis) and pressure


     negative rho (up, down):  4.783E-04 0.000E+00
          total   stress  (Ry/bohr**3)                   (kbar)     P=       55.26
   0.00024834  -0.00000001   0.00000030           36.53       -0.00        0.04
  -0.00000001   0.00024845  -0.00000088           -0.00       36.55       -0.13
   0.00000030  -0.00000088   0.00063018            0.04       -0.13       92.70


     BFGS Geometry Optimization
     Energy error            =      0.0E+00 Ry
     Gradient error          =      2.0E-01 Ry/Bohr
     Cell gradient error     =      3.7E+01 kbar

     number of scf cycles    =   1
     number of bfgs steps    =   0

     enthalpy           new  =    -979.3182916566 Ry

     new trust radius        =       0.2031461068 bohr
     new conv_thr            =            1.0E-12 Ry

     new unit-cell volume =   1498.11352 a.u.^3 (   221.99752 Ang^3 )
     density =      2.39464 g/cm^3

CELL_PARAMETERS (alat=  6.07200000)
   0.982445693  -0.000017717   0.000000000
  -0.490960761   0.851442672   0.000000000
   0.000000000   0.000000000   8.000000000

ATOMIC_POSITIONS (crystal)
Mo            0.0000000000        0.0000000000        0.1221940248    0   0   1
S             0.6666313454        0.3331380410        0.1795874788
S             0.6666605874        0.3333267582        0.0622561787
Mo            0.0000000000        0.0000000000        0.2978054309    0   0   1
S            -0.6666605948       -0.3333267299        0.3577440913
S            -0.6666313737       -0.3331380308        0.2404127955



     Writing output data file /scratch/as3359/MoS2_loop/Ta.save/
     NEW-OLD atomic charge density approx. for the potential

     negative rho (up, down):  3.937E-04 0.000E+00
     extrapolated charge   52.63984, renormalised to   52.00000

     total cpu time spent up to now is      403.6 secs

     Self-consistent Calculation

     iteration #  1     ecut=    60.00 Ry     beta= 0.30
     Davidson diagonalization with overlap
     c_bands:  1 eigenvalues not converged
     c_bands:  1 eigenvalues not converged
     c_bands:  1 eigenvalues not converged
     c_bands:  1 eigenvalues not converged
     c_bands:  1 eigenvalues not converged
     c_bands:  1 eigenvalues not converged
     ethr =  1.00E-06,  avg # of iterations = 34.6

     total cpu time spent up to now is      458.5 secs

     total energy              =    -539.59426874 Ry
     estimated scf accuracy    <     838.82022772 Ry

     iteration #  2     ecut=    60.00 Ry     beta= 0.30
     Davidson diagonalization with overlap
     c_bands:  5 eigenvalues not converged
     c_bands:  2 eigenvalues not converged
     c_bands:  5 eigenvalues not converged
     c_bands:  5 eigenvalues not converged
     c_bands:  5 eigenvalues not converged
     c_bands:  5 eigenvalues not converged
     c_bands:  5 eigenvalues not converged
     c_bands:  5 eigenvalues not converged
     c_bands:  5 eigenvalues not converged
     c_bands:  5 eigenvalues not converged
     c_bands:  5 eigenvalues not converged
     ethr =  1.00E-02,  avg # of iterations = 28.3

     total cpu time spent up to now is      509.0 secs

     total energy              =    -994.79075839 Ry
     estimated scf accuracy    <     595.09112163 Ry

     iteration #  3     ecut=    60.00 Ry     beta= 0.30
     Davidson diagonalization with overlap
     c_bands:  1 eigenvalues not converged
     c_bands:  1 eigenvalues not converged
     c_bands:  1 eigenvalues not converged
     c_bands:  1 eigenvalues not converged
     c_bands:  2 eigenvalues not converged
     c_bands:  2 eigenvalues not converged
     c_bands:  2 eigenvalues not converged
     c_bands:  1 eigenvalues not converged
     c_bands:  2 eigenvalues not converged
     c_bands:  2 eigenvalues not converged
     c_bands:  2 eigenvalues not converged
     c_bands:  1 eigenvalues not converged
     c_bands:  1 eigenvalues not converged
     c_bands:  1 eigenvalues not converged
     c_bands:  1 eigenvalues not converged
     c_bands:  1 eigenvalues not converged
     ethr =  1.00E-02,  avg # of iterations = 16.6

     total cpu time spent up to now is      537.7 secs

     total energy              =   -1010.98198170 Ry
     estimated scf accuracy    <     135.47838091 Ry

     iteration #  4     ecut=    60.00 Ry     beta= 0.30
     Davidson diagonalization with overlap
     ethr =  1.00E-02,  avg # of iterations =  6.7

     total cpu time spent up to now is      548.7 secs

     total energy              =    -978.08766277 Ry
     estimated scf accuracy    <      80.64047138 Ry

     iteration #  5     ecut=    60.00 Ry     beta= 0.30
     Davidson diagonalization with overlap
     ethr =  1.00E-02,  avg # of iterations = 10.9

     total cpu time spent up to now is      568.7 secs

     total energy              =    -991.06097586 Ry
     estimated scf accuracy    <      34.31620475 Ry

     iteration #  6     ecut=    60.00 Ry     beta= 0.30
     Davidson diagonalization with overlap
     c_bands:  1 eigenvalues not converged
     c_bands:  1 eigenvalues not converged
     ethr =  1.00E-02,  avg # of iterations = 12.0

     total cpu time spent up to now is      582.9 secs

     total energy              =    -998.41124506 Ry
     estimated scf accuracy    <      34.80974808 Ry

     iteration #  7     ecut=    60.00 Ry     beta= 0.30
     Davidson diagonalization with overlap
     ethr =  1.00E-02,  avg # of iterations =  1.0

     total cpu time spent up to now is      589.3 secs

     total energy              =    -995.32864769 Ry
     estimated scf accuracy    <      35.21349639 Ry

     iteration #  8     ecut=    60.00 Ry     beta= 0.30
     Davidson diagonalization with overlap
     ethr =  1.00E-02,  avg # of iterations =  7.5

     total cpu time spent up to now is      600.1 secs

     total energy              =    -986.82340454 Ry
     estimated scf accuracy    <      44.60747072 Ry

     iteration #  9     ecut=    60.00 Ry     beta= 0.30
     Davidson diagonalization with overlap
     ethr =  1.00E-02,  avg # of iterations =  7.9

     total cpu time spent up to now is      611.9 secs

     total energy              =    -989.63008827 Ry
     estimated scf accuracy    <      51.47507305 Ry

     iteration # 10     ecut=    60.00 Ry     beta= 0.30
     Davidson diagonalization with overlap
     ethr =  1.00E-02,  avg # of iterations =  1.0

     negative rho (up, down):  3.633E-07 0.000E+00

     total cpu time spent up to now is      618.3 secs

     total energy              =   -1015.41911651 Ry
     estimated scf accuracy    <      50.06065584 Ry

     iteration # 11     ecut=    60.00 Ry     beta= 0.30
     Davidson diagonalization with overlap
     ethr =  1.00E-02,  avg # of iterations =  5.6

     negative rho (up, down):  6.182E-05 0.000E+00

     total cpu time spent up to now is      629.7 secs

     total energy              =   -1075.22584516 Ry
     estimated scf accuracy    <     160.02364441 Ry

     iteration # 12     ecut=    60.00 Ry     beta= 0.30
     Davidson diagonalization with overlap
     ethr =  1.00E-02,  avg # of iterations =  6.6

     total cpu time spent up to now is      639.8 secs

     total energy              =   -1052.82339208 Ry
     estimated scf accuracy    <     268.02254140 Ry

     iteration # 13     ecut=    60.00 Ry     beta= 0.30
     Davidson diagonalization with overlap
     ethr =  1.00E-02,  avg # of iterations =  2.1

     total cpu time spent up to now is      646.7 secs

     total energy              =    -991.63028183 Ry
     estimated scf accuracy    <     226.63039168 Ry

     iteration # 14     ecut=    60.00 Ry     beta= 0.30
     Davidson diagonalization with overlap
     ethr =  1.00E-02,  avg # of iterations =  8.4

     total cpu time spent up to now is      660.1 secs

     total energy              =    -982.74841881 Ry
     estimated scf accuracy    <     222.43179203 Ry

     iteration # 15     ecut=    60.00 Ry     beta= 0.30
     Davidson diagonalization with overlap
     ethr =  1.00E-02,  avg # of iterations =  9.0

     total cpu time spent up to now is      674.6 secs

     total energy              =   -1013.10864637 Ry
     estimated scf accuracy    <     753.38393134 Ry

     iteration # 16     ecut=    60.00 Ry     beta= 0.30
     Davidson diagonalization with overlap
     ethr =  1.00E-02,  avg # of iterations = 11.6

     total cpu time spent up to now is      693.4 secs

     total energy              =   -1066.22918917 Ry
     estimated scf accuracy    <    1289.83995746 Ry

     iteration # 17     ecut=    60.00 Ry     beta= 0.30
     Davidson diagonalization with overlap
     ethr =  1.00E-02,  avg # of iterations =  7.1

     total cpu time spent up to now is      702.2 secs

     total energy              =   -1045.23984914 Ry
     estimated scf accuracy    <    1511.71955512 Ry

     iteration # 18     ecut=    60.00 Ry     beta= 0.30
     Davidson diagonalization with overlap
     ethr =  1.00E-02,  avg # of iterations =  7.7

     total cpu time spent up to now is      711.7 secs

     total energy              =   -1011.72020042 Ry
     estimated scf accuracy    <    1139.71093676 Ry

     iteration # 19     ecut=    60.00 Ry     beta= 0.30
     Davidson diagonalization with overlap
     c_bands:  1 eigenvalues not converged
     ethr =  1.00E-02,  avg # of iterations = 10.6

     negative rho (up, down):  2.106E-01 0.000E+00

     total cpu time spent up to now is      725.4 secs

     total energy              =   -1064.67231225 Ry
     estimated scf accuracy    <     712.10447452 Ry

     iteration # 20     ecut=    60.00 Ry     beta= 0.30
     Davidson diagonalization with overlap
     ethr =  1.00E-02,  avg # of iterations =  9.7

     negative rho (up, down):  3.162E-01 0.000E+00

     total cpu time spent up to now is      740.8 secs

     total energy              =   -1090.51217214 Ry
     estimated scf accuracy    <    2087.66572297 Ry

     iteration # 21     ecut=    60.00 Ry     beta= 0.30
     Davidson diagonalization with overlap
     ethr =  1.00E-02,  avg # of iterations =  2.3

     negative rho (up, down):  9.486E-01 0.000E+00

     total cpu time spent up to now is      747.5 secs

     total energy              =    -801.67719750 Ry
     estimated scf accuracy    <    2124.44988291 Ry

     iteration # 22     ecut=    60.00 Ry     beta= 0.30
     Davidson diagonalization with overlap
     c_bands:  1 eigenvalues not converged
     c_bands:  1 eigenvalues not converged
     c_bands:  1 eigenvalues not converged
     c_bands:  1 eigenvalues not converged
     ethr =  1.00E-02,  avg # of iterations = 16.9

     negative rho (up, down):  6.093E-01 0.000E+00

     total cpu time spent up to now is      780.6 secs

     total energy              =    -982.13206357 Ry
     estimated scf accuracy    <     133.60066895 Ry

     iteration # 23     ecut=    60.00 Ry     beta= 0.30
     Davidson diagonalization with overlap
     ethr =  1.00E-02,  avg # of iterations =  7.9

     negative rho (up, down):  2.454E-01 0.000E+00

     total cpu time spent up to now is      791.7 secs

     total energy              =    -977.87974921 Ry
     estimated scf accuracy    <      99.39276846 Ry

     iteration # 24     ecut=    60.00 Ry     beta= 0.30
     Davidson diagonalization with overlap
     ethr =  1.00E-02,  avg # of iterations =  8.1

     negative rho (up, down):  1.975E-01 0.000E+00

     total cpu time spent up to now is      802.4 secs

     total energy              =    -979.81076430 Ry
     estimated scf accuracy    <      28.83370173 Ry

     iteration # 25     ecut=    60.00 Ry     beta= 0.30
     Davidson diagonalization with overlap
     ethr =  1.00E-02,  avg # of iterations =  1.3

     negative rho (up, down):  8.737E-02 0.000E+00

     total cpu time spent up to now is      808.9 secs

     total energy              =    -977.70753812 Ry
     estimated scf accuracy    <      25.65544937 Ry

     iteration # 26     ecut=    60.00 Ry     beta= 0.30
     Davidson diagonalization with overlap
     ethr =  1.00E-02,  avg # of iterations =  6.6

     negative rho (up, down):  7.002E-02 0.000E+00

     total cpu time spent up to now is      819.3 secs

     total energy              =    -979.67944483 Ry
     estimated scf accuracy    <       3.93061362 Ry

     iteration # 27     ecut=    60.00 Ry     beta= 0.30
     Davidson diagonalization with overlap
     ethr =  7.56E-03,  avg # of iterations =  2.1

     negative rho (up, down):  4.204E-02 0.000E+00

     total cpu time spent up to now is      826.2 secs

     total energy              =    -979.48277112 Ry
     estimated scf accuracy    <       3.30010126 Ry

     iteration # 28     ecut=    60.00 Ry     beta= 0.30
     Davidson diagonalization with overlap
     ethr =  6.35E-03,  avg # of iterations =  3.3

     negative rho (up, down):  6.558E-02 0.000E+00

     total cpu time spent up to now is      833.7 secs

     total energy              =    -979.50768871 Ry
     estimated scf accuracy    <       1.64422488 Ry

     iteration # 29     ecut=    60.00 Ry     beta= 0.30
     Davidson diagonalization with overlap
     ethr =  3.16E-03,  avg # of iterations =  3.6

     negative rho (up, down):  1.156E-02 0.000E+00

     total cpu time spent up to now is      841.7 secs

     total energy              =    -979.65649911 Ry
     estimated scf accuracy    <       0.93332430 Ry

     iteration # 30     ecut=    60.00 Ry     beta= 0.30
     Davidson diagonalization with overlap
     ethr =  1.79E-03,  avg # of iterations =  5.8

     negative rho (up, down):  1.659E-02 0.000E+00

     total cpu time spent up to now is      851.0 secs

     total energy              =    -979.01160030 Ry
     estimated scf accuracy    <       3.80368408 Ry

     iteration # 31     ecut=    60.00 Ry     beta= 0.30
     Davidson diagonalization with overlap
     ethr =  1.79E-03,  avg # of iterations =  4.8

     negative rho (up, down):  2.459E-02 0.000E+00

     total cpu time spent up to now is      860.2 secs

     total energy              =    -979.32329193 Ry
     estimated scf accuracy    <       0.19982552 Ry

     iteration # 32     ecut=    60.00 Ry     beta= 0.30
     Davidson diagonalization with overlap
     ethr =  3.84E-04,  avg # of iterations =  6.0

     negative rho (up, down):  2.097E-02 0.000E+00

     total cpu time spent up to now is      872.0 secs

     total energy              =    -979.15550366 Ry
     estimated scf accuracy    <       1.89117773 Ry

     iteration # 33     ecut=    60.00 Ry     beta= 0.30
     Davidson diagonalization with overlap
     ethr =  3.84E-04,  avg # of iterations =  6.0

     negative rho (up, down):  1.359E-02 0.000E+00

     total cpu time spent up to now is      883.5 secs

     total energy              =    -979.37688332 Ry
     estimated scf accuracy    <       0.19655498 Ry

     iteration # 34     ecut=    60.00 Ry     beta= 0.30
     Davidson diagonalization with overlap
     ethr =  3.78E-04,  avg # of iterations =  4.1

     negative rho (up, down):  4.504E-03 0.000E+00

     total cpu time spent up to now is      891.8 secs

     total energy              =    -979.36219122 Ry
     estimated scf accuracy    <       0.24629867 Ry

     iteration # 35     ecut=    60.00 Ry     beta= 0.30
     Davidson diagonalization with overlap
     ethr =  3.78E-04,  avg # of iterations =  2.9

     negative rho (up, down):  4.858E-03 0.000E+00

     total cpu time spent up to now is      899.5 secs

     total energy              =    -979.36608891 Ry
     estimated scf accuracy    <       0.03195701 Ry

     iteration # 36     ecut=    60.00 Ry     beta= 0.30
     Davidson diagonalization with overlap
     ethr =  6.15E-05,  avg # of iterations =  7.3

     negative rho (up, down):  5.608E-03 0.000E+00

     total cpu time spent up to now is      911.2 secs

     total energy              =    -979.36293425 Ry
     estimated scf accuracy    <       0.20460041 Ry

     iteration # 37     ecut=    60.00 Ry     beta= 0.30
     Davidson diagonalization with overlap
     ethr =  6.15E-05,  avg # of iterations =  6.7

     negative rho (up, down):  4.867E-03 0.000E+00

     total cpu time spent up to now is      921.8 secs

     total energy              =    -979.38427104 Ry
     estimated scf accuracy    <       0.00182066 Ry

     iteration # 38     ecut=    60.00 Ry     beta= 0.30
     Davidson diagonalization with overlap
     ethr =  3.50E-06,  avg # of iterations =  7.7

     negative rho (up, down):  3.421E-03 0.000E+00

     total cpu time spent up to now is      933.3 secs

     total energy              =    -979.38475977 Ry
     estimated scf accuracy    <       0.00903269 Ry

     iteration # 39     ecut=    60.00 Ry     beta= 0.30
     Davidson diagonalization with overlap
     ethr =  3.50E-06,  avg # of iterations =  3.0

     negative rho (up, down):  1.132E-03 0.000E+00

     total cpu time spent up to now is      941.2 secs

     total energy              =    -979.38435171 Ry
     estimated scf accuracy    <       0.00315538 Ry

     iteration # 40     ecut=    60.00 Ry     beta= 0.30
     Davidson diagonalization with overlap
     ethr =  3.50E-06,  avg # of iterations =  5.4

     negative rho (up, down):  6.287E-04 0.000E+00

     total cpu time spent up to now is      950.9 secs

     total energy              =    -979.38483705 Ry
     estimated scf accuracy    <       0.00074645 Ry

     iteration # 41     ecut=    60.00 Ry     beta= 0.30
     Davidson diagonalization with overlap
     ethr =  1.44E-06,  avg # of iterations =  3.3

     negative rho (up, down):  3.939E-04 0.000E+00

     total cpu time spent up to now is      958.7 secs

     total energy              =    -979.38492519 Ry
     estimated scf accuracy    <       0.00004125 Ry

     iteration # 42     ecut=    60.00 Ry     beta= 0.30
     Davidson diagonalization with overlap
     ethr =  7.93E-08,  avg # of iterations =  5.7

     negative rho (up, down):  4.528E-04 0.000E+00

     total cpu time spent up to now is      969.0 secs

     total energy              =    -979.38493698 Ry
     estimated scf accuracy    <       0.00003489 Ry

     iteration # 43     ecut=    60.00 Ry     beta= 0.30
     Davidson diagonalization with overlap
     ethr =  6.71E-08,  avg # of iterations =  3.4

     negative rho (up, down):  4.113E-04 0.000E+00

     total cpu time spent up to now is      977.0 secs

     total energy              =    -979.38494256 Ry
     estimated scf accuracy    <       0.00000077 Ry

     iteration # 44     ecut=    60.00 Ry     beta= 0.30
     Davidson diagonalization with overlap
     c_bands:  1 eigenvalues not converged
     ethr =  1.49E-09,  avg # of iterations =  7.1

     negative rho (up, down):  3.891E-04 0.000E+00

     total cpu time spent up to now is      990.7 secs

     total energy              =    -979.38494362 Ry
     estimated scf accuracy    <       0.00000791 Ry

     iteration # 45     ecut=    60.00 Ry     beta= 0.30
     Davidson diagonalization with overlap
     c_bands:  1 eigenvalues not converged
     ethr =  1.49E-09,  avg # of iterations =  4.4

     negative rho (up, down):  3.687E-04 0.000E+00

     total cpu time spent up to now is      999.3 secs

     total energy              =    -979.38494273 Ry
     estimated scf accuracy    <       0.00000353 Ry

     iteration # 46     ecut=    60.00 Ry     beta= 0.30
     Davidson diagonalization with overlap
     c_bands:  1 eigenvalues not converged
     ethr =  1.49E-09,  avg # of iterations =  6.2

     negative rho (up, down):  3.685E-04 0.000E+00

     total cpu time spent up to now is     1011.3 secs

     total energy              =    -979.38494395 Ry
     estimated scf accuracy    <       0.00000153 Ry

     iteration # 47     ecut=    60.00 Ry     beta= 0.30
     Davidson diagonalization with overlap
     c_bands:  1 eigenvalues not converged
     ethr =  1.49E-09,  avg # of iterations =  1.8

     negative rho (up, down):  3.759E-04 0.000E+00

     total cpu time spent up to now is     1017.9 secs

     total energy              =    -979.38494355 Ry
     estimated scf accuracy    <       0.00000217 Ry

     iteration # 48     ecut=    60.00 Ry     beta= 0.30
     Davidson diagonalization with overlap
     ethr =  1.49E-09,  avg # of iterations =  2.8

     negative rho (up, down):  3.816E-04 0.000E+00

     total cpu time spent up to now is     1025.5 secs

     total energy              =    -979.38494350 Ry
     estimated scf accuracy    <       0.00000067 Ry

     iteration # 49     ecut=    60.00 Ry     beta= 0.30
     Davidson diagonalization with overlap
     ethr =  1.29E-09,  avg # of iterations =  4.1

     negative rho (up, down):  3.781E-04 0.000E+00

     total cpu time spent up to now is     1033.8 secs

     total energy              =    -979.38494360 Ry
     estimated scf accuracy    <       0.00000003 Ry

     iteration # 50     ecut=    60.00 Ry     beta= 0.30
     Davidson diagonalization with overlap
     c_bands:  1 eigenvalues not converged
     ethr =  5.26E-11,  avg # of iterations =  7.4

     negative rho (up, down):  3.783E-04 0.000E+00

     total cpu time spent up to now is     1045.4 secs

     total energy              =    -979.38494362 Ry
     estimated scf accuracy    <       0.00000008 Ry

     iteration # 51     ecut=    60.00 Ry     beta= 0.30
     Davidson diagonalization with overlap
     ethr =  5.26E-11,  avg # of iterations =  2.4

     negative rho (up, down):  3.784E-04 0.000E+00

     total cpu time spent up to now is     1052.8 secs

     total energy              =    -979.38494361 Ry
     estimated scf accuracy    <       0.00000003 Ry

     iteration # 52     ecut=    60.00 Ry     beta= 0.30
     Davidson diagonalization with overlap
     ethr =  5.26E-11,  avg # of iterations =  7.1

     negative rho (up, down):  3.790E-04 0.000E+00

     total cpu time spent up to now is     1063.3 secs

     total energy              =    -979.38494362 Ry
     estimated scf accuracy    <       0.00000006 Ry

     iteration # 53     ecut=    60.00 Ry     beta= 0.30
     Davidson diagonalization with overlap
     ethr =  5.26E-11,  avg # of iterations =  3.4

     negative rho (up, down):  3.796E-04 0.000E+00

     total cpu time spent up to now is     1070.8 secs

     total energy              =    -979.38494361 Ry
     estimated scf accuracy    <       0.00000001 Ry

     iteration # 54     ecut=    60.00 Ry     beta= 0.30
     Davidson diagonalization with overlap
     ethr =  2.75E-11,  avg # of iterations =  5.3

     negative rho (up, down):  3.802E-04 0.000E+00

     total cpu time spent up to now is     1079.9 secs

     total energy              =    -979.38494362 Ry
     estimated scf accuracy    <          4.4E-09 Ry

     iteration # 55     ecut=    60.00 Ry     beta= 0.30
     Davidson diagonalization with overlap
     ethr =  8.40E-12,  avg # of iterations =  2.7

     negative rho (up, down):  3.802E-04 0.000E+00

     total cpu time spent up to now is     1087.1 secs

     total energy              =    -979.38494362 Ry
     estimated scf accuracy    <          9.0E-10 Ry

     iteration # 56     ecut=    60.00 Ry     beta= 0.30
     Davidson diagonalization with overlap
     ethr =  1.74E-12,  avg # of iterations =  5.2

     negative rho (up, down):  3.803E-04 0.000E+00

     total cpu time spent up to now is     1095.6 secs

     total energy              =    -979.38494362 Ry
     estimated scf accuracy    <          3.8E-11 Ry

     iteration # 57     ecut=    60.00 Ry     beta= 0.30
     Davidson diagonalization with overlap
     c_bands:  1 eigenvalues not converged
     ethr =  1.00E-13,  avg # of iterations =  5.3

     negative rho (up, down):  3.803E-04 0.000E+00

     total cpu time spent up to now is     1105.1 secs

     total energy              =    -979.38494362 Ry
     estimated scf accuracy    <          3.5E-11 Ry

     iteration # 58     ecut=    60.00 Ry     beta= 0.30
     Davidson diagonalization with overlap
     ethr =  1.00E-13,  avg # of iterations =  3.2

     negative rho (up, down):  3.804E-04 0.000E+00

     total cpu time spent up to now is     1112.7 secs

     total energy              =    -979.38494362 Ry
     estimated scf accuracy    <          2.1E-12 Ry

     iteration # 59     ecut=    60.00 Ry     beta= 0.30
     Davidson diagonalization with overlap
     ethr =  1.00E-13,  avg # of iterations =  1.0

     negative rho (up, down):  3.805E-04 0.000E+00

     total cpu time spent up to now is     1119.0 secs

     total energy              =    -979.38494362 Ry
     estimated scf accuracy    <          1.0E-12 Ry

     iteration # 60     ecut=    60.00 Ry     beta= 0.30
     Davidson diagonalization with overlap
     ethr =  1.00E-13,  avg # of iterations =  1.0

     negative rho (up, down):  3.805E-04 0.000E+00

     total cpu time spent up to now is     1125.3 secs

     End of self-consistent calculation

          k = 0.0000 0.0000 0.0000 ( 11709 PWs)   bands (ev):

   -58.7546 -58.7544 -32.9914 -32.9850 -32.7506 -32.7504 -32.7498 -32.7497
   -15.0978 -12.1561 -11.6203 -10.0405  -5.1314  -2.9202  -1.7117  -1.7029
    -1.1007  -1.0927  -0.3396  -0.0103  -0.0073  -0.0037  -0.0035   1.2025
     1.9064   2.9573

          k = 0.0000 0.0979 0.0000 ( 11683 PWs)   bands (ev):

   -58.7516 -58.7515 -32.9852 -32.9790 -32.7797 -32.7794 -32.7572 -32.7570
   -14.9897 -12.0524 -11.5477 -10.0296  -5.0439  -2.8717  -2.1113  -1.7301
    -1.3226  -0.9686  -0.8672  -0.2502  -0.1825  -0.0105   0.3878   1.2113
     1.7877   2.2134

          k = 0.0000 0.1957 0.0000 ( 11647 PWs)   bands (ev):

   -58.7435 -58.7434 -32.9685 -32.9628 -32.8602 -32.8598 -32.7753 -32.7751
   -14.6735 -11.7621 -11.3417 -10.0128  -4.8564  -3.1737  -2.6968  -1.9083
    -1.7343  -1.5222  -0.6385  -0.4831  -0.3915  -0.2823   0.1857   1.2300
     1.3897   1.8814

          k = 0.0000 0.2936 0.0000 ( 11649 PWs)   bands (ev):

   -58.7326 -58.7325 -32.9698 -32.9687 -32.9444 -32.9400 -32.7999 -32.7997
   -14.1730 -11.3494 -11.0397 -10.0383  -4.8176  -4.2462  -2.7724  -2.2644
    -2.1403  -1.9563  -0.7325  -0.6881  -0.3560  -0.3045  -0.0493   0.8199
     0.9970   1.8195

          k = 0.0000 0.3915 0.0000 ( 11567 PWs)   bands (ev):

   -58.7215 -58.7214 -33.0757 -33.0748 -32.9220 -32.9179 -32.8244 -32.8241
   -13.5346 -10.9362 -10.7072 -10.1681  -5.3642  -4.8221  -3.1001  -2.6293
    -2.6234  -1.9802  -1.0705  -0.8842  -0.6556  -0.1624   0.5187   0.5221
     0.7546   1.7004

          k = 0.0000 0.4894 0.0000 ( 11578 PWs)   bands (ev):

   -58.7135 -58.7134 -33.1527 -33.1516 -32.9050 -32.9015 -32.8422 -32.8419
   -12.8627 -10.8244 -10.4317 -10.2810  -5.9030  -5.1127  -3.4363  -2.9819
    -2.8683  -2.1517  -1.2994  -1.0304  -0.8160  -0.0906   0.6244   0.9021
     0.9811   1.5567

          k =-0.0000-0.5872 0.0000 ( 11612 PWs)   bands (ev):

   -58.7106 -58.7105 -33.1807 -33.1795 -32.8988 -32.8955 -32.8487 -32.8485
   -12.4921 -11.0043 -10.3159 -10.2398  -6.0671  -5.2402  -3.5704  -3.1143
[...]
    -1.8895  -1.7862  -1.5206  -1.3515  -0.3554  -0.3191   0.4834   0.6818
     1.1733   1.2228

          k = 0.1706 0.4923 0.0000 ( 11626 PWs)   bands (ev):

   -58.7353 -58.7352 -33.1021 -33.1021 -32.9012 -32.9012 -32.8796 -32.8796
   -10.3026 -10.2707 -10.1237 -10.0899  -3.5661  -3.5169  -3.1409  -3.0847
    -1.9920  -1.9482  -1.4141  -1.2896  -0.4885  -0.4209   0.0770   0.2929
     1.4234   1.4882

          k = 0.1706 0.5907 0.0000 ( 11618 PWs)   bands (ev):

   -58.7326 -58.7326 -33.1208 -33.1208 -32.8960 -32.8960 -32.8912 -32.8912
   -10.1398 -10.1206 -10.0538 -10.0325  -3.6224  -3.6169  -3.3449  -3.2867
    -2.1240  -2.0946  -1.3089  -1.2347  -0.4832  -0.3995  -0.1273   0.1112
     1.5976   1.6790

          k = 0.1705-0.4923 0.0000 ( 11626 PWs)   bands (ev):

   -58.7353 -58.7352 -33.1021 -33.1021 -32.9012 -32.9012 -32.8796 -32.8795
   -10.3025 -10.2706 -10.1237 -10.0899  -3.5662  -3.5170  -3.1407  -3.0845
    -1.9921  -1.9483  -1.4144  -1.2899  -0.4881  -0.4205   0.0773   0.2932
     1.4231   1.4879

          k = 0.1705-0.3939 0.0000 ( 11620 PWs)   bands (ev):

   -58.7425 -58.7424 -33.0502 -33.0502 -32.9154 -32.9154 -32.8482 -32.8482
   -10.7033 -10.6554 -10.2965 -10.2412  -3.3816  -3.2856  -2.5824  -2.5327
    -1.8895  -1.7863  -1.5211  -1.3519  -0.3550  -0.3188   0.4836   0.6821
     1.1729   1.2223

          k = 0.1705-0.2954 0.0000 ( 11625 PWs)   bands (ev):

   -58.7523 -58.7522 -32.9767 -32.9767 -32.9347 -32.9347 -32.8071 -32.8071
   -11.1845 -11.1263 -10.5043 -10.4292  -3.2350  -3.0506  -2.0122  -1.9155
    -1.8416  -1.7609  -1.3863  -1.2471  -0.0340  -0.0030   0.7853   1.0179
     1.1263   1.1404

          k = 0.1705-0.1969 0.0000 ( 11632 PWs)   bands (ev):

   -58.7622 -58.7621 -32.9540 -32.9539 -32.8983 -32.8983 -32.7699 -32.7699
   -11.6131 -11.5496 -10.6892 -10.5984  -3.3661  -3.0863  -1.8017  -1.7823
    -1.5205  -1.2730  -0.6934  -0.6460  -0.0241  -0.0126   0.7720   1.0806
     1.2997   1.4435

          k = 0.1705-0.0985 0.0000 ( 11665 PWs)   bands (ev):

   -58.7694 -58.7694 -32.9680 -32.9680 -32.8343 -32.8343 -32.7486 -32.7486
   -11.9022 -11.8364 -10.8133 -10.7125  -3.5883  -3.2787  -1.4633  -1.4598
    -1.2204  -0.9133  -0.2409  -0.2330  -0.0961  -0.0850   0.6650   1.0360
     1.5033   1.7634

          k = 0.1706-0.0000 0.0000 ( 11661 PWs)   bands (ev):

   -58.7721 -58.7720 -32.9732 -32.9731 -32.8072 -32.8072 -32.7443 -32.7443
   -12.0037 -11.9373 -10.8567 -10.7524  -3.6801  -3.3643  -1.2999  -1.2976
    -1.0286  -0.6696  -0.3508  -0.3452  -0.0903  -0.0871   0.8019   1.1389
     1.5753   1.8887

          k = 0.2558 0.1476 0.0000 ( 11667 PWs)   bands (ev):

   -58.7581 -58.7580 -32.9458 -32.9458 -32.9433 -32.9433 -32.7736 -32.7736
   -11.4362 -11.3747 -10.6148 -10.5306  -3.3314  -3.0974  -1.9738  -1.9153
    -1.8180  -1.6257  -0.5517  -0.5376   0.2042   0.2188   0.3854   0.7626
     1.1116   1.2487

          k = 0.2559 0.2461 0.0000 ( 11629 PWs)   bands (ev):

   -58.7508 -58.7508 -33.0017 -33.0016 -32.9317 -32.9317 -32.7995 -32.7995
   -11.1119 -11.0552 -10.4760 -10.4041  -3.3268  -3.1724  -2.1839  -2.0433
    -1.9751  -1.8888  -1.1028  -1.0104   0.1955   0.2310   0.4754   0.7670
     1.0341   1.1112

          k = 0.2559 0.3446 0.0000 ( 11618 PWs)   bands (ev):

   -58.7425 -58.7424 -33.0502 -33.0502 -32.9154 -32.9154 -32.8482 -32.8482
   -10.7034 -10.6554 -10.2965 -10.2412  -3.3815  -3.2856  -2.5827  -2.5330
    -1.8891  -1.7856  -1.5204  -1.3513  -0.3561  -0.3197   0.4831   0.6816
     1.1734   1.2228

          k = 0.2559 0.4430 0.0000 ( 11595 PWs)   bands (ev):

   -58.7352 -58.7352 -33.0765 -33.0765 -32.9060 -32.9060 -32.9012 -32.9012
   -10.3115 -10.2773 -10.1179 -10.0824  -3.3757  -3.2996  -3.1448  -3.1327
    -1.7669  -1.6605  -1.4739  -1.3055  -1.0558  -1.0544   0.2065   0.3378
     1.4111   1.4408

          k = 0.2559 0.5415 0.0000 ( 11594 PWs)   bands (ev):

   -58.7310 -58.7310 -33.0819 -33.0819 -32.9492 -32.9492 -32.8930 -32.8930
   -10.0627 -10.0450  -9.9998  -9.9840  -3.5145  -3.4943  -3.2330  -3.1852
    -2.0201  -1.9263  -1.3824  -1.2850  -1.2445  -1.1221  -0.1418  -0.0229
     1.7293   1.7598

          k = 0.2559 0.6399 0.0000 ( 11594 PWs)   bands (ev):

   -58.7310 -58.7310 -33.0819 -33.0819 -32.9492 -32.9491 -32.8930 -32.8930
   -10.0626 -10.0449  -9.9999  -9.9840  -3.5145  -3.4942  -3.2331  -3.1853
    -2.0203  -1.9264  -1.3821  -1.2848  -1.2446  -1.1222  -0.1418  -0.0228
     1.7292   1.7597

          k = 0.2558-0.4431 0.0000 ( 11595 PWs)   bands (ev):

   -58.7352 -58.7352 -33.0766 -33.0766 -32.9060 -32.9060 -32.9012 -32.9012
   -10.3114 -10.2771 -10.1180 -10.0825  -3.3758  -3.2997  -3.1446  -3.1324
    -1.7671  -1.6606  -1.4743  -1.3058  -1.0555  -1.0540   0.2065   0.3380
     1.4109   1.4404

          k = 0.2558-0.3446 0.0000 ( 11618 PWs)   bands (ev):

   -58.7424 -58.7424 -33.0502 -33.0502 -32.9154 -32.9154 -32.8482 -32.8482
   -10.7031 -10.6551 -10.2965 -10.2413  -3.3816  -3.2856  -2.5824  -2.5327
    -1.8888  -1.7853  -1.5208  -1.3517  -0.3560  -0.3198   0.4831   0.6819
     1.1730   1.2222

          k = 0.2558-0.2462 0.0000 ( 11629 PWs)   bands (ev):

   -58.7508 -58.7508 -33.0017 -33.0017 -32.9317 -32.9317 -32.7995 -32.7995
   -11.1117 -11.0550 -10.4761 -10.4041  -3.3267  -3.1724  -2.1838  -2.0432
    -1.9748  -1.8884  -1.1028  -1.0105   0.1953   0.2308   0.4754   0.7674
     1.0336   1.1104

          k = 0.2558-0.1477 0.0000 ( 11667 PWs)   bands (ev):

   -58.7581 -58.7580 -32.9458 -32.9458 -32.9433 -32.9433 -32.7736 -32.7736
   -11.4361 -11.3746 -10.6148 -10.5306  -3.3313  -3.0973  -1.9734  -1.9149
    -1.8181  -1.6258  -0.5516  -0.5375   0.2037   0.2183   0.3854   0.7629
     1.1114   1.2482

          k = 0.2558-0.0493 0.0000 ( 11632 PWs)   bands (ev):

   -58.7622 -58.7621 -32.9539 -32.9539 -32.8983 -32.8983 -32.7699 -32.7699
   -11.6130 -11.5495 -10.6892 -10.5984  -3.3661  -3.0862  -1.8013  -1.7819
    -1.5210  -1.2733  -0.6928  -0.6457  -0.0243  -0.0128   0.7719   1.0809
     1.2993   1.4429

          k = 0.2558 0.0492 0.0000 ( 11632 PWs)   bands (ev):

   -58.7622 -58.7621 -32.9540 -32.9539 -32.8983 -32.8983 -32.7699 -32.7698
   -11.6131 -11.5496 -10.6892 -10.5984  -3.3661  -3.0863  -1.8015  -1.7821
    -1.5208  -1.2731  -0.6929  -0.6458  -0.0240  -0.0125   0.7719   1.0808
     1.2993   1.4431

          k = 0.3411 0.1969 0.0000 ( 11585 PWs)   bands (ev):

   -58.7465 -58.7465 -33.0505 -33.0505 -32.9235 -32.9235 -32.7984 -32.7984
   -10.9074 -10.8553 -10.3941 -10.3310  -3.5142  -3.4101  -2.4747  -2.3175
    -2.0515  -1.9767  -0.9330  -0.9171   0.0591   0.4362   0.6427   0.6693
     0.8566   0.9885

          k = 0.3411 0.2953 0.0000 ( 11618 PWs)   bands (ev):

   -58.7409 -58.7409 -33.0899 -33.0899 -32.9124 -32.9123 -32.8250 -32.8250
   -10.6135 -10.5697 -10.2688 -10.2189  -3.6366  -3.5689  -2.7556  -2.6386
    -2.0468  -1.9946  -1.2686  -1.1907   0.0928   0.3060   0.3217   0.4434
     1.1645   1.2481

          k = 0.3412 0.3938 0.0000 ( 11624 PWs)   bands (ev):

   -58.7352 -58.7352 -33.1021 -33.1021 -32.9012 -32.9012 -32.8796 -32.8796
   -10.3023 -10.2704 -10.1238 -10.0899  -3.5662  -3.5170  -3.1408  -3.0846
    -1.9915  -1.9474  -1.4138  -1.2893  -0.4892  -0.4216   0.0764   0.2926
     1.4235   1.4882

          k = 0.3412 0.4922 0.0000 ( 11594 PWs)   bands (ev):

   -58.7310 -58.7310 -33.0819 -33.0819 -32.9492 -32.9492 -32.8930 -32.8930
   -10.0625 -10.0448  -9.9999  -9.9840  -3.5145  -3.4941  -3.2331  -3.1853
    -2.0198  -1.9258  -1.3827  -1.2853  -1.2444  -1.1220  -0.1422  -0.0231
     1.7294   1.7597

          k = 0.3412 0.5907 0.0000 ( 11595 PWs)   bands (ev):

   -58.7295 -58.7294 -33.0496 -33.0496 -32.9997 -32.9997 -32.8900 -32.8900
    -9.9664  -9.9663  -9.9466  -9.9466  -3.6591  -3.6590  -2.8315  -2.7594
    -2.2816  -2.2815  -1.6477  -1.6476  -1.0871  -0.9586  -0.2796  -0.2793
     1.9407   1.9407

          k = 0.3412 0.6891 0.0000 ( 11596 PWs)   bands (ev):

   -58.7310 -58.7310 -33.0820 -33.0820 -32.9492 -32.9491 -32.8930 -32.8930
   -10.0624 -10.0446  -9.9999  -9.9840  -3.5144  -3.4940  -3.2332  -3.1854
    -2.0198  -1.9257  -1.3826  -1.2853  -1.2445  -1.1221  -0.1424  -0.0230
     1.7293   1.7596

          k = 0.3410-0.3939 0.0000 ( 11628 PWs)   bands (ev):

   -58.7352 -58.7352 -33.1022 -33.1022 -32.9012 -32.9012 -32.8796 -32.8796
   -10.3020 -10.2701 -10.1238 -10.0900  -3.5663  -3.5171  -3.1405  -3.0843
    -1.9913  -1.9470  -1.4141  -1.2895  -0.4893  -0.4217   0.0762   0.2926
     1.4233   1.4878

          k = 0.3411-0.2954 0.0000 ( 11620 PWs)   bands (ev):

   -58.7409 -58.7409 -33.0900 -33.0900 -32.9123 -32.9123 -32.8251 -32.8251
   -10.6133 -10.5694 -10.2689 -10.2189  -3.6366  -3.5690  -2.7554  -2.6384
    -2.0464  -1.9942  -1.2689  -1.1909   0.0926   0.3060   0.3217   0.4434
     1.1640   1.2475

          k = 0.3411-0.1970 0.0000 ( 11587 PWs)   bands (ev):

   -58.7465 -58.7465 -33.0506 -33.0505 -32.9235 -32.9235 -32.7985 -32.7985
   -10.9071 -10.8550 -10.3942 -10.3311  -3.5141  -3.4101  -2.4746  -2.3174
    -2.0511  -1.9762  -0.9331  -0.9172   0.0590   0.4364   0.6423   0.6689
     0.8564   0.9879

          k = 0.3411-0.0985 0.0000 ( 11629 PWs)   bands (ev):

   -58.7508 -58.7508 -33.0018 -33.0018 -32.9317 -32.9317 -32.7995 -32.7995
   -11.1116 -11.0548 -10.4761 -10.4042  -3.3267  -3.1724  -2.1837  -2.0429
    -1.9746  -1.8883  -1.1032  -1.0110   0.1961   0.2314   0.4756   0.7679
     1.0326   1.1094

          k = 0.3411-0.0001 0.0000 ( 11625 PWs)   bands (ev):

   -58.7523 -58.7522 -32.9768 -32.9768 -32.9347 -32.9347 -32.8071 -32.8071
   -11.1843 -11.1260 -10.5044 -10.4293  -3.2350  -3.0506  -2.0119  -1.9150
    -1.8415  -1.7605  -1.3864  -1.2475  -0.0339  -0.0030   0.7853   1.0186
     1.1254   1.1392

          k = 0.3411 0.0984 0.0000 ( 11629 PWs)   bands (ev):

   -58.7508 -58.7508 -33.0018 -33.0017 -32.9317 -32.9317 -32.7995 -32.7995
   -11.1117 -11.0550 -10.4761 -10.4042  -3.3268  -3.1725  -2.1837  -2.0429
    -1.9749  -1.8887  -1.1033  -1.0111   0.1967   0.2320   0.4757   0.7679
     1.0325   1.1096

          k = 0.4264 0.2461 0.0000 ( 11602 PWs)   bands (ev):

   -58.7383 -58.7382 -33.1280 -33.1279 -32.9071 -32.9071 -32.8166 -32.8166
   -10.4584 -10.4224 -10.2133 -10.1724  -3.8771  -3.8301  -2.9201  -2.7854
    -2.1646  -2.1328  -1.1800  -1.1632  -0.1405   0.2345   0.9388   0.9791
     1.0289   1.1793

          k = 0.4264 0.3445 0.0000 ( 11623 PWs)   bands (ev):

   -58.7353 -58.7352 -33.1404 -33.1403 -32.9012 -32.9011 -32.8397 -32.8397
   -10.2832 -10.2569 -10.1354 -10.1048  -3.8947  -3.8646  -3.1091  -3.0021
    -2.1781  -2.1674  -1.3022  -1.2606  -0.1282   0.2008   0.4396   0.4858
     1.4037   1.5055

          k = 0.4264 0.4430 0.0000 ( 11620 PWs)   bands (ev):

   -58.7326 -58.7326 -33.1209 -33.1209 -32.8960 -32.8960 -32.8913 -32.8913
   -10.1394 -10.1201 -10.0539 -10.0326  -3.6225  -3.6172  -3.3446  -3.2863
    -2.1237  -2.0939  -1.3087  -1.2347  -0.4836  -0.3999  -0.1280   0.1108
     1.5976   1.6788

          k = 0.4265 0.5414 0.0000 ( 11594 PWs)   bands (ev):

   -58.7310 -58.7310 -33.0820 -33.0820 -32.9491 -32.9491 -32.8930 -32.8930
   -10.0624 -10.0446  -9.9999  -9.9840  -3.5142  -3.4939  -3.2333  -3.1855
    -2.0203  -1.9262  -1.3819  -1.2847  -1.2447  -1.1223  -0.1421  -0.0228
     1.7291   1.7595

          k = 0.4265 0.6399 0.0000 ( 11596 PWs)   bands (ev):

   -58.7310 -58.7310 -33.0821 -33.0821 -32.9491 -32.9491 -32.8930 -32.8930
   -10.0623 -10.0445  -9.9999  -9.9840  -3.5142  -3.4938  -3.2333  -3.1855
    -2.0201  -1.9260  -1.3821  -1.2849  -1.2447  -1.1223  -0.1424  -0.0228
     1.7292   1.7595

          k = 0.4265 0.7383 0.0000 ( 11620 PWs)   bands (ev):

   -58.7326 -58.7325 -33.1209 -33.1209 -32.8960 -32.8960 -32.8913 -32.8913
   -10.1392 -10.1198 -10.0540 -10.0326  -3.6225  -3.6173  -3.3444  -3.2861
    -2.1235  -2.0935  -1.3087  -1.2347  -0.4838  -0.4002  -0.1284   0.1106
     1.5976   1.6787

          k = 0.4263-0.3447 0.0000 ( 11625 PWs)   bands (ev):

   -58.7353 -58.7352 -33.1404 -33.1404 -32.9011 -32.9011 -32.8398 -32.8398
   -10.2829 -10.2565 -10.1354 -10.1049  -3.8947  -3.8647  -3.1088  -3.0018
    -2.1777  -2.1671  -1.3024  -1.2608  -0.1285   0.2007   0.4394   0.4855
     1.4035   1.5052

          k = 0.4263-0.2462 0.0000 ( 11602 PWs)   bands (ev):

   -58.7382 -58.7382 -33.1280 -33.1280 -32.9071 -32.9071 -32.8166 -32.8166
   -10.4581 -10.4221 -10.2133 -10.1724  -3.8771  -3.8302  -2.9199  -2.7852
    -2.1642  -2.1324  -1.1802  -1.1634  -0.1409   0.2345   0.9384   0.9787
     1.0287   1.1790

          k = 0.4264-0.1478 0.0000 ( 11618 PWs)   bands (ev):

   -58.7409 -58.7409 -33.0900 -33.0900 -32.9123 -32.9123 -32.8251 -32.8251
   -10.6131 -10.5693 -10.2689 -10.2190  -3.6367  -3.5690  -2.7551  -2.6381
    -2.0464  -1.9943  -1.2696  -1.1915   0.0933   0.3066   0.3223   0.4442
     1.1632   1.2465

          k = 0.4264-0.0493 0.0000 ( 11620 PWs)   bands (ev):

   -58.7424 -58.7424 -33.0504 -33.0503 -32.9153 -32.9153 -32.8482 -32.8482
   -10.7029 -10.6549 -10.2966 -10.2414  -3.3817  -3.2858  -2.5819  -2.5321
    -1.8887  -1.7853  -1.5216  -1.3524  -0.3554  -0.3192   0.4835   0.6824
     1.1722   1.2213

          k = 0.4264 0.0491 0.0000 ( 11622 PWs)   bands (ev):

   -58.7425 -58.7424 -33.0504 -33.0503 -32.9154 -32.9153 -32.8482 -32.8482
   -10.7030 -10.6549 -10.2966 -10.2413  -3.3817  -3.2858  -2.5819  -2.5321
    -1.8890  -1.7857  -1.5217  -1.3525  -0.3550  -0.3188   0.4837   0.6825
     1.1722   1.2213

          k = 0.4264 0.1476 0.0000 ( 11620 PWs)   bands (ev):

   -58.7409 -58.7409 -33.0900 -33.0900 -32.9124 -32.9123 -32.8250 -32.8250
   -10.6134 -10.5695 -10.2689 -10.2190  -3.6367  -3.5690  -2.7552  -2.6381
    -2.0469  -1.9948  -1.2697  -1.1916   0.0939   0.3071   0.3226   0.4447
     1.1631   1.2465

          k =-0.5117-0.2953 0.0000 ( 11612 PWs)   bands (ev):

   -58.7352 -58.7352 -33.1561 -33.1561 -32.9011 -32.9011 -32.8232 -32.8232
   -10.2733 -10.2503 -10.1411 -10.1123  -4.0391  -4.0094  -3.0887  -2.9598
    -2.2470  -2.2305  -1.2650  -1.2480  -0.2023   0.1697   1.0368   1.0833
     1.2078   1.3480

          k =-0.5117-0.1968 0.0000 ( 11625 PWs)   bands (ev):

   -58.7353 -58.7352 -33.1404 -33.1404 -32.9012 -32.9011 -32.8397 -32.8397
   -10.2832 -10.2568 -10.1354 -10.1049  -3.8947  -3.8647  -3.1089  -3.0019
    -2.1781  -2.1675  -1.3028  -1.2610  -0.1278   0.2011   0.4402   0.4863
     1.4032   1.5048

          k =-0.5117-0.0984 0.0000 ( 11626 PWs)   bands (ev):

   -58.7352 -58.7352 -33.1022 -33.1022 -32.9012 -32.9012 -32.8796 -32.8796
   -10.3020 -10.2701 -10.1239 -10.0900  -3.5664  -3.5172  -3.1403  -3.0841
    -1.9917  -1.9477  -1.4148  -1.2902  -0.4882  -0.4206   0.0770   0.2932
     1.4227   1.4873

          k =-0.5117 0.0001 0.0000 ( 11595 PWs)   bands (ev):

   -58.7352 -58.7352 -33.0767 -33.0767 -32.9059 -32.9059 -32.9012 -32.9012
   -10.3111 -10.2767 -10.1181 -10.0826  -3.3760  -3.3000  -3.1442  -3.1320
    -1.7673  -1.6607  -1.4750  -1.3062  -1.0550  -1.0533   0.2066   0.3384
     1.4105   1.4399

          k =-0.5116 0.0986 0.0000 ( 11628 PWs)   bands (ev):

   -58.7352 -58.7352 -33.1023 -33.1023 -32.9012 -32.9012 -32.8796 -32.8796
   -10.3019 -10.2699 -10.1239 -10.0900  -3.5664  -3.5173  -3.1402  -3.0840
    -1.9914  -1.9472  -1.4147  -1.2901  -0.4887  -0.4211   0.0766   0.2930
     1.4228   1.4873

          k =-0.5116 0.1970 0.0000 ( 11625 PWs)   bands (ev):

   -58.7353 -58.7352 -33.1404 -33.1404 -32.9011 -32.9011 -32.8398 -32.8398
   -10.2829 -10.2564 -10.1354 -10.1049  -3.8948  -3.8648  -3.1087  -3.0017
    -2.1778  -2.1671  -1.3027  -1.2610  -0.1282   0.2009   0.4398   0.4859
     1.4032   1.5048

          k =-0.5118-0.8860 0.0000 ( 11612 PWs)   bands (ev):

   -58.7352 -58.7352 -33.1561 -33.1561 -32.9011 -32.9011 -32.8233 -32.8232
   -10.2729 -10.2499 -10.1412 -10.1124  -4.0391  -4.0095  -3.0884  -2.9596
    -2.2466  -2.2303  -1.2652  -1.2481  -0.2027   0.1696   1.0364   1.0829
     1.2078   1.3478

     highest occupied level (ev):     2.1973

!    total energy              =    -979.51269189 Ry

     total all-electron energy =    -19376.428382 Ry
     estimated scf accuracy    <          1.7E-15 Ry

     The total energy is the sum of the following terms:
     one-electron contribution =   -2754.30546451 Ry
     hartree contribution      =    1387.78601920 Ry
     xc contribution           =     -59.05436069 Ry
     ewald contribution        =    1071.84359790 Ry
     one-center paw contrib.   =    -625.78248379 Ry

     convergence has been achieved in  31 iterations

     negative rho (up, down):  3.637E-04 0.000E+00

     Forces acting on atoms (cartesian axes, Ry/au):

     atom    1 type  1   force =     0.00010760   -0.00027690    0.00004355
     atom    2 type  2   force =    -0.00009268    0.00023661   -0.00014276
     atom    3 type  2   force =    -0.00001507    0.00004082    0.00002363
     atom    4 type  1   force =    -0.00010748    0.00027724   -0.00006548
     atom    5 type  2   force =     0.00001504   -0.00004099   -0.00001282
     atom    6 type  2   force =     0.00009259   -0.00023677    0.00015387

     Total force =     0.000429     Total SCF correction =     0.000000


     Computing stress (Cartesian axis) and pressure


     negative rho (up, down):  3.637E-04 0.000E+00
          total   stress  (Ry/bohr**3)                   (kbar)     P=       -0.58
  -0.00000039  -0.00000022  -0.00000031           -0.06       -0.03       -0.05
  -0.00000022  -0.00000147   0.00000078           -0.03       -0.22        0.11
  -0.00000031   0.00000078  -0.00000994           -0.05        0.11       -1.46


     Writing output data file /scratch/as3359/MoS2_loop/Ta.save/
 
     init_run     :     25.62s CPU     14.56s WALL (       2 calls)
     electrons    :  15925.62s CPU   8122.04s WALL (      18 calls)
     update_pot   :     96.05s CPU     57.30s WALL (      16 calls)
     forces       :     80.66s CPU     40.94s WALL (      18 calls)
     stress       :    223.93s CPU    113.68s WALL (      18 calls)

     Called by init_run:
     wfcinit      :     13.95s CPU      7.20s WALL (       2 calls)
     potinit      :      3.44s CPU      1.77s WALL (       2 calls)
     hinit0       :      7.64s CPU      5.22s WALL (       2 calls)

     Called by electrons:
     c_bands      :  13682.01s CPU   6937.12s WALL (     813 calls)
     sum_band     :   1841.91s CPU    960.06s WALL (     813 calls)
     v_of_rho     :     69.54s CPU     35.48s WALL (     830 calls)
     newd         :    133.95s CPU     88.39s WALL (     830 calls)
     PAW_pot      :    177.03s CPU     89.68s WALL (     846 calls)
     mix_rho      :     21.22s CPU     10.88s WALL (     813 calls)

     Called by c_bands:
     init_us_2    :    231.61s CPU    116.62s WALL (  124320 calls)
     cegterg      :  13107.39s CPU   6645.50s WALL (   61097 calls)

     Called by *egterg:
     cdiaghg      :    429.26s CPU    220.12s WALL (  350046 calls)
     h_psi        :  10426.37s CPU   5295.23s WALL (  352008 calls)
     s_psi        :    394.45s CPU    198.38s WALL (  352008 calls)
     g_psi        :     77.18s CPU     38.84s WALL (  290763 calls)

     Called by h_psi:
     h_psi:calbec :    385.23s CPU    194.52s WALL (  352008 calls)
     vloc_psi     :   9490.67s CPU   4824.21s WALL (  352008 calls)
     add_vuspsi   :    480.29s CPU    241.38s WALL (  352008 calls)

     General routines
     calbec       :    478.22s CPU    241.63s WALL (  420014 calls)
     fft          :     32.05s CPU     16.36s WALL (   11221 calls)
     ffts         :      3.17s CPU      1.64s WALL (    1643 calls)
     fftw         :   9611.46s CPU   4884.63s WALL (11994292 calls)
     interpolate  :      5.99s CPU      3.11s WALL (     830 calls)
 
     Parallel routines
 
     PWSCF        :      4h32m CPU      2h19m WALL

 
   This run was terminated on:  19: 6:53   9Apr2022            

=------------------------------------------------------------------------------=
   JOB DONE.
=------------------------------------------------------------------------------=
