
     Program PWSCF v.6.8 starts on  7Apr2022 at  0:15: 8 

     This program is part of the open-source Quantum ESPRESSO suite
     for quantum simulation of materials; please cite
         "P. Giannozzi et al., J. Phys.:Condens. Matter 21 395502 (2009);
         "P. Giannozzi et al., J. Phys.:Condens. Matter 29 465901 (2017);
         "P. Giannozzi et al., J. Chem. Phys. 152 154105 (2020);
          URL http://www.quantum-espresso.org", 
     in publications or presentations arising from this work. More details at
     http://www.quantum-espresso.org/quote

     Parallel version (MPI & OpenMP), running on       4 processor cores
     Number of MPI processes:                 2
     Threads/MPI process:                     2

     MPI processes distributed on     1 nodes
     R & G space division:  proc/nbgrp/npool/nimage =       2
     124971 MiB available memory on the printing compute node when the environment starts
 
     Reading input from Ta2C.scf.150.in

     Current dimensions of program PWSCF are:
     Max number of different atomic species (ntypx) = 10
     Max number of k-points (npk) =  40000
     Max angular momentum in pseudopotentials (lmaxx) =  4
     file Ta.pbesol-spfn-rrkjus_psl.1.0.0.UPF: wavefunction(s)  5S 5P renormalized

     Subspace diagonalization in iterative solution of the eigenvalue problem:
     a serial algorithm will be used

 
     Parallelization info
     --------------------
     sticks:   dense  smooth     PW     G-vecs:    dense   smooth      PW
     Min         859     684    205               275391   197288   31815
     Max         860     685    206               275394   197321   31818
     Sum        1719    1369    411               550785   394609   63633
 
     Using Slab Decomposition
 


     bravais-lattice index     =            0
     lattice parameter (alat)  =       5.5500  a.u.
     unit-cell volume          =    1588.7844 (a.u.)^3
     number of atoms/cell      =            3
     number of atomic types    =            2
     number of electrons       =        58.00
     number of Kohn-Sham states=           29
     kinetic-energy cutoff     =     150.0000  Ry
     charge density cutoff     =     750.0000  Ry
     scf convergence threshold =      1.0E-12
     mixing beta               =       0.7000
     number of iterations used =            8  plain     mixing
     Exchange-correlation= PBESOL
                           (   1   4  10   8   0   0   0)

     celldm(1)=   5.550000  celldm(2)=   0.000000  celldm(3)=   0.000000
     celldm(4)=   0.000000  celldm(5)=   0.000000  celldm(6)=   0.000000

     crystal axes: (cart. coord. in units of alat)
               a(1) = (   1.034114   0.000203   0.000000 )  
               a(2) = (  -0.516207   0.898604   0.000000 )  
               a(3) = (   0.000000   0.000000  10.000000 )  

     reciprocal axes: (cart. coord. in units 2 pi/alat)
               b(1) = (  0.966902  0.555441  0.000000 )  
               b(2) = ( -0.000219  1.112711  0.000000 )  
               b(3) = (  0.000000  0.000000  0.100000 )  


     PseudoPot. # 1 for Ta read from file:
     /shared/home/as3359/pseudo/Ta.pbesol-spfn-rrkjus_psl.1.0.0.UPF
     MD5 check sum: f099565ffaca9b150a52e9412a28e20b
     Pseudo is Ultrasoft + core correction, Zval = 27.0
     Generated using &quot;atomic&quot; code by A. Dal Corso  v.6.3
     Using radial grid of 1273 points,  8 beta functions with: 
                l(1) =   0
                l(2) =   0
                l(3) =   1
                l(4) =   1
                l(5) =   2
                l(6) =   2
                l(7) =   3
                l(8) =   3
     Q(r) pseudized with 0 coefficients 


     PseudoPot. # 2 for C  read from file:
     /shared/home/as3359/pseudo/C.pbesol-n-rrkjus_psl.1.0.0.UPF
     MD5 check sum: 05995be603a8a7c99da3dc4413f31573
     Pseudo is Ultrasoft + core correction, Zval =  4.0
     Generated using &quot;atomic&quot; code by A. Dal Corso  v.6.3MaX
     Using radial grid of 1073 points,  4 beta functions with: 
                l(1) =   0
                l(2) =   0
                l(3) =   1
                l(4) =   1
     Q(r) pseudized with 0 coefficients 


     atomic species   valence    mass     pseudopotential
        Ta            27.00   180.94788     Ta( 1.00)
        C              4.00    12.01070     C ( 1.00)

     No symmetry found



   Cartesian axes

     site n.     atom                  positions (alat units)
         1           C   tau(   1) = (   0.0000000   0.0000000   0.0000000  )
         2           Ta  tau(   2) = (   0.5174615   0.3004190  -0.4127129  )
         3           Ta  tau(   3) = (   0.0007158   0.5986355   0.4125272  )

     number of k points=    74
                       cart. coord. in units 2pi/alat
        k(    1) = (   0.0000000   0.0000000   0.0000000), wk =   0.0138889
        k(    2) = (  -0.0000182   0.0927259   0.0000000), wk =   0.0277778
        k(    3) = (  -0.0000364   0.1854519   0.0000000), wk =   0.0277778
        k(    4) = (  -0.0000547   0.2781778   0.0000000), wk =   0.0277778
        k(    5) = (  -0.0000729   0.3709037   0.0000000), wk =   0.0277778
        k(    6) = (  -0.0000911   0.4636296   0.0000000), wk =   0.0277778
        k(    7) = (   0.0001093  -0.5563556   0.0000000), wk =   0.0138889
        k(    8) = (   0.0805752   0.0462867   0.0000000), wk =   0.0277778
        k(    9) = (   0.0805570   0.1390127   0.0000000), wk =   0.0277778
        k(   10) = (   0.0805388   0.2317386   0.0000000), wk =   0.0277778
        k(   11) = (   0.0805205   0.3244645   0.0000000), wk =   0.0277778
        k(   12) = (   0.0805023   0.4171904   0.0000000), wk =   0.0277778
        k(   13) = (   0.0804841   0.5099164   0.0000000), wk =   0.0277778
        k(   14) = (   0.0806845  -0.5100688   0.0000000), wk =   0.0277778
        k(   15) = (   0.0806663  -0.4173429   0.0000000), wk =   0.0277778
        k(   16) = (   0.0806481  -0.3246170   0.0000000), wk =   0.0277778
        k(   17) = (   0.0806298  -0.2318910   0.0000000), wk =   0.0277778
        k(   18) = (   0.0806116  -0.1391651   0.0000000), wk =   0.0277778
        k(   19) = (   0.0805934  -0.0464392   0.0000000), wk =   0.0277778
        k(   20) = (   0.1611504   0.0925735   0.0000000), wk =   0.0277778
        k(   21) = (   0.1611322   0.1852994   0.0000000), wk =   0.0277778
        k(   22) = (   0.1611139   0.2780253   0.0000000), wk =   0.0277778
        k(   23) = (   0.1610957   0.3707513   0.0000000), wk =   0.0277778
        k(   24) = (   0.1610775   0.4634772   0.0000000), wk =   0.0277778
        k(   25) = (   0.1610593   0.5562031   0.0000000), wk =   0.0277778
        k(   26) = (   0.1612597  -0.4637821   0.0000000), wk =   0.0277778
        k(   27) = (   0.1612415  -0.3710561   0.0000000), wk =   0.0277778
        k(   28) = (   0.1612232  -0.2783302   0.0000000), wk =   0.0277778
        k(   29) = (   0.1612050  -0.1856043   0.0000000), wk =   0.0277778
        k(   30) = (   0.1611868  -0.0928784   0.0000000), wk =   0.0277778
        k(   31) = (   0.1611686  -0.0001524   0.0000000), wk =   0.0277778
        k(   32) = (   0.2417256   0.1388602   0.0000000), wk =   0.0277778
        k(   33) = (   0.2417073   0.2315862   0.0000000), wk =   0.0277778
        k(   34) = (   0.2416891   0.3243121   0.0000000), wk =   0.0277778
        k(   35) = (   0.2416709   0.4170380   0.0000000), wk =   0.0277778
        k(   36) = (   0.2416527   0.5097639   0.0000000), wk =   0.0277778
        k(   37) = (   0.2416345   0.6024899   0.0000000), wk =   0.0277778
        k(   38) = (   0.2418349  -0.4174953   0.0000000), wk =   0.0277778
        k(   39) = (   0.2418166  -0.3247694   0.0000000), wk =   0.0277778
        k(   40) = (   0.2417984  -0.2320435   0.0000000), wk =   0.0277778
        k(   41) = (   0.2417802  -0.1393175   0.0000000), wk =   0.0277778
        k(   42) = (   0.2417620  -0.0465916   0.0000000), wk =   0.0277778
        k(   43) = (   0.2417438   0.0461343   0.0000000), wk =   0.0277778
        k(   44) = (   0.3223007   0.1851470   0.0000000), wk =   0.0277778
        k(   45) = (   0.3222825   0.2778729   0.0000000), wk =   0.0277778
        k(   46) = (   0.3222643   0.3705988   0.0000000), wk =   0.0277778
        k(   47) = (   0.3222461   0.4633248   0.0000000), wk =   0.0277778
        k(   48) = (   0.3222279   0.5560507   0.0000000), wk =   0.0277778
        k(   49) = (   0.3222097   0.6487766   0.0000000), wk =   0.0277778
        k(   50) = (   0.3224100  -0.3712086   0.0000000), wk =   0.0277778
        k(   51) = (   0.3223918  -0.2784827   0.0000000), wk =   0.0277778
        k(   52) = (   0.3223736  -0.1857567   0.0000000), wk =   0.0277778
        k(   53) = (   0.3223554  -0.0930308   0.0000000), wk =   0.0277778
        k(   54) = (   0.3223372  -0.0003049   0.0000000), wk =   0.0277778
        k(   55) = (   0.3223190   0.0924210   0.0000000), wk =   0.0277778
        k(   56) = (   0.4028759   0.2314337   0.0000000), wk =   0.0277778
        k(   57) = (   0.4028577   0.3241596   0.0000000), wk =   0.0277778
        k(   58) = (   0.4028395   0.4168856   0.0000000), wk =   0.0277778
        k(   59) = (   0.4028213   0.5096115   0.0000000), wk =   0.0277778
        k(   60) = (   0.4028031   0.6023374   0.0000000), wk =   0.0277778
        k(   61) = (   0.4027848   0.6950633   0.0000000), wk =   0.0277778
        k(   62) = (   0.4029852  -0.3249218   0.0000000), wk =   0.0277778
        k(   63) = (   0.4029670  -0.2321959   0.0000000), wk =   0.0277778
        k(   64) = (   0.4029488  -0.1394700   0.0000000), wk =   0.0277778
        k(   65) = (   0.4029306  -0.0467441   0.0000000), wk =   0.0277778
        k(   66) = (   0.4029124   0.0459819   0.0000000), wk =   0.0277778
        k(   67) = (   0.4028941   0.1387078   0.0000000), wk =   0.0277778
        k(   68) = (  -0.4834511  -0.2777205   0.0000000), wk =   0.0138889
        k(   69) = (  -0.4834693  -0.1849945   0.0000000), wk =   0.0277778
        k(   70) = (  -0.4834875  -0.0922686   0.0000000), wk =   0.0277778
        k(   71) = (  -0.4835058   0.0004573   0.0000000), wk =   0.0277778
        k(   72) = (  -0.4835240   0.0931832   0.0000000), wk =   0.0277778
        k(   73) = (  -0.4835422   0.1859092   0.0000000), wk =   0.0277778
        k(   74) = (  -0.4833418  -0.8340760   0.0000000), wk =   0.0138889

     Dense  grid:   550785 G-vectors     FFT dimensions: (  54,  54, 486)

     Smooth grid:   394609 G-vectors     FFT dimensions: (  45,  45, 450)

     Estimated max dynamical RAM per process >       3.39 GB

     Estimated total dynamical RAM >       6.78 GB

     Initial potential from superposition of free atoms

     starting charge   57.99842, renormalised to   58.00000

     negative rho (up, down):  4.983E-05 0.000E+00
     Starting wfcs are   38 randomized atomic wfcs

     total cpu time spent up to now is       26.3 secs

     Self-consistent Calculation

     iteration #  1     ecut=   150.00 Ry     beta= 0.70
     Davidson diagonalization with overlap
     ethr =  1.00E-02,  avg # of iterations =  2.1

     negative rho (up, down):  4.712E-07 0.000E+00

     total cpu time spent up to now is       65.2 secs

     total energy              =   -1372.42734280 Ry
     estimated scf accuracy    <       1.29318034 Ry

     iteration #  2     ecut=   150.00 Ry     beta= 0.70
     Davidson diagonalization with overlap
     ethr =  2.23E-03,  avg # of iterations =  6.8

     total cpu time spent up to now is      121.9 secs

     total energy              =   -1371.95026052 Ry
     estimated scf accuracy    <       8.15806964 Ry

     iteration #  3     ecut=   150.00 Ry     beta= 0.70
     Davidson diagonalization with overlap
     ethr =  2.23E-03,  avg # of iterations =  5.8

     total cpu time spent up to now is      174.3 secs

     total energy              =   -1373.21558255 Ry
     estimated scf accuracy    <       0.11821887 Ry

     iteration #  4     ecut=   150.00 Ry     beta= 0.70
     Davidson diagonalization with overlap
     ethr =  2.04E-04,  avg # of iterations =  6.1

     total cpu time spent up to now is      222.1 secs

     total energy              =   -1373.24635247 Ry
     estimated scf accuracy    <       0.08389447 Ry

     iteration #  5     ecut=   150.00 Ry     beta= 0.70
     Davidson diagonalization with overlap
     ethr =  1.45E-04,  avg # of iterations =  4.9

     total cpu time spent up to now is      265.9 secs

     total energy              =   -1373.24735749 Ry
     estimated scf accuracy    <       0.04854869 Ry

     iteration #  6     ecut=   150.00 Ry     beta= 0.70
     Davidson diagonalization with overlap
     ethr =  8.37E-05,  avg # of iterations =  3.5

     negative rho (up, down):  2.073E-06 0.000E+00

     total cpu time spent up to now is      306.5 secs

     total energy              =   -1373.24994909 Ry
     estimated scf accuracy    <       0.00418820 Ry

     iteration #  7     ecut=   150.00 Ry     beta= 0.70
     Davidson diagonalization with overlap
     ethr =  7.22E-06,  avg # of iterations =  7.6

     negative rho (up, down):  3.796E-06 0.000E+00

     total cpu time spent up to now is      363.6 secs

     total energy              =   -1373.25082804 Ry
     estimated scf accuracy    <       0.00328525 Ry

     iteration #  8     ecut=   150.00 Ry     beta= 0.70
     Davidson diagonalization with overlap
     ethr =  5.66E-06,  avg # of iterations =  4.2

     negative rho (up, down):  3.305E-05 0.000E+00

     total cpu time spent up to now is      406.7 secs

     total energy              =   -1373.25129848 Ry
     estimated scf accuracy    <       0.00026042 Ry

     iteration #  9     ecut=   150.00 Ry     beta= 0.70
     Davidson diagonalization with overlap
     ethr =  4.49E-07,  avg # of iterations =  8.4

     negative rho (up, down):  5.006E-05 0.000E+00

     total cpu time spent up to now is      467.0 secs

     total energy              =   -1373.25133084 Ry
     estimated scf accuracy    <       0.00066090 Ry

     iteration # 10     ecut=   150.00 Ry     beta= 0.70
     Davidson diagonalization with overlap
     ethr =  4.49E-07,  avg # of iterations =  4.1

     negative rho (up, down):  4.401E-05 0.000E+00

     total cpu time spent up to now is      510.1 secs

     total energy              =   -1373.25137117 Ry
     estimated scf accuracy    <       0.00006648 Ry

     iteration # 11     ecut=   150.00 Ry     beta= 0.70
     Davidson diagonalization with overlap
     ethr =  1.15E-07,  avg # of iterations =  6.8

     negative rho (up, down):  5.842E-05 0.000E+00

     total cpu time spent up to now is      558.2 secs

     total energy              =   -1373.25138566 Ry
     estimated scf accuracy    <       0.00001300 Ry

     iteration # 12     ecut=   150.00 Ry     beta= 0.70
     Davidson diagonalization with overlap
     ethr =  2.24E-08,  avg # of iterations =  5.2

     negative rho (up, down):  5.901E-05 0.000E+00

     total cpu time spent up to now is      601.4 secs

     total energy              =   -1373.25138672 Ry
     estimated scf accuracy    <       0.00000340 Ry

     iteration # 13     ecut=   150.00 Ry     beta= 0.70
     Davidson diagonalization with overlap
     ethr =  5.86E-09,  avg # of iterations =  5.3

     negative rho (up, down):  5.940E-05 0.000E+00

     total cpu time spent up to now is      645.9 secs

     total energy              =   -1373.25138713 Ry
     estimated scf accuracy    <       0.00000012 Ry

     iteration # 14     ecut=   150.00 Ry     beta= 0.70
     Davidson diagonalization with overlap
     c_bands:  1 eigenvalues not converged
     ethr =  2.03E-10,  avg # of iterations =  7.7

     negative rho (up, down):  5.949E-05 0.000E+00

     total cpu time spent up to now is      704.1 secs

     total energy              =   -1373.25138718 Ry
     estimated scf accuracy    <       0.00000016 Ry

     iteration # 15     ecut=   150.00 Ry     beta= 0.70
     Davidson diagonalization with overlap
     ethr =  2.03E-10,  avg # of iterations =  3.6

     negative rho (up, down):  5.969E-05 0.000E+00

     total cpu time spent up to now is      745.3 secs

     total energy              =   -1373.25138718 Ry
     estimated scf accuracy    <       0.00000004 Ry

     iteration # 16     ecut=   150.00 Ry     beta= 0.70
     Davidson diagonalization with overlap
     ethr =  6.37E-11,  avg # of iterations =  6.9

     negative rho (up, down):  5.969E-05 0.000E+00

     total cpu time spent up to now is      794.0 secs

     total energy              =   -1373.25138719 Ry
     estimated scf accuracy    <       0.00000013 Ry

     iteration # 17     ecut=   150.00 Ry     beta= 0.70
     Davidson diagonalization with overlap
     ethr =  6.37E-11,  avg # of iterations =  1.5

     negative rho (up, down):  5.971E-05 0.000E+00

     total cpu time spent up to now is      830.5 secs

     total energy              =   -1373.25138718 Ry
     estimated scf accuracy    <       0.00000010 Ry

     iteration # 18     ecut=   150.00 Ry     beta= 0.70
     Davidson diagonalization with overlap
     ethr =  6.37E-11,  avg # of iterations =  3.7

     negative rho (up, down):  5.972E-05 0.000E+00

     total cpu time spent up to now is      871.0 secs

     total energy              =   -1373.25138718 Ry
     estimated scf accuracy    <       0.00000003 Ry

     iteration # 19     ecut=   150.00 Ry     beta= 0.70
     Davidson diagonalization with overlap
     ethr =  4.34E-11,  avg # of iterations =  5.8

     negative rho (up, down):  5.970E-05 0.000E+00

     total cpu time spent up to now is      916.1 secs

     total energy              =   -1373.25138718 Ry
     estimated scf accuracy    <          4.9E-09 Ry

     iteration # 20     ecut=   150.00 Ry     beta= 0.70
     Davidson diagonalization with overlap
     ethr =  8.37E-12,  avg # of iterations =  5.4

     negative rho (up, down):  5.967E-05 0.000E+00

     total cpu time spent up to now is      959.3 secs

     total energy              =   -1373.25138718 Ry
     estimated scf accuracy    <       0.00000001 Ry

     iteration # 21     ecut=   150.00 Ry     beta= 0.70
     Davidson diagonalization with overlap
     ethr =  8.37E-12,  avg # of iterations =  2.6

     negative rho (up, down):  5.967E-05 0.000E+00

     total cpu time spent up to now is      997.9 secs

     total energy              =   -1373.25138718 Ry
     estimated scf accuracy    <          6.0E-09 Ry

     iteration # 22     ecut=   150.00 Ry     beta= 0.70
     Davidson diagonalization with overlap
     ethr =  8.37E-12,  avg # of iterations =  5.2

     negative rho (up, down):  5.967E-05 0.000E+00

     total cpu time spent up to now is     1041.3 secs

     total energy              =   -1373.25138718 Ry
     estimated scf accuracy    <          5.8E-11 Ry

     iteration # 23     ecut=   150.00 Ry     beta= 0.70
     Davidson diagonalization with overlap
     ethr =  1.00E-13,  avg # of iterations =  7.4

     negative rho (up, down):  5.967E-05 0.000E+00

     total cpu time spent up to now is     1094.7 secs

     total energy              =   -1373.25138718 Ry
     estimated scf accuracy    <          1.0E-09 Ry

     iteration # 24     ecut=   150.00 Ry     beta= 0.70
     Davidson diagonalization with overlap
     ethr =  1.00E-13,  avg # of iterations =  1.2

     negative rho (up, down):  5.967E-05 0.000E+00

     total cpu time spent up to now is     1130.5 secs

     total energy              =   -1373.25138718 Ry
     estimated scf accuracy    <          9.0E-10 Ry

     iteration # 25     ecut=   150.00 Ry     beta= 0.70
     Davidson diagonalization with overlap
     ethr =  1.00E-13,  avg # of iterations =  7.6

     negative rho (up, down):  5.967E-05 0.000E+00

     total cpu time spent up to now is     1182.3 secs

     total energy              =   -1373.25138718 Ry
     estimated scf accuracy    <          3.5E-12 Ry

     iteration # 26     ecut=   150.00 Ry     beta= 0.70
     Davidson diagonalization with overlap
     ethr =  1.00E-13,  avg # of iterations =  1.0

     negative rho (up, down):  5.967E-05 0.000E+00

     total cpu time spent up to now is     1217.9 secs

     total energy              =   -1373.25138718 Ry
     estimated scf accuracy    <          1.2E-12 Ry

     iteration # 27     ecut=   150.00 Ry     beta= 0.70
     Davidson diagonalization with overlap
     ethr =  1.00E-13,  avg # of iterations =  1.0

     negative rho (up, down):  5.967E-05 0.000E+00

     total cpu time spent up to now is     1253.2 secs

     End of self-consistent calculation

          k = 0.0000 0.0000 0.0000 ( 49405 PWs)   bands (ev):

   -68.2900 -68.2424 -35.3157 -34.7120 -34.4039 -34.3989 -34.3389 -34.3325
   -19.9456 -19.9319 -19.9066 -19.9061 -19.9007 -19.9003 -19.8741 -19.8734
   -19.8662 -19.8662 -19.8590 -19.8536 -19.7925 -19.7910 -13.2784  -7.6692
    -4.3940  -4.3507  -1.9292  -0.8992  -0.7265

          k =-0.0000 0.0927 0.0000 ( 49347 PWs)   bands (ev):

   -68.2862 -68.2400 -35.3030 -34.7172 -34.4509 -34.4152 -34.3828 -34.3387
   -19.9441 -19.9309 -19.9081 -19.9065 -19.9010 -19.8992 -19.8756 -19.8731
   -19.8666 -19.8655 -19.8561 -19.8510 -19.7953 -19.7939 -13.1645  -7.4491
    -4.7174  -4.3164  -1.8343  -1.0828  -0.5374

          k =-0.0000 0.1855 0.0000 ( 49275 PWs)   bands (ev):

   -68.2756 -68.2335 -35.2688 -34.7450 -34.5653 -34.4998 -34.4565 -34.3578
   -19.9401 -19.9285 -19.9118 -19.9076 -19.9020 -19.8967 -19.8793 -19.8721
   -19.8675 -19.8636 -19.8484 -19.8437 -19.8028 -19.8017 -12.8641  -6.8676
    -5.3778  -4.2536  -1.8297  -1.4638  -0.9836

          k =-0.0001 0.2782 0.0000 ( 49249 PWs)   bands (ev):

   -68.2607 -68.2250 -35.2252 -34.8487 -34.6621 -34.6415 -34.5093 -34.3870
   -19.9356 -19.9251 -19.9161 -19.9090 -19.9038 -19.8945 -19.8830 -19.8702
   -19.8685 -19.8607 -19.8378 -19.8337 -19.8126 -19.8114 -12.4841  -6.4529
    -5.6911  -4.2423  -2.4627  -1.5267  -1.0282

          k =-0.0001 0.3709 0.0000 ( 49256 PWs)   bands (ev):

   -68.2451 -68.2173 -35.1951 -35.0052 -34.7789 -34.6874 -34.5597 -34.4178
   -19.9334 -19.9209 -19.9192 -19.9105 -19.9064 -19.8936 -19.8852 -19.8694
   -19.8676 -19.8574 -19.8269 -19.8237 -19.8223 -19.8201 -12.1484  -6.8399
    -5.2233  -4.3019  -3.0995  -1.1909  -0.6682

          k =-0.0001 0.4636 0.0000 ( 49258 PWs)   bands (ev):

   -68.2326 -68.2125 -35.1992 -35.1237 -34.8376 -34.7119 -34.5956 -34.4410
   -19.9334 -19.9203 -19.9177 -19.9118 -19.9088 -19.8939 -19.8856 -19.8698
   -19.8653 -19.8548 -19.8292 -19.8258 -19.8186 -19.8164 -11.9370  -7.1608
    -5.0003  -4.3780  -3.4989  -0.4172  -0.1610

          k = 0.0001-0.5564 0.0000 ( 49320 PWs)   bands (ev):

   -68.2276 -68.2112 -35.2128 -35.1637 -34.8469 -34.7232 -34.6086 -34.4496
   -19.9337 -19.9202 -19.9172 -19.9123 -19.9094 -19.8942 -19.8855 -19.8700
   -19.8644 -19.8537 -19.8317 -19.8277 -19.8154 -19.8138 -11.8678  -7.2708
    -4.9678  -4.4110  -3.6323   0.0686   0.0979

          k = 0.0806 0.0463 0.0000 ( 49328 PWs)   bands (ev):

   -68.2862 -68.2399 -35.3029 -34.7171 -34.4488 -34.4181 -34.3796 -34.3424
   -19.9441 -19.9309 -19.9079 -19.9067 -19.9009 -19.8993 -19.8753 -19.8734
   -19.8666 -19.8655 -19.8561 -19.8510 -19.7954 -19.7940 -13.1639  -7.4482
    -4.6957  -4.3414  -1.8327  -1.0813  -0.5379

          k = 0.0806 0.1390 0.0000 ( 49268 PWs)   bands (ev):

   -68.2790 -68.2355 -35.2794 -34.7322 -34.5208 -34.4922 -34.4176 -34.3619
   -19.9413 -19.9292 -19.9103 -19.9080 -19.9012 -19.8977 -19.8780 -19.8726
   -19.8670 -19.8644 -19.8508 -19.8460 -19.8005 -19.7993 -12.9568  -7.0389
    -5.1726  -4.3247  -1.7347  -1.2932  -0.9135

          k = 0.0805 0.2317 0.0000 ( 49206 PWs)   bands (ev):

   -68.2662 -68.2280 -35.2400 -34.7906 -34.6304 -34.6059 -34.4758 -34.3941
   -19.9367 -19.9266 -19.9139 -19.9100 -19.9019 -19.8955 -19.8817 -19.8716
   -19.8672 -19.8624 -19.8417 -19.8374 -19.8091 -19.8082 -12.6161  -6.3884
    -5.7338  -4.4047  -1.9816  -1.4634  -1.1261

          k = 0.0805 0.3245 0.0000 ( 49253 PWs)   bands (ev):

   -68.2509 -68.2200 -35.2011 -34.9240 -34.7432 -34.6735 -34.5416 -34.4287
   -19.9327 -19.9231 -19.9175 -19.9116 -19.9038 -19.8942 -19.8847 -19.8704
   -19.8667 -19.8596 -19.8310 -19.8274 -19.8189 -19.8176 -12.2585  -6.5048
    -5.4354  -4.5289  -2.6322  -1.1754  -1.0478

          k = 0.0805 0.4172 0.0000 ( 49269 PWs)   bands (ev):

   -68.2367 -68.2139 -35.1858 -35.0616 -34.8189 -34.7117 -34.5925 -34.4592
   -19.9316 -19.9197 -19.9190 -19.9124 -19.9067 -19.8942 -19.8860 -19.8698
   -19.8656 -19.8567 -19.8275 -19.8250 -19.8212 -19.8187 -11.9875  -6.9065
    -5.0200  -4.6232  -3.0768  -0.7191  -0.5735

          k = 0.0805 0.5099 0.0000 ( 49343 PWs)   bands (ev):

   -68.2276 -68.2112 -35.1950 -35.1413 -34.8388 -34.7390 -34.6189 -34.4772
   -19.9320 -19.9200 -19.9170 -19.9123 -19.9089 -19.8946 -19.8861 -19.8695
   -19.8648 -19.8548 -19.8323 -19.8289 -19.8155 -19.8138 -11.8504  -7.1219
    -4.9158  -4.6866  -3.2858  -0.1421  -0.0720

          k = 0.0807-0.5101 0.0000 ( 49339 PWs)   bands (ev):

   -68.2275 -68.2112 -35.1953 -35.1415 -34.8391 -34.7389 -34.6189 -34.4772
   -19.9320 -19.9201 -19.9169 -19.9123 -19.9090 -19.8946 -19.8861 -19.8696
   -19.8648 -19.8548 -19.8323 -19.8289 -19.8155 -19.8138 -11.8502  -7.1223
    -4.9164  -4.6858  -3.2870  -0.1420  -0.0726

          k = 0.0807-0.4173 0.0000 ( 49281 PWs)   bands (ev):

   -68.2366 -68.2138 -35.1860 -35.0622 -34.8196 -34.7115 -34.5923 -34.4592
   -19.9316 -19.9197 -19.9190 -19.9124 -19.9067 -19.8942 -19.8860 -19.8698
   -19.8655 -19.8567 -19.8275 -19.8251 -19.8212 -19.8186 -11.9870  -6.9076
    -5.0200  -4.6227  -3.0799  -0.7169  -0.5757

          k = 0.0806-0.3246 0.0000 ( 49259 PWs)   bands (ev):

   -68.2508 -68.2199 -35.2011 -34.9247 -34.7439 -34.6736 -34.5416 -34.4287
   -19.9327 -19.9231 -19.9175 -19.9116 -19.9038 -19.8943 -19.8847 -19.8705
   -19.8666 -19.8596 -19.8309 -19.8273 -19.8190 -19.8176 -12.2576  -6.5058
    -5.4348  -4.5290  -2.6354  -1.1747  -1.0473

          k = 0.0806-0.2319 0.0000 ( 49227 PWs)   bands (ev):

   -68.2661 -68.2280 -35.2398 -34.7908 -34.6307 -34.6062 -34.4764 -34.3945
   -19.9367 -19.9266 -19.9139 -19.9100 -19.9019 -19.8956 -19.8817 -19.8716
   -19.8672 -19.8624 -19.8417 -19.8373 -19.8091 -19.8083 -12.6152  -6.3871
    -5.7334  -4.4062  -1.9831  -1.4622  -1.1258

          k = 0.0806-0.1392 0.0000 ( 49267 PWs)   bands (ev):

   -68.2789 -68.2354 -35.2793 -34.7321 -34.5204 -34.4919 -34.4185 -34.3631
   -19.9413 -19.9293 -19.9101 -19.9081 -19.9010 -19.8978 -19.8779 -19.8727
   -19.8670 -19.8644 -19.8508 -19.8460 -19.8005 -19.7993 -12.9561  -7.0376
    -5.1674  -4.3316  -1.7336  -1.2915  -0.9090

          k = 0.0806-0.0464 0.0000 ( 49336 PWs)   bands (ev):

   -68.2861 -68.2399 -35.3028 -34.7170 -34.4472 -34.4199 -34.3780 -34.3442
   -19.9441 -19.9309 -19.9077 -19.9070 -19.9006 -19.8995 -19.8752 -19.8736
   -19.8666 -19.8656 -19.8561 -19.8509 -19.7954 -19.7940 -13.1636  -7.4476
    -4.6862  -4.3523  -1.8319  -1.0802  -0.5355

          k = 0.1612 0.0926 0.0000 ( 49259 PWs)   bands (ev):

   -68.2754 -68.2334 -35.2683 -34.7446 -34.5644 -34.4974 -34.4602 -34.3620
   -19.9400 -19.9285 -19.9117 -19.9078 -19.9018 -19.8969 -19.8790 -19.8724
   -19.8675 -19.8636 -19.8483 -19.8436 -19.8029 -19.8018 -12.8620  -6.8643
    -5.3613  -4.2800  -1.8198  -1.4633  -0.9779

          k = 0.1611 0.1853 0.0000 ( 49224 PWs)   bands (ev):

   -68.2661 -68.2279 -35.2396 -34.7899 -34.6309 -34.6048 -34.4773 -34.3969
   -19.9366 -19.9266 -19.9138 -19.9101 -19.9019 -19.8956 -19.8816 -19.8716
   -19.8672 -19.8624 -19.8417 -19.8373 -19.8092 -19.8083 -12.6147  -6.3856
    -5.7264  -4.4194  -1.9701  -1.4671  -1.1312

          k = 0.1611 0.2780 0.0000 ( 49224 PWs)   bands (ev):

   -68.2529 -68.2209 -35.2034 -34.8735 -34.7494 -34.6591 -34.5233 -34.4579
   -19.9317 -19.9245 -19.9155 -19.9137 -19.9022 -19.8949 -19.8844 -19.8712
   -19.8651 -19.8614 -19.8324 -19.8287 -19.8176 -19.8172 -12.2959  -6.1395
    -5.6823  -4.7641  -2.1269  -1.6198  -0.5745

          k = 0.1611 0.3708 0.0000 ( 49269 PWs)   bands (ev):

   -68.2388 -68.2146 -35.1754 -34.9811 -34.8306 -34.7010 -34.5911 -34.5098
   -19.9279 -19.9221 -19.9174 -19.9146 -19.9040 -19.8951 -19.8864 -19.8704
   -19.8636 -19.8599 -19.8267 -19.8259 -19.8225 -19.8199 -12.0056  -6.4835
    -5.1403  -4.9847  -2.3889  -1.2982  -0.6045

          k = 0.1611 0.4635 0.0000 ( 49312 PWs)   bands (ev):

   -68.2274 -68.2111 -35.1629 -35.0754 -34.8455 -34.7584 -34.6352 -34.5446
   -19.9278 -19.9200 -19.9171 -19.9131 -19.9070 -19.8959 -19.8872 -19.8690
   -19.8644 -19.8577 -19.8332 -19.8313 -19.8156 -19.8138 -11.8149  -6.7418
    -5.1822  -4.7889  -2.5619  -0.6832  -0.4809

          k = 0.1611 0.5562 0.0000 ( 49338 PWs)   bands (ev):

   -68.2226 -68.2105 -35.1556 -35.1178 -34.8187 -34.8107 -34.6469 -34.5576
   -19.9283 -19.9197 -19.9157 -19.9121 -19.9088 -19.8963 -19.8874 -19.8680
   -19.8654 -19.8567 -19.8356 -19.8332 -19.8128 -19.8116 -11.7501  -6.8369
    -5.2110  -4.7415  -2.6301  -0.3327  -0.2770

          k = 0.1613-0.4638 0.0000 ( 49328 PWs)   bands (ev):

   -68.2273 -68.2111 -35.1634 -35.0762 -34.8463 -34.7580 -34.6351 -34.5444
   -19.9278 -19.9199 -19.9171 -19.9131 -19.9070 -19.8959 -19.8872 -19.8691
   -19.8643 -19.8577 -19.8332 -19.8313 -19.8155 -19.8137 -11.8143  -6.7434
    -5.1824  -4.7890  -2.5640  -0.6874  -0.4802

          k = 0.1612-0.3711 0.0000 ( 49259 PWs)   bands (ev):

   -68.2387 -68.2145 -35.1756 -34.9825 -34.8314 -34.7012 -34.5910 -34.5098
   -19.9279 -19.9221 -19.9174 -19.9146 -19.9040 -19.8952 -19.8864 -19.8704
   -19.8635 -19.8599 -19.8268 -19.8260 -19.8224 -19.8198 -12.0043  -6.4858
    -5.1398  -4.9852  -2.3930  -1.3011  -0.6029

          k = 0.1612-0.2783 0.0000 ( 49236 PWs)   bands (ev):

   -68.2527 -68.2208 -35.2033 -34.8742 -34.7503 -34.6595 -34.5240 -34.4586
   -19.9317 -19.9245 -19.9154 -19.9138 -19.9021 -19.8951 -19.8844 -19.8712
   -19.8651 -19.8613 -19.8323 -19.8286 -19.8177 -19.8174 -12.2943  -6.1400
    -5.6803  -4.7668  -2.1299  -1.6199  -0.5744

          k = 0.1612-0.1856 0.0000 ( 49220 PWs)   bands (ev):

   -68.2659 -68.2278 -35.2394 -34.7896 -34.6311 -34.6049 -34.4787 -34.3986
   -19.9366 -19.9266 -19.9137 -19.9102 -19.9017 -19.8958 -19.8815 -19.8717
   -19.8672 -19.8623 -19.8416 -19.8372 -19.8093 -19.8084 -12.6131  -6.3830
    -5.7225  -4.4268  -1.9666  -1.4677  -1.1324

          k = 0.1612-0.0929 0.0000 ( 49255 PWs)   bands (ev):

   -68.2753 -68.2333 -35.2681 -34.7442 -34.5636 -34.4963 -34.4623 -34.3640
   -19.9401 -19.9285 -19.9115 -19.9080 -19.9016 -19.8971 -19.8789 -19.8724
   -19.8675 -19.8636 -19.8483 -19.8436 -19.8029 -19.8019 -12.8609  -6.8625
    -5.3543  -4.2904  -1.8153  -1.4628  -0.9754

          k = 0.1612-0.0002 0.0000 ( 49247 PWs)   bands (ev):

   -68.2788 -68.2353 -35.2789 -34.7321 -34.5201 -34.4911 -34.4197 -34.3661
   -19.9412 -19.9293 -19.9100 -19.9083 -19.9010 -19.8979 -19.8776 -19.8730
   -19.8670 -19.8644 -19.8507 -19.8459 -19.8006 -19.7994 -12.9545  -7.0354
    -5.1538  -4.3509  -1.7316  -1.2879  -0.8975

          k = 0.2417 0.1389 0.0000 ( 49273 PWs)   bands (ev):

   -68.2603 -68.2248 -35.2244 -34.8480 -34.6632 -34.6396 -34.5140 -34.3917
   -19.9355 -19.9251 -19.9160 -19.9092 -19.9036 -19.8947 -19.8828 -19.8703
   -19.8686 -19.8606 -19.8376 -19.8336 -19.8129 -19.8116 -12.4803  -6.4455
    -5.6828  -4.2708  -2.4518  -1.5293  -1.0278

          k = 0.2417 0.2316 0.0000 ( 49254 PWs)   bands (ev):

   -68.2505 -68.2198 -35.2005 -34.9229 -34.7434 -34.6730 -34.5457 -34.4328
   -19.9326 -19.9231 -19.9174 -19.9117 -19.9037 -19.8944 -19.8846 -19.8704
   -19.8668 -19.8595 -19.8308 -19.8273 -19.8191 -19.8178 -12.2555  -6.4973
    -5.4332  -4.5501  -2.6228  -1.1763  -1.0528

          k = 0.2417 0.3243 0.0000 ( 49269 PWs)   bands (ev):

   -68.2386 -68.2145 -35.1752 -34.9803 -34.8313 -34.7004 -34.5935 -34.5118
   -19.9279 -19.9221 -19.9172 -19.9147 -19.9040 -19.8952 -19.8864 -19.8704
   -19.8637 -19.8598 -19.8268 -19.8260 -19.8224 -19.8198 -12.0040  -6.4791
    -5.1498  -4.9868  -2.3860  -1.2952  -0.6100

          k = 0.2417 0.4170 0.0000 ( 49283 PWs)   bands (ev):

   -68.2272 -68.2111 -35.1484 -35.0136 -34.8960 -34.7330 -34.6489 -34.5903
   -19.9234 -19.9225 -19.9159 -19.9147 -19.9055 -19.8968 -19.8879 -19.8692
   -19.8621 -19.8608 -19.8334 -19.8329 -19.8156 -19.8137 -11.7962  -6.4454
    -5.5093  -4.7229  -1.8245  -1.3889  -0.6820

          k = 0.2417 0.5098 0.0000 ( 49330 PWs)   bands (ev):

   -68.2191 -68.2105 -35.1099 -35.0539 -34.9150 -34.7808 -34.6698 -34.6382
   -19.9246 -19.9191 -19.9154 -19.9118 -19.9078 -19.8981 -19.8889 -19.8671
   -19.8645 -19.8598 -19.8376 -19.8367 -19.8113 -19.8104 -11.6809  -6.4525
    -5.6948  -4.5637  -1.7426  -0.8861  -0.6467

          k = 0.2416 0.6025 0.0000 ( 49320 PWs)   bands (ev):

   -68.2190 -68.2104 -35.1103 -35.0545 -34.9151 -34.7809 -34.6697 -34.6383
   -19.9246 -19.9190 -19.9155 -19.9118 -19.9078 -19.8982 -19.8889 -19.8671
   -19.8644 -19.8597 -19.8377 -19.8367 -19.8113 -19.8103 -11.6805  -6.4537
    -5.6951  -4.5644  -1.7427  -0.8928  -0.6431

          k = 0.2418-0.4175 0.0000 ( 49301 PWs)   bands (ev):

   -68.2270 -68.2109 -35.1489 -35.0150 -34.8965 -34.7334 -34.6490 -34.5905
   -19.9234 -19.9225 -19.9160 -19.9146 -19.9055 -19.8969 -19.8879 -19.8692
   -19.8620 -19.8607 -19.8335 -19.8330 -19.8155 -19.8136 -11.7949  -6.4476
    -5.5112  -4.7237  -1.8278  -1.3931  -0.6803

          k = 0.2418-0.3248 0.0000 ( 49279 PWs)   bands (ev):

   -68.2384 -68.2144 -35.1753 -34.9812 -34.8325 -34.7005 -34.5944 -34.5130
   -19.9279 -19.9220 -19.9172 -19.9148 -19.9039 -19.8954 -19.8863 -19.8704
   -19.8636 -19.8597 -19.8270 -19.8261 -19.8223 -19.8197 -12.0021  -6.4797
    -5.1523  -4.9881  -2.3896  -1.2962  -0.6103

          k = 0.2418-0.2320 0.0000 ( 49258 PWs)   bands (ev):

   -68.2503 -68.2196 -35.2002 -34.9229 -34.7442 -34.6729 -34.5476 -34.4349
   -19.9327 -19.9231 -19.9173 -19.9119 -19.9036 -19.8946 -19.8846 -19.8704
   -19.8668 -19.8595 -19.8307 -19.8271 -19.8193 -19.8180 -12.2532  -6.4952
    -5.4298  -4.5586  -2.6227  -1.1759  -1.0537

          k = 0.2418-0.1393 0.0000 ( 49301 PWs)   bands (ev):

   -68.2602 -68.2246 -35.2241 -34.8473 -34.6634 -34.6390 -34.5165 -34.3940
   -19.9355 -19.9251 -19.9159 -19.9094 -19.9033 -19.8949 -19.8827 -19.8703
   -19.8686 -19.8606 -19.8375 -19.8335 -19.8130 -19.8118 -12.4785  -6.4423
    -5.6780  -4.2816  -2.4476  -1.5302  -1.0275

          k = 0.2418-0.0466 0.0000 ( 49242 PWs)   bands (ev):

   -68.2657 -68.2277 -35.2390 -34.7907 -34.6312 -34.6059 -34.4795 -34.3996
   -19.9366 -19.9266 -19.9137 -19.9103 -19.9017 -19.8958 -19.8814 -19.8718
   -19.8672 -19.8623 -19.8415 -19.8372 -19.8094 -19.8085 -12.6110  -6.3810
    -5.7212  -4.4330  -1.9696  -1.4656  -1.1315

          k = 0.2417 0.0461 0.0000 ( 49242 PWs)   bands (ev):

   -68.2658 -68.2278 -35.2391 -34.7911 -34.6312 -34.6061 -34.4787 -34.3982
   -19.9366 -19.9266 -19.9138 -19.9101 -19.9018 -19.8957 -19.8814 -19.8718
   -19.8673 -19.8622 -19.8415 -19.8372 -19.8093 -19.8085 -12.6116  -6.3823
    -5.7247  -4.4271  -1.9746  -1.4638  -1.1299

          k = 0.3223 0.1851 0.0000 ( 49284 PWs)   bands (ev):

   -68.2444 -68.2169 -35.1945 -35.0052 -34.7783 -34.6881 -34.5653 -34.4232
   -19.9333 -19.9208 -19.9191 -19.9108 -19.9062 -19.8939 -19.8851 -19.8695
   -19.8676 -19.8573 -19.8266 -19.8235 -19.8226 -19.8204 -12.1433  -6.8341
    -5.2220  -4.3328  -3.0920  -1.1883  -0.6645

          k = 0.3223 0.2779 0.0000 ( 49305 PWs)   bands (ev):

   -68.2361 -68.2136 -35.1856 -35.0613 -34.8177 -34.7128 -34.5977 -34.4642
   -19.9317 -19.9196 -19.9189 -19.9126 -19.9066 -19.8944 -19.8859 -19.8698
   -19.8657 -19.8566 -19.8278 -19.8253 -19.8210 -19.8184 -11.9833  -6.9015
    -5.0226  -4.6488  -3.0711  -0.7158  -0.5664

          k = 0.3223 0.3706 0.0000 ( 49309 PWs)   bands (ev):

   -68.2269 -68.2110 -35.1631 -35.0751 -34.8458 -34.7585 -34.6389 -34.5476
   -19.9279 -19.9199 -19.9169 -19.9133 -19.9070 -19.8961 -19.8872 -19.8690
   -19.8645 -19.8576 -19.8334 -19.8314 -19.8154 -19.8136 -11.8120  -6.7390
    -5.1969  -4.7946  -2.5656  -0.6708  -0.4725

          k = 0.3222 0.4633 0.0000 ( 49320 PWs)   bands (ev):

   -68.2187 -68.2105 -35.1105 -35.0537 -34.9162 -34.7797 -34.6723 -34.6386
   -19.9247 -19.9190 -19.9153 -19.9119 -19.9078 -19.8982 -19.8889 -19.8671
   -19.8646 -19.8596 -19.8378 -19.8367 -19.8112 -19.8103 -11.6794  -6.4519
    -5.7014  -4.5677  -1.7581  -0.8674  -0.6399

          k = 0.3222 0.5561 0.0000 ( 49295 PWs)   bands (ev):

   -68.2132 -68.2127 -35.0387 -35.0366 -35.0018 -34.7807 -34.6845 -34.6820
   -19.9241 -19.9164 -19.9162 -19.9094 -19.9092 -19.8995 -19.8898 -19.8654
   -19.8651 -19.8610 -19.8393 -19.8390 -19.8095 -19.8092 -11.6289  -6.1117
    -6.1105  -4.4609  -1.0918  -0.9610  -0.9495

          k = 0.3222 0.6488 0.0000 ( 49338 PWs)   bands (ev):

   -68.2186 -68.2104 -35.1110 -35.0542 -34.9169 -34.7798 -34.6728 -34.6390
   -19.9246 -19.9191 -19.9153 -19.9119 -19.9077 -19.8984 -19.8888 -19.8671
   -19.8646 -19.8595 -19.8378 -19.8368 -19.8111 -19.8102 -11.6784  -6.4523
    -5.7047  -4.5694  -1.7654  -0.8652  -0.6338

          k = 0.3224-0.3712 0.0000 ( 49334 PWs)   bands (ev):

   -68.2266 -68.2108 -35.1635 -35.0756 -34.8468 -34.7584 -34.6402 -34.5491
   -19.9279 -19.9199 -19.9169 -19.9134 -19.9069 -19.8963 -19.8871 -19.8691
   -19.8644 -19.8575 -19.8335 -19.8316 -19.8152 -19.8135 -11.8102  -6.7391
    -5.2033  -4.7954  -2.5701  -0.6686  -0.4686

          k = 0.3224-0.2785 0.0000 ( 49317 PWs)   bands (ev):

   -68.2358 -68.2134 -35.1856 -35.0615 -34.8182 -34.7130 -34.6001 -34.4665
   -19.9317 -19.9195 -19.9189 -19.9127 -19.9065 -19.8946 -19.8858 -19.8698
   -19.8656 -19.8565 -19.8280 -19.8255 -19.8208 -19.8183 -11.9810  -6.9002
    -5.0214  -4.6582  -3.0727  -0.7123  -0.5648

          k = 0.3224-0.1858 0.0000 ( 49292 PWs)   bands (ev):

   -68.2442 -68.2167 -35.1942 -35.0049 -34.7782 -34.6882 -34.5682 -34.4259
   -19.9333 -19.9208 -19.9190 -19.9110 -19.9060 -19.8941 -19.8850 -19.8694
   -19.8675 -19.8573 -19.8265 -19.8233 -19.8228 -19.8206 -12.1411  -6.8314
    -5.2191  -4.3447  -3.0898  -1.1873  -0.6624

          k = 0.3224-0.0930 0.0000 ( 49279 PWs)   bands (ev):

   -68.2501 -68.2195 -35.2001 -34.9250 -34.7455 -34.6732 -34.5471 -34.4350
   -19.9327 -19.9231 -19.9174 -19.9119 -19.9036 -19.8946 -19.8845 -19.8706
   -19.8666 -19.8594 -19.8306 -19.8271 -19.8194 -19.8181 -12.2512  -6.4985
    -5.4284  -4.5606  -2.6302  -1.1753  -1.0509

          k = 0.3223-0.0003 0.0000 ( 49271 PWs)   bands (ev):

   -68.2523 -68.2206 -35.2029 -34.8770 -34.7515 -34.6602 -34.5248 -34.4604
   -19.9316 -19.9245 -19.9154 -19.9139 -19.9021 -19.8952 -19.8842 -19.8714
   -19.8651 -19.8612 -19.8322 -19.8285 -19.8179 -19.8175 -12.2902  -6.1423
    -5.6767  -4.7768  -2.1349  -1.6223  -0.5773

          k = 0.3223 0.0924 0.0000 ( 49284 PWs)   bands (ev):

   -68.2502 -68.2196 -35.2004 -34.9257 -34.7454 -34.6735 -34.5452 -34.4330
   -19.9326 -19.9231 -19.9175 -19.9117 -19.9037 -19.8945 -19.8845 -19.8706
   -19.8666 -19.8594 -19.8307 -19.8271 -19.8193 -19.8179 -12.2525  -6.5016
    -5.4312  -4.5522  -2.6335  -1.1750  -1.0495

          k = 0.4029 0.2314 0.0000 ( 49275 PWs)   bands (ev):

   -68.2318 -68.2122 -35.1999 -35.1240 -34.8356 -34.7137 -34.6018 -34.4469
   -19.9334 -19.9202 -19.9175 -19.9121 -19.9087 -19.8942 -19.8855 -19.8700
   -19.8652 -19.8546 -19.8296 -19.8262 -19.8182 -19.8161 -11.9313  -7.1578
    -5.0063  -4.4108  -3.4926  -0.4062  -0.1511

          k = 0.4029 0.3242 0.0000 ( 49341 PWs)   bands (ev):

   -68.2267 -68.2109 -35.1962 -35.1414 -34.8362 -34.7416 -34.6244 -34.4825
   -19.9321 -19.9199 -19.9167 -19.9125 -19.9089 -19.8949 -19.8860 -19.8696
   -19.8647 -19.8546 -19.8326 -19.8292 -19.8151 -19.8135 -11.8453  -7.1198
    -4.9228  -4.7131  -3.2853  -0.1287  -0.0587

          k = 0.4028 0.4169 0.0000 ( 49349 PWs)   bands (ev):

   -68.2218 -68.2103 -35.1574 -35.1179 -34.8167 -34.8132 -34.6505 -34.5609
   -19.9284 -19.9197 -19.9155 -19.9122 -19.9088 -19.8965 -19.8873 -19.8682
   -19.8652 -19.8566 -19.8359 -19.8334 -19.8125 -19.8114 -11.7460  -6.8374
    -5.2270  -4.7498  -2.6390  -0.3205  -0.2602

          k = 0.4028 0.5096 0.0000 ( 49347 PWs)   bands (ev):

   -68.2184 -68.2104 -35.1120 -35.0561 -34.9158 -34.7800 -34.6710 -34.6395
   -19.9247 -19.9190 -19.9154 -19.9118 -19.9078 -19.8983 -19.8888 -19.8673
   -19.8644 -19.8595 -19.8378 -19.8368 -19.8111 -19.8102 -11.6776  -6.4577
    -5.7016  -4.5708  -1.7590  -0.8889  -0.6276

          k = 0.4028 0.6023 0.0000 ( 49330 PWs)   bands (ev):

   -68.2183 -68.2104 -35.1120 -35.0560 -34.9164 -34.7799 -34.6717 -34.6400
   -19.9247 -19.9192 -19.9153 -19.9119 -19.9077 -19.8984 -19.8888 -19.8673
   -19.8644 -19.8594 -19.8379 -19.8369 -19.8110 -19.8101 -11.6771  -6.4570
    -5.7046  -4.5718  -1.7662  -0.8801  -0.6250

          k = 0.4028 0.6951 0.0000 ( 49340 PWs)   bands (ev):

   -68.2215 -68.2102 -35.1578 -35.1178 -34.8163 -34.8144 -34.6518 -34.5626
   -19.9284 -19.9197 -19.9155 -19.9124 -19.9086 -19.8967 -19.8872 -19.8682
   -19.8651 -19.8565 -19.8360 -19.8336 -19.8124 -19.8113 -11.7445  -6.8367
    -5.2336  -4.7514  -2.6435  -0.3139  -0.2537

          k = 0.4030-0.3249 0.0000 ( 49333 PWs)   bands (ev):

   -68.2264 -68.2107 -35.1966 -35.1415 -34.8359 -34.7422 -34.6269 -34.4851
   -19.9321 -19.9199 -19.9166 -19.9127 -19.9088 -19.8951 -19.8858 -19.8696
   -19.8646 -19.8546 -19.8328 -19.8294 -19.8150 -19.8133 -11.8431  -7.1186
    -4.9240  -4.7227  -3.2873  -0.1226  -0.0527

          k = 0.4030-0.2322 0.0000 ( 49276 PWs)   bands (ev):

   -68.2314 -68.2119 -35.2000 -35.1240 -34.8353 -34.7139 -34.6050 -34.4498
   -19.9334 -19.9201 -19.9175 -19.9123 -19.9085 -19.8944 -19.8854 -19.8699
   -19.8651 -19.8546 -19.8298 -19.8264 -19.8181 -19.8159 -11.9290  -7.1558
    -5.0060  -4.4237  -3.4913  -0.4014  -0.1459

          k = 0.4029-0.1395 0.0000 ( 49338 PWs)   bands (ev):

   -68.2356 -68.2133 -35.1862 -35.0630 -34.8196 -34.7125 -34.5995 -34.4665
   -19.9317 -19.9195 -19.9189 -19.9128 -19.9065 -19.8947 -19.8857 -19.8700
   -19.8653 -19.8565 -19.8280 -19.8256 -19.8208 -19.8182 -11.9794  -6.9037
    -5.0225  -4.6562  -3.0804  -0.7075  -0.5692

          k = 0.4029-0.0467 0.0000 ( 49288 PWs)   bands (ev):

   -68.2380 -68.2142 -35.1759 -34.9850 -34.8336 -34.7009 -34.5938 -34.5134
   -19.9279 -19.9221 -19.9173 -19.9149 -19.9039 -19.8955 -19.8862 -19.8706
   -19.8634 -19.8596 -19.8271 -19.8263 -19.8222 -19.8196 -11.9986  -6.4874
    -5.1476  -4.9949  -2.3994  -1.3036  -0.6017

          k = 0.4029 0.0460 0.0000 ( 49264 PWs)   bands (ev):

   -68.2381 -68.2142 -35.1760 -34.9855 -34.8332 -34.7011 -34.5928 -34.5123
   -19.9279 -19.9221 -19.9174 -19.9147 -19.9040 -19.8954 -19.8863 -19.8706
   -19.8634 -19.8597 -19.8270 -19.8262 -19.8222 -19.8196 -11.9993  -6.4892
    -5.1446  -4.9944  -2.3999  -1.3055  -0.5997

          k = 0.4029 0.1387 0.0000 ( 49320 PWs)   bands (ev):

   -68.2358 -68.2135 -35.1864 -35.0634 -34.8198 -34.7122 -34.5970 -34.4640
   -19.9317 -19.9196 -19.9189 -19.9126 -19.9066 -19.8945 -19.8858 -19.8700
   -19.8653 -19.8566 -19.8279 -19.8254 -19.8209 -19.8184 -11.9812  -6.9061
    -5.0236  -4.6462  -3.0818  -0.7088  -0.5730

          k =-0.4835-0.2777 0.0000 ( 49296 PWs)   bands (ev):

   -68.2266 -68.2109 -35.2144 -35.1640 -34.8440 -34.7256 -34.6150 -34.4557
   -19.9338 -19.9201 -19.9169 -19.9126 -19.9094 -19.8945 -19.8854 -19.8701
   -19.8642 -19.8536 -19.8322 -19.8281 -19.8150 -19.8135 -11.8620  -7.2688
    -4.9767  -4.4444  -3.6262   0.0848   0.1109

          k =-0.4835-0.1850 0.0000 ( 49314 PWs)   bands (ev):

   -68.2266 -68.2109 -35.1969 -35.1420 -34.8369 -34.7411 -34.6241 -34.4824
   -19.9321 -19.9200 -19.9167 -19.9126 -19.9089 -19.8949 -19.8860 -19.8697
   -19.8646 -19.8546 -19.8327 -19.8292 -19.8151 -19.8135 -11.8445  -7.1216
    -4.9264  -4.7086  -3.2895  -0.1293  -0.0596

          k =-0.4835-0.0923 0.0000 ( 49335 PWs)   bands (ev):

   -68.2266 -68.2109 -35.1649 -35.0780 -34.8477 -34.7574 -34.6382 -34.5475
   -19.9279 -19.9199 -19.9170 -19.9133 -19.9070 -19.8961 -19.8871 -19.8693
   -19.8641 -19.8575 -19.8335 -19.8316 -19.8152 -19.8135 -11.8093  -6.7462
    -5.1980  -4.7953  -2.5734  -0.6849  -0.4679

          k =-0.4835 0.0005 0.0000 ( 49297 PWs)   bands (ev):

   -68.2265 -68.2108 -35.1504 -35.0192 -34.8961 -34.7337 -34.6487 -34.5916
   -19.9235 -19.9224 -19.9161 -19.9147 -19.9055 -19.8970 -19.8878 -19.8694
   -19.8618 -19.8606 -19.8336 -19.8331 -19.8153 -19.8135 -11.7912  -6.4560
    -5.5144  -4.7283  -1.8360  -1.4027  -0.6725

          k =-0.4835 0.0932 0.0000 ( 49328 PWs)   bands (ev):

   -68.2264 -68.2107 -35.1648 -35.0777 -34.8480 -34.7577 -34.6396 -34.5491
   -19.9279 -19.9199 -19.9170 -19.9134 -19.9069 -19.8963 -19.8871 -19.8693
   -19.8641 -19.8574 -19.8336 -19.8317 -19.8151 -19.8134 -11.8082  -6.7446
    -5.2041  -4.7959  -2.5758  -0.6785  -0.4647

          k =-0.4835 0.1859 0.0000 ( 49322 PWs)   bands (ev):

   -68.2263 -68.2107 -35.1971 -35.1419 -34.8364 -34.7418 -34.6267 -34.4851
   -19.9321 -19.9199 -19.9167 -19.9128 -19.9088 -19.8951 -19.8858 -19.8697
   -19.8645 -19.8546 -19.8328 -19.8295 -19.8149 -19.8133 -11.8425  -7.1200
    -4.9270  -4.7190  -3.2903  -0.1233  -0.0531

          k =-0.4833-0.8341 0.0000 ( 49292 PWs)   bands (ev):

   -68.2263 -68.2107 -35.2148 -35.1639 -34.8434 -34.7259 -34.6183 -34.4587
   -19.9338 -19.9200 -19.9168 -19.9128 -19.9092 -19.8947 -19.8853 -19.8701
   -19.8642 -19.8535 -19.8324 -19.8284 -19.8149 -19.8133 -11.8597  -7.2671
    -4.9776  -4.4577  -3.6251   0.0920   0.1175

     highest occupied level (ev):     0.1175

!    total energy              =   -1373.25138718 Ry
     estimated scf accuracy    <          7.6E-13 Ry

     The total energy is the sum of the following terms:
     one-electron contribution =  -10891.88874786 Ry
     hartree contribution      =    5474.28030021 Ry
     xc contribution           =    -138.78165926 Ry
     ewald contribution        =    4183.13871972 Ry

     convergence has been achieved in  27 iterations

     negative rho (up, down):  5.967E-05 0.000E+00

     Forces acting on atoms (cartesian axes, Ry/au):

     atom    1 type  2   force =     0.00031072    0.00028322   -0.00017234
     atom    2 type  1   force =    -0.00026827   -0.00046509    0.00155305
     atom    3 type  1   force =    -0.00004245    0.00018187   -0.00138072

     Total force =     0.002154     Total SCF correction =     0.000009


     Computing stress (Cartesian axis) and pressure


     negative rho (up, down):  5.967E-05 0.000E+00
          total   stress  (Ry/bohr**3)                   (kbar)     P=        5.57
   0.00006674  -0.00000261   0.00000033            9.82       -0.38        0.05
  -0.00000261   0.00005171   0.00000093           -0.38        7.61        0.14
   0.00000033   0.00000093  -0.00000492            0.05        0.14       -0.72


     Writing output data file /scratch/as3359/Ta2C-CT-ecutoff/Ta2C.save/
 
     init_run     :     47.38s CPU     26.17s WALL (       1 calls)
     electrons    :   2401.51s CPU   1226.95s WALL (       1 calls)
     forces       :     14.97s CPU      7.79s WALL (       1 calls)
     stress       :     61.09s CPU     31.59s WALL (       1 calls)

     Called by init_run:
     wfcinit      :     35.70s CPU     18.45s WALL (       1 calls)
     potinit      :      3.04s CPU      1.56s WALL (       1 calls)
     hinit0       :      6.27s CPU      4.57s WALL (       1 calls)

     Called by electrons:
     c_bands      :   1938.20s CPU    978.22s WALL (      27 calls)
     sum_band     :    390.82s CPU    204.32s WALL (      27 calls)
     v_of_rho     :     11.52s CPU      6.47s WALL (      28 calls)
     newd         :     57.87s CPU     36.44s WALL (      28 calls)
     mix_rho      :      3.99s CPU      2.17s WALL (      27 calls)

     Called by c_bands:
     init_us_2    :     48.03s CPU     24.05s WALL (    4218 calls)
     cegterg      :   1786.49s CPU    902.01s WALL (    1998 calls)

     Called by *egterg:
     cdiaghg      :     16.48s CPU      8.44s WALL (   11731 calls)
     h_psi        :   1463.92s CPU    740.36s WALL (   11805 calls)
     s_psi        :     77.93s CPU     39.00s WALL (   11805 calls)
     g_psi        :      8.15s CPU      4.09s WALL (    9733 calls)

     Called by h_psi:
     h_psi:calbec :     59.72s CPU     29.95s WALL (   11805 calls)
     vloc_psi     :   1312.04s CPU    664.07s WALL (   11805 calls)
     add_vuspsi   :     82.89s CPU     41.50s WALL (   11805 calls)

     General routines
     calbec       :     79.15s CPU     39.70s WALL (   14173 calls)
     fft          :      7.62s CPU      4.08s WALL (     387 calls)
     ffts         :      0.63s CPU      0.32s WALL (      55 calls)
     fftw         :   1379.55s CPU    698.73s WALL (  351794 calls)
     interpolate  :      1.03s CPU      0.53s WALL (      28 calls)
 
     Parallel routines
 
     PWSCF        :  42m 9.19s CPU  21m36.14s WALL

 
   This run was terminated on:   0:36:44   7Apr2022            

=------------------------------------------------------------------------------=
   JOB DONE.
=------------------------------------------------------------------------------=
