
     Program PWSCF v.6.8 starts on  6Apr2022 at 20: 2:45 

     This program is part of the open-source Quantum ESPRESSO suite
     for quantum simulation of materials; please cite
         "P. Giannozzi et al., J. Phys.:Condens. Matter 21 395502 (2009);
         "P. Giannozzi et al., J. Phys.:Condens. Matter 29 465901 (2017);
         "P. Giannozzi et al., J. Chem. Phys. 152 154105 (2020);
          URL http://www.quantum-espresso.org", 
     in publications or presentations arising from this work. More details at
     http://www.quantum-espresso.org/quote

     Parallel version (MPI & OpenMP), running on       4 processor cores
     Number of MPI processes:                 2
     Threads/MPI process:                     2

     MPI processes distributed on     1 nodes
     R & G space division:  proc/nbgrp/npool/nimage =       2
     125189 MiB available memory on the printing compute node when the environment starts
 
     Reading input from Ta2C.scf.65.in

     Current dimensions of program PWSCF are:
     Max number of different atomic species (ntypx) = 10
     Max number of k-points (npk) =  40000
     Max angular momentum in pseudopotentials (lmaxx) =  4
     file Ta.pbesol-spfn-rrkjus_psl.1.0.0.UPF: wavefunction(s)  5S 5P renormalized

     Subspace diagonalization in iterative solution of the eigenvalue problem:
     a serial algorithm will be used

 
     Parallelization info
     --------------------
     sticks:   dense  smooth     PW     G-vecs:    dense   smooth      PW
     Min         372     294     99                78752    56245   10367
     Max         373     297    100                78783    56250   10368
     Sum         745     591    199               157535   112495   20735
 
     Using Slab Decomposition
 


     bravais-lattice index     =            0
     lattice parameter (alat)  =       5.5500  a.u.
     unit-cell volume          =    1588.7844 (a.u.)^3
     number of atoms/cell      =            3
     number of atomic types    =            2
     number of electrons       =        58.00
     number of Kohn-Sham states=           29
     kinetic-energy cutoff     =      65.0000  Ry
     charge density cutoff     =     325.0000  Ry
     scf convergence threshold =      1.0E-12
     mixing beta               =       0.7000
     number of iterations used =            8  plain     mixing
     Exchange-correlation= PBESOL
                           (   1   4  10   8   0   0   0)

     celldm(1)=   5.550000  celldm(2)=   0.000000  celldm(3)=   0.000000
     celldm(4)=   0.000000  celldm(5)=   0.000000  celldm(6)=   0.000000

     crystal axes: (cart. coord. in units of alat)
               a(1) = (   1.034114   0.000203   0.000000 )  
               a(2) = (  -0.516207   0.898604   0.000000 )  
               a(3) = (   0.000000   0.000000  10.000000 )  

     reciprocal axes: (cart. coord. in units 2 pi/alat)
               b(1) = (  0.966902  0.555441  0.000000 )  
               b(2) = ( -0.000219  1.112711  0.000000 )  
               b(3) = (  0.000000  0.000000  0.100000 )  


     PseudoPot. # 1 for Ta read from file:
     /shared/home/as3359/pseudo/Ta.pbesol-spfn-rrkjus_psl.1.0.0.UPF
     MD5 check sum: f099565ffaca9b150a52e9412a28e20b
     Pseudo is Ultrasoft + core correction, Zval = 27.0
     Generated using &quot;atomic&quot; code by A. Dal Corso  v.6.3
     Using radial grid of 1273 points,  8 beta functions with: 
                l(1) =   0
                l(2) =   0
                l(3) =   1
                l(4) =   1
                l(5) =   2
                l(6) =   2
                l(7) =   3
                l(8) =   3
     Q(r) pseudized with 0 coefficients 


     PseudoPot. # 2 for C  read from file:
     /shared/home/as3359/pseudo/C.pbesol-n-rrkjus_psl.1.0.0.UPF
     MD5 check sum: 05995be603a8a7c99da3dc4413f31573
     Pseudo is Ultrasoft + core correction, Zval =  4.0
     Generated using &quot;atomic&quot; code by A. Dal Corso  v.6.3MaX
     Using radial grid of 1073 points,  4 beta functions with: 
                l(1) =   0
                l(2) =   0
                l(3) =   1
                l(4) =   1
     Q(r) pseudized with 0 coefficients 


     atomic species   valence    mass     pseudopotential
        Ta            27.00   180.94788     Ta( 1.00)
        C              4.00    12.01070     C ( 1.00)

     No symmetry found



   Cartesian axes

     site n.     atom                  positions (alat units)
         1           C   tau(   1) = (   0.0000000   0.0000000   0.0000000  )
         2           Ta  tau(   2) = (   0.5174615   0.3004190  -0.4127129  )
         3           Ta  tau(   3) = (   0.0007158   0.5986355   0.4125272  )

     number of k points=    74
                       cart. coord. in units 2pi/alat
        k(    1) = (   0.0000000   0.0000000   0.0000000), wk =   0.0138889
        k(    2) = (  -0.0000182   0.0927259   0.0000000), wk =   0.0277778
        k(    3) = (  -0.0000364   0.1854519   0.0000000), wk =   0.0277778
        k(    4) = (  -0.0000547   0.2781778   0.0000000), wk =   0.0277778
        k(    5) = (  -0.0000729   0.3709037   0.0000000), wk =   0.0277778
        k(    6) = (  -0.0000911   0.4636296   0.0000000), wk =   0.0277778
        k(    7) = (   0.0001093  -0.5563556   0.0000000), wk =   0.0138889
        k(    8) = (   0.0805752   0.0462867   0.0000000), wk =   0.0277778
        k(    9) = (   0.0805570   0.1390127   0.0000000), wk =   0.0277778
        k(   10) = (   0.0805388   0.2317386   0.0000000), wk =   0.0277778
        k(   11) = (   0.0805205   0.3244645   0.0000000), wk =   0.0277778
        k(   12) = (   0.0805023   0.4171904   0.0000000), wk =   0.0277778
        k(   13) = (   0.0804841   0.5099164   0.0000000), wk =   0.0277778
        k(   14) = (   0.0806845  -0.5100688   0.0000000), wk =   0.0277778
        k(   15) = (   0.0806663  -0.4173429   0.0000000), wk =   0.0277778
        k(   16) = (   0.0806481  -0.3246170   0.0000000), wk =   0.0277778
        k(   17) = (   0.0806298  -0.2318910   0.0000000), wk =   0.0277778
        k(   18) = (   0.0806116  -0.1391651   0.0000000), wk =   0.0277778
        k(   19) = (   0.0805934  -0.0464392   0.0000000), wk =   0.0277778
        k(   20) = (   0.1611504   0.0925735   0.0000000), wk =   0.0277778
        k(   21) = (   0.1611322   0.1852994   0.0000000), wk =   0.0277778
        k(   22) = (   0.1611139   0.2780253   0.0000000), wk =   0.0277778
        k(   23) = (   0.1610957   0.3707513   0.0000000), wk =   0.0277778
        k(   24) = (   0.1610775   0.4634772   0.0000000), wk =   0.0277778
        k(   25) = (   0.1610593   0.5562031   0.0000000), wk =   0.0277778
        k(   26) = (   0.1612597  -0.4637821   0.0000000), wk =   0.0277778
        k(   27) = (   0.1612415  -0.3710561   0.0000000), wk =   0.0277778
        k(   28) = (   0.1612232  -0.2783302   0.0000000), wk =   0.0277778
        k(   29) = (   0.1612050  -0.1856043   0.0000000), wk =   0.0277778
        k(   30) = (   0.1611868  -0.0928784   0.0000000), wk =   0.0277778
        k(   31) = (   0.1611686  -0.0001524   0.0000000), wk =   0.0277778
        k(   32) = (   0.2417256   0.1388602   0.0000000), wk =   0.0277778
        k(   33) = (   0.2417073   0.2315862   0.0000000), wk =   0.0277778
        k(   34) = (   0.2416891   0.3243121   0.0000000), wk =   0.0277778
        k(   35) = (   0.2416709   0.4170380   0.0000000), wk =   0.0277778
        k(   36) = (   0.2416527   0.5097639   0.0000000), wk =   0.0277778
        k(   37) = (   0.2416345   0.6024899   0.0000000), wk =   0.0277778
        k(   38) = (   0.2418349  -0.4174953   0.0000000), wk =   0.0277778
        k(   39) = (   0.2418166  -0.3247694   0.0000000), wk =   0.0277778
        k(   40) = (   0.2417984  -0.2320435   0.0000000), wk =   0.0277778
        k(   41) = (   0.2417802  -0.1393175   0.0000000), wk =   0.0277778
        k(   42) = (   0.2417620  -0.0465916   0.0000000), wk =   0.0277778
        k(   43) = (   0.2417438   0.0461343   0.0000000), wk =   0.0277778
        k(   44) = (   0.3223007   0.1851470   0.0000000), wk =   0.0277778
        k(   45) = (   0.3222825   0.2778729   0.0000000), wk =   0.0277778
        k(   46) = (   0.3222643   0.3705988   0.0000000), wk =   0.0277778
        k(   47) = (   0.3222461   0.4633248   0.0000000), wk =   0.0277778
        k(   48) = (   0.3222279   0.5560507   0.0000000), wk =   0.0277778
        k(   49) = (   0.3222097   0.6487766   0.0000000), wk =   0.0277778
        k(   50) = (   0.3224100  -0.3712086   0.0000000), wk =   0.0277778
        k(   51) = (   0.3223918  -0.2784827   0.0000000), wk =   0.0277778
        k(   52) = (   0.3223736  -0.1857567   0.0000000), wk =   0.0277778
        k(   53) = (   0.3223554  -0.0930308   0.0000000), wk =   0.0277778
        k(   54) = (   0.3223372  -0.0003049   0.0000000), wk =   0.0277778
        k(   55) = (   0.3223190   0.0924210   0.0000000), wk =   0.0277778
        k(   56) = (   0.4028759   0.2314337   0.0000000), wk =   0.0277778
        k(   57) = (   0.4028577   0.3241596   0.0000000), wk =   0.0277778
        k(   58) = (   0.4028395   0.4168856   0.0000000), wk =   0.0277778
        k(   59) = (   0.4028213   0.5096115   0.0000000), wk =   0.0277778
        k(   60) = (   0.4028031   0.6023374   0.0000000), wk =   0.0277778
        k(   61) = (   0.4027848   0.6950633   0.0000000), wk =   0.0277778
        k(   62) = (   0.4029852  -0.3249218   0.0000000), wk =   0.0277778
        k(   63) = (   0.4029670  -0.2321959   0.0000000), wk =   0.0277778
        k(   64) = (   0.4029488  -0.1394700   0.0000000), wk =   0.0277778
        k(   65) = (   0.4029306  -0.0467441   0.0000000), wk =   0.0277778
        k(   66) = (   0.4029124   0.0459819   0.0000000), wk =   0.0277778
        k(   67) = (   0.4028941   0.1387078   0.0000000), wk =   0.0277778
        k(   68) = (  -0.4834511  -0.2777205   0.0000000), wk =   0.0138889
        k(   69) = (  -0.4834693  -0.1849945   0.0000000), wk =   0.0277778
        k(   70) = (  -0.4834875  -0.0922686   0.0000000), wk =   0.0277778
        k(   71) = (  -0.4835058   0.0004573   0.0000000), wk =   0.0277778
        k(   72) = (  -0.4835240   0.0931832   0.0000000), wk =   0.0277778
        k(   73) = (  -0.4835422   0.1859092   0.0000000), wk =   0.0277778
        k(   74) = (  -0.4833418  -0.8340760   0.0000000), wk =   0.0138889

     Dense  grid:   157535 G-vectors     FFT dimensions: (  36,  36, 320)

     Smooth grid:   112495 G-vectors     FFT dimensions: (  30,  30, 288)

     Estimated max dynamical RAM per process >     996.56 MB

     Estimated total dynamical RAM >       1.95 GB

     Check: negative core charge=   -0.000002

     Initial potential from superposition of free atoms

     starting charge   57.99842, renormalised to   58.00000

     negative rho (up, down):  1.613E-03 0.000E+00
     Starting wfcs are   38 randomized atomic wfcs

     total cpu time spent up to now is        8.0 secs

     Self-consistent Calculation

     iteration #  1     ecut=    65.00 Ry     beta= 0.70
     Davidson diagonalization with overlap
     ethr =  1.00E-02,  avg # of iterations =  2.1

     negative rho (up, down):  1.153E-03 0.000E+00

     total cpu time spent up to now is       18.9 secs

     total energy              =   -1372.41988090 Ry
     estimated scf accuracy    <       1.29948049 Ry

     iteration #  2     ecut=    65.00 Ry     beta= 0.70
     Davidson diagonalization with overlap
     c_bands:  1 eigenvalues not converged
     ethr =  2.24E-03,  avg # of iterations =  7.8

     total cpu time spent up to now is       35.1 secs

     total energy              =   -1371.64211035 Ry
     estimated scf accuracy    <       9.81313717 Ry

     iteration #  3     ecut=    65.00 Ry     beta= 0.70
     Davidson diagonalization with overlap
     ethr =  2.24E-03,  avg # of iterations =  6.5

     total cpu time spent up to now is       50.2 secs

     total energy              =   -1373.21086854 Ry
     estimated scf accuracy    <       0.20114270 Ry

     iteration #  4     ecut=    65.00 Ry     beta= 0.70
     Davidson diagonalization with overlap
     ethr =  3.47E-04,  avg # of iterations =  6.1

     total cpu time spent up to now is       63.4 secs

     total energy              =   -1373.23054989 Ry
     estimated scf accuracy    <       0.35945153 Ry

     iteration #  5     ecut=    65.00 Ry     beta= 0.70
     Davidson diagonalization with overlap
     ethr =  3.47E-04,  avg # of iterations =  5.0

     total cpu time spent up to now is       75.6 secs

     total energy              =   -1373.24481522 Ry
     estimated scf accuracy    <       0.03803408 Ry

     iteration #  6     ecut=    65.00 Ry     beta= 0.70
     Davidson diagonalization with overlap
     ethr =  6.56E-05,  avg # of iterations =  3.4

     negative rho (up, down):  9.301E-07 0.000E+00

     total cpu time spent up to now is       87.1 secs

     total energy              =   -1373.24454794 Ry
     estimated scf accuracy    <       0.01438450 Ry

     iteration #  7     ecut=    65.00 Ry     beta= 0.70
     Davidson diagonalization with overlap
     ethr =  2.48E-05,  avg # of iterations =  4.9

     negative rho (up, down):  8.368E-05 0.000E+00

     total cpu time spent up to now is       99.2 secs

     total energy              =   -1373.24612994 Ry
     estimated scf accuracy    <       0.00128440 Ry

     iteration #  8     ecut=    65.00 Ry     beta= 0.70
     Davidson diagonalization with overlap
     c_bands:  1 eigenvalues not converged
     c_bands:  1 eigenvalues not converged
     ethr =  2.21E-06,  avg # of iterations =  6.8

     negative rho (up, down):  1.091E-03 0.000E+00

     total cpu time spent up to now is      114.7 secs

     total energy              =   -1373.24608781 Ry
     estimated scf accuracy    <       0.00313526 Ry

     iteration #  9     ecut=    65.00 Ry     beta= 0.70
     Davidson diagonalization with overlap
     ethr =  2.21E-06,  avg # of iterations =  4.0

     negative rho (up, down):  1.114E-03 0.000E+00

     total cpu time spent up to now is      126.3 secs

     total energy              =   -1373.24617462 Ry
     estimated scf accuracy    <       0.00071689 Ry

     iteration # 10     ecut=    65.00 Ry     beta= 0.70
     Davidson diagonalization with overlap
     ethr =  1.24E-06,  avg # of iterations =  5.0

     negative rho (up, down):  1.215E-03 0.000E+00

     total cpu time spent up to now is      138.7 secs

     total energy              =   -1373.24626020 Ry
     estimated scf accuracy    <       0.00008575 Ry

     iteration # 11     ecut=    65.00 Ry     beta= 0.70
     Davidson diagonalization with overlap
     ethr =  1.48E-07,  avg # of iterations =  5.7

     negative rho (up, down):  1.174E-03 0.000E+00

     total cpu time spent up to now is      151.3 secs

     total energy              =   -1373.24626188 Ry
     estimated scf accuracy    <       0.00020383 Ry

     iteration # 12     ecut=    65.00 Ry     beta= 0.70
     Davidson diagonalization with overlap
     ethr =  1.48E-07,  avg # of iterations =  2.0

     negative rho (up, down):  1.203E-03 0.000E+00

     total cpu time spent up to now is      161.9 secs

     total energy              =   -1373.24625034 Ry
     estimated scf accuracy    <       0.00014037 Ry

     iteration # 13     ecut=    65.00 Ry     beta= 0.70
     Davidson diagonalization with overlap
     ethr =  1.48E-07,  avg # of iterations =  4.4

     negative rho (up, down):  1.196E-03 0.000E+00

     total cpu time spent up to now is      174.4 secs

     total energy              =   -1373.24625928 Ry
     estimated scf accuracy    <       0.00000257 Ry

     iteration # 14     ecut=    65.00 Ry     beta= 0.70
     Davidson diagonalization with overlap
     ethr =  4.43E-09,  avg # of iterations =  6.9

     negative rho (up, down):  1.195E-03 0.000E+00

     total cpu time spent up to now is      189.7 secs

     total energy              =   -1373.24626033 Ry
     estimated scf accuracy    <       0.00000609 Ry

     iteration # 15     ecut=    65.00 Ry     beta= 0.70
     Davidson diagonalization with overlap
     ethr =  4.43E-09,  avg # of iterations =  3.0

     negative rho (up, down):  1.198E-03 0.000E+00

     total cpu time spent up to now is      201.3 secs

     total energy              =   -1373.24626014 Ry
     estimated scf accuracy    <       0.00000217 Ry

     iteration # 16     ecut=    65.00 Ry     beta= 0.70
     Davidson diagonalization with overlap
     ethr =  3.75E-09,  avg # of iterations =  6.7

     negative rho (up, down):  1.197E-03 0.000E+00

     total cpu time spent up to now is      215.3 secs

     total energy              =   -1373.24626055 Ry
     estimated scf accuracy    <       0.00000238 Ry

     iteration # 17     ecut=    65.00 Ry     beta= 0.70
     Davidson diagonalization with overlap
     ethr =  3.75E-09,  avg # of iterations =  1.0

     negative rho (up, down):  1.198E-03 0.000E+00

     total cpu time spent up to now is      225.5 secs

     total energy              =   -1373.24626055 Ry
     estimated scf accuracy    <       0.00000206 Ry

     iteration # 18     ecut=    65.00 Ry     beta= 0.70
     Davidson diagonalization with overlap
     ethr =  3.56E-09,  avg # of iterations =  1.0

     negative rho (up, down):  1.197E-03 0.000E+00

     total cpu time spent up to now is      235.6 secs

     total energy              =   -1373.24626045 Ry
     estimated scf accuracy    <       0.00000201 Ry

     iteration # 19     ecut=    65.00 Ry     beta= 0.70
     Davidson diagonalization with overlap
     ethr =  3.46E-09,  avg # of iterations =  1.9

     negative rho (up, down):  1.197E-03 0.000E+00

     total cpu time spent up to now is      246.3 secs

     total energy              =   -1373.24626044 Ry
     estimated scf accuracy    <       0.00000086 Ry

     iteration # 20     ecut=    65.00 Ry     beta= 0.70
     Davidson diagonalization with overlap
     ethr =  1.48E-09,  avg # of iterations =  4.0

     negative rho (up, down):  1.197E-03 0.000E+00

     total cpu time spent up to now is      258.0 secs

     total energy              =   -1373.24626049 Ry
     estimated scf accuracy    <       0.00000003 Ry

     iteration # 21     ecut=    65.00 Ry     beta= 0.70
     Davidson diagonalization with overlap
     ethr =  4.79E-11,  avg # of iterations =  6.6

     negative rho (up, down):  1.197E-03 0.000E+00

     total cpu time spent up to now is      271.5 secs

     total energy              =   -1373.24626050 Ry
     estimated scf accuracy    <          6.2E-09 Ry

     iteration # 22     ecut=    65.00 Ry     beta= 0.70
     Davidson diagonalization with overlap
     ethr =  1.07E-11,  avg # of iterations =  6.9

     negative rho (up, down):  1.197E-03 0.000E+00

     total cpu time spent up to now is      285.4 secs

     total energy              =   -1373.24626050 Ry
     estimated scf accuracy    <       0.00000002 Ry

     iteration # 23     ecut=    65.00 Ry     beta= 0.70
     Davidson diagonalization with overlap
     ethr =  1.07E-11,  avg # of iterations =  1.8

     negative rho (up, down):  1.197E-03 0.000E+00

     total cpu time spent up to now is      295.9 secs

     total energy              =   -1373.24626050 Ry
     estimated scf accuracy    <       0.00000003 Ry

     iteration # 24     ecut=    65.00 Ry     beta= 0.70
     Davidson diagonalization with overlap
     ethr =  1.07E-11,  avg # of iterations =  1.9

     negative rho (up, down):  1.197E-03 0.000E+00

     total cpu time spent up to now is      306.4 secs

     total energy              =   -1373.24626050 Ry
     estimated scf accuracy    <       0.00000002 Ry

     iteration # 25     ecut=    65.00 Ry     beta= 0.70
     Davidson diagonalization with overlap
     ethr =  1.07E-11,  avg # of iterations =  5.5

     negative rho (up, down):  1.197E-03 0.000E+00

     total cpu time spent up to now is      318.8 secs

     total energy              =   -1373.24626050 Ry
     estimated scf accuracy    <          1.6E-09 Ry

     iteration # 26     ecut=    65.00 Ry     beta= 0.70
     Davidson diagonalization with overlap
     ethr =  2.82E-12,  avg # of iterations =  2.3

     negative rho (up, down):  1.197E-03 0.000E+00

     total cpu time spent up to now is      329.6 secs

     total energy              =   -1373.24626050 Ry
     estimated scf accuracy    <          1.8E-09 Ry

     iteration # 27     ecut=    65.00 Ry     beta= 0.70
     Davidson diagonalization with overlap
     ethr =  2.82E-12,  avg # of iterations =  4.4

     negative rho (up, down):  1.197E-03 0.000E+00

     total cpu time spent up to now is      341.5 secs

     total energy              =   -1373.24626050 Ry
     estimated scf accuracy    <          1.2E-10 Ry

     iteration # 28     ecut=    65.00 Ry     beta= 0.70
     Davidson diagonalization with overlap
     ethr =  2.08E-13,  avg # of iterations =  6.5

     negative rho (up, down):  1.197E-03 0.000E+00

     total cpu time spent up to now is      355.2 secs

     total energy              =   -1373.24626050 Ry
     estimated scf accuracy    <          2.0E-10 Ry

     iteration # 29     ecut=    65.00 Ry     beta= 0.70
     Davidson diagonalization with overlap
     ethr =  2.08E-13,  avg # of iterations =  1.9

     negative rho (up, down):  1.197E-03 0.000E+00

     total cpu time spent up to now is      366.0 secs

     total energy              =   -1373.24626050 Ry
     estimated scf accuracy    <          1.5E-10 Ry

     iteration # 30     ecut=    65.00 Ry     beta= 0.70
     Davidson diagonalization with overlap
     ethr =  2.08E-13,  avg # of iterations =  3.2

     negative rho (up, down):  1.197E-03 0.000E+00

     total cpu time spent up to now is      377.3 secs

     total energy              =   -1373.24626050 Ry
     estimated scf accuracy    <          2.4E-11 Ry

     iteration # 31     ecut=    65.00 Ry     beta= 0.70
     Davidson diagonalization with overlap
     ethr =  1.00E-13,  avg # of iterations =  6.1

     negative rho (up, down):  1.197E-03 0.000E+00

     total cpu time spent up to now is      390.3 secs

     total energy              =   -1373.24626050 Ry
     estimated scf accuracy    <          1.0E-10 Ry

     iteration # 32     ecut=    65.00 Ry     beta= 0.70
     Davidson diagonalization with overlap
     ethr =  1.00E-13,  avg # of iterations =  1.1

     negative rho (up, down):  1.197E-03 0.000E+00

     total cpu time spent up to now is      400.4 secs

     total energy              =   -1373.24626050 Ry
     estimated scf accuracy    <          1.1E-10 Ry

     iteration # 33     ecut=    65.00 Ry     beta= 0.70
     Davidson diagonalization with overlap
     ethr =  1.00E-13,  avg # of iterations =  2.1

     negative rho (up, down):  1.197E-03 0.000E+00

     total cpu time spent up to now is      411.1 secs

     total energy              =   -1373.24626050 Ry
     estimated scf accuracy    <          5.1E-11 Ry

     iteration # 34     ecut=    65.00 Ry     beta= 0.70
     Davidson diagonalization with overlap
     ethr =  1.00E-13,  avg # of iterations =  1.3

     negative rho (up, down):  1.197E-03 0.000E+00

     total cpu time spent up to now is      421.3 secs

     total energy              =   -1373.24626050 Ry
     estimated scf accuracy    <          3.5E-11 Ry

     iteration # 35     ecut=    65.00 Ry     beta= 0.70
     Davidson diagonalization with overlap
     ethr =  1.00E-13,  avg # of iterations =  5.0

     negative rho (up, down):  1.197E-03 0.000E+00

     total cpu time spent up to now is      433.5 secs

     total energy              =   -1373.24626050 Ry
     estimated scf accuracy    <          9.3E-12 Ry

     iteration # 36     ecut=    65.00 Ry     beta= 0.70
     Davidson diagonalization with overlap
     ethr =  1.00E-13,  avg # of iterations =  1.0

     negative rho (up, down):  1.197E-03 0.000E+00

     total cpu time spent up to now is      443.6 secs

     total energy              =   -1373.24626050 Ry
     estimated scf accuracy    <          8.8E-12 Ry

     iteration # 37     ecut=    65.00 Ry     beta= 0.70
     Davidson diagonalization with overlap
     ethr =  1.00E-13,  avg # of iterations =  1.0

     negative rho (up, down):  1.197E-03 0.000E+00

     total cpu time spent up to now is      453.7 secs

     total energy              =   -1373.24626050 Ry
     estimated scf accuracy    <          5.6E-12 Ry

     iteration # 38     ecut=    65.00 Ry     beta= 0.70
     Davidson diagonalization with overlap
     ethr =  1.00E-13,  avg # of iterations =  1.0

     negative rho (up, down):  1.197E-03 0.000E+00

     total cpu time spent up to now is      464.0 secs

     total energy              =   -1373.24626050 Ry
     estimated scf accuracy    <          2.7E-12 Ry

     iteration # 39     ecut=    65.00 Ry     beta= 0.70
     Davidson diagonalization with overlap
     ethr =  1.00E-13,  avg # of iterations =  1.0

     negative rho (up, down):  1.197E-03 0.000E+00

     total cpu time spent up to now is      474.1 secs

     total energy              =   -1373.24626050 Ry
     estimated scf accuracy    <          1.9E-12 Ry

     iteration # 40     ecut=    65.00 Ry     beta= 0.70
     Davidson diagonalization with overlap
     ethr =  1.00E-13,  avg # of iterations =  1.0

     negative rho (up, down):  1.197E-03 0.000E+00

     total cpu time spent up to now is      484.3 secs

     total energy              =   -1373.24626050 Ry
     estimated scf accuracy    <          1.3E-12 Ry

     iteration # 41     ecut=    65.00 Ry     beta= 0.70
     Davidson diagonalization with overlap
     ethr =  1.00E-13,  avg # of iterations =  1.0

     negative rho (up, down):  1.197E-03 0.000E+00

     total cpu time spent up to now is      494.5 secs

     End of self-consistent calculation

          k = 0.0000 0.0000 0.0000 ( 14141 PWs)   bands (ev):

   -68.2951 -68.2473 -35.3195 -34.7158 -34.4073 -34.4024 -34.3423 -34.3359
   -19.9701 -19.9564 -19.9313 -19.9308 -19.9253 -19.9249 -19.8987 -19.8981
   -19.8908 -19.8907 -19.8833 -19.8780 -19.8173 -19.8156 -13.2834  -7.6738
    -4.3979  -4.3545  -1.9338  -0.9036  -0.7306

          k =-0.0000 0.0927 0.0000 ( 14153 PWs)   bands (ev):

   -68.2912 -68.2449 -35.3069 -34.7210 -34.4544 -34.4186 -34.3863 -34.3422
   -19.9686 -19.9554 -19.9328 -19.9312 -19.9256 -19.9238 -19.9002 -19.8977
   -19.8912 -19.8901 -19.8804 -19.8753 -19.8200 -19.8186 -13.1695  -7.4537
    -4.7214  -4.3202  -1.8388  -1.0869  -0.5415

          k =-0.0000 0.1855 0.0000 ( 14105 PWs)   bands (ev):

   -68.2806 -68.2385 -35.2726 -34.7488 -34.5688 -34.5033 -34.4599 -34.3613
   -19.9646 -19.9530 -19.9365 -19.9322 -19.9266 -19.9213 -19.9038 -19.8967
   -19.8921 -19.8882 -19.8727 -19.8679 -19.8273 -19.8262 -12.8691  -6.8721
    -5.3819  -4.2575  -1.8339  -1.4676  -0.9876

          k =-0.0001 0.2782 0.0000 ( 14077 PWs)   bands (ev):

   -68.2657 -68.2300 -35.2290 -34.8523 -34.6657 -34.6451 -34.5127 -34.3904
   -19.9601 -19.9496 -19.9407 -19.9336 -19.9284 -19.9191 -19.9076 -19.8947
   -19.8931 -19.8853 -19.8621 -19.8580 -19.8371 -19.8359 -12.4891  -6.4572
    -5.6954  -4.2463  -2.4666  -1.5306  -1.0323

          k =-0.0001 0.3709 0.0000 ( 14061 PWs)   bands (ev):

   -68.2500 -68.2222 -35.1988 -35.0087 -34.7824 -34.6912 -34.5632 -34.4213
   -19.9578 -19.9455 -19.9438 -19.9352 -19.9310 -19.9183 -19.9097 -19.8939
   -19.8921 -19.8820 -19.8513 -19.8481 -19.8468 -19.8445 -12.1532  -6.8443
    -5.2276  -4.3058  -3.1035  -1.1949  -0.6723

          k =-0.0001 0.4636 0.0000 ( 14024 PWs)   bands (ev):

   -68.2376 -68.2175 -35.2028 -35.1273 -34.8412 -34.7157 -34.5991 -34.4445
   -19.9579 -19.9449 -19.9423 -19.9364 -19.9334 -19.9185 -19.9102 -19.8944
   -19.8899 -19.8794 -19.8536 -19.8502 -19.8430 -19.8409 -11.9417  -7.1653
    -5.0044  -4.3820  -3.5030  -0.4212  -0.1652

          k = 0.0001-0.5564 0.0000 ( 14000 PWs)   bands (ev):

   -68.2326 -68.2162 -35.2163 -35.1674 -34.8506 -34.7269 -34.6120 -34.4531
   -19.9582 -19.9448 -19.9418 -19.9369 -19.9340 -19.9188 -19.9101 -19.8946
   -19.8890 -19.8783 -19.8561 -19.8521 -19.8398 -19.8383 -11.8725  -7.2753
    -4.9719  -4.4150  -3.6364   0.0645   0.0937

          k = 0.0806 0.0463 0.0000 ( 14159 PWs)   bands (ev):

   -68.2912 -68.2449 -35.3067 -34.7209 -34.4522 -34.4216 -34.3830 -34.3458
   -19.9686 -19.9554 -19.9326 -19.9314 -19.9254 -19.9239 -19.8999 -19.8981
   -19.8912 -19.8901 -19.8804 -19.8752 -19.8200 -19.8186 -13.1689  -7.4527
    -4.6997  -4.3453  -1.8372  -1.0853  -0.5420

          k = 0.0806 0.1390 0.0000 ( 14131 PWs)   bands (ev):

   -68.2840 -68.2405 -35.2832 -34.7360 -34.5243 -34.4956 -34.4211 -34.3654
   -19.9658 -19.9538 -19.9349 -19.9326 -19.9258 -19.9223 -19.9026 -19.8973
   -19.8916 -19.8890 -19.8751 -19.8702 -19.8250 -19.8239 -12.9619  -7.0434
    -5.1766  -4.3286  -1.7391  -1.2969  -0.9174

          k = 0.0805 0.2317 0.0000 ( 14097 PWs)   bands (ev):

   -68.2712 -68.2330 -35.2438 -34.7943 -34.6340 -34.6094 -34.4793 -34.3975
   -19.9612 -19.9511 -19.9385 -19.9346 -19.9266 -19.9202 -19.9063 -19.8962
   -19.8918 -19.8870 -19.8660 -19.8617 -19.8336 -19.8328 -12.6211  -6.3928
    -5.7380  -4.4087  -1.9855  -1.4675  -1.1300

          k = 0.0805 0.3245 0.0000 ( 14079 PWs)   bands (ev):

   -68.2559 -68.2250 -35.2049 -34.9275 -34.7467 -34.6772 -34.5451 -34.4321
   -19.9572 -19.9477 -19.9421 -19.9362 -19.9285 -19.9189 -19.9092 -19.8950
   -19.8913 -19.8842 -19.8554 -19.8518 -19.8434 -19.8421 -12.2634  -6.5092
    -5.4398  -4.5329  -2.6361  -1.1794  -1.0518

          k = 0.0805 0.4172 0.0000 ( 14031 PWs)   bands (ev):

   -68.2417 -68.2188 -35.1895 -35.0652 -34.8224 -34.7155 -34.5960 -34.4627
   -19.9561 -19.9443 -19.9436 -19.9370 -19.9313 -19.9188 -19.9105 -19.8943
   -19.8902 -19.8813 -19.8518 -19.8495 -19.8456 -19.8431 -11.9923  -6.9109
    -5.0242  -4.6273  -3.0808  -0.7231  -0.5776

          k = 0.0805 0.5099 0.0000 ( 14030 PWs)   bands (ev):

   -68.2325 -68.2162 -35.1986 -35.1450 -34.8424 -34.7428 -34.6224 -34.4807
   -19.9565 -19.9446 -19.9416 -19.9370 -19.9336 -19.9193 -19.9106 -19.8941
   -19.8894 -19.8794 -19.8566 -19.8533 -19.8399 -19.8383 -11.8551  -7.1265
    -4.9199  -4.6907  -3.2898  -0.1462  -0.0762

          k = 0.0807-0.5101 0.0000 ( 14032 PWs)   bands (ev):

   -68.2325 -68.2162 -35.1988 -35.1451 -34.8427 -34.7426 -34.6224 -34.4807
   -19.9565 -19.9447 -19.9415 -19.9370 -19.9336 -19.9193 -19.9106 -19.8941
   -19.8894 -19.8794 -19.8566 -19.8533 -19.8399 -19.8383 -11.8549  -7.1269
    -4.9205  -4.6899  -3.2910  -0.1461  -0.0767

          k = 0.0807-0.4173 0.0000 ( 14028 PWs)   bands (ev):

   -68.2416 -68.2188 -35.1897 -35.0658 -34.8232 -34.7153 -34.5958 -34.4626
   -19.9561 -19.9443 -19.9436 -19.9370 -19.9314 -19.9189 -19.9105 -19.8944
   -19.8901 -19.8813 -19.8519 -19.8495 -19.8456 -19.8431 -11.9918  -6.9120
    -5.0242  -4.6267  -3.0839  -0.7209  -0.5798

          k = 0.0806-0.3246 0.0000 ( 14071 PWs)   bands (ev):

   -68.2558 -68.2249 -35.2049 -34.9283 -34.7474 -34.6774 -34.5450 -34.4322
   -19.9572 -19.9477 -19.9422 -19.9362 -19.9285 -19.9189 -19.9092 -19.8950
   -19.8912 -19.8842 -19.8553 -19.8517 -19.8434 -19.8421 -12.2625  -6.5101
    -5.4392  -4.5330  -2.6393  -1.1787  -1.0513

          k = 0.0806-0.2319 0.0000 ( 14093 PWs)   bands (ev):

   -68.2711 -68.2330 -35.2436 -34.7945 -34.6342 -34.6097 -34.4799 -34.3979
   -19.9612 -19.9511 -19.9385 -19.9346 -19.9266 -19.9202 -19.9062 -19.8962
   -19.8918 -19.8870 -19.8660 -19.8616 -19.8336 -19.8328 -12.6202  -6.3915
    -5.7376  -4.4102  -1.9870  -1.4663  -1.1298

          k = 0.0806-0.1392 0.0000 ( 14125 PWs)   bands (ev):

   -68.2839 -68.2404 -35.2831 -34.7359 -34.5239 -34.4954 -34.4220 -34.3666
   -19.9658 -19.9538 -19.9348 -19.9328 -19.9256 -19.9224 -19.9025 -19.8973
   -19.8916 -19.8891 -19.8751 -19.8702 -19.8251 -19.8240 -12.9611  -7.0422
    -5.1715  -4.3355  -1.7380  -1.2952  -0.9129

          k = 0.0806-0.0464 0.0000 ( 14165 PWs)   bands (ev):

   -68.2911 -68.2449 -35.3067 -34.7209 -34.4507 -34.4234 -34.3815 -34.3477
   -19.9686 -19.9554 -19.9324 -19.9317 -19.9252 -19.9241 -19.8998 -19.8982
   -19.8912 -19.8902 -19.8804 -19.8752 -19.8200 -19.8186 -13.1687  -7.4522
    -4.6901  -4.3562  -1.8364  -1.0843  -0.5396

          k = 0.1612 0.0926 0.0000 ( 14085 PWs)   bands (ev):

   -68.2804 -68.2383 -35.2721 -34.7484 -34.5679 -34.5009 -34.4637 -34.3654
   -19.9646 -19.9530 -19.9363 -19.9325 -19.9264 -19.9215 -19.9035 -19.8970
   -19.8921 -19.8882 -19.8726 -19.8679 -19.8274 -19.8264 -12.8670  -6.8688
    -5.3654  -4.2840  -1.8240  -1.4672  -0.9819

          k = 0.1611 0.1853 0.0000 ( 14105 PWs)   bands (ev):

   -68.2711 -68.2329 -35.2435 -34.7936 -34.6345 -34.6083 -34.4808 -34.4003
   -19.9611 -19.9511 -19.9385 -19.9347 -19.9265 -19.9203 -19.9062 -19.8962
   -19.8918 -19.8870 -19.8660 -19.8616 -19.8337 -19.8329 -12.6197  -6.3900
    -5.7306  -4.4234  -1.9740  -1.4712  -1.1351

          k = 0.1611 0.2780 0.0000 ( 14107 PWs)   bands (ev):

   -68.2579 -68.2259 -35.2072 -34.8771 -34.7529 -34.6628 -34.5267 -34.4614
   -19.9562 -19.9490 -19.9401 -19.9384 -19.9269 -19.9196 -19.9089 -19.8958
   -19.8897 -19.8860 -19.8568 -19.8531 -19.8421 -19.8417 -12.3008  -6.1438
    -5.6867  -4.7681  -2.1308  -1.6238  -0.5784

          k = 0.1611 0.3708 0.0000 ( 14068 PWs)   bands (ev):

   -68.2438 -68.2196 -35.1792 -34.9847 -34.8341 -34.7047 -34.5946 -34.5133
   -19.9524 -19.9467 -19.9420 -19.9392 -19.9287 -19.9198 -19.9109 -19.8950
   -19.8882 -19.8846 -19.8511 -19.8503 -19.8470 -19.8443 -12.0104  -6.4879
    -5.1445  -4.9888  -2.3928  -1.3021  -0.6083

          k = 0.1611 0.4635 0.0000 ( 14032 PWs)   bands (ev):

   -68.2324 -68.2161 -35.1665 -35.0790 -34.8491 -34.7621 -34.6388 -34.5481
   -19.9523 -19.9446 -19.9417 -19.9378 -19.9316 -19.9205 -19.9118 -19.8936
   -19.8890 -19.8823 -19.8576 -19.8557 -19.8400 -19.8383 -11.8197  -6.7463
    -5.1864  -4.7930  -2.5658  -0.6872  -0.4849

          k = 0.1611 0.5562 0.0000 ( 14009 PWs)   bands (ev):

   -68.2275 -68.2154 -35.1592 -35.1214 -34.8223 -34.8143 -34.6505 -34.5611
   -19.9527 -19.9443 -19.9403 -19.9367 -19.9334 -19.9209 -19.9120 -19.8926
   -19.8900 -19.8813 -19.8600 -19.8576 -19.8373 -19.8361 -11.7548  -6.8415
    -5.2152  -4.7456  -2.6340  -0.3367  -0.2810

          k = 0.1613-0.4638 0.0000 ( 14028 PWs)   bands (ev):

   -68.2323 -68.2161 -35.1670 -35.0798 -34.8500 -34.7617 -34.6387 -34.5479
   -19.9523 -19.9446 -19.9417 -19.9378 -19.9317 -19.9206 -19.9117 -19.8937
   -19.8889 -19.8823 -19.8576 -19.8557 -19.8400 -19.8382 -11.8190  -6.7479
    -5.1866  -4.7932  -2.5680  -0.6913  -0.4842

          k = 0.1612-0.3711 0.0000 ( 14067 PWs)   bands (ev):

   -68.2437 -68.2195 -35.1794 -34.9861 -34.8350 -34.7049 -34.5945 -34.5133
   -19.9524 -19.9467 -19.9421 -19.9392 -19.9287 -19.9199 -19.9109 -19.8951
   -19.8881 -19.8845 -19.8512 -19.8504 -19.8469 -19.8442 -12.0091  -6.4902
    -5.1440  -4.9894  -2.3970  -1.3051  -0.6068

          k = 0.1612-0.2783 0.0000 ( 14103 PWs)   bands (ev):

   -68.2577 -68.2258 -35.2071 -34.8778 -34.7538 -34.6632 -34.5274 -34.4621
   -19.9562 -19.9490 -19.9400 -19.9384 -19.9268 -19.9198 -19.9089 -19.8959
   -19.8897 -19.8860 -19.8567 -19.8530 -19.8422 -19.8419 -12.2992  -6.1443
    -5.6847  -4.7709  -2.1338  -1.6240  -0.5783

          k = 0.1612-0.1856 0.0000 ( 14103 PWs)   bands (ev):

   -68.2709 -68.2328 -35.2432 -34.7933 -34.6347 -34.6084 -34.4822 -34.4021
   -19.9611 -19.9511 -19.9383 -19.9349 -19.9263 -19.9205 -19.9061 -19.8963
   -19.8918 -19.8870 -19.8659 -19.8615 -19.8338 -19.8330 -12.6181  -6.3875
    -5.7267  -4.4308  -1.9705  -1.4717  -1.1364

          k = 0.1612-0.0929 0.0000 ( 14079 PWs)   bands (ev):

   -68.2803 -68.2383 -35.2720 -34.7480 -34.5672 -34.4998 -34.4658 -34.3674
   -19.9646 -19.9530 -19.9361 -19.9327 -19.9262 -19.9217 -19.9034 -19.8970
   -19.8921 -19.8882 -19.8725 -19.8678 -19.8275 -19.8264 -12.8660  -6.8670
    -5.3584  -4.2943  -1.8194  -1.4666  -0.9794

          k = 0.1612-0.0002 0.0000 ( 14105 PWs)   bands (ev):

   -68.2838 -68.2403 -35.2828 -34.7359 -34.5236 -34.4946 -34.4231 -34.3695
   -19.9658 -19.9538 -19.9346 -19.9329 -19.9256 -19.9225 -19.9022 -19.8976
   -19.8916 -19.8890 -19.8750 -19.8702 -19.8252 -19.8240 -12.9595  -7.0400
    -5.1578  -4.3549  -1.7359  -1.2916  -0.9014

          k = 0.2417 0.1389 0.0000 ( 14083 PWs)   bands (ev):

   -68.2653 -68.2297 -35.2282 -34.8516 -34.6668 -34.6432 -34.5175 -34.3952
   -19.9600 -19.9496 -19.9407 -19.9339 -19.9282 -19.9193 -19.9074 -19.8949
   -19.8932 -19.8852 -19.8620 -19.8579 -19.8374 -19.8362 -12.4852  -6.4499
    -5.6872  -4.2747  -2.4557  -1.5332  -1.0319

          k = 0.2417 0.2316 0.0000 ( 14089 PWs)   bands (ev):

   -68.2555 -68.2248 -35.2043 -34.9265 -34.7469 -34.6767 -34.5491 -34.4362
   -19.9572 -19.9476 -19.9420 -19.9364 -19.9284 -19.9191 -19.9091 -19.8950
   -19.8914 -19.8842 -19.8552 -19.8517 -19.8436 -19.8423 -12.2603  -6.5016
    -5.4376  -4.5541  -2.6267  -1.1803  -1.0568

          k = 0.2417 0.3243 0.0000 ( 14064 PWs)   bands (ev):

   -68.2436 -68.2195 -35.1789 -34.9839 -34.8348 -34.7041 -34.5970 -34.5153
   -19.9525 -19.9466 -19.9419 -19.9394 -19.9287 -19.9199 -19.9109 -19.8950
   -19.8883 -19.8845 -19.8513 -19.8504 -19.8469 -19.8442 -12.0088  -6.4835
    -5.1540  -4.9910  -2.3900  -1.2992  -0.6138

          k = 0.2417 0.4170 0.0000 ( 14040 PWs)   bands (ev):

   -68.2321 -68.2160 -35.1520 -35.0171 -34.8996 -34.7367 -34.6524 -34.5938
   -19.9480 -19.9470 -19.9405 -19.9393 -19.9302 -19.9215 -19.9124 -19.8938
   -19.8867 -19.8855 -19.8577 -19.8572 -19.8400 -19.8382 -11.8009  -6.4499
    -5.5135  -4.7271  -1.8286  -1.3927  -0.6859

          k = 0.2417 0.5098 0.0000 ( 14009 PWs)   bands (ev):

   -68.2240 -68.2154 -35.1135 -35.0575 -34.9186 -34.7844 -34.6734 -34.6418
   -19.9492 -19.9437 -19.9400 -19.9364 -19.9325 -19.9228 -19.9134 -19.8917
   -19.8891 -19.8844 -19.8619 -19.8610 -19.8358 -19.8349 -11.6856  -6.4570
    -5.6991  -4.5678  -1.7465  -0.8901  -0.6506

          k = 0.2416 0.6025 0.0000 ( 14009 PWs)   bands (ev):

   -68.2240 -68.2154 -35.1139 -35.0581 -34.9186 -34.7845 -34.6733 -34.6418
   -19.9492 -19.9437 -19.9401 -19.9364 -19.9325 -19.9228 -19.9134 -19.8917
   -19.8891 -19.8843 -19.8620 -19.8610 -19.8357 -19.8348 -11.6852  -6.4582
    -5.6994  -4.5685  -1.7466  -0.8967  -0.6470

          k = 0.2418-0.4175 0.0000 ( 14041 PWs)   bands (ev):

   -68.2320 -68.2159 -35.1526 -35.0185 -34.9000 -34.7370 -34.6525 -34.5940
   -19.9479 -19.9471 -19.9407 -19.9392 -19.9301 -19.9216 -19.9123 -19.8938
   -19.8866 -19.8853 -19.8578 -19.8574 -19.8399 -19.8381 -11.7996  -6.4521
    -5.5154  -4.7279  -1.8318  -1.3969  -0.6842

          k = 0.2418-0.3248 0.0000 ( 14074 PWs)   bands (ev):

   -68.2434 -68.2194 -35.1790 -34.9848 -34.8360 -34.7042 -34.5979 -34.5165
   -19.9525 -19.9466 -19.9418 -19.9395 -19.9286 -19.9201 -19.9108 -19.8950
   -19.8882 -19.8844 -19.8514 -19.8505 -19.8468 -19.8441 -12.0069  -6.4841
    -5.1565  -4.9923  -2.3936  -1.3002  -0.6142

          k = 0.2418-0.2320 0.0000 ( 14089 PWs)   bands (ev):

   -68.2553 -68.2246 -35.2040 -34.9265 -34.7477 -34.6767 -34.5511 -34.4383
   -19.9572 -19.9476 -19.9419 -19.9366 -19.9282 -19.9193 -19.9091 -19.8950
   -19.8914 -19.8841 -19.8551 -19.8515 -19.8437 -19.8425 -12.2581  -6.4996
    -5.4341  -4.5626  -2.6266  -1.1799  -1.0577

          k = 0.2418-0.1393 0.0000 ( 14087 PWs)   bands (ev):

   -68.2651 -68.2296 -35.2279 -34.8509 -34.6670 -34.6425 -34.5200 -34.3975
   -19.9601 -19.9496 -19.9405 -19.9341 -19.9280 -19.9195 -19.9073 -19.8949
   -19.8932 -19.8852 -19.8619 -19.8578 -19.8375 -19.8363 -12.4834  -6.4467
    -5.6823  -4.2856  -2.4515  -1.5341  -1.0316

          k = 0.2418-0.0466 0.0000 ( 14083 PWs)   bands (ev):

   -68.2707 -68.2327 -35.2428 -34.7944 -34.6347 -34.6095 -34.4829 -34.4030
   -19.9611 -19.9511 -19.9383 -19.9349 -19.9263 -19.9205 -19.9059 -19.8964
   -19.8918 -19.8869 -19.8658 -19.8615 -19.8339 -19.8331 -12.6159  -6.3855
    -5.7254  -4.4370  -1.9735  -1.4696  -1.1354

          k = 0.2417 0.0461 0.0000 ( 14087 PWs)   bands (ev):

   -68.2708 -68.2327 -35.2430 -34.7948 -34.6348 -34.6097 -34.4822 -34.4016
   -19.9611 -19.9511 -19.9384 -19.9348 -19.9265 -19.9204 -19.9059 -19.8964
   -19.8918 -19.8869 -19.8658 -19.8615 -19.8338 -19.8330 -12.6166  -6.3868
    -5.7289  -4.4311  -1.9785  -1.4679  -1.1339

          k = 0.3223 0.1851 0.0000 ( 14058 PWs)   bands (ev):

   -68.2494 -68.2219 -35.1982 -35.0087 -34.7819 -34.6919 -34.5688 -34.4267
   -19.9578 -19.9454 -19.9437 -19.9354 -19.9309 -19.9185 -19.9096 -19.8940
   -19.8921 -19.8819 -19.8511 -19.8479 -19.8471 -19.8448 -12.1481  -6.8385
    -5.2263  -4.3368  -3.0959  -1.1923  -0.6686

          k = 0.3223 0.2779 0.0000 ( 14039 PWs)   bands (ev):

   -68.2410 -68.2186 -35.1892 -35.0648 -34.8213 -34.7166 -34.6012 -34.4676
   -19.9561 -19.9442 -19.9434 -19.9372 -19.9313 -19.9191 -19.9104 -19.8943
   -19.8903 -19.8812 -19.8522 -19.8497 -19.8454 -19.8429 -11.9881  -6.9060
    -5.0268  -4.6528  -3.0750  -0.7199  -0.5705

          k = 0.3223 0.3706 0.0000 ( 14034 PWs)   bands (ev):

   -68.2319 -68.2160 -35.1667 -35.0787 -34.8494 -34.7622 -34.6425 -34.5511
   -19.9524 -19.9445 -19.9415 -19.9379 -19.9316 -19.9207 -19.9117 -19.8936
   -19.8891 -19.8822 -19.8578 -19.8558 -19.8399 -19.8381 -11.8167  -6.7436
    -5.2011  -4.7988  -2.5695  -0.6748  -0.4765

          k = 0.3222 0.4633 0.0000 ( 14015 PWs)   bands (ev):

   -68.2237 -68.2154 -35.1141 -35.0574 -34.9198 -34.7833 -34.6759 -34.6421
   -19.9493 -19.9437 -19.9399 -19.9365 -19.9325 -19.9229 -19.9134 -19.8917
   -19.8892 -19.8842 -19.8621 -19.8611 -19.8357 -19.8348 -11.6841  -6.4564
    -5.7057  -4.5718  -1.7620  -0.8713  -0.6439

          k = 0.3222 0.5561 0.0000 ( 14010 PWs)   bands (ev):

   -68.2182 -68.2177 -35.0424 -35.0403 -35.0053 -34.7842 -34.6882 -34.6857
   -19.9487 -19.9411 -19.9409 -19.9341 -19.9339 -19.9241 -19.9143 -19.8900
   -19.8897 -19.8856 -19.8636 -19.8633 -19.8340 -19.8337 -11.6337  -6.1161
    -6.1149  -4.4650  -1.0956  -0.9649  -0.9534

          k = 0.3222 0.6488 0.0000 ( 14013 PWs)   bands (ev):

   -68.2235 -68.2154 -35.1146 -35.0578 -34.9205 -34.7833 -34.6764 -34.6426
   -19.9492 -19.9438 -19.9399 -19.9365 -19.9324 -19.9230 -19.9133 -19.8917
   -19.8892 -19.8841 -19.8622 -19.8612 -19.8356 -19.8347 -11.6831  -6.4569
    -5.7090  -4.5735  -1.7693  -0.8691  -0.6378

          k = 0.3224-0.3712 0.0000 ( 14044 PWs)   bands (ev):

   -68.2316 -68.2158 -35.1672 -35.0792 -34.8504 -34.7621 -34.6438 -34.5526
   -19.9524 -19.9445 -19.9415 -19.9380 -19.9315 -19.9209 -19.9116 -19.8937
   -19.8890 -19.8821 -19.8579 -19.8561 -19.8397 -19.8380 -11.8149  -6.7437
    -5.2075  -4.7996  -2.5741  -0.6726  -0.4726

          k = 0.3224-0.2785 0.0000 ( 14031 PWs)   bands (ev):

   -68.2407 -68.2183 -35.1893 -35.0651 -34.8218 -34.7167 -34.6036 -34.4700
   -19.9562 -19.9441 -19.9434 -19.9374 -19.9312 -19.9193 -19.9103 -19.8944
   -19.8902 -19.8812 -19.8523 -19.8500 -19.8452 -19.8427 -11.9857  -6.9047
    -5.0256  -4.6623  -3.0767  -0.7163  -0.5689

          k = 0.3224-0.1858 0.0000 ( 14054 PWs)   bands (ev):

   -68.2491 -68.2217 -35.1979 -35.0085 -34.7817 -34.6919 -34.5717 -34.4293
   -19.9578 -19.9454 -19.9436 -19.9357 -19.9307 -19.9187 -19.9095 -19.8940
   -19.8921 -19.8819 -19.8509 -19.8477 -19.8472 -19.8451 -12.1459  -6.8358
    -5.2234  -4.3487  -3.0938  -1.1913  -0.6665

          k = 0.3224-0.0930 0.0000 ( 14054 PWs)   bands (ev):

   -68.2551 -68.2244 -35.2039 -34.9285 -34.7490 -34.6770 -34.5506 -34.4385
   -19.9572 -19.9476 -19.9420 -19.9366 -19.9282 -19.9193 -19.9089 -19.8952
   -19.8912 -19.8840 -19.8550 -19.8514 -19.8438 -19.8425 -12.2560  -6.5029
    -5.4327  -4.5646  -2.6341  -1.1793  -1.0549

          k = 0.3223-0.0003 0.0000 ( 14093 PWs)   bands (ev):

   -68.2573 -68.2255 -35.2067 -34.8806 -34.7550 -34.6639 -34.5282 -34.4638
   -19.9561 -19.9491 -19.9400 -19.9385 -19.9268 -19.9198 -19.9087 -19.8960
   -19.8897 -19.8858 -19.8566 -19.8529 -19.8424 -19.8421 -12.2951  -6.1466
    -5.6811  -4.7808  -2.1388  -1.6263  -0.5812

          k = 0.3223 0.0924 0.0000 ( 14053 PWs)   bands (ev):

   -68.2552 -68.2246 -35.2042 -34.9292 -34.7490 -34.6772 -34.5486 -34.4364
   -19.9571 -19.9477 -19.9421 -19.9364 -19.9284 -19.9191 -19.9090 -19.8952
   -19.8912 -19.8841 -19.8551 -19.8515 -19.8437 -19.8424 -12.2574  -6.5059
    -5.4355  -4.5562  -2.6374  -1.1791  -1.0535

          k = 0.4029 0.2314 0.0000 ( 14028 PWs)   bands (ev):

   -68.2367 -68.2172 -35.2035 -35.1276 -34.8393 -34.7175 -34.6053 -34.4504
   -19.9579 -19.9448 -19.9421 -19.9367 -19.9333 -19.9188 -19.9101 -19.8945
   -19.8898 -19.8793 -19.8540 -19.8506 -19.8427 -19.8406 -11.9360  -7.1623
    -5.0104  -4.4148  -3.4966  -0.4103  -0.1553

          k = 0.4029 0.3242 0.0000 ( 14042 PWs)   bands (ev):

   -68.2317 -68.2159 -35.1997 -35.1450 -34.8398 -34.7453 -34.6279 -34.4860
   -19.9566 -19.9445 -19.9413 -19.9372 -19.9336 -19.9196 -19.9105 -19.8942
   -19.8893 -19.8793 -19.8570 -19.8536 -19.8396 -19.8380 -11.8500  -7.1244
    -4.9270  -4.7171  -3.2893  -0.1328  -0.0629

          k = 0.4028 0.4169 0.0000 ( 14013 PWs)   bands (ev):

   -68.2268 -68.2153 -35.1609 -35.1215 -34.8203 -34.8168 -34.6541 -34.5644
   -19.9529 -19.9443 -19.9401 -19.9369 -19.9334 -19.9211 -19.9119 -19.8927
   -19.8898 -19.8812 -19.8603 -19.8579 -19.8370 -19.8359 -11.7507  -6.8419
    -5.2312  -4.7539  -2.6429  -0.3245  -0.2643

          k = 0.4028 0.5096 0.0000 ( 14017 PWs)   bands (ev):

   -68.2234 -68.2154 -35.1156 -35.0597 -34.9194 -34.7836 -34.6746 -34.6431
   -19.9493 -19.9436 -19.9400 -19.9365 -19.9325 -19.9230 -19.9133 -19.8919
   -19.8890 -19.8841 -19.8622 -19.8612 -19.8356 -19.8347 -11.6823  -6.4622
    -5.7059  -4.5750  -1.7629  -0.8928  -0.6315

          k = 0.4028 0.6023 0.0000 ( 14021 PWs)   bands (ev):

   -68.2233 -68.2154 -35.1157 -35.0596 -34.9200 -34.7835 -34.6753 -34.6435
   -19.9492 -19.9438 -19.9400 -19.9365 -19.9324 -19.9230 -19.9133 -19.8919
   -19.8890 -19.8841 -19.8622 -19.8612 -19.8355 -19.8346 -11.6818  -6.4615
    -5.7089  -4.5759  -1.7701  -0.8840  -0.6290

          k = 0.4028 0.6951 0.0000 ( 14013 PWs)   bands (ev):

   -68.2265 -68.2152 -35.1613 -35.1215 -34.8200 -34.8181 -34.6554 -34.5661
   -19.9529 -19.9443 -19.9401 -19.9370 -19.9333 -19.9213 -19.9118 -19.8928
   -19.8898 -19.8811 -19.8604 -19.8581 -19.8369 -19.8358 -11.7492  -6.8413
    -5.2378  -4.7556  -2.6474  -0.3179  -0.2578

          k = 0.4030-0.3249 0.0000 ( 14044 PWs)   bands (ev):

   -68.2313 -68.2157 -35.2002 -35.1451 -34.8396 -34.7460 -34.6304 -34.4886
   -19.9566 -19.9445 -19.9412 -19.9374 -19.9334 -19.9198 -19.9104 -19.8942
   -19.8892 -19.8792 -19.8572 -19.8539 -19.8394 -19.8378 -11.8478  -7.1232
    -4.9281  -4.7268  -3.2912  -0.1266  -0.0569

          k = 0.4030-0.2322 0.0000 ( 14036 PWs)   bands (ev):

   -68.2364 -68.2169 -35.2036 -35.1276 -34.8389 -34.7177 -34.6085 -34.4533
   -19.9579 -19.9447 -19.9421 -19.9370 -19.9332 -19.9190 -19.9100 -19.8945
   -19.8897 -19.8792 -19.8542 -19.8509 -19.8425 -19.8404 -11.9337  -7.1603
    -5.0102  -4.4277  -3.4953  -0.4055  -0.1500

          k = 0.4029-0.1395 0.0000 ( 14042 PWs)   bands (ev):

   -68.2406 -68.2183 -35.1898 -35.0666 -34.8232 -34.7162 -34.6030 -34.4699
   -19.9562 -19.9441 -19.9435 -19.9374 -19.9311 -19.9193 -19.9102 -19.8946
   -19.8899 -19.8811 -19.8524 -19.8500 -19.8452 -19.8427 -11.9842  -6.9082
    -5.0267  -4.6602  -3.0844  -0.7115  -0.5733

          k = 0.4029-0.0467 0.0000 ( 14065 PWs)   bands (ev):

   -68.2430 -68.2192 -35.1796 -34.9885 -34.8371 -34.7046 -34.5973 -34.5169
   -19.9524 -19.9467 -19.9419 -19.9395 -19.9286 -19.9201 -19.9107 -19.8952
   -19.8880 -19.8843 -19.8515 -19.8507 -19.8467 -19.8440 -12.0034  -6.4919
    -5.1518  -4.9991  -2.4034  -1.3076  -0.6056

          k = 0.4029 0.0460 0.0000 ( 14069 PWs)   bands (ev):

   -68.2431 -68.2192 -35.1797 -34.9890 -34.8368 -34.7048 -34.5963 -34.5158
   -19.9524 -19.9467 -19.9420 -19.9394 -19.9287 -19.9201 -19.9108 -19.8952
   -19.8880 -19.8843 -19.8515 -19.8506 -19.8467 -19.8440 -12.0041  -6.4936
    -5.1488  -4.9985  -2.4039  -1.3095  -0.6036

          k = 0.4029 0.1387 0.0000 ( 14037 PWs)   bands (ev):

   -68.2408 -68.2184 -35.1901 -35.0669 -34.8234 -34.7159 -34.6005 -34.4675
   -19.9561 -19.9442 -19.9435 -19.9373 -19.9313 -19.9191 -19.9103 -19.8946
   -19.8899 -19.8812 -19.8523 -19.8498 -19.8453 -19.8428 -11.9860  -6.9106
    -5.0278  -4.6503  -3.0858  -0.7129  -0.5771

          k =-0.4835-0.2777 0.0000 ( 14040 PWs)   bands (ev):

   -68.2316 -68.2159 -35.2180 -35.1676 -34.8476 -34.7293 -34.6184 -34.4592
   -19.9582 -19.9447 -19.9415 -19.9372 -19.9340 -19.9192 -19.9100 -19.8947
   -19.8888 -19.8782 -19.8565 -19.8526 -19.8395 -19.8380 -11.8667  -7.2734
    -4.9809  -4.4484  -3.6302   0.0807   0.1067

          k =-0.4835-0.1850 0.0000 ( 14042 PWs)   bands (ev):

   -68.2316 -68.2159 -35.2005 -35.1456 -34.8406 -34.7448 -34.6276 -34.4859
   -19.9566 -19.9446 -19.9413 -19.9372 -19.9336 -19.9196 -19.9105 -19.8943
   -19.8892 -19.8793 -19.8570 -19.8537 -19.8396 -19.8380 -11.8493  -7.1261
    -4.9305  -4.7126  -3.2935  -0.1334  -0.0638

          k =-0.4835-0.0923 0.0000 ( 14032 PWs)   bands (ev):

   -68.2315 -68.2158 -35.1685 -35.0816 -34.8513 -34.7611 -34.6417 -34.5510
   -19.9524 -19.9445 -19.9416 -19.9379 -19.9316 -19.9208 -19.9116 -19.8939
   -19.8887 -19.8821 -19.8579 -19.8560 -19.8397 -19.8380 -11.8141  -6.7507
    -5.2022  -4.7995  -2.5774  -0.6888  -0.4719

          k =-0.4835 0.0005 0.0000 ( 14065 PWs)   bands (ev):

   -68.2315 -68.2158 -35.1540 -35.0228 -34.8997 -34.7373 -34.6522 -34.5952
   -19.9481 -19.9470 -19.9407 -19.9393 -19.9301 -19.9217 -19.9123 -19.8940
   -19.8865 -19.8852 -19.8580 -19.8575 -19.8398 -19.8380 -11.7960  -6.4605
    -5.5186  -4.7324  -1.8400  -1.4065  -0.6764

          k =-0.4835 0.0932 0.0000 ( 14036 PWs)   bands (ev):

   -68.2313 -68.2157 -35.1685 -35.0813 -34.8516 -34.7613 -34.6432 -34.5526
   -19.9524 -19.9445 -19.9416 -19.9380 -19.9315 -19.9209 -19.9116 -19.8939
   -19.8887 -19.8821 -19.8580 -19.8561 -19.8396 -19.8379 -11.8129  -6.7492
    -5.2083  -4.8001  -2.5797  -0.6825  -0.4687

          k =-0.4835 0.1859 0.0000 ( 14044 PWs)   bands (ev):

   -68.2313 -68.2157 -35.2007 -35.1455 -34.8400 -34.7456 -34.6302 -34.4886
   -19.9566 -19.9445 -19.9413 -19.9374 -19.9334 -19.9198 -19.9104 -19.8943
   -19.8891 -19.8792 -19.8572 -19.8539 -19.8394 -19.8378 -11.8473  -7.1245
    -4.9312  -4.7231  -3.2943  -0.1273  -0.0573

          k =-0.4833-0.8341 0.0000 ( 14056 PWs)   bands (ev):

   -68.2312 -68.2157 -35.2184 -35.1676 -34.8471 -34.7297 -34.6217 -34.4622
   -19.9583 -19.9446 -19.9414 -19.9375 -19.9339 -19.9194 -19.9099 -19.8947
   -19.8888 -19.8781 -19.8567 -19.8529 -19.8393 -19.8378 -11.8644  -7.2717
    -4.9818  -4.4617  -3.6292   0.0879   0.1133

     highest occupied level (ev):     0.1133

!    total energy              =   -1373.24626050 Ry
     estimated scf accuracy    <          9.6E-13 Ry

     The total energy is the sum of the following terms:
     one-electron contribution =  -10891.82290560 Ry
     hartree contribution      =    5474.21464563 Ry
     xc contribution           =    -138.77672026 Ry
     ewald contribution        =    4183.13871972 Ry

     convergence has been achieved in  41 iterations

     negative rho (up, down):  1.197E-03 0.000E+00

     Forces acting on atoms (cartesian axes, Ry/au):

     atom    1 type  2   force =     0.00031071    0.00028322   -0.00017671
     atom    2 type  1   force =    -0.00026302   -0.00046379    0.00136233
     atom    3 type  1   force =    -0.00004769    0.00018057   -0.00118562

     Total force =     0.001892     Total SCF correction =     0.000013


     Computing stress (Cartesian axis) and pressure


     negative rho (up, down):  1.197E-03 0.000E+00
          total   stress  (Ry/bohr**3)                   (kbar)     P=        4.09
   0.00005669  -0.00000261   0.00000033            8.34       -0.38        0.05
  -0.00000261   0.00004165   0.00000093           -0.38        6.13        0.14
   0.00000033   0.00000093  -0.00001495            0.05        0.14       -2.20


     Writing output data file /scratch/as3359/Ta2C-CT-ecutoff/Ta2C.save/
 
     init_run     :     13.84s CPU      7.66s WALL (       1 calls)
     electrons    :    946.57s CPU    486.49s WALL (       1 calls)
     forces       :      4.62s CPU      2.39s WALL (       1 calls)
     stress       :     15.12s CPU      7.82s WALL (       1 calls)

     Called by init_run:
     wfcinit      :      9.97s CPU      5.11s WALL (       1 calls)
     potinit      :      0.88s CPU      0.45s WALL (       1 calls)
     hinit0       :      2.32s CPU      1.65s WALL (       1 calls)

     Called by electrons:
     c_bands      :    753.63s CPU    381.78s WALL (      41 calls)
     sum_band     :    161.65s CPU     85.80s WALL (      41 calls)
     v_of_rho     :      4.60s CPU      2.36s WALL (      42 calls)
     newd         :     25.37s CPU     15.90s WALL (      42 calls)
     mix_rho      :      1.42s CPU      0.74s WALL (      41 calls)

     Called by c_bands:
     init_us_2    :     21.04s CPU     10.56s WALL (    6290 calls)
     cegterg      :    684.38s CPU    346.84s WALL (    3034 calls)

     Called by *egterg:
     cdiaghg      :     20.46s CPU     10.49s WALL (   14194 calls)
     h_psi        :    557.89s CPU    283.17s WALL (   14268 calls)
     s_psi        :     22.82s CPU     11.45s WALL (   14268 calls)
     g_psi        :      3.11s CPU      1.56s WALL (   11160 calls)

     Called by h_psi:
     h_psi:calbec :     22.39s CPU     11.29s WALL (   14268 calls)
     vloc_psi     :    501.92s CPU    255.02s WALL (   14268 calls)
     add_vuspsi   :     29.39s CPU     14.76s WALL (   14268 calls)

     General routines
     calbec       :     30.44s CPU     15.35s WALL (   17672 calls)
     fft          :      4.92s CPU      2.50s WALL (     569 calls)
     ffts         :      0.22s CPU      0.11s WALL (      83 calls)
     fftw         :    534.54s CPU    271.71s WALL (  495794 calls)
     interpolate  :      0.37s CPU      0.19s WALL (      42 calls)
 
     Parallel routines
 
     PWSCF        :  16m21.84s CPU   8m26.09s WALL

 
   This run was terminated on:  20:11:12   6Apr2022            

=------------------------------------------------------------------------------=
   JOB DONE.
=------------------------------------------------------------------------------=
