
     Program PWSCF v.6.8 starts on  6Apr2022 at 20:35:58 

     This program is part of the open-source Quantum ESPRESSO suite
     for quantum simulation of materials; please cite
         "P. Giannozzi et al., J. Phys.:Condens. Matter 21 395502 (2009);
         "P. Giannozzi et al., J. Phys.:Condens. Matter 29 465901 (2017);
         "P. Giannozzi et al., J. Chem. Phys. 152 154105 (2020);
          URL http://www.quantum-espresso.org", 
     in publications or presentations arising from this work. More details at
     http://www.quantum-espresso.org/quote

     Parallel version (MPI & OpenMP), running on       4 processor cores
     Number of MPI processes:                 2
     Threads/MPI process:                     2

     MPI processes distributed on     1 nodes
     R & G space division:  proc/nbgrp/npool/nimage =       2
     125010 MiB available memory on the printing compute node when the environment starts
 
     Reading input from Ta2C.scf.85.in

     Current dimensions of program PWSCF are:
     Max number of different atomic species (ntypx) = 10
     Max number of k-points (npk) =  40000
     Max angular momentum in pseudopotentials (lmaxx) =  4
     file Ta.pbesol-spfn-rrkjus_psl.1.0.0.UPF: wavefunction(s)  5S 5P renormalized

     Subspace diagonalization in iterative solution of the eigenvalue problem:
     a serial algorithm will be used

 
     Parallelization info
     --------------------
     sticks:   dense  smooth     PW     G-vecs:    dense   smooth      PW
     Min         477     384    121               117383    84046   14712
     Max         478     385    122               117440    84075   14745
     Sum         955     769    243               234823   168121   29457
 
     Using Slab Decomposition
 


     bravais-lattice index     =            0
     lattice parameter (alat)  =       5.5500  a.u.
     unit-cell volume          =    1588.7844 (a.u.)^3
     number of atoms/cell      =            3
     number of atomic types    =            2
     number of electrons       =        58.00
     number of Kohn-Sham states=           29
     kinetic-energy cutoff     =      85.0000  Ry
     charge density cutoff     =     425.0000  Ry
     scf convergence threshold =      1.0E-12
     mixing beta               =       0.7000
     number of iterations used =            8  plain     mixing
     Exchange-correlation= PBESOL
                           (   1   4  10   8   0   0   0)

     celldm(1)=   5.550000  celldm(2)=   0.000000  celldm(3)=   0.000000
     celldm(4)=   0.000000  celldm(5)=   0.000000  celldm(6)=   0.000000

     crystal axes: (cart. coord. in units of alat)
               a(1) = (   1.034114   0.000203   0.000000 )  
               a(2) = (  -0.516207   0.898604   0.000000 )  
               a(3) = (   0.000000   0.000000  10.000000 )  

     reciprocal axes: (cart. coord. in units 2 pi/alat)
               b(1) = (  0.966902  0.555441  0.000000 )  
               b(2) = ( -0.000219  1.112711  0.000000 )  
               b(3) = (  0.000000  0.000000  0.100000 )  


     PseudoPot. # 1 for Ta read from file:
     /shared/home/as3359/pseudo/Ta.pbesol-spfn-rrkjus_psl.1.0.0.UPF
     MD5 check sum: f099565ffaca9b150a52e9412a28e20b
     Pseudo is Ultrasoft + core correction, Zval = 27.0
     Generated using &quot;atomic&quot; code by A. Dal Corso  v.6.3
     Using radial grid of 1273 points,  8 beta functions with: 
                l(1) =   0
                l(2) =   0
                l(3) =   1
                l(4) =   1
                l(5) =   2
                l(6) =   2
                l(7) =   3
                l(8) =   3
     Q(r) pseudized with 0 coefficients 


     PseudoPot. # 2 for C  read from file:
     /shared/home/as3359/pseudo/C.pbesol-n-rrkjus_psl.1.0.0.UPF
     MD5 check sum: 05995be603a8a7c99da3dc4413f31573
     Pseudo is Ultrasoft + core correction, Zval =  4.0
     Generated using &quot;atomic&quot; code by A. Dal Corso  v.6.3MaX
     Using radial grid of 1073 points,  4 beta functions with: 
                l(1) =   0
                l(2) =   0
                l(3) =   1
                l(4) =   1
     Q(r) pseudized with 0 coefficients 


     atomic species   valence    mass     pseudopotential
        Ta            27.00   180.94788     Ta( 1.00)
        C              4.00    12.01070     C ( 1.00)

     No symmetry found



   Cartesian axes

     site n.     atom                  positions (alat units)
         1           C   tau(   1) = (   0.0000000   0.0000000   0.0000000  )
         2           Ta  tau(   2) = (   0.5174615   0.3004190  -0.4127129  )
         3           Ta  tau(   3) = (   0.0007158   0.5986355   0.4125272  )

     number of k points=    74
                       cart. coord. in units 2pi/alat
        k(    1) = (   0.0000000   0.0000000   0.0000000), wk =   0.0138889
        k(    2) = (  -0.0000182   0.0927259   0.0000000), wk =   0.0277778
        k(    3) = (  -0.0000364   0.1854519   0.0000000), wk =   0.0277778
        k(    4) = (  -0.0000547   0.2781778   0.0000000), wk =   0.0277778
        k(    5) = (  -0.0000729   0.3709037   0.0000000), wk =   0.0277778
        k(    6) = (  -0.0000911   0.4636296   0.0000000), wk =   0.0277778
        k(    7) = (   0.0001093  -0.5563556   0.0000000), wk =   0.0138889
        k(    8) = (   0.0805752   0.0462867   0.0000000), wk =   0.0277778
        k(    9) = (   0.0805570   0.1390127   0.0000000), wk =   0.0277778
        k(   10) = (   0.0805388   0.2317386   0.0000000), wk =   0.0277778
        k(   11) = (   0.0805205   0.3244645   0.0000000), wk =   0.0277778
        k(   12) = (   0.0805023   0.4171904   0.0000000), wk =   0.0277778
        k(   13) = (   0.0804841   0.5099164   0.0000000), wk =   0.0277778
        k(   14) = (   0.0806845  -0.5100688   0.0000000), wk =   0.0277778
        k(   15) = (   0.0806663  -0.4173429   0.0000000), wk =   0.0277778
        k(   16) = (   0.0806481  -0.3246170   0.0000000), wk =   0.0277778
        k(   17) = (   0.0806298  -0.2318910   0.0000000), wk =   0.0277778
        k(   18) = (   0.0806116  -0.1391651   0.0000000), wk =   0.0277778
        k(   19) = (   0.0805934  -0.0464392   0.0000000), wk =   0.0277778
        k(   20) = (   0.1611504   0.0925735   0.0000000), wk =   0.0277778
        k(   21) = (   0.1611322   0.1852994   0.0000000), wk =   0.0277778
        k(   22) = (   0.1611139   0.2780253   0.0000000), wk =   0.0277778
        k(   23) = (   0.1610957   0.3707513   0.0000000), wk =   0.0277778
        k(   24) = (   0.1610775   0.4634772   0.0000000), wk =   0.0277778
        k(   25) = (   0.1610593   0.5562031   0.0000000), wk =   0.0277778
        k(   26) = (   0.1612597  -0.4637821   0.0000000), wk =   0.0277778
        k(   27) = (   0.1612415  -0.3710561   0.0000000), wk =   0.0277778
        k(   28) = (   0.1612232  -0.2783302   0.0000000), wk =   0.0277778
        k(   29) = (   0.1612050  -0.1856043   0.0000000), wk =   0.0277778
        k(   30) = (   0.1611868  -0.0928784   0.0000000), wk =   0.0277778
        k(   31) = (   0.1611686  -0.0001524   0.0000000), wk =   0.0277778
        k(   32) = (   0.2417256   0.1388602   0.0000000), wk =   0.0277778
        k(   33) = (   0.2417073   0.2315862   0.0000000), wk =   0.0277778
        k(   34) = (   0.2416891   0.3243121   0.0000000), wk =   0.0277778
        k(   35) = (   0.2416709   0.4170380   0.0000000), wk =   0.0277778
        k(   36) = (   0.2416527   0.5097639   0.0000000), wk =   0.0277778
        k(   37) = (   0.2416345   0.6024899   0.0000000), wk =   0.0277778
        k(   38) = (   0.2418349  -0.4174953   0.0000000), wk =   0.0277778
        k(   39) = (   0.2418166  -0.3247694   0.0000000), wk =   0.0277778
        k(   40) = (   0.2417984  -0.2320435   0.0000000), wk =   0.0277778
        k(   41) = (   0.2417802  -0.1393175   0.0000000), wk =   0.0277778
        k(   42) = (   0.2417620  -0.0465916   0.0000000), wk =   0.0277778
        k(   43) = (   0.2417438   0.0461343   0.0000000), wk =   0.0277778
        k(   44) = (   0.3223007   0.1851470   0.0000000), wk =   0.0277778
        k(   45) = (   0.3222825   0.2778729   0.0000000), wk =   0.0277778
        k(   46) = (   0.3222643   0.3705988   0.0000000), wk =   0.0277778
        k(   47) = (   0.3222461   0.4633248   0.0000000), wk =   0.0277778
        k(   48) = (   0.3222279   0.5560507   0.0000000), wk =   0.0277778
        k(   49) = (   0.3222097   0.6487766   0.0000000), wk =   0.0277778
        k(   50) = (   0.3224100  -0.3712086   0.0000000), wk =   0.0277778
        k(   51) = (   0.3223918  -0.2784827   0.0000000), wk =   0.0277778
        k(   52) = (   0.3223736  -0.1857567   0.0000000), wk =   0.0277778
        k(   53) = (   0.3223554  -0.0930308   0.0000000), wk =   0.0277778
        k(   54) = (   0.3223372  -0.0003049   0.0000000), wk =   0.0277778
        k(   55) = (   0.3223190   0.0924210   0.0000000), wk =   0.0277778
        k(   56) = (   0.4028759   0.2314337   0.0000000), wk =   0.0277778
        k(   57) = (   0.4028577   0.3241596   0.0000000), wk =   0.0277778
        k(   58) = (   0.4028395   0.4168856   0.0000000), wk =   0.0277778
        k(   59) = (   0.4028213   0.5096115   0.0000000), wk =   0.0277778
        k(   60) = (   0.4028031   0.6023374   0.0000000), wk =   0.0277778
        k(   61) = (   0.4027848   0.6950633   0.0000000), wk =   0.0277778
        k(   62) = (   0.4029852  -0.3249218   0.0000000), wk =   0.0277778
        k(   63) = (   0.4029670  -0.2321959   0.0000000), wk =   0.0277778
        k(   64) = (   0.4029488  -0.1394700   0.0000000), wk =   0.0277778
        k(   65) = (   0.4029306  -0.0467441   0.0000000), wk =   0.0277778
        k(   66) = (   0.4029124   0.0459819   0.0000000), wk =   0.0277778
        k(   67) = (   0.4028941   0.1387078   0.0000000), wk =   0.0277778
        k(   68) = (  -0.4834511  -0.2777205   0.0000000), wk =   0.0138889
        k(   69) = (  -0.4834693  -0.1849945   0.0000000), wk =   0.0277778
        k(   70) = (  -0.4834875  -0.0922686   0.0000000), wk =   0.0277778
        k(   71) = (  -0.4835058   0.0004573   0.0000000), wk =   0.0277778
        k(   72) = (  -0.4835240   0.0931832   0.0000000), wk =   0.0277778
        k(   73) = (  -0.4835422   0.1859092   0.0000000), wk =   0.0277778
        k(   74) = (  -0.4833418  -0.8340760   0.0000000), wk =   0.0138889

     Dense  grid:   234823 G-vectors     FFT dimensions: (  40,  40, 375)

     Smooth grid:   168121 G-vectors     FFT dimensions: (  36,  36, 360)

     Estimated max dynamical RAM per process >       1.45 GB

     Estimated total dynamical RAM >       2.90 GB

     Initial potential from superposition of free atoms

     starting charge   57.99842, renormalised to   58.00000

     negative rho (up, down):  3.200E-04 0.000E+00
     Starting wfcs are   38 randomized atomic wfcs

     total cpu time spent up to now is       11.4 secs

     Self-consistent Calculation

     iteration #  1     ecut=    85.00 Ry     beta= 0.70
     Davidson diagonalization with overlap
     ethr =  1.00E-02,  avg # of iterations =  2.1

     negative rho (up, down):  2.593E-05 0.000E+00

     total cpu time spent up to now is       28.0 secs

     total energy              =   -1372.42293671 Ry
     estimated scf accuracy    <       1.29621860 Ry

     iteration #  2     ecut=    85.00 Ry     beta= 0.70
     Davidson diagonalization with overlap
     c_bands:  1 eigenvalues not converged
     ethr =  2.23E-03,  avg # of iterations =  7.2

     total cpu time spent up to now is       52.2 secs

     total energy              =   -1371.81763844 Ry
     estimated scf accuracy    <       8.83649731 Ry

     iteration #  3     ecut=    85.00 Ry     beta= 0.70
     Davidson diagonalization with overlap
     ethr =  2.23E-03,  avg # of iterations =  6.0

     total cpu time spent up to now is       74.5 secs

     total energy              =   -1373.21125383 Ry
     estimated scf accuracy    <       0.14530114 Ry

     iteration #  4     ecut=    85.00 Ry     beta= 0.70
     Davidson diagonalization with overlap
     ethr =  2.51E-04,  avg # of iterations =  5.9

     total cpu time spent up to now is       94.4 secs

     total energy              =   -1373.24379255 Ry
     estimated scf accuracy    <       0.11344218 Ry

     iteration #  5     ecut=    85.00 Ry     beta= 0.70
     Davidson diagonalization with overlap
     ethr =  1.96E-04,  avg # of iterations =  4.3

     total cpu time spent up to now is      112.3 secs

     total energy              =   -1373.24557864 Ry
     estimated scf accuracy    <       0.04647677 Ry

     iteration #  6     ecut=    85.00 Ry     beta= 0.70
     Davidson diagonalization with overlap
     ethr =  8.01E-05,  avg # of iterations =  3.2

     total cpu time spent up to now is      129.2 secs

     total energy              =   -1373.24712055 Ry
     estimated scf accuracy    <       0.00664642 Ry

     iteration #  7     ecut=    85.00 Ry     beta= 0.70
     Davidson diagonalization with overlap
     ethr =  1.15E-05,  avg # of iterations =  6.2

     total cpu time spent up to now is      150.0 secs

     total energy              =   -1373.24854992 Ry
     estimated scf accuracy    <       0.00126418 Ry

     iteration #  8     ecut=    85.00 Ry     beta= 0.70
     Davidson diagonalization with overlap
     c_bands:  1 eigenvalues not converged
     c_bands:  1 eigenvalues not converged
     c_bands:  1 eigenvalues not converged
     ethr =  2.18E-06,  avg # of iterations =  7.1

     negative rho (up, down):  1.831E-07 0.000E+00

     total cpu time spent up to now is      171.4 secs

     total energy              =   -1373.24884917 Ry
     estimated scf accuracy    <       0.00102562 Ry

     iteration #  9     ecut=    85.00 Ry     beta= 0.70
     Davidson diagonalization with overlap
     ethr =  1.77E-06,  avg # of iterations =  2.8

     negative rho (up, down):  2.807E-05 0.000E+00

     total cpu time spent up to now is      188.1 secs

     total energy              =   -1373.24884259 Ry
     estimated scf accuracy    <       0.00025836 Ry

     iteration # 10     ecut=    85.00 Ry     beta= 0.70
     Davidson diagonalization with overlap
     ethr =  4.45E-07,  avg # of iterations =  6.0

     negative rho (up, down):  4.741E-05 0.000E+00

     total cpu time spent up to now is      207.2 secs

     total energy              =   -1373.24890404 Ry
     estimated scf accuracy    <       0.00002100 Ry

     iteration # 11     ecut=    85.00 Ry     beta= 0.70
     Davidson diagonalization with overlap
     ethr =  3.62E-08,  avg # of iterations =  6.0

     negative rho (up, down):  6.376E-05 0.000E+00

     total cpu time spent up to now is      227.2 secs

     total energy              =   -1373.24890436 Ry
     estimated scf accuracy    <       0.00001426 Ry

     iteration # 12     ecut=    85.00 Ry     beta= 0.70
     Davidson diagonalization with overlap
     ethr =  2.46E-08,  avg # of iterations =  3.6

     negative rho (up, down):  6.993E-05 0.000E+00

     total cpu time spent up to now is      244.6 secs

     total energy              =   -1373.24890579 Ry
     estimated scf accuracy    <       0.00000104 Ry

     iteration # 13     ecut=    85.00 Ry     beta= 0.70
     Davidson diagonalization with overlap
     ethr =  1.79E-09,  avg # of iterations =  7.3

     negative rho (up, down):  6.807E-05 0.000E+00

     total cpu time spent up to now is      267.0 secs

     total energy              =   -1373.24890630 Ry
     estimated scf accuracy    <       0.00000161 Ry

     iteration # 14     ecut=    85.00 Ry     beta= 0.70
     Davidson diagonalization with overlap
     ethr =  1.79E-09,  avg # of iterations =  2.0

     negative rho (up, down):  6.878E-05 0.000E+00

     total cpu time spent up to now is      282.8 secs

     total energy              =   -1373.24890625 Ry
     estimated scf accuracy    <       0.00000088 Ry

     iteration # 15     ecut=    85.00 Ry     beta= 0.70
     Davidson diagonalization with overlap
     ethr =  1.52E-09,  avg # of iterations =  5.0

     negative rho (up, down):  6.779E-05 0.000E+00

     total cpu time spent up to now is      301.0 secs

     total energy              =   -1373.24890633 Ry
     estimated scf accuracy    <       0.00000008 Ry

     iteration # 16     ecut=    85.00 Ry     beta= 0.70
     Davidson diagonalization with overlap
     c_bands:  1 eigenvalues not converged
     ethr =  1.45E-10,  avg # of iterations =  6.7

     negative rho (up, down):  6.769E-05 0.000E+00

     total cpu time spent up to now is      321.9 secs

     total energy              =   -1373.24890634 Ry
     estimated scf accuracy    <       0.00000040 Ry

     iteration # 17     ecut=    85.00 Ry     beta= 0.70
     Davidson diagonalization with overlap
     ethr =  1.45E-10,  avg # of iterations =  3.1

     negative rho (up, down):  6.805E-05 0.000E+00

     total cpu time spent up to now is      338.5 secs

     total energy              =   -1373.24890631 Ry
     estimated scf accuracy    <       0.00000019 Ry

     iteration # 18     ecut=    85.00 Ry     beta= 0.70
     Davidson diagonalization with overlap
     ethr =  1.45E-10,  avg # of iterations =  7.1

     negative rho (up, down):  6.808E-05 0.000E+00

     total cpu time spent up to now is      359.3 secs

     total energy              =   -1373.24890634 Ry
     estimated scf accuracy    <       0.00000014 Ry

     iteration # 19     ecut=    85.00 Ry     beta= 0.70
     Davidson diagonalization with overlap
     ethr =  1.45E-10,  avg # of iterations =  1.4

     negative rho (up, down):  6.808E-05 0.000E+00

     total cpu time spent up to now is      374.5 secs

     total energy              =   -1373.24890633 Ry
     estimated scf accuracy    <       0.00000009 Ry

     iteration # 20     ecut=    85.00 Ry     beta= 0.70
     Davidson diagonalization with overlap
     ethr =  1.45E-10,  avg # of iterations =  3.5

     negative rho (up, down):  6.814E-05 0.000E+00

     total cpu time spent up to now is      391.3 secs

     total energy              =   -1373.24890633 Ry
     estimated scf accuracy    <          9.5E-09 Ry

     iteration # 21     ecut=    85.00 Ry     beta= 0.70
     Davidson diagonalization with overlap
     ethr =  1.63E-11,  avg # of iterations =  7.9

     negative rho (up, down):  6.813E-05 0.000E+00

     total cpu time spent up to now is      412.8 secs

     total energy              =   -1373.24890634 Ry
     estimated scf accuracy    <       0.00000005 Ry

     iteration # 22     ecut=    85.00 Ry     beta= 0.70
     Davidson diagonalization with overlap
     ethr =  1.63E-11,  avg # of iterations =  2.0

     negative rho (up, down):  6.812E-05 0.000E+00

     total cpu time spent up to now is      428.5 secs

     total energy              =   -1373.24890634 Ry
     estimated scf accuracy    <       0.00000004 Ry

     iteration # 23     ecut=    85.00 Ry     beta= 0.70
     Davidson diagonalization with overlap
     ethr =  1.63E-11,  avg # of iterations =  3.8

     negative rho (up, down):  6.812E-05 0.000E+00

     total cpu time spent up to now is      445.6 secs

     total energy              =   -1373.24890634 Ry
     estimated scf accuracy    <       0.00000001 Ry

     iteration # 24     ecut=    85.00 Ry     beta= 0.70
     Davidson diagonalization with overlap
     ethr =  1.63E-11,  avg # of iterations =  4.9

     negative rho (up, down):  6.812E-05 0.000E+00

     total cpu time spent up to now is      463.4 secs

     total energy              =   -1373.24890634 Ry
     estimated scf accuracy    <          2.5E-11 Ry

     iteration # 25     ecut=    85.00 Ry     beta= 0.70
     Davidson diagonalization with overlap
     ethr =  1.00E-13,  avg # of iterations =  7.9

     negative rho (up, down):  6.813E-05 0.000E+00

     total cpu time spent up to now is      486.2 secs

     total energy              =   -1373.24890634 Ry
     estimated scf accuracy    <          2.8E-10 Ry

     iteration # 26     ecut=    85.00 Ry     beta= 0.70
     Davidson diagonalization with overlap
     ethr =  1.00E-13,  avg # of iterations =  1.3

     negative rho (up, down):  6.813E-05 0.000E+00

     total cpu time spent up to now is      501.2 secs

     total energy              =   -1373.24890634 Ry
     estimated scf accuracy    <          2.4E-10 Ry

     iteration # 27     ecut=    85.00 Ry     beta= 0.70
     Davidson diagonalization with overlap
     ethr =  1.00E-13,  avg # of iterations =  2.1

     negative rho (up, down):  6.813E-05 0.000E+00

     total cpu time spent up to now is      516.7 secs

     total energy              =   -1373.24890634 Ry
     estimated scf accuracy    <          1.5E-10 Ry

     iteration # 28     ecut=    85.00 Ry     beta= 0.70
     Davidson diagonalization with overlap
     ethr =  1.00E-13,  avg # of iterations =  4.5

     negative rho (up, down):  6.813E-05 0.000E+00

     total cpu time spent up to now is      533.8 secs

     total energy              =   -1373.24890634 Ry
     estimated scf accuracy    <          3.4E-11 Ry

     iteration # 29     ecut=    85.00 Ry     beta= 0.70
     Davidson diagonalization with overlap
     ethr =  1.00E-13,  avg # of iterations =  1.0

     negative rho (up, down):  6.813E-05 0.000E+00

     total cpu time spent up to now is      548.5 secs

     total energy              =   -1373.24890634 Ry
     estimated scf accuracy    <          3.0E-11 Ry

     iteration # 30     ecut=    85.00 Ry     beta= 0.70
     Davidson diagonalization with overlap
     ethr =  1.00E-13,  avg # of iterations =  1.0

     negative rho (up, down):  6.813E-05 0.000E+00

     total cpu time spent up to now is      563.1 secs

     total energy              =   -1373.24890634 Ry
     estimated scf accuracy    <          2.6E-11 Ry

     iteration # 31     ecut=    85.00 Ry     beta= 0.70
     Davidson diagonalization with overlap
     ethr =  1.00E-13,  avg # of iterations =  1.0

     negative rho (up, down):  6.813E-05 0.000E+00

     total cpu time spent up to now is      577.7 secs

     total energy              =   -1373.24890634 Ry
     estimated scf accuracy    <          2.4E-11 Ry

     iteration # 32     ecut=    85.00 Ry     beta= 0.70
     Davidson diagonalization with overlap
     ethr =  1.00E-13,  avg # of iterations =  1.0

     negative rho (up, down):  6.813E-05 0.000E+00

     total cpu time spent up to now is      592.3 secs

     total energy              =   -1373.24890634 Ry
     estimated scf accuracy    <          2.6E-11 Ry

     iteration # 33     ecut=    85.00 Ry     beta= 0.70
     Davidson diagonalization with overlap
     ethr =  1.00E-13,  avg # of iterations =  1.0

     negative rho (up, down):  6.813E-05 0.000E+00

     total cpu time spent up to now is      606.9 secs

     total energy              =   -1373.24890634 Ry
     estimated scf accuracy    <          2.9E-11 Ry

     iteration # 34     ecut=    85.00 Ry     beta= 0.70
     Davidson diagonalization with overlap
     ethr =  1.00E-13,  avg # of iterations =  1.0

     negative rho (up, down):  6.813E-05 0.000E+00

     total cpu time spent up to now is      621.5 secs

     total energy              =   -1373.24890634 Ry
     estimated scf accuracy    <          4.0E-11 Ry

     iteration # 35     ecut=    85.00 Ry     beta= 0.70
     Davidson diagonalization with overlap
     ethr =  1.00E-13,  avg # of iterations =  1.0

     negative rho (up, down):  6.813E-05 0.000E+00

     total cpu time spent up to now is      636.1 secs

     total energy              =   -1373.24890634 Ry
     estimated scf accuracy    <          4.2E-11 Ry

     iteration # 36     ecut=    85.00 Ry     beta= 0.70
     Davidson diagonalization with overlap
     ethr =  1.00E-13,  avg # of iterations =  1.0

     negative rho (up, down):  6.813E-05 0.000E+00

     total cpu time spent up to now is      650.7 secs

     total energy              =   -1373.24890634 Ry
     estimated scf accuracy    <          2.3E-11 Ry

     iteration # 37     ecut=    85.00 Ry     beta= 0.70
     Davidson diagonalization with overlap
     ethr =  1.00E-13,  avg # of iterations =  2.1

     negative rho (up, down):  6.813E-05 0.000E+00

     total cpu time spent up to now is      666.5 secs

     total energy              =   -1373.24890634 Ry
     estimated scf accuracy    <          2.4E-12 Ry

     iteration # 38     ecut=    85.00 Ry     beta= 0.70
     Davidson diagonalization with overlap
     ethr =  1.00E-13,  avg # of iterations =  1.0

     negative rho (up, down):  6.813E-05 0.000E+00

     total cpu time spent up to now is      681.1 secs

     total energy              =   -1373.24890634 Ry
     estimated scf accuracy    <          2.2E-12 Ry

     iteration # 39     ecut=    85.00 Ry     beta= 0.70
     Davidson diagonalization with overlap
     ethr =  1.00E-13,  avg # of iterations =  1.0

     negative rho (up, down):  6.813E-05 0.000E+00

     total cpu time spent up to now is      695.8 secs

     End of self-consistent calculation

          k = 0.0000 0.0000 0.0000 ( 21197 PWs)   bands (ev):

   -68.2908 -68.2432 -35.3151 -34.7114 -34.4033 -34.3983 -34.3383 -34.3319
   -19.9498 -19.9361 -19.9108 -19.9104 -19.9049 -19.9046 -19.8784 -19.8777
   -19.8705 -19.8704 -19.8633 -19.8579 -19.7969 -19.7954 -13.2787  -7.6696
    -4.3942  -4.3509  -1.9296  -0.8995  -0.7267

          k =-0.0000 0.0927 0.0000 ( 21165 PWs)   bands (ev):

   -68.2870 -68.2408 -35.3024 -34.7166 -34.4503 -34.4146 -34.3822 -34.3381
   -19.9483 -19.9352 -19.9123 -19.9108 -19.9052 -19.9035 -19.8799 -19.8774
   -19.8708 -19.8698 -19.8604 -19.8552 -19.7997 -19.7983 -13.1648  -7.4495
    -4.7177  -4.3166  -1.8346  -1.0831  -0.5377

          k =-0.0000 0.1855 0.0000 ( 21097 PWs)   bands (ev):

   -68.2764 -68.2343 -35.2682 -34.7444 -34.5647 -34.4992 -34.4559 -34.3573
   -19.9443 -19.9327 -19.9161 -19.9118 -19.9062 -19.9010 -19.8835 -19.8764
   -19.8718 -19.8679 -19.8527 -19.8479 -19.8071 -19.8060 -12.8644  -6.8680
    -5.3781  -4.2539  -1.8300  -1.4640  -0.9839

          k =-0.0001 0.2782 0.0000 ( 21071 PWs)   bands (ev):

   -68.2615 -68.2258 -35.2246 -34.8480 -34.6615 -34.6409 -34.5087 -34.3864
   -19.9398 -19.9293 -19.9203 -19.9132 -19.9080 -19.8988 -19.8873 -19.8744
   -19.8728 -19.8650 -19.8421 -19.8380 -19.8169 -19.8157 -12.4844  -6.4532
    -5.6914  -4.2426  -2.4629  -1.5270  -1.0285

          k =-0.0001 0.3709 0.0000 ( 21006 PWs)   bands (ev):

   -68.2459 -68.2180 -35.1945 -35.0046 -34.7782 -34.6868 -34.5591 -34.4172
   -19.9376 -19.9251 -19.9234 -19.9147 -19.9106 -19.8979 -19.8895 -19.8736
   -19.8718 -19.8617 -19.8312 -19.8280 -19.8266 -19.8243 -12.1486  -6.8402
    -5.2236  -4.3021  -3.0998  -1.1912  -0.6685

          k =-0.0001 0.4636 0.0000 ( 20934 PWs)   bands (ev):

   -68.2334 -68.2133 -35.1986 -35.1231 -34.8369 -34.7113 -34.5950 -34.4404
   -19.9376 -19.9245 -19.9220 -19.9160 -19.9130 -19.8981 -19.8899 -19.8741
   -19.8695 -19.8590 -19.8335 -19.8300 -19.8229 -19.8207 -11.9372  -7.1612
    -5.0005  -4.3783  -3.4992  -0.4175  -0.1614

          k = 0.0001-0.5564 0.0000 ( 20938 PWs)   bands (ev):

   -68.2284 -68.2120 -35.2122 -35.1631 -34.8463 -34.7225 -34.6079 -34.4490
   -19.9379 -19.9244 -19.9214 -19.9165 -19.9136 -19.8984 -19.8898 -19.8743
   -19.8686 -19.8580 -19.8360 -19.8320 -19.8197 -19.8181 -11.8680  -7.2712
    -4.9680  -4.4113  -3.6326   0.0682   0.0976

          k = 0.0806 0.0463 0.0000 ( 21161 PWs)   bands (ev):

   -68.2870 -68.2407 -35.3023 -34.7165 -34.4482 -34.4175 -34.3790 -34.3418
   -19.9483 -19.9352 -19.9122 -19.9110 -19.9051 -19.9036 -19.8796 -19.8777
   -19.8709 -19.8698 -19.8604 -19.8552 -19.7997 -19.7983 -13.1642  -7.4486
    -4.6960  -4.3417  -1.8330  -1.0816  -0.5381

          k = 0.0806 0.1390 0.0000 ( 21109 PWs)   bands (ev):

   -68.2798 -68.2363 -35.2788 -34.7316 -34.5202 -34.4915 -34.4170 -34.3613
   -19.9455 -19.9335 -19.9145 -19.9122 -19.9054 -19.9019 -19.8823 -19.8769
   -19.8713 -19.8687 -19.8551 -19.8502 -19.8048 -19.8036 -12.9572  -7.0393
    -5.1729  -4.3250  -1.7351  -1.2934  -0.9137

          k = 0.0805 0.2317 0.0000 ( 21066 PWs)   bands (ev):

   -68.2670 -68.2288 -35.2394 -34.7900 -34.6298 -34.6052 -34.4752 -34.3935
   -19.9409 -19.9308 -19.9181 -19.9142 -19.9062 -19.8998 -19.8860 -19.8758
   -19.8715 -19.8667 -19.8460 -19.8416 -19.8134 -19.8125 -12.6164  -6.3887
    -5.7341  -4.4050  -1.9819  -1.4637  -1.1264

          k = 0.0805 0.3245 0.0000 ( 21042 PWs)   bands (ev):

   -68.2517 -68.2208 -35.2005 -34.9233 -34.7425 -34.6729 -34.5410 -34.4281
   -19.9369 -19.9273 -19.9218 -19.9158 -19.9081 -19.8985 -19.8890 -19.8747
   -19.8710 -19.8639 -19.8352 -19.8317 -19.8232 -19.8219 -12.2587  -6.5052
    -5.4358  -4.5291  -2.6324  -1.1757  -1.0481

          k = 0.0805 0.4172 0.0000 ( 20997 PWs)   bands (ev):

   -68.2375 -68.2147 -35.1852 -35.0610 -34.8182 -34.7111 -34.5919 -34.4586
   -19.9359 -19.9239 -19.9233 -19.9166 -19.9109 -19.8984 -19.8902 -19.8740
   -19.8699 -19.8610 -19.8317 -19.8293 -19.8255 -19.8229 -11.9877  -6.9069
    -5.0203  -4.6235  -3.0771  -0.7194  -0.5739

          k = 0.0805 0.5099 0.0000 ( 20947 PWs)   bands (ev):

   -68.2284 -68.2120 -35.1944 -35.1407 -34.8381 -34.7384 -34.6183 -34.4766
   -19.9363 -19.9243 -19.9212 -19.9165 -19.9132 -19.8989 -19.8903 -19.8738
   -19.8691 -19.8591 -19.8365 -19.8331 -19.8198 -19.8181 -11.8506  -7.1223
    -4.9161  -4.6869  -3.2861  -0.1425  -0.0723

          k = 0.0807-0.5101 0.0000 ( 20954 PWs)   bands (ev):

   -68.2283 -68.2120 -35.1946 -35.1409 -34.8384 -34.7382 -34.6183 -34.4766
   -19.9363 -19.9243 -19.9212 -19.9165 -19.9132 -19.8989 -19.8903 -19.8738
   -19.8690 -19.8591 -19.8365 -19.8331 -19.8197 -19.8181 -11.8504  -7.1227
    -4.9167  -4.6861  -3.2873  -0.1423  -0.0729

          k = 0.0807-0.4173 0.0000 ( 20999 PWs)   bands (ev):

   -68.2374 -68.2146 -35.1854 -35.0616 -34.8189 -34.7109 -34.5917 -34.4585
   -19.9359 -19.9239 -19.9233 -19.9166 -19.9110 -19.8985 -19.8902 -19.8741
   -19.8698 -19.8610 -19.8318 -19.8293 -19.8254 -19.8229 -11.9872  -6.9079
    -5.0203  -4.6230  -3.0802  -0.7172  -0.5760

          k = 0.0806-0.3246 0.0000 ( 21052 PWs)   bands (ev):

   -68.2516 -68.2207 -35.2005 -34.9241 -34.7432 -34.6730 -34.5410 -34.4281
   -19.9369 -19.9273 -19.9218 -19.9158 -19.9081 -19.8986 -19.8890 -19.8747
   -19.8709 -19.8638 -19.8352 -19.8316 -19.8233 -19.8219 -12.2579  -6.5061
    -5.4352  -4.5292  -2.6357  -1.1750  -1.0476

          k = 0.0806-0.2319 0.0000 ( 21079 PWs)   bands (ev):

   -68.2669 -68.2288 -35.2392 -34.7902 -34.6300 -34.6056 -34.4758 -34.3939
   -19.9409 -19.9308 -19.9181 -19.9142 -19.9062 -19.8999 -19.8860 -19.8758
   -19.8714 -19.8667 -19.8459 -19.8416 -19.8134 -19.8126 -12.6155  -6.3875
    -5.7337  -4.4065  -1.9833  -1.4625  -1.1261

          k = 0.0806-0.1392 0.0000 ( 21118 PWs)   bands (ev):

   -68.2797 -68.2362 -35.2787 -34.7315 -34.5198 -34.4913 -34.4179 -34.3626
   -19.9455 -19.9335 -19.9144 -19.9123 -19.9053 -19.9021 -19.8822 -19.8770
   -19.8712 -19.8687 -19.8550 -19.8502 -19.8048 -19.8037 -12.9564  -7.0381
    -5.1677  -4.3319  -1.7339  -1.2917  -0.9093

          k = 0.0806-0.0464 0.0000 ( 21163 PWs)   bands (ev):

   -68.2869 -68.2407 -35.3022 -34.7164 -34.4466 -34.4193 -34.3774 -34.3436
   -19.9483 -19.9352 -19.9120 -19.9112 -19.9049 -19.9038 -19.8794 -19.8779
   -19.8708 -19.8698 -19.8603 -19.8552 -19.7997 -19.7983 -13.1639  -7.4481
    -4.6864  -4.3525  -1.8323  -1.0805  -0.5357

          k = 0.1612 0.0926 0.0000 ( 21095 PWs)   bands (ev):

   -68.2762 -68.2341 -35.2677 -34.7440 -34.5638 -34.4968 -34.4596 -34.3614
   -19.9443 -19.9327 -19.9159 -19.9120 -19.9061 -19.9011 -19.8832 -19.8766
   -19.8718 -19.8678 -19.8526 -19.8479 -19.8072 -19.8061 -12.8623  -6.8647
    -5.3616  -4.2803  -1.8201  -1.4636  -0.9782

          k = 0.1611 0.1853 0.0000 ( 21070 PWs)   bands (ev):

   -68.2669 -68.2287 -35.2390 -34.7893 -34.6303 -34.6042 -34.4767 -34.3963
   -19.9408 -19.9308 -19.9181 -19.9143 -19.9061 -19.8999 -19.8859 -19.8759
   -19.8715 -19.8666 -19.8459 -19.8416 -19.8135 -19.8126 -12.6150  -6.3860
    -5.7267  -4.4197  -1.9704  -1.4674  -1.1315

          k = 0.1611 0.2780 0.0000 ( 21061 PWs)   bands (ev):

   -68.2537 -68.2217 -35.2028 -34.8729 -34.7488 -34.6585 -34.5227 -34.4573
   -19.9359 -19.9287 -19.9197 -19.9179 -19.9064 -19.8992 -19.8887 -19.8755
   -19.8694 -19.8657 -19.8367 -19.8330 -19.8219 -19.8215 -12.2962  -6.1399
    -5.6827  -4.7643  -2.1271  -1.6201  -0.5748

          k = 0.1611 0.3708 0.0000 ( 21017 PWs)   bands (ev):

   -68.2396 -68.2154 -35.1748 -34.9805 -34.8299 -34.7004 -34.5905 -34.5092
   -19.9321 -19.9264 -19.9216 -19.9188 -19.9083 -19.8994 -19.8907 -19.8747
   -19.8679 -19.8642 -19.8310 -19.8302 -19.8268 -19.8242 -12.0058  -6.4838
    -5.1407  -4.9849  -2.3891  -1.2985  -0.6047

          k = 0.1611 0.4635 0.0000 ( 21000 PWs)   bands (ev):

   -68.2282 -68.2119 -35.1623 -35.0748 -34.8449 -34.7578 -34.6346 -34.5440
   -19.9320 -19.9242 -19.9213 -19.9174 -19.9112 -19.9001 -19.8915 -19.8733
   -19.8687 -19.8620 -19.8374 -19.8355 -19.8198 -19.8181 -11.8151  -6.7421
    -5.1825  -4.7891  -2.5621  -0.6835  -0.4812

          k = 0.1611 0.5562 0.0000 ( 20968 PWs)   bands (ev):

   -68.2234 -68.2112 -35.1550 -35.1172 -34.8180 -34.8101 -34.6463 -34.5570
   -19.9325 -19.9239 -19.9200 -19.9163 -19.9130 -19.9005 -19.8917 -19.8723
   -19.8696 -19.8610 -19.8399 -19.8375 -19.8171 -19.8159 -11.7503  -6.8373
    -5.2113  -4.7418  -2.6303  -0.3330  -0.2773

          k = 0.1613-0.4638 0.0000 ( 20992 PWs)   bands (ev):

   -68.2281 -68.2119 -35.1628 -35.0756 -34.8457 -34.7574 -34.6345 -34.5438
   -19.9320 -19.9242 -19.9214 -19.9174 -19.9113 -19.9002 -19.8915 -19.8734
   -19.8685 -19.8620 -19.8375 -19.8356 -19.8198 -19.8180 -11.8145  -6.7438
    -5.1827  -4.7893  -2.5643  -0.6876  -0.4805

          k = 0.1612-0.3711 0.0000 ( 21009 PWs)   bands (ev):

   -68.2395 -68.2153 -35.1750 -34.9819 -34.8308 -34.7006 -34.5904 -34.5092
   -19.9321 -19.9263 -19.9217 -19.9188 -19.9083 -19.8995 -19.8907 -19.8747
   -19.8678 -19.8642 -19.8310 -19.8302 -19.8267 -19.8241 -12.0045  -6.4862
    -5.1402  -4.9855  -2.3933  -1.3014  -0.6031

          k = 0.1612-0.2783 0.0000 ( 21047 PWs)   bands (ev):

   -68.2535 -68.2216 -35.2027 -34.8736 -34.7497 -34.6589 -34.5234 -34.4580
   -19.9359 -19.9287 -19.9196 -19.9180 -19.9064 -19.8994 -19.8887 -19.8755
   -19.8694 -19.8656 -19.8366 -19.8329 -19.8220 -19.8216 -12.2945  -6.1404
    -5.6806  -4.7671  -2.1301  -1.6202  -0.5747

          k = 0.1612-0.1856 0.0000 ( 21070 PWs)   bands (ev):

   -68.2667 -68.2286 -35.2388 -34.7890 -34.6305 -34.6043 -34.4781 -34.3980
   -19.9408 -19.9308 -19.9179 -19.9145 -19.9060 -19.9001 -19.8858 -19.8759
   -19.8715 -19.8666 -19.8458 -19.8415 -19.8136 -19.8127 -12.6134  -6.3834
    -5.7228  -4.4270  -1.9669  -1.4680  -1.1327

          k = 0.1612-0.0929 0.0000 ( 21103 PWs)   bands (ev):

   -68.2761 -68.2341 -35.2675 -34.7436 -34.5630 -34.4957 -34.4617 -34.3634
   -19.9443 -19.9327 -19.9158 -19.9123 -19.9059 -19.9013 -19.8831 -19.8767
   -19.8718 -19.8679 -19.8525 -19.8478 -19.8073 -19.8062 -12.8613  -6.8629
    -5.3546  -4.2907  -1.8155  -1.4630  -0.9757

          k = 0.1612-0.0002 0.0000 ( 21123 PWs)   bands (ev):

   -68.2796 -68.2361 -35.2783 -34.7315 -34.5195 -34.4905 -34.4191 -34.3655
   -19.9455 -19.9335 -19.9143 -19.9125 -19.9052 -19.9022 -19.8819 -19.8773
   -19.8713 -19.8686 -19.8550 -19.8502 -19.8049 -19.8037 -12.9548  -7.0358
    -5.1541  -4.3512  -1.7319  -1.2881  -0.8978

          k = 0.2417 0.1389 0.0000 ( 21064 PWs)   bands (ev):

   -68.2611 -68.2256 -35.2238 -34.8473 -34.6626 -34.6390 -34.5134 -34.3911
   -19.9397 -19.9293 -19.9203 -19.9134 -19.9078 -19.8989 -19.8871 -19.8746
   -19.8729 -19.8649 -19.8419 -19.8378 -19.8172 -19.8159 -12.4806  -6.4459
    -5.6831  -4.2710  -2.4521  -1.5296  -1.0281

          k = 0.2417 0.2316 0.0000 ( 21040 PWs)   bands (ev):

   -68.2513 -68.2206 -35.1999 -34.9223 -34.7427 -34.6724 -34.5451 -34.4322
   -19.9369 -19.9273 -19.9217 -19.9160 -19.9080 -19.8987 -19.8889 -19.8747
   -19.8711 -19.8638 -19.8351 -19.8315 -19.8234 -19.8221 -12.2557  -6.4976
    -5.4335  -4.5504  -2.6230  -1.1766  -1.0531

          k = 0.2417 0.3243 0.0000 ( 21037 PWs)   bands (ev):

   -68.2394 -68.2153 -35.1746 -34.9797 -34.8306 -34.6998 -34.5929 -34.5112
   -19.9322 -19.9263 -19.9215 -19.9190 -19.9082 -19.8995 -19.8907 -19.8747
   -19.8680 -19.8641 -19.8311 -19.8302 -19.8267 -19.8241 -12.0043  -6.4795
    -5.1502  -4.9871  -2.3863  -1.2955  -0.6102

          k = 0.2417 0.4170 0.0000 ( 20990 PWs)   bands (ev):

   -68.2280 -68.2118 -35.1477 -35.0129 -34.8954 -34.7324 -34.6483 -34.5897
   -19.9277 -19.9267 -19.9201 -19.9189 -19.9098 -19.9011 -19.8922 -19.8734
   -19.8664 -19.8651 -19.8376 -19.8371 -19.8198 -19.8180 -11.7964  -6.4458
    -5.5096  -4.7232  -1.8248  -1.3891  -0.6823

          k = 0.2417 0.5098 0.0000 ( 20999 PWs)   bands (ev):

   -68.2199 -68.2113 -35.1093 -35.0533 -34.9144 -34.7802 -34.6692 -34.6376
   -19.9288 -19.9233 -19.9196 -19.9161 -19.9121 -19.9024 -19.8931 -19.8713
   -19.8688 -19.8640 -19.8419 -19.8409 -19.8156 -19.8146 -11.6811  -6.4529
    -5.6951  -4.5639  -1.7428  -0.8864  -0.6470

          k = 0.2416 0.6025 0.0000 ( 20984 PWs)   bands (ev):

   -68.2198 -68.2112 -35.1097 -35.0539 -34.9144 -34.7803 -34.6690 -34.6377
   -19.9288 -19.9233 -19.9197 -19.9160 -19.9121 -19.9024 -19.8931 -19.8714
   -19.8687 -19.8640 -19.8419 -19.8409 -19.8155 -19.8146 -11.6806  -6.4541
    -5.6954  -4.5647  -1.7429  -0.8931  -0.6434

          k = 0.2418-0.4175 0.0000 ( 20996 PWs)   bands (ev):

   -68.2278 -68.2117 -35.1483 -35.0143 -34.8958 -34.7327 -34.6484 -34.5899
   -19.9276 -19.9267 -19.9203 -19.9189 -19.9097 -19.9012 -19.8921 -19.8735
   -19.8663 -19.8650 -19.8377 -19.8372 -19.8197 -19.8179 -11.7951  -6.4479
    -5.5115  -4.7240  -1.8281  -1.3933  -0.6806

          k = 0.2418-0.3248 0.0000 ( 21037 PWs)   bands (ev):

   -68.2392 -68.2152 -35.1747 -34.9806 -34.8319 -34.6998 -34.5938 -34.5124
   -19.9322 -19.9263 -19.9215 -19.9191 -19.9082 -19.8997 -19.8906 -19.8747
   -19.8679 -19.8640 -19.8312 -19.8304 -19.8266 -19.8239 -12.0023  -6.4800
    -5.1526  -4.9883  -2.3899  -1.2965  -0.6105

          k = 0.2418-0.2320 0.0000 ( 21024 PWs)   bands (ev):

   -68.2511 -68.2204 -35.1996 -34.9223 -34.7435 -34.6723 -34.5470 -34.4343
   -19.9369 -19.9273 -19.9216 -19.9161 -19.9078 -19.8989 -19.8888 -19.8747
   -19.8710 -19.8638 -19.8350 -19.8314 -19.8235 -19.8223 -12.2535  -6.4956
    -5.4301  -4.5589  -2.6229  -1.1762  -1.0540

          k = 0.2418-0.1393 0.0000 ( 21065 PWs)   bands (ev):

   -68.2609 -68.2254 -35.2235 -34.8467 -34.6628 -34.6383 -34.5159 -34.3934
   -19.9398 -19.9293 -19.9201 -19.9137 -19.9076 -19.8991 -19.8870 -19.8746
   -19.8728 -19.8649 -19.8418 -19.8377 -19.8173 -19.8161 -12.4788  -6.4427
    -5.6783  -4.2819  -2.4479  -1.5305  -1.0278

          k = 0.2418-0.0466 0.0000 ( 21077 PWs)   bands (ev):

   -68.2665 -68.2285 -35.2384 -34.7901 -34.6306 -34.6053 -34.4789 -34.3990
   -19.9408 -19.9308 -19.9179 -19.9145 -19.9060 -19.9001 -19.8856 -19.8761
   -19.8715 -19.8665 -19.8457 -19.8414 -19.8137 -19.8128 -12.6113  -6.3814
    -5.7215  -4.4333  -1.9699  -1.4659  -1.1317

          k = 0.2417 0.0461 0.0000 ( 21077 PWs)   bands (ev):

   -68.2666 -68.2285 -35.2385 -34.7905 -34.6306 -34.6055 -34.4781 -34.3976
   -19.9408 -19.9308 -19.9180 -19.9144 -19.9061 -19.9000 -19.8857 -19.8761
   -19.8715 -19.8665 -19.8458 -19.8414 -19.8136 -19.8128 -12.6119  -6.3827
    -5.7250  -4.4274  -1.9748  -1.4641  -1.1302

          k = 0.3223 0.1851 0.0000 ( 21008 PWs)   bands (ev):

   -68.2452 -68.2177 -35.1939 -35.0046 -34.7777 -34.6875 -34.5647 -34.4226
   -19.9375 -19.9251 -19.9234 -19.9150 -19.9105 -19.8981 -19.8893 -19.8737
   -19.8718 -19.8616 -19.8309 -19.8277 -19.8269 -19.8247 -12.1435  -6.8345
    -5.2223  -4.3331  -3.0922  -1.1886  -0.6649

          k = 0.3223 0.2779 0.0000 ( 20997 PWs)   bands (ev):

   -68.2369 -68.2144 -35.1849 -35.0606 -34.8171 -34.7122 -34.5971 -34.4635
   -19.9359 -19.9238 -19.9231 -19.9168 -19.9109 -19.8987 -19.8901 -19.8740
   -19.8700 -19.8609 -19.8320 -19.8296 -19.8252 -19.8227 -11.9835  -6.9019
    -5.0229  -4.6490  -3.0713  -0.7161  -0.5668

          k = 0.3223 0.3706 0.0000 ( 20994 PWs)   bands (ev):

   -68.2277 -68.2118 -35.1625 -35.0745 -34.8451 -34.7579 -34.6383 -34.5470
   -19.9321 -19.9241 -19.9211 -19.9175 -19.9112 -19.9003 -19.8915 -19.8733
   -19.8688 -19.8619 -19.8377 -19.8357 -19.8197 -19.8179 -11.8122  -6.7394
    -5.1972  -4.7949  -2.5659  -0.6711  -0.4728

          k = 0.3222 0.4633 0.0000 ( 20993 PWs)   bands (ev):

   -68.2195 -68.2113 -35.1099 -35.0531 -34.9156 -34.7791 -34.6717 -34.6380
   -19.9289 -19.9233 -19.9195 -19.9161 -19.9121 -19.9025 -19.8931 -19.8713
   -19.8689 -19.8639 -19.8420 -19.8410 -19.8155 -19.8146 -11.6796  -6.4523
    -5.7017  -4.5680  -1.7584  -0.8676  -0.6402

          k = 0.3222 0.5561 0.0000 ( 21012 PWs)   bands (ev):

   -68.2140 -68.2135 -35.0381 -35.0360 -35.0012 -34.7801 -34.6839 -34.6814
   -19.9283 -19.9207 -19.9205 -19.9137 -19.9135 -19.9037 -19.8940 -19.8697
   -19.8694 -19.8653 -19.8435 -19.8432 -19.8137 -19.8135 -11.6291  -6.1120
    -6.1108  -4.4612  -1.0920  -0.9613  -0.9498

          k = 0.3222 0.6488 0.0000 ( 20988 PWs)   bands (ev):

   -68.2193 -68.2112 -35.1104 -35.0536 -34.9163 -34.7791 -34.6722 -34.6384
   -19.9289 -19.9234 -19.9195 -19.9162 -19.9120 -19.9026 -19.8930 -19.8714
   -19.8688 -19.8638 -19.8421 -19.8411 -19.8154 -19.8145 -11.6786  -6.4527
    -5.7050  -4.5697  -1.7656  -0.8654  -0.6341

          k = 0.3224-0.3712 0.0000 ( 20992 PWs)   bands (ev):

   -68.2274 -68.2116 -35.1629 -35.0750 -34.8462 -34.7578 -34.6396 -34.5485
   -19.9321 -19.9241 -19.9211 -19.9176 -19.9111 -19.9005 -19.8914 -19.8733
   -19.8686 -19.8618 -19.8378 -19.8359 -19.8195 -19.8178 -11.8104  -6.7395
    -5.2036  -4.7957  -2.5704  -0.6689  -0.4689

          k = 0.3224-0.2785 0.0000 ( 20997 PWs)   bands (ev):

   -68.2366 -68.2142 -35.1850 -35.0609 -34.8176 -34.7123 -34.5995 -34.4659
   -19.9359 -19.9238 -19.9231 -19.9170 -19.9108 -19.8989 -19.8900 -19.8740
   -19.8698 -19.8608 -19.8322 -19.8298 -19.8251 -19.8226 -11.9812  -6.9006
    -5.0217  -4.6585  -3.0730  -0.7126  -0.5651

          k = 0.3224-0.1858 0.0000 ( 21001 PWs)   bands (ev):

   -68.2450 -68.2175 -35.1936 -35.0043 -34.7776 -34.6876 -34.5676 -34.4253
   -19.9376 -19.9250 -19.9233 -19.9152 -19.9103 -19.8983 -19.8892 -19.8737
   -19.8718 -19.8616 -19.8308 -19.8276 -19.8271 -19.8249 -12.1413  -6.8318
    -5.2194  -4.3450  -3.0901  -1.1876  -0.6627

          k = 0.3224-0.0930 0.0000 ( 21035 PWs)   bands (ev):

   -68.2509 -68.2203 -35.1995 -34.9244 -34.7448 -34.6726 -34.5465 -34.4344
   -19.9369 -19.9273 -19.9216 -19.9162 -19.9078 -19.8989 -19.8887 -19.8749
   -19.8709 -19.8637 -19.8349 -19.8313 -19.8236 -19.8224 -12.2514  -6.4989
    -5.4287  -4.5609  -2.6305  -1.1756  -1.0512

          k = 0.3223-0.0003 0.0000 ( 21045 PWs)   bands (ev):

   -68.2531 -68.2213 -35.2023 -34.8764 -34.7509 -34.6596 -34.5242 -34.4598
   -19.9358 -19.9288 -19.9197 -19.9181 -19.9064 -19.8994 -19.8885 -19.8757
   -19.8694 -19.8654 -19.8364 -19.8327 -19.8222 -19.8218 -12.2905  -6.1427
    -5.6770  -4.7770  -2.1351  -1.6226  -0.5776

          k = 0.3223 0.0924 0.0000 ( 21041 PWs)   bands (ev):

   -68.2510 -68.2204 -35.1998 -34.9250 -34.7448 -34.6728 -34.5445 -34.4324
   -19.9369 -19.9274 -19.9217 -19.9160 -19.9080 -19.8987 -19.8888 -19.8749
   -19.8709 -19.8637 -19.8350 -19.8314 -19.8235 -19.8222 -12.2528  -6.5019
    -5.4315  -4.5524  -2.6338  -1.1754  -1.0498

          k = 0.4029 0.2314 0.0000 ( 20941 PWs)   bands (ev):

   -68.2325 -68.2130 -35.1993 -35.1234 -34.8350 -34.7131 -34.6012 -34.4463
   -19.9376 -19.9244 -19.9217 -19.9163 -19.9129 -19.8984 -19.8898 -19.8742
   -19.8694 -19.8589 -19.8339 -19.8304 -19.8225 -19.8204 -11.9315  -7.1582
    -5.0065  -4.4111  -3.4928  -0.4066  -0.1514

          k = 0.4029 0.3242 0.0000 ( 20957 PWs)   bands (ev):

   -68.2275 -68.2117 -35.1955 -35.1408 -34.8355 -34.7410 -34.6238 -34.4819
   -19.9363 -19.9242 -19.9209 -19.9168 -19.9132 -19.8992 -19.8902 -19.8739
   -19.8690 -19.8589 -19.8369 -19.8334 -19.8194 -19.8178 -11.8455  -7.1202
    -4.9231  -4.7133  -3.2855  -0.1291  -0.0590

          k = 0.4028 0.4169 0.0000 ( 20970 PWs)   bands (ev):

   -68.2226 -68.2111 -35.1568 -35.1172 -34.8161 -34.8125 -34.6498 -34.5603
   -19.9326 -19.9239 -19.9198 -19.9165 -19.9130 -19.9008 -19.8916 -19.8724
   -19.8695 -19.8608 -19.8402 -19.8377 -19.8168 -19.8157 -11.7462  -6.8378
    -5.2273  -4.7501  -2.6393  -0.3208  -0.2605

          k = 0.4028 0.5096 0.0000 ( 21008 PWs)   bands (ev):

   -68.2192 -68.2112 -35.1114 -35.0555 -34.9152 -34.7794 -34.6704 -34.6389
   -19.9289 -19.9233 -19.9196 -19.9161 -19.9121 -19.9026 -19.8931 -19.8716
   -19.8686 -19.8638 -19.8421 -19.8411 -19.8154 -19.8145 -11.6778  -6.4581
    -5.7019  -4.5711  -1.7593  -0.8892  -0.6279

          k = 0.4028 0.6023 0.0000 ( 20998 PWs)   bands (ev):

   -68.2191 -68.2112 -35.1114 -35.0554 -34.9158 -34.7793 -34.6711 -34.6393
   -19.9289 -19.9234 -19.9196 -19.9161 -19.9120 -19.9027 -19.8930 -19.8716
   -19.8687 -19.8637 -19.8421 -19.8411 -19.8153 -19.8144 -11.6773  -6.4573
    -5.7049  -4.5721  -1.7664  -0.8804  -0.6253

          k = 0.4028 0.6951 0.0000 ( 20967 PWs)   bands (ev):

   -68.2223 -68.2110 -35.1572 -35.1172 -34.8157 -34.8138 -34.6512 -34.5620
   -19.9326 -19.9240 -19.9197 -19.9166 -19.9129 -19.9010 -19.8915 -19.8725
   -19.8694 -19.8608 -19.8403 -19.8379 -19.8167 -19.8155 -11.7447  -6.8371
    -5.2339  -4.7517  -2.6437  -0.3142  -0.2540

          k = 0.4030-0.3249 0.0000 ( 20959 PWs)   bands (ev):

   -68.2271 -68.2115 -35.1960 -35.1409 -34.8353 -34.7416 -34.6263 -34.4845
   -19.9364 -19.9242 -19.9209 -19.9170 -19.9130 -19.8994 -19.8901 -19.8739
   -19.8689 -19.8589 -19.8370 -19.8337 -19.8192 -19.8176 -11.8433  -7.1190
    -4.9243  -4.7230  -3.2875  -0.1229  -0.0531

          k = 0.4030-0.2322 0.0000 ( 20945 PWs)   bands (ev):

   -68.2322 -68.2127 -35.1994 -35.1234 -34.8347 -34.7133 -34.6044 -34.4492
   -19.9377 -19.9244 -19.9217 -19.9166 -19.9128 -19.8986 -19.8897 -19.8742
   -19.8694 -19.8588 -19.8341 -19.8307 -19.8223 -19.8202 -11.9292  -7.1562
    -5.0063  -4.4240  -3.4915  -0.4018  -0.1462

          k = 0.4029-0.1395 0.0000 ( 20999 PWs)   bands (ev):

   -68.2364 -68.2141 -35.1855 -35.0624 -34.8189 -34.7119 -34.5989 -34.4659
   -19.9359 -19.9238 -19.9231 -19.9170 -19.9107 -19.8989 -19.8900 -19.8742
   -19.8696 -19.8608 -19.8322 -19.8299 -19.8250 -19.8225 -11.9796  -6.9041
    -5.0228  -4.6564  -3.0806  -0.7078  -0.5695

          k = 0.4029-0.0467 0.0000 ( 21033 PWs)   bands (ev):

   -68.2388 -68.2150 -35.1753 -34.9844 -34.8330 -34.7003 -34.5932 -34.5128
   -19.9321 -19.9263 -19.9216 -19.9191 -19.9082 -19.8997 -19.8905 -19.8749
   -19.8677 -19.8639 -19.8313 -19.8305 -19.8265 -19.8238 -11.9988  -6.4878
    -5.1479  -4.9952  -2.3997  -1.3039  -0.6020

          k = 0.4029 0.0460 0.0000 ( 21017 PWs)   bands (ev):

   -68.2389 -68.2150 -35.1754 -34.9848 -34.8326 -34.7004 -34.5922 -34.5117
   -19.9321 -19.9264 -19.9216 -19.9190 -19.9082 -19.8997 -19.8905 -19.8749
   -19.8677 -19.8640 -19.8313 -19.8304 -19.8265 -19.8239 -11.9995  -6.4896
    -5.1449  -4.9946  -2.4002  -1.3058  -0.6000

          k = 0.4029 0.1387 0.0000 ( 21005 PWs)   bands (ev):

   -68.2366 -68.2143 -35.1858 -35.0627 -34.8192 -34.7116 -34.5964 -34.4634
   -19.9359 -19.9239 -19.9231 -19.9169 -19.9109 -19.8987 -19.8901 -19.8743
   -19.8696 -19.8608 -19.8321 -19.8297 -19.8251 -19.8226 -11.9814  -6.9065
    -5.0239  -4.6465  -3.0821  -0.7092  -0.5733

          k =-0.4835-0.2777 0.0000 ( 20962 PWs)   bands (ev):

   -68.2274 -68.2117 -35.2138 -35.1633 -34.8433 -34.7249 -34.6144 -34.4551
   -19.9380 -19.9243 -19.9211 -19.9168 -19.9136 -19.8987 -19.8897 -19.8744
   -19.8685 -19.8579 -19.8364 -19.8324 -19.8193 -19.8177 -11.8622  -7.2692
    -4.9770  -4.4447  -3.6265   0.0844   0.1105

          k =-0.4835-0.1850 0.0000 ( 20956 PWs)   bands (ev):

   -68.2274 -68.2117 -35.1963 -35.1414 -34.8363 -34.7405 -34.6235 -34.4818
   -19.9363 -19.9242 -19.9209 -19.9168 -19.9132 -19.8992 -19.8902 -19.8740
   -19.8688 -19.8589 -19.8369 -19.8335 -19.8194 -19.8178 -11.8447  -7.1220
    -4.9267  -4.7088  -3.2897  -0.1297  -0.0600

          k =-0.4835-0.0923 0.0000 ( 21000 PWs)   bands (ev):

   -68.2274 -68.2116 -35.1643 -35.0774 -34.8470 -34.7568 -34.6376 -34.5469
   -19.9321 -19.9241 -19.9213 -19.9175 -19.9112 -19.9004 -19.8914 -19.8736
   -19.8683 -19.8618 -19.8378 -19.8358 -19.8195 -19.8178 -11.8095  -6.7466
    -5.1983  -4.7956  -2.5737  -0.6851  -0.4682

          k =-0.4835 0.0005 0.0000 ( 21006 PWs)   bands (ev):

   -68.2273 -68.2116 -35.1498 -35.0186 -34.8955 -34.7330 -34.6481 -34.5910
   -19.9277 -19.9267 -19.9203 -19.9189 -19.9097 -19.9013 -19.8920 -19.8737
   -19.8661 -19.8648 -19.8379 -19.8374 -19.8196 -19.8178 -11.7914  -6.4563
    -5.5147  -4.7286  -1.8363  -1.4029  -0.6728

          k =-0.4835 0.0932 0.0000 ( 21012 PWs)   bands (ev):

   -68.2272 -68.2115 -35.1642 -35.0771 -34.8473 -34.7570 -34.6390 -34.5485
   -19.9321 -19.9242 -19.9212 -19.9176 -19.9111 -19.9005 -19.8913 -19.8735
   -19.8684 -19.8617 -19.8379 -19.8360 -19.8194 -19.8177 -11.8084  -6.7450
    -5.2044  -4.7962  -2.5760  -0.6788  -0.4650

          k =-0.4835 0.1859 0.0000 ( 20951 PWs)   bands (ev):

   -68.2271 -68.2115 -35.1965 -35.1413 -34.8358 -34.7412 -34.6261 -34.4845
   -19.9364 -19.9242 -19.9209 -19.9170 -19.9130 -19.8994 -19.8901 -19.8740
   -19.8688 -19.8588 -19.8371 -19.8337 -19.8192 -19.8176 -11.8427  -7.1204
    -4.9273  -4.7193  -3.2905  -0.1236  -0.0535

          k =-0.4833-0.8341 0.0000 ( 20958 PWs)   bands (ev):

   -68.2270 -68.2115 -35.2142 -35.1633 -34.8428 -34.7253 -34.6176 -34.4581
   -19.9380 -19.9243 -19.9211 -19.9171 -19.9135 -19.8989 -19.8896 -19.8744
   -19.8684 -19.8578 -19.8366 -19.8327 -19.8191 -19.8176 -11.8599  -7.2675
    -4.9779  -4.4580  -3.6254   0.0917   0.1172

     highest occupied level (ev):     0.1172

!    total energy              =   -1373.24890634 Ry
     estimated scf accuracy    <          4.1E-13 Ry

     The total energy is the sum of the following terms:
     one-electron contribution =  -10891.87597426 Ry
     hartree contribution      =    5474.26901739 Ry
     xc contribution           =    -138.78066919 Ry
     ewald contribution        =    4183.13871972 Ry

     convergence has been achieved in  39 iterations

     negative rho (up, down):  6.813E-05 0.000E+00

     Forces acting on atoms (cartesian axes, Ry/au):

     atom    1 type  2   force =     0.00031085    0.00028336   -0.00017283
     atom    2 type  1   force =    -0.00026887   -0.00046454    0.00151197
     atom    3 type  1   force =    -0.00004198    0.00018119   -0.00133914

     Total force =     0.002098     Total SCF correction =     0.000009


     Computing stress (Cartesian axis) and pressure


     negative rho (up, down):  6.813E-05 0.000E+00
          total   stress  (Ry/bohr**3)                   (kbar)     P=        4.99
   0.00006285  -0.00000261   0.00000033            9.25       -0.38        0.05
  -0.00000261   0.00004782   0.00000093           -0.38        7.03        0.14
   0.00000033   0.00000093  -0.00000883            0.05        0.14       -1.30


     Writing output data file /scratch/as3359/Ta2C-CT-ecutoff/Ta2C.save/
 
     init_run     :     20.26s CPU     11.19s WALL (       1 calls)
     electrons    :   1331.45s CPU    684.45s WALL (       1 calls)
     forces       :      6.52s CPU      3.38s WALL (       1 calls)
     stress       :     22.80s CPU     11.82s WALL (       1 calls)

     Called by init_run:
     wfcinit      :     14.76s CPU      7.57s WALL (       1 calls)
     potinit      :      1.32s CPU      0.68s WALL (       1 calls)
     hinit0       :      3.19s CPU      2.28s WALL (       1 calls)

     Called by electrons:
     c_bands      :   1059.51s CPU    536.75s WALL (      39 calls)
     sum_band     :    227.87s CPU    120.85s WALL (      39 calls)
     v_of_rho     :      6.80s CPU      3.75s WALL (      40 calls)
     newd         :     35.16s CPU     22.09s WALL (      40 calls)
     mix_rho      :      2.20s CPU      1.15s WALL (      39 calls)

     Called by c_bands:
     init_us_2    :     29.91s CPU     14.98s WALL (    5994 calls)
     cegterg      :    960.26s CPU    486.79s WALL (    2886 calls)

     Called by *egterg:
     cdiaghg      :     19.76s CPU     10.12s WALL (   13472 calls)
     h_psi        :    785.25s CPU    398.71s WALL (   13546 calls)
     s_psi        :     36.00s CPU     18.04s WALL (   13546 calls)
     g_psi        :      4.71s CPU      2.37s WALL (   10586 calls)

     Called by h_psi:
     h_psi:calbec :     32.26s CPU     16.22s WALL (   13546 calls)
     vloc_psi     :    704.30s CPU    358.03s WALL (   13546 calls)
     add_vuspsi   :     43.26s CPU     21.68s WALL (   13546 calls)

     General routines
     calbec       :     43.69s CPU     21.96s WALL (   16802 calls)
     fft          :      3.27s CPU      1.67s WALL (     543 calls)
     ffts         :      0.34s CPU      0.18s WALL (      79 calls)
     fftw         :    727.13s CPU    369.93s WALL (  476312 calls)
     interpolate  :      0.56s CPU      0.29s WALL (      40 calls)
 
     Parallel routines
 
     PWSCF        :  23m 3.28s CPU  11m52.88s WALL

 
   This run was terminated on:  20:47:51   6Apr2022            

=------------------------------------------------------------------------------=
   JOB DONE.
=------------------------------------------------------------------------------=
