
     Program PWSCF v.6.8 starts on  6Apr2022 at 20:27:28 

     This program is part of the open-source Quantum ESPRESSO suite
     for quantum simulation of materials; please cite
         "P. Giannozzi et al., J. Phys.:Condens. Matter 21 395502 (2009);
         "P. Giannozzi et al., J. Phys.:Condens. Matter 29 465901 (2017);
         "P. Giannozzi et al., J. Chem. Phys. 152 154105 (2020);
          URL http://www.quantum-espresso.org", 
     in publications or presentations arising from this work. More details at
     http://www.quantum-espresso.org/quote

     Parallel version (MPI & OpenMP), running on       4 processor cores
     Number of MPI processes:                 2
     Threads/MPI process:                     2

     MPI processes distributed on     1 nodes
     R & G space division:  proc/nbgrp/npool/nimage =       2
     125184 MiB available memory on the printing compute node when the environment starts
 
     Reading input from Ta2C.scf.80.in

     Current dimensions of program PWSCF are:
     Max number of different atomic species (ntypx) = 10
     Max number of k-points (npk) =  40000
     Max angular momentum in pseudopotentials (lmaxx) =  4
     file Ta.pbesol-spfn-rrkjus_psl.1.0.0.UPF: wavefunction(s)  5S 5P renormalized

     Subspace diagonalization in iterative solution of the eigenvalue problem:
     a serial algorithm will be used

 
     Parallelization info
     --------------------
     sticks:   dense  smooth     PW     G-vecs:    dense   smooth      PW
     Min         457     369    117               107394    76887   13527
     Max         458     370    118               107425    76896   13528
     Sum         915     739    235               214819   153783   27055
 
     Using Slab Decomposition
 


     bravais-lattice index     =            0
     lattice parameter (alat)  =       5.5500  a.u.
     unit-cell volume          =    1588.7844 (a.u.)^3
     number of atoms/cell      =            3
     number of atomic types    =            2
     number of electrons       =        58.00
     number of Kohn-Sham states=           29
     kinetic-energy cutoff     =      80.0000  Ry
     charge density cutoff     =     400.0000  Ry
     scf convergence threshold =      1.0E-12
     mixing beta               =       0.7000
     number of iterations used =            8  plain     mixing
     Exchange-correlation= PBESOL
                           (   1   4  10   8   0   0   0)

     celldm(1)=   5.550000  celldm(2)=   0.000000  celldm(3)=   0.000000
     celldm(4)=   0.000000  celldm(5)=   0.000000  celldm(6)=   0.000000

     crystal axes: (cart. coord. in units of alat)
               a(1) = (   1.034114   0.000203   0.000000 )  
               a(2) = (  -0.516207   0.898604   0.000000 )  
               a(3) = (   0.000000   0.000000  10.000000 )  

     reciprocal axes: (cart. coord. in units 2 pi/alat)
               b(1) = (  0.966902  0.555441  0.000000 )  
               b(2) = ( -0.000219  1.112711  0.000000 )  
               b(3) = (  0.000000  0.000000  0.100000 )  


     PseudoPot. # 1 for Ta read from file:
     /shared/home/as3359/pseudo/Ta.pbesol-spfn-rrkjus_psl.1.0.0.UPF
     MD5 check sum: f099565ffaca9b150a52e9412a28e20b
     Pseudo is Ultrasoft + core correction, Zval = 27.0
     Generated using &quot;atomic&quot; code by A. Dal Corso  v.6.3
     Using radial grid of 1273 points,  8 beta functions with: 
                l(1) =   0
                l(2) =   0
                l(3) =   1
                l(4) =   1
                l(5) =   2
                l(6) =   2
                l(7) =   3
                l(8) =   3
     Q(r) pseudized with 0 coefficients 


     PseudoPot. # 2 for C  read from file:
     /shared/home/as3359/pseudo/C.pbesol-n-rrkjus_psl.1.0.0.UPF
     MD5 check sum: 05995be603a8a7c99da3dc4413f31573
     Pseudo is Ultrasoft + core correction, Zval =  4.0
     Generated using &quot;atomic&quot; code by A. Dal Corso  v.6.3MaX
     Using radial grid of 1073 points,  4 beta functions with: 
                l(1) =   0
                l(2) =   0
                l(3) =   1
                l(4) =   1
     Q(r) pseudized with 0 coefficients 


     atomic species   valence    mass     pseudopotential
        Ta            27.00   180.94788     Ta( 1.00)
        C              4.00    12.01070     C ( 1.00)

     No symmetry found



   Cartesian axes

     site n.     atom                  positions (alat units)
         1           C   tau(   1) = (   0.0000000   0.0000000   0.0000000  )
         2           Ta  tau(   2) = (   0.5174615   0.3004190  -0.4127129  )
         3           Ta  tau(   3) = (   0.0007158   0.5986355   0.4125272  )

     number of k points=    74
                       cart. coord. in units 2pi/alat
        k(    1) = (   0.0000000   0.0000000   0.0000000), wk =   0.0138889
        k(    2) = (  -0.0000182   0.0927259   0.0000000), wk =   0.0277778
        k(    3) = (  -0.0000364   0.1854519   0.0000000), wk =   0.0277778
        k(    4) = (  -0.0000547   0.2781778   0.0000000), wk =   0.0277778
        k(    5) = (  -0.0000729   0.3709037   0.0000000), wk =   0.0277778
        k(    6) = (  -0.0000911   0.4636296   0.0000000), wk =   0.0277778
        k(    7) = (   0.0001093  -0.5563556   0.0000000), wk =   0.0138889
        k(    8) = (   0.0805752   0.0462867   0.0000000), wk =   0.0277778
        k(    9) = (   0.0805570   0.1390127   0.0000000), wk =   0.0277778
        k(   10) = (   0.0805388   0.2317386   0.0000000), wk =   0.0277778
        k(   11) = (   0.0805205   0.3244645   0.0000000), wk =   0.0277778
        k(   12) = (   0.0805023   0.4171904   0.0000000), wk =   0.0277778
        k(   13) = (   0.0804841   0.5099164   0.0000000), wk =   0.0277778
        k(   14) = (   0.0806845  -0.5100688   0.0000000), wk =   0.0277778
        k(   15) = (   0.0806663  -0.4173429   0.0000000), wk =   0.0277778
        k(   16) = (   0.0806481  -0.3246170   0.0000000), wk =   0.0277778
        k(   17) = (   0.0806298  -0.2318910   0.0000000), wk =   0.0277778
        k(   18) = (   0.0806116  -0.1391651   0.0000000), wk =   0.0277778
        k(   19) = (   0.0805934  -0.0464392   0.0000000), wk =   0.0277778
        k(   20) = (   0.1611504   0.0925735   0.0000000), wk =   0.0277778
        k(   21) = (   0.1611322   0.1852994   0.0000000), wk =   0.0277778
        k(   22) = (   0.1611139   0.2780253   0.0000000), wk =   0.0277778
        k(   23) = (   0.1610957   0.3707513   0.0000000), wk =   0.0277778
        k(   24) = (   0.1610775   0.4634772   0.0000000), wk =   0.0277778
        k(   25) = (   0.1610593   0.5562031   0.0000000), wk =   0.0277778
        k(   26) = (   0.1612597  -0.4637821   0.0000000), wk =   0.0277778
        k(   27) = (   0.1612415  -0.3710561   0.0000000), wk =   0.0277778
        k(   28) = (   0.1612232  -0.2783302   0.0000000), wk =   0.0277778
        k(   29) = (   0.1612050  -0.1856043   0.0000000), wk =   0.0277778
        k(   30) = (   0.1611868  -0.0928784   0.0000000), wk =   0.0277778
        k(   31) = (   0.1611686  -0.0001524   0.0000000), wk =   0.0277778
        k(   32) = (   0.2417256   0.1388602   0.0000000), wk =   0.0277778
        k(   33) = (   0.2417073   0.2315862   0.0000000), wk =   0.0277778
        k(   34) = (   0.2416891   0.3243121   0.0000000), wk =   0.0277778
        k(   35) = (   0.2416709   0.4170380   0.0000000), wk =   0.0277778
        k(   36) = (   0.2416527   0.5097639   0.0000000), wk =   0.0277778
        k(   37) = (   0.2416345   0.6024899   0.0000000), wk =   0.0277778
        k(   38) = (   0.2418349  -0.4174953   0.0000000), wk =   0.0277778
        k(   39) = (   0.2418166  -0.3247694   0.0000000), wk =   0.0277778
        k(   40) = (   0.2417984  -0.2320435   0.0000000), wk =   0.0277778
        k(   41) = (   0.2417802  -0.1393175   0.0000000), wk =   0.0277778
        k(   42) = (   0.2417620  -0.0465916   0.0000000), wk =   0.0277778
        k(   43) = (   0.2417438   0.0461343   0.0000000), wk =   0.0277778
        k(   44) = (   0.3223007   0.1851470   0.0000000), wk =   0.0277778
        k(   45) = (   0.3222825   0.2778729   0.0000000), wk =   0.0277778
        k(   46) = (   0.3222643   0.3705988   0.0000000), wk =   0.0277778
        k(   47) = (   0.3222461   0.4633248   0.0000000), wk =   0.0277778
        k(   48) = (   0.3222279   0.5560507   0.0000000), wk =   0.0277778
        k(   49) = (   0.3222097   0.6487766   0.0000000), wk =   0.0277778
        k(   50) = (   0.3224100  -0.3712086   0.0000000), wk =   0.0277778
        k(   51) = (   0.3223918  -0.2784827   0.0000000), wk =   0.0277778
        k(   52) = (   0.3223736  -0.1857567   0.0000000), wk =   0.0277778
        k(   53) = (   0.3223554  -0.0930308   0.0000000), wk =   0.0277778
        k(   54) = (   0.3223372  -0.0003049   0.0000000), wk =   0.0277778
        k(   55) = (   0.3223190   0.0924210   0.0000000), wk =   0.0277778
        k(   56) = (   0.4028759   0.2314337   0.0000000), wk =   0.0277778
        k(   57) = (   0.4028577   0.3241596   0.0000000), wk =   0.0277778
        k(   58) = (   0.4028395   0.4168856   0.0000000), wk =   0.0277778
        k(   59) = (   0.4028213   0.5096115   0.0000000), wk =   0.0277778
        k(   60) = (   0.4028031   0.6023374   0.0000000), wk =   0.0277778
        k(   61) = (   0.4027848   0.6950633   0.0000000), wk =   0.0277778
        k(   62) = (   0.4029852  -0.3249218   0.0000000), wk =   0.0277778
        k(   63) = (   0.4029670  -0.2321959   0.0000000), wk =   0.0277778
        k(   64) = (   0.4029488  -0.1394700   0.0000000), wk =   0.0277778
        k(   65) = (   0.4029306  -0.0467441   0.0000000), wk =   0.0277778
        k(   66) = (   0.4029124   0.0459819   0.0000000), wk =   0.0277778
        k(   67) = (   0.4028941   0.1387078   0.0000000), wk =   0.0277778
        k(   68) = (  -0.4834511  -0.2777205   0.0000000), wk =   0.0138889
        k(   69) = (  -0.4834693  -0.1849945   0.0000000), wk =   0.0277778
        k(   70) = (  -0.4834875  -0.0922686   0.0000000), wk =   0.0277778
        k(   71) = (  -0.4835058   0.0004573   0.0000000), wk =   0.0277778
        k(   72) = (  -0.4835240   0.0931832   0.0000000), wk =   0.0277778
        k(   73) = (  -0.4835422   0.1859092   0.0000000), wk =   0.0277778
        k(   74) = (  -0.4833418  -0.8340760   0.0000000), wk =   0.0138889

     Dense  grid:   214819 G-vectors     FFT dimensions: (  40,  40, 360)

     Smooth grid:   153783 G-vectors     FFT dimensions: (  36,  36, 320)

     Estimated max dynamical RAM per process >       1.33 GB

     Estimated total dynamical RAM >       2.65 GB

     Initial potential from superposition of free atoms

     starting charge   57.99842, renormalised to   58.00000

     negative rho (up, down):  1.073E-04 0.000E+00
     Starting wfcs are   38 randomized atomic wfcs

     total cpu time spent up to now is       10.3 secs

     Self-consistent Calculation

     iteration #  1     ecut=    80.00 Ry     beta= 0.70
     Davidson diagonalization with overlap
     ethr =  1.00E-02,  avg # of iterations =  2.1

     negative rho (up, down):  4.181E-05 0.000E+00

     total cpu time spent up to now is       25.1 secs

     total energy              =   -1372.42384579 Ry
     estimated scf accuracy    <       1.29474261 Ry

     iteration #  2     ecut=    80.00 Ry     beta= 0.70
     Davidson diagonalization with overlap
     ethr =  2.23E-03,  avg # of iterations =  6.7

     total cpu time spent up to now is       46.6 secs

     total energy              =   -1371.91230197 Ry
     estimated scf accuracy    <       8.33977516 Ry

     iteration #  3     ecut=    80.00 Ry     beta= 0.70
     Davidson diagonalization with overlap
     ethr =  2.23E-03,  avg # of iterations =  5.7

     total cpu time spent up to now is       66.5 secs

     total energy              =   -1373.20338252 Ry
     estimated scf accuracy    <       0.15418334 Ry

     iteration #  4     ecut=    80.00 Ry     beta= 0.70
     Davidson diagonalization with overlap
     ethr =  2.66E-04,  avg # of iterations =  8.2

     total cpu time spent up to now is       86.7 secs

     total energy              =   -1373.20331707 Ry
     estimated scf accuracy    <       0.99176887 Ry

     iteration #  5     ecut=    80.00 Ry     beta= 0.70
     Davidson diagonalization with overlap
     ethr =  2.66E-04,  avg # of iterations =  7.0

     total cpu time spent up to now is      104.5 secs

     total energy              =   -1373.24493176 Ry
     estimated scf accuracy    <       0.03153466 Ry

     iteration #  6     ecut=    80.00 Ry     beta= 0.70
     Davidson diagonalization with overlap
     ethr =  5.44E-05,  avg # of iterations =  4.0

     negative rho (up, down):  2.996E-07 0.000E+00

     total cpu time spent up to now is      119.8 secs

     total energy              =   -1373.24643789 Ry
     estimated scf accuracy    <       0.00905219 Ry

     iteration #  7     ecut=    80.00 Ry     beta= 0.70
     Davidson diagonalization with overlap
     ethr =  1.56E-05,  avg # of iterations =  6.3

     negative rho (up, down):  1.354E-06 0.000E+00

     total cpu time spent up to now is      137.1 secs

     total energy              =   -1373.24757347 Ry
     estimated scf accuracy    <       0.00306851 Ry

     iteration #  8     ecut=    80.00 Ry     beta= 0.70
     Davidson diagonalization with overlap
     ethr =  5.29E-06,  avg # of iterations =  5.4

     negative rho (up, down):  9.220E-05 0.000E+00

     total cpu time spent up to now is      153.7 secs

     total energy              =   -1373.24826954 Ry
     estimated scf accuracy    <       0.00034524 Ry

     iteration #  9     ecut=    80.00 Ry     beta= 0.70
     Davidson diagonalization with overlap
     ethr =  5.95E-07,  avg # of iterations =  6.6

     negative rho (up, down):  1.435E-04 0.000E+00

     total cpu time spent up to now is      171.2 secs

     total energy              =   -1373.24827239 Ry
     estimated scf accuracy    <       0.00018941 Ry

     iteration # 10     ecut=    80.00 Ry     beta= 0.70
     Davidson diagonalization with overlap
     ethr =  3.27E-07,  avg # of iterations =  4.0

     negative rho (up, down):  1.131E-04 0.000E+00

     total cpu time spent up to now is      186.8 secs

     total energy              =   -1373.24830342 Ry
     estimated scf accuracy    <       0.00001019 Ry

     iteration # 11     ecut=    80.00 Ry     beta= 0.70
     Davidson diagonalization with overlap
     ethr =  1.76E-08,  avg # of iterations =  8.2

     negative rho (up, down):  1.189E-04 0.000E+00

     total cpu time spent up to now is      208.1 secs

     total energy              =   -1373.24830721 Ry
     estimated scf accuracy    <       0.00000670 Ry

     iteration # 12     ecut=    80.00 Ry     beta= 0.70
     Davidson diagonalization with overlap
     ethr =  1.16E-08,  avg # of iterations =  2.5

     negative rho (up, down):  1.207E-04 0.000E+00

     total cpu time spent up to now is      222.3 secs

     total energy              =   -1373.24830726 Ry
     estimated scf accuracy    <       0.00000233 Ry

     iteration # 13     ecut=    80.00 Ry     beta= 0.70
     Davidson diagonalization with overlap
     ethr =  4.01E-09,  avg # of iterations =  6.4

     negative rho (up, down):  1.207E-04 0.000E+00

     total cpu time spent up to now is      239.6 secs

     total energy              =   -1373.24830764 Ry
     estimated scf accuracy    <       0.00000057 Ry

     iteration # 14     ecut=    80.00 Ry     beta= 0.70
     Davidson diagonalization with overlap
     ethr =  9.78E-10,  avg # of iterations =  2.5

     negative rho (up, down):  1.208E-04 0.000E+00

     total cpu time spent up to now is      253.9 secs

     total energy              =   -1373.24830762 Ry
     estimated scf accuracy    <       0.00000054 Ry

     iteration # 15     ecut=    80.00 Ry     beta= 0.70
     Davidson diagonalization with overlap
     ethr =  9.38E-10,  avg # of iterations =  2.8

     negative rho (up, down):  1.208E-04 0.000E+00

     total cpu time spent up to now is      268.1 secs

     total energy              =   -1373.24830762 Ry
     estimated scf accuracy    <       0.00000016 Ry

     iteration # 16     ecut=    80.00 Ry     beta= 0.70
     Davidson diagonalization with overlap
     ethr =  2.80E-10,  avg # of iterations =  5.6

     negative rho (up, down):  1.209E-04 0.000E+00

     total cpu time spent up to now is      284.4 secs

     total energy              =   -1373.24830765 Ry
     estimated scf accuracy    <       0.00000003 Ry

     iteration # 17     ecut=    80.00 Ry     beta= 0.70
     Davidson diagonalization with overlap
     ethr =  4.45E-11,  avg # of iterations =  4.5

     negative rho (up, down):  1.208E-04 0.000E+00

     total cpu time spent up to now is      299.9 secs

     total energy              =   -1373.24830764 Ry
     estimated scf accuracy    <       0.00000004 Ry

     iteration # 18     ecut=    80.00 Ry     beta= 0.70
     Davidson diagonalization with overlap
     ethr =  4.45E-11,  avg # of iterations =  3.8

     negative rho (up, down):  1.209E-04 0.000E+00

     total cpu time spent up to now is      314.7 secs

     total energy              =   -1373.24830765 Ry
     estimated scf accuracy    <          3.7E-09 Ry

     iteration # 19     ecut=    80.00 Ry     beta= 0.70
     Davidson diagonalization with overlap
     ethr =  6.35E-12,  avg # of iterations =  7.4

     negative rho (up, down):  1.209E-04 0.000E+00

     total cpu time spent up to now is      333.4 secs

     total energy              =   -1373.24830765 Ry
     estimated scf accuracy    <       0.00000001 Ry

     iteration # 20     ecut=    80.00 Ry     beta= 0.70
     Davidson diagonalization with overlap
     ethr =  6.35E-12,  avg # of iterations =  1.1

     negative rho (up, down):  1.209E-04 0.000E+00

     total cpu time spent up to now is      346.5 secs

     total energy              =   -1373.24830765 Ry
     estimated scf accuracy    <          9.2E-09 Ry

     iteration # 21     ecut=    80.00 Ry     beta= 0.70
     Davidson diagonalization with overlap
     ethr =  6.35E-12,  avg # of iterations =  5.6

     negative rho (up, down):  1.209E-04 0.000E+00

     total cpu time spent up to now is      363.0 secs

     total energy              =   -1373.24830765 Ry
     estimated scf accuracy    <          1.2E-11 Ry

     iteration # 22     ecut=    80.00 Ry     beta= 0.70
     Davidson diagonalization with overlap
     c_bands:  1 eigenvalues not converged
     ethr =  1.00E-13,  avg # of iterations =  8.2

     negative rho (up, down):  1.208E-04 0.000E+00

     total cpu time spent up to now is      382.9 secs

     total energy              =   -1373.24830765 Ry
     estimated scf accuracy    <          1.3E-09 Ry

     iteration # 23     ecut=    80.00 Ry     beta= 0.70
     Davidson diagonalization with overlap
     ethr =  1.00E-13,  avg # of iterations =  7.8

     negative rho (up, down):  1.208E-04 0.000E+00

     total cpu time spent up to now is      402.6 secs

     total energy              =   -1373.24830765 Ry
     estimated scf accuracy    <          1.5E-12 Ry

     iteration # 24     ecut=    80.00 Ry     beta= 0.70
     Davidson diagonalization with overlap
     ethr =  1.00E-13,  avg # of iterations =  2.0

     negative rho (up, down):  1.208E-04 0.000E+00

     total cpu time spent up to now is      416.2 secs

     total energy              =   -1373.24830765 Ry
     estimated scf accuracy    <          9.0E-12 Ry

     iteration # 25     ecut=    80.00 Ry     beta= 0.70
     Davidson diagonalization with overlap
     ethr =  1.00E-13,  avg # of iterations =  1.0

     negative rho (up, down):  1.208E-04 0.000E+00

     total cpu time spent up to now is      429.1 secs

     total energy              =   -1373.24830765 Ry
     estimated scf accuracy    <          1.0E-11 Ry

     iteration # 26     ecut=    80.00 Ry     beta= 0.70
     Davidson diagonalization with overlap
     ethr =  1.00E-13,  avg # of iterations =  1.0

     negative rho (up, down):  1.208E-04 0.000E+00

     total cpu time spent up to now is      442.0 secs

     total energy              =   -1373.24830765 Ry
     estimated scf accuracy    <          9.2E-12 Ry

     iteration # 27     ecut=    80.00 Ry     beta= 0.70
     Davidson diagonalization with overlap
     ethr =  1.00E-13,  avg # of iterations =  1.0

     negative rho (up, down):  1.208E-04 0.000E+00

     total cpu time spent up to now is      454.9 secs

     total energy              =   -1373.24830765 Ry
     estimated scf accuracy    <          4.9E-12 Ry

     iteration # 28     ecut=    80.00 Ry     beta= 0.70
     Davidson diagonalization with overlap
     ethr =  1.00E-13,  avg # of iterations =  1.0

     negative rho (up, down):  1.208E-04 0.000E+00

     total cpu time spent up to now is      467.8 secs

     total energy              =   -1373.24830765 Ry
     estimated scf accuracy    <          3.3E-12 Ry

     iteration # 29     ecut=    80.00 Ry     beta= 0.70
     Davidson diagonalization with overlap
     ethr =  1.00E-13,  avg # of iterations =  1.0

     negative rho (up, down):  1.208E-04 0.000E+00

     total cpu time spent up to now is      480.7 secs

     total energy              =   -1373.24830765 Ry
     estimated scf accuracy    <          1.8E-12 Ry

     iteration # 30     ecut=    80.00 Ry     beta= 0.70
     Davidson diagonalization with overlap
     ethr =  1.00E-13,  avg # of iterations =  1.0

     negative rho (up, down):  1.208E-04 0.000E+00

     total cpu time spent up to now is      493.6 secs

     End of self-consistent calculation

          k = 0.0000 0.0000 0.0000 ( 19233 PWs)   bands (ev):

   -68.2910 -68.2434 -35.3150 -34.7112 -34.4031 -34.3981 -34.3381 -34.3317
   -19.9495 -19.9358 -19.9105 -19.9100 -19.9045 -19.9042 -19.8779 -19.8773
   -19.8701 -19.8700 -19.8629 -19.8575 -19.7964 -19.7949 -13.2788  -7.6697
    -4.3942  -4.3509  -1.9296  -0.8996  -0.7268

          k =-0.0000 0.0927 0.0000 ( 19179 PWs)   bands (ev):

   -68.2872 -68.2410 -35.3023 -34.7164 -34.4501 -34.4144 -34.3820 -34.3379
   -19.9480 -19.9348 -19.9120 -19.9104 -19.9048 -19.9031 -19.8795 -19.8770
   -19.8704 -19.8694 -19.8600 -19.8548 -19.7992 -19.7978 -13.1649  -7.4496
    -4.7177  -4.3166  -1.8347  -1.0832  -0.5377

          k =-0.0000 0.1855 0.0000 ( 19131 PWs)   bands (ev):

   -68.2766 -68.2345 -35.2680 -34.7442 -34.5645 -34.4990 -34.4556 -34.3570
   -19.9440 -19.9323 -19.9157 -19.9114 -19.9059 -19.9006 -19.8831 -19.8759
   -19.8713 -19.8674 -19.8523 -19.8475 -19.8066 -19.8055 -12.8644  -6.8680
    -5.3781  -4.2539  -1.8300  -1.4641  -0.9839

          k =-0.0001 0.2782 0.0000 ( 19184 PWs)   bands (ev):

   -68.2617 -68.2260 -35.2245 -34.8479 -34.6613 -34.6407 -34.5085 -34.3861
   -19.9395 -19.9289 -19.9200 -19.9128 -19.9076 -19.8984 -19.8869 -19.8740
   -19.8724 -19.8645 -19.8417 -19.8376 -19.8165 -19.8153 -12.4844  -6.4533
    -5.6915  -4.2426  -2.4630  -1.5270  -1.0285

          k =-0.0001 0.3709 0.0000 ( 19212 PWs)   bands (ev):

   -68.2461 -68.2183 -35.1943 -35.0044 -34.7781 -34.6866 -34.5589 -34.4170
   -19.9372 -19.9248 -19.9231 -19.9144 -19.9102 -19.8975 -19.8891 -19.8732
   -19.8714 -19.8613 -19.8308 -19.8276 -19.8262 -19.8239 -12.1487  -6.8403
    -5.2237  -4.3021  -3.0998  -1.1913  -0.6686

          k =-0.0001 0.4636 0.0000 ( 19204 PWs)   bands (ev):

   -68.2336 -68.2136 -35.1985 -35.1229 -34.8368 -34.7111 -34.5948 -34.4402
   -19.9372 -19.9241 -19.9216 -19.9157 -19.9126 -19.8978 -19.8895 -19.8737
   -19.8691 -19.8586 -19.8331 -19.8296 -19.8225 -19.8203 -11.9372  -7.1612
    -5.0006  -4.3783  -3.4993  -0.4175  -0.1614

          k = 0.0001-0.5564 0.0000 ( 19214 PWs)   bands (ev):

   -68.2286 -68.2123 -35.2120 -35.1630 -34.8461 -34.7224 -34.6077 -34.4488
   -19.9375 -19.9240 -19.9210 -19.9162 -19.9133 -19.8980 -19.8894 -19.8739
   -19.8682 -19.8576 -19.8356 -19.8316 -19.8193 -19.8177 -11.8680  -7.2712
    -4.9681  -4.4113  -3.6326   0.0682   0.0975

          k = 0.0806 0.0463 0.0000 ( 19152 PWs)   bands (ev):

   -68.2871 -68.2409 -35.3022 -34.7163 -34.4479 -34.4173 -34.3787 -34.3415
   -19.9479 -19.9348 -19.9118 -19.9106 -19.9047 -19.9032 -19.8791 -19.8773
   -19.8705 -19.8693 -19.8600 -19.8548 -19.7992 -19.7979 -13.1643  -7.4487
    -4.6960  -4.3417  -1.8331  -1.0816  -0.5381

          k = 0.0806 0.1390 0.0000 ( 19144 PWs)   bands (ev):

   -68.2799 -68.2365 -35.2787 -34.7314 -34.5200 -34.4913 -34.4168 -34.3611
   -19.9451 -19.9331 -19.9141 -19.9118 -19.9050 -19.9015 -19.8819 -19.8765
   -19.8708 -19.8683 -19.8547 -19.8498 -19.8043 -19.8032 -12.9572  -7.0394
    -5.1729  -4.3250  -1.7351  -1.2934  -0.9138

          k = 0.0805 0.2317 0.0000 ( 19160 PWs)   bands (ev):

   -68.2672 -68.2291 -35.2392 -34.7898 -34.6296 -34.6050 -34.4750 -34.3932
   -19.9405 -19.9304 -19.9178 -19.9138 -19.9058 -19.8994 -19.8856 -19.8754
   -19.8710 -19.8662 -19.8456 -19.8412 -19.8129 -19.8121 -12.6165  -6.3888
    -5.7342  -4.4050  -1.9819  -1.4638  -1.1264

          k = 0.0805 0.3245 0.0000 ( 19188 PWs)   bands (ev):

   -68.2519 -68.2210 -35.2004 -34.9232 -34.7424 -34.6727 -34.5408 -34.4278
   -19.9366 -19.9270 -19.9214 -19.9155 -19.9077 -19.8981 -19.8886 -19.8743
   -19.8706 -19.8634 -19.8348 -19.8313 -19.8228 -19.8214 -12.2587  -6.5052
    -5.4358  -4.5291  -2.6325  -1.1758  -1.0481

          k = 0.0805 0.4172 0.0000 ( 19230 PWs)   bands (ev):

   -68.2377 -68.2149 -35.1850 -35.0609 -34.8181 -34.7109 -34.5917 -34.4584
   -19.9355 -19.9235 -19.9229 -19.9163 -19.9106 -19.8981 -19.8898 -19.8736
   -19.8695 -19.8606 -19.8313 -19.8289 -19.8251 -19.8225 -11.9878  -6.9069
    -5.0204  -4.6235  -3.0771  -0.7195  -0.5739

          k = 0.0805 0.5099 0.0000 ( 19233 PWs)   bands (ev):

   -68.2286 -68.2123 -35.1943 -35.1406 -34.8380 -34.7382 -34.6182 -34.4764
   -19.9359 -19.9239 -19.9208 -19.9162 -19.9128 -19.8985 -19.8899 -19.8734
   -19.8687 -19.8586 -19.8361 -19.8327 -19.8194 -19.8177 -11.8506  -7.1223
    -4.9161  -4.6869  -3.2861  -0.1425  -0.0724

          k = 0.0807-0.5101 0.0000 ( 19239 PWs)   bands (ev):

   -68.2286 -68.2122 -35.1945 -35.1408 -34.8383 -34.7381 -34.6181 -34.4764
   -19.9359 -19.9239 -19.9208 -19.9162 -19.9128 -19.8985 -19.8899 -19.8734
   -19.8686 -19.8586 -19.8361 -19.8327 -19.8193 -19.8177 -11.8504  -7.1228
    -4.9167  -4.6861  -3.2873  -0.1424  -0.0730

          k = 0.0807-0.4173 0.0000 ( 19230 PWs)   bands (ev):

   -68.2376 -68.2149 -35.1853 -35.0615 -34.8188 -34.7107 -34.5915 -34.4583
   -19.9355 -19.9236 -19.9229 -19.9162 -19.9106 -19.8981 -19.8898 -19.8737
   -19.8694 -19.8605 -19.8313 -19.8289 -19.8250 -19.8225 -11.9872  -6.9080
    -5.0203  -4.6230  -3.0802  -0.7173  -0.5761

          k = 0.0806-0.3246 0.0000 ( 19184 PWs)   bands (ev):

   -68.2518 -68.2209 -35.2003 -34.9239 -34.7431 -34.6728 -34.5408 -34.4279
   -19.9366 -19.9270 -19.9214 -19.9154 -19.9077 -19.8982 -19.8886 -19.8743
   -19.8705 -19.8634 -19.8348 -19.8312 -19.8228 -19.8215 -12.2579  -6.5062
    -5.4352  -4.5293  -2.6357  -1.1750  -1.0477

          k = 0.0806-0.2319 0.0000 ( 19170 PWs)   bands (ev):

   -68.2671 -68.2290 -35.2391 -34.7901 -34.6299 -34.6054 -34.4756 -34.3936
   -19.9405 -19.9304 -19.9178 -19.9138 -19.9058 -19.8995 -19.8855 -19.8754
   -19.8710 -19.8662 -19.8455 -19.8412 -19.8130 -19.8121 -12.6155  -6.3875
    -5.7338  -4.4065  -1.9834  -1.4625  -1.1262

          k = 0.0806-0.1392 0.0000 ( 19148 PWs)   bands (ev):

   -68.2799 -68.2365 -35.2785 -34.7313 -34.5196 -34.4911 -34.4177 -34.3623
   -19.9451 -19.9331 -19.9140 -19.9120 -19.9049 -19.9017 -19.8818 -19.8766
   -19.8708 -19.8683 -19.8547 -19.8498 -19.8044 -19.8032 -12.9564  -7.0381
    -5.1677  -4.3319  -1.7340  -1.2918  -0.9093

          k = 0.0806-0.0464 0.0000 ( 19141 PWs)   bands (ev):

   -68.2871 -68.2409 -35.3021 -34.7162 -34.4464 -34.4191 -34.3772 -34.3434
   -19.9479 -19.9348 -19.9116 -19.9108 -19.9045 -19.9034 -19.8790 -19.8774
   -19.8704 -19.8694 -19.8599 -19.8548 -19.7993 -19.7979 -13.1640  -7.4481
    -4.6864  -4.3525  -1.8323  -1.0806  -0.5358

          k = 0.1612 0.0926 0.0000 ( 19136 PWs)   bands (ev):

   -68.2764 -68.2344 -35.2676 -34.7438 -34.5636 -34.4966 -34.4594 -34.3611
   -19.9439 -19.9323 -19.9156 -19.9117 -19.9057 -19.9007 -19.8828 -19.8762
   -19.8714 -19.8674 -19.8522 -19.8475 -19.8068 -19.8056 -12.8623  -6.8648
    -5.3616  -4.2803  -1.8201  -1.4636  -0.9783

          k = 0.1611 0.1853 0.0000 ( 19167 PWs)   bands (ev):

   -68.2671 -68.2290 -35.2389 -34.7891 -34.6301 -34.6040 -34.4765 -34.3960
   -19.9405 -19.9304 -19.9177 -19.9140 -19.9057 -19.8995 -19.8855 -19.8755
   -19.8711 -19.8662 -19.8455 -19.8412 -19.8130 -19.8122 -12.6150  -6.3860
    -5.7268  -4.4197  -1.9704  -1.4675  -1.1315

          k = 0.1611 0.2780 0.0000 ( 19177 PWs)   bands (ev):

   -68.2539 -68.2219 -35.2027 -34.8727 -34.7486 -34.6583 -34.5225 -34.4571
   -19.9355 -19.9283 -19.9193 -19.9175 -19.9060 -19.8988 -19.8883 -19.8751
   -19.8690 -19.8653 -19.8363 -19.8326 -19.8214 -19.8211 -12.2962  -6.1399
    -5.6828  -4.7644  -2.1272  -1.6201  -0.5749

          k = 0.1611 0.3708 0.0000 ( 19188 PWs)   bands (ev):

   -68.2398 -68.2157 -35.1747 -34.9804 -34.8298 -34.7002 -34.5903 -34.5089
   -19.9318 -19.9260 -19.9212 -19.9185 -19.9079 -19.8990 -19.8903 -19.8743
   -19.8675 -19.8638 -19.8305 -19.8297 -19.8264 -19.8238 -12.0058  -6.4839
    -5.1407  -4.9850  -2.3892  -1.2985  -0.6048

          k = 0.1611 0.4635 0.0000 ( 19184 PWs)   bands (ev):

   -68.2284 -68.2122 -35.1621 -35.0747 -34.8448 -34.7576 -34.6344 -34.5437
   -19.9316 -19.9238 -19.9210 -19.9170 -19.9109 -19.8997 -19.8911 -19.8729
   -19.8683 -19.8616 -19.8370 -19.8351 -19.8194 -19.8177 -11.8151  -6.7422
    -5.1825  -4.7892  -2.5622  -0.6836  -0.4813

          k = 0.1611 0.5562 0.0000 ( 19200 PWs)   bands (ev):

   -68.2236 -68.2115 -35.1549 -35.1170 -34.8179 -34.8099 -34.6461 -34.5567
   -19.9321 -19.9236 -19.9196 -19.9159 -19.9127 -19.9001 -19.8913 -19.8718
   -19.8692 -19.8606 -19.8395 -19.8371 -19.8167 -19.8155 -11.7503  -6.8373
    -5.2113  -4.7418  -2.6304  -0.3331  -0.2773

          k = 0.1613-0.4638 0.0000 ( 19196 PWs)   bands (ev):

   -68.2283 -68.2121 -35.1626 -35.0755 -34.8456 -34.7573 -34.6343 -34.5436
   -19.9316 -19.9238 -19.9210 -19.9170 -19.9109 -19.8998 -19.8911 -19.8729
   -19.8681 -19.8615 -19.8371 -19.8351 -19.8194 -19.8176 -11.8145  -6.7438
    -5.1828  -4.7894  -2.5644  -0.6877  -0.4806

          k = 0.1612-0.3711 0.0000 ( 19192 PWs)   bands (ev):

   -68.2397 -68.2156 -35.1749 -34.9817 -34.8306 -34.7004 -34.5902 -34.5090
   -19.9318 -19.9260 -19.9213 -19.9185 -19.9079 -19.8991 -19.8903 -19.8743
   -19.8674 -19.8637 -19.8306 -19.8298 -19.8263 -19.8237 -12.0045  -6.4862
    -5.1402  -4.9856  -2.3933  -1.3014  -0.6032

          k = 0.1612-0.2783 0.0000 ( 19171 PWs)   bands (ev):

   -68.2537 -68.2218 -35.2025 -34.8735 -34.7495 -34.6587 -34.5231 -34.4578
   -19.9355 -19.9283 -19.9193 -19.9176 -19.9060 -19.8990 -19.8883 -19.8751
   -19.8689 -19.8652 -19.8362 -19.8325 -19.8216 -19.8212 -12.2945  -6.1404
    -5.6807  -4.7671  -2.1302  -1.6202  -0.5747

          k = 0.1612-0.1856 0.0000 ( 19171 PWs)   bands (ev):

   -68.2669 -68.2289 -35.2386 -34.7889 -34.6303 -34.6041 -34.4779 -34.3978
   -19.9405 -19.9304 -19.9175 -19.9141 -19.9056 -19.8997 -19.8854 -19.8755
   -19.8711 -19.8662 -19.8454 -19.8411 -19.8131 -19.8123 -12.6134  -6.3835
    -5.7228  -4.4271  -1.9669  -1.4680  -1.1328

          k = 0.1612-0.0929 0.0000 ( 19132 PWs)   bands (ev):

   -68.2763 -68.2343 -35.2674 -34.7434 -34.5628 -34.4955 -34.4615 -34.3632
   -19.9439 -19.9323 -19.9154 -19.9119 -19.9055 -19.9009 -19.8827 -19.8763
   -19.8714 -19.8674 -19.8521 -19.8474 -19.8068 -19.8057 -12.8613  -6.8630
    -5.3546  -4.2907  -1.8156  -1.4631  -0.9757

          k = 0.1612-0.0002 0.0000 ( 19132 PWs)   bands (ev):

   -68.2797 -68.2364 -35.2782 -34.7313 -34.5193 -34.4903 -34.4188 -34.3652
   -19.9451 -19.9331 -19.9139 -19.9121 -19.9048 -19.9018 -19.8815 -19.8769
   -19.8709 -19.8682 -19.8546 -19.8498 -19.8045 -19.8033 -12.9548  -7.0359
    -5.1541  -4.3512  -1.7319  -1.2881  -0.8978

          k = 0.2417 0.1389 0.0000 ( 19200 PWs)   bands (ev):

   -68.2613 -68.2258 -35.2237 -34.8472 -34.6624 -34.6388 -34.5132 -34.3909
   -19.9394 -19.9290 -19.9199 -19.9131 -19.9074 -19.8985 -19.8867 -19.8742
   -19.8724 -19.8645 -19.8415 -19.8374 -19.8167 -19.8155 -12.4806  -6.4459
    -5.6832  -4.2710  -2.4521  -1.5297  -1.0282

          k = 0.2417 0.2316 0.0000 ( 19196 PWs)   bands (ev):

   -68.2516 -68.2208 -35.1998 -34.9221 -34.7426 -34.6722 -34.5449 -34.4319
   -19.9365 -19.9269 -19.9213 -19.9156 -19.9076 -19.8983 -19.8885 -19.8743
   -19.8707 -19.8634 -19.8347 -19.8311 -19.8230 -19.8216 -12.2557  -6.4977
    -5.4336  -4.5504  -2.6231  -1.1767  -1.0531

          k = 0.2417 0.3243 0.0000 ( 19189 PWs)   bands (ev):

   -68.2396 -68.2156 -35.1745 -34.9796 -34.8305 -34.6996 -34.5927 -34.5110
   -19.9318 -19.9259 -19.9211 -19.9186 -19.9079 -19.8991 -19.8902 -19.8742
   -19.8676 -19.8637 -19.8307 -19.8298 -19.8263 -19.8237 -12.0043  -6.4795
    -5.1502  -4.9872  -2.3863  -1.2955  -0.6103

          k = 0.2417 0.4170 0.0000 ( 19196 PWs)   bands (ev):

   -68.2282 -68.2121 -35.1476 -35.0128 -34.8952 -34.7322 -34.6481 -34.5895
   -19.9273 -19.9263 -19.9198 -19.9185 -19.9094 -19.9007 -19.8917 -19.8730
   -19.8659 -19.8647 -19.8372 -19.8367 -19.8194 -19.8176 -11.7964  -6.4458
    -5.5096  -4.7232  -1.8248  -1.3892  -0.6824

          k = 0.2417 0.5098 0.0000 ( 19202 PWs)   bands (ev):

   -68.2201 -68.2115 -35.1091 -35.0532 -34.9142 -34.7800 -34.6690 -34.6374
   -19.9285 -19.9229 -19.9193 -19.9157 -19.9117 -19.9020 -19.8927 -19.8709
   -19.8684 -19.8636 -19.8415 -19.8405 -19.8152 -19.8142 -11.6811  -6.4529
    -5.6952  -4.5640  -1.7429  -0.8865  -0.6470

          k = 0.2416 0.6025 0.0000 ( 19204 PWs)   bands (ev):

   -68.2200 -68.2115 -35.1095 -35.0538 -34.9143 -34.7801 -34.6688 -34.6375
   -19.9285 -19.9229 -19.9193 -19.9157 -19.9117 -19.9020 -19.8927 -19.8710
   -19.8683 -19.8635 -19.8415 -19.8405 -19.8151 -19.8142 -11.6807  -6.4541
    -5.6955  -4.5647  -1.7430  -0.8931  -0.6434

          k = 0.2418-0.4175 0.0000 ( 19204 PWs)   bands (ev):

   -68.2280 -68.2120 -35.1481 -35.0142 -34.8957 -34.7326 -34.6482 -34.5897
   -19.9272 -19.9263 -19.9199 -19.9185 -19.9094 -19.9008 -19.8917 -19.8731
   -19.8659 -19.8646 -19.8373 -19.8368 -19.8193 -19.8175 -11.7951  -6.4480
    -5.5115  -4.7240  -1.8281  -1.3934  -0.6807

          k = 0.2418-0.3248 0.0000 ( 19191 PWs)   bands (ev):

   -68.2394 -68.2154 -35.1745 -34.9804 -34.8317 -34.6997 -34.5936 -34.5121
   -19.9318 -19.9259 -19.9211 -19.9187 -19.9078 -19.8993 -19.8902 -19.8743
   -19.8675 -19.8636 -19.8308 -19.8299 -19.8262 -19.8235 -12.0023  -6.4801
    -5.1526  -4.9884  -2.3899  -1.2966  -0.6106

          k = 0.2418-0.2320 0.0000 ( 19196 PWs)   bands (ev):

   -68.2513 -68.2206 -35.1995 -34.9222 -34.7434 -34.6721 -34.5468 -34.4340
   -19.9365 -19.9269 -19.9212 -19.9158 -19.9075 -19.8985 -19.8884 -19.8743
   -19.8706 -19.8633 -19.8346 -19.8310 -19.8231 -19.8218 -12.2535  -6.4956
    -5.4302  -4.5589  -2.6230  -1.1763  -1.0540

          k = 0.2418-0.1393 0.0000 ( 19202 PWs)   bands (ev):

   -68.2612 -68.2257 -35.2234 -34.8465 -34.6626 -34.6381 -34.5157 -34.3932
   -19.9394 -19.9290 -19.9198 -19.9133 -19.9072 -19.8987 -19.8866 -19.8742
   -19.8724 -19.8645 -19.8414 -19.8373 -19.8168 -19.8157 -12.4788  -6.4427
    -5.6784  -4.2819  -2.4479  -1.5305  -1.0278

          k = 0.2418-0.0466 0.0000 ( 19171 PWs)   bands (ev):

   -68.2667 -68.2287 -35.2383 -34.7899 -34.6304 -34.6051 -34.4787 -34.3987
   -19.9404 -19.9305 -19.9175 -19.9142 -19.9056 -19.8997 -19.8852 -19.8757
   -19.8711 -19.8661 -19.8453 -19.8410 -19.8132 -19.8124 -12.6113  -6.3815
    -5.7215  -4.4333  -1.9699  -1.4659  -1.1318

          k = 0.2417 0.0461 0.0000 ( 19176 PWs)   bands (ev):

   -68.2668 -68.2288 -35.2384 -34.7904 -34.6304 -34.6053 -34.4779 -34.3973
   -19.9404 -19.9305 -19.9177 -19.9140 -19.9057 -19.8996 -19.8853 -19.8757
   -19.8711 -19.8661 -19.8454 -19.8411 -19.8132 -19.8123 -12.6120  -6.3828
    -5.7251  -4.4274  -1.9749  -1.4641  -1.1303

          k = 0.3223 0.1851 0.0000 ( 19214 PWs)   bands (ev):

   -68.2455 -68.2179 -35.1937 -35.0044 -34.7775 -34.6873 -34.5645 -34.4224
   -19.9372 -19.9247 -19.9230 -19.9146 -19.9101 -19.8977 -19.8889 -19.8733
   -19.8714 -19.8612 -19.8305 -19.8273 -19.8265 -19.8242 -12.1436  -6.8345
    -5.2223  -4.3331  -3.0922  -1.1887  -0.6649

          k = 0.3223 0.2779 0.0000 ( 19226 PWs)   bands (ev):

   -68.2371 -68.2146 -35.1848 -35.0605 -34.8170 -34.7121 -34.5969 -34.4633
   -19.9355 -19.9235 -19.9227 -19.9164 -19.9105 -19.8983 -19.8897 -19.8736
   -19.8695 -19.8605 -19.8316 -19.8292 -19.8248 -19.8223 -11.9835  -6.9020
    -5.0229  -4.6491  -3.0714  -0.7162  -0.5668

          k = 0.3223 0.3706 0.0000 ( 19203 PWs)   bands (ev):

   -68.2279 -68.2120 -35.1623 -35.0744 -34.8450 -34.7577 -34.6381 -34.5468
   -19.9318 -19.9238 -19.9208 -19.9171 -19.9108 -19.8999 -19.8910 -19.8728
   -19.8683 -19.8614 -19.8372 -19.8353 -19.8193 -19.8175 -11.8122  -6.7394
    -5.1972  -4.7950  -2.5659  -0.6712  -0.4728

          k = 0.3222 0.4633 0.0000 ( 19192 PWs)   bands (ev):

   -68.2198 -68.2115 -35.1097 -35.0530 -34.9154 -34.7789 -34.6715 -34.6378
   -19.9286 -19.9229 -19.9191 -19.9157 -19.9117 -19.9021 -19.8927 -19.8709
   -19.8685 -19.8635 -19.8416 -19.8406 -19.8151 -19.8142 -11.6796  -6.4523
    -5.7018  -4.5680  -1.7584  -0.8677  -0.6403

          k = 0.3222 0.5561 0.0000 ( 19154 PWs)   bands (ev):

   -68.2142 -68.2138 -35.0380 -35.0359 -35.0010 -34.7799 -34.6837 -34.6812
   -19.9280 -19.9203 -19.9201 -19.9133 -19.9131 -19.9034 -19.8936 -19.8692
   -19.8690 -19.8649 -19.8431 -19.8428 -19.8133 -19.8131 -11.6291  -6.1121
    -6.1108  -4.4612  -1.0921  -0.9613  -0.9498

          k = 0.3222 0.6488 0.0000 ( 19200 PWs)   bands (ev):

   -68.2196 -68.2114 -35.1102 -35.0534 -34.9161 -34.7790 -34.6720 -34.6382
   -19.9285 -19.9230 -19.9192 -19.9158 -19.9116 -19.9022 -19.8926 -19.8710
   -19.8684 -19.8633 -19.8416 -19.8407 -19.8150 -19.8141 -11.6786  -6.4528
    -5.7050  -4.5697  -1.7657  -0.8655  -0.6342

          k = 0.3224-0.3712 0.0000 ( 19195 PWs)   bands (ev):

   -68.2276 -68.2118 -35.1628 -35.0749 -34.8460 -34.7576 -34.6394 -34.5482
   -19.9317 -19.9238 -19.9208 -19.9172 -19.9108 -19.9001 -19.8909 -19.8729
   -19.8682 -19.8613 -19.8374 -19.8355 -19.8191 -19.8174 -11.8104  -6.7396
    -5.2036  -4.7958  -2.5704  -0.6690  -0.4689

          k = 0.3224-0.2785 0.0000 ( 19224 PWs)   bands (ev):

   -68.2368 -68.2144 -35.1848 -35.0608 -34.8174 -34.7122 -34.5993 -34.4657
   -19.9355 -19.9234 -19.9227 -19.9166 -19.9104 -19.8985 -19.8896 -19.8736
   -19.8694 -19.8604 -19.8318 -19.8294 -19.8247 -19.8221 -11.9812  -6.9006
    -5.0217  -4.6585  -3.0730  -0.7126  -0.5651

          k = 0.3224-0.1858 0.0000 ( 19228 PWs)   bands (ev):

   -68.2452 -68.2178 -35.1934 -35.0042 -34.7774 -34.6874 -34.5674 -34.4251
   -19.9372 -19.9247 -19.9229 -19.9149 -19.9099 -19.8979 -19.8888 -19.8733
   -19.8714 -19.8611 -19.8304 -19.8272 -19.8267 -19.8245 -12.1413  -6.8318
    -5.2194  -4.3450  -3.0901  -1.1877  -0.6628

          k = 0.3224-0.0930 0.0000 ( 19205 PWs)   bands (ev):

   -68.2511 -68.2205 -35.1994 -34.9242 -34.7447 -34.6724 -34.5463 -34.4342
   -19.9365 -19.9270 -19.9212 -19.9158 -19.9075 -19.8985 -19.8883 -19.8745
   -19.8705 -19.8633 -19.8345 -19.8309 -19.8232 -19.8219 -12.2514  -6.4989
    -5.4288  -4.5609  -2.6305  -1.1757  -1.0513

          k = 0.3223-0.0003 0.0000 ( 19188 PWs)   bands (ev):

   -68.2533 -68.2216 -35.2021 -34.8762 -34.7507 -34.6594 -34.5239 -34.4595
   -19.9355 -19.9284 -19.9193 -19.9177 -19.9060 -19.8990 -19.8881 -19.8753
   -19.8690 -19.8650 -19.8360 -19.8323 -19.8218 -19.8214 -12.2905  -6.1427
    -5.6771  -4.7771  -2.1352  -1.6226  -0.5776

          k = 0.3223 0.0924 0.0000 ( 19207 PWs)   bands (ev):

   -68.2513 -68.2206 -35.1997 -34.9249 -34.7446 -34.6727 -34.5444 -34.4321
   -19.9365 -19.9270 -19.9214 -19.9156 -19.9076 -19.8983 -19.8884 -19.8745
   -19.8705 -19.8633 -19.8346 -19.8310 -19.8231 -19.8218 -12.2528  -6.5020
    -5.4316  -4.5524  -2.6338  -1.1754  -1.0498

          k = 0.4029 0.2314 0.0000 ( 19226 PWs)   bands (ev):

   -68.2328 -68.2132 -35.1992 -35.1233 -34.8349 -34.7129 -34.6010 -34.4461
   -19.9373 -19.9240 -19.9214 -19.9159 -19.9126 -19.8981 -19.8894 -19.8738
   -19.8690 -19.8585 -19.8335 -19.8300 -19.8221 -19.8200 -11.9315  -7.1582
    -5.0066  -4.4111  -3.4929  -0.4066  -0.1515

          k = 0.4029 0.3242 0.0000 ( 19233 PWs)   bands (ev):

   -68.2277 -68.2120 -35.1954 -35.1407 -34.8354 -34.7408 -34.6236 -34.4817
   -19.9360 -19.9238 -19.9206 -19.9164 -19.9128 -19.8988 -19.8898 -19.8735
   -19.8686 -19.8585 -19.8365 -19.8330 -19.8190 -19.8174 -11.8455  -7.1202
    -4.9232  -4.7134  -3.2856  -0.1291  -0.0591

          k = 0.4028 0.4169 0.0000 ( 19207 PWs)   bands (ev):

   -68.2228 -68.2114 -35.1566 -35.1171 -34.8159 -34.8124 -34.6497 -34.5601
   -19.9322 -19.9235 -19.9194 -19.9161 -19.9127 -19.9004 -19.8912 -19.8720
   -19.8691 -19.8604 -19.8397 -19.8373 -19.8164 -19.8153 -11.7462  -6.8378
    -5.2273  -4.7501  -2.6393  -0.3208  -0.2606

          k = 0.4028 0.5096 0.0000 ( 19206 PWs)   bands (ev):

   -68.2194 -68.2115 -35.1112 -35.0554 -34.9150 -34.7792 -34.6702 -34.6387
   -19.9286 -19.9229 -19.9193 -19.9157 -19.9117 -19.9022 -19.8926 -19.8711
   -19.8682 -19.8634 -19.8417 -19.8407 -19.8150 -19.8141 -11.6778  -6.4581
    -5.7020  -4.5712  -1.7593  -0.8892  -0.6279

          k = 0.4028 0.6023 0.0000 ( 19204 PWs)   bands (ev):

   -68.2193 -68.2114 -35.1113 -35.0552 -34.9157 -34.7792 -34.6709 -34.6391
   -19.9285 -19.9230 -19.9192 -19.9158 -19.9116 -19.9023 -19.8926 -19.8711
   -19.8682 -19.8633 -19.8417 -19.8407 -19.8149 -19.8140 -11.6773  -6.4574
    -5.7049  -4.5721  -1.7665  -0.8804  -0.6254

          k = 0.4028 0.6951 0.0000 ( 19206 PWs)   bands (ev):

   -68.2225 -68.2112 -35.1570 -35.1171 -34.8156 -34.8137 -34.6510 -34.5618
   -19.9322 -19.9236 -19.9193 -19.9163 -19.9125 -19.9006 -19.8911 -19.8720
   -19.8690 -19.8603 -19.8399 -19.8375 -19.8163 -19.8151 -11.7447  -6.8371
    -5.2339  -4.7518  -2.6438  -0.3142  -0.2541

          k = 0.4030-0.3249 0.0000 ( 19238 PWs)   bands (ev):

   -68.2274 -68.2118 -35.1958 -35.1407 -34.8351 -34.7414 -34.6261 -34.4843
   -19.9360 -19.9238 -19.9205 -19.9166 -19.9127 -19.8990 -19.8897 -19.8735
   -19.8685 -19.8584 -19.8366 -19.8333 -19.8188 -19.8172 -11.8433  -7.1190
    -4.9243  -4.7230  -3.2876  -0.1230  -0.0531

          k = 0.4030-0.2322 0.0000 ( 19228 PWs)   bands (ev):

   -68.2325 -68.2130 -35.1992 -35.1232 -34.8345 -34.7131 -34.6042 -34.4490
   -19.9373 -19.9240 -19.9213 -19.9162 -19.9124 -19.8983 -19.8892 -19.8738
   -19.8690 -19.8584 -19.8337 -19.8303 -19.8219 -19.8198 -11.9292  -7.1563
    -5.0063  -4.4240  -3.4916  -0.4018  -0.1463

          k = 0.4029-0.1395 0.0000 ( 19236 PWs)   bands (ev):

   -68.2366 -68.2143 -35.1854 -35.0623 -34.8188 -34.7117 -34.5987 -34.4656
   -19.9355 -19.9234 -19.9228 -19.9167 -19.9104 -19.8985 -19.8896 -19.8738
   -19.8692 -19.8604 -19.8318 -19.8294 -19.8246 -19.8221 -11.9797  -6.9041
    -5.0228  -4.6564  -3.0807  -0.7078  -0.5695

          k = 0.4029-0.0467 0.0000 ( 19202 PWs)   bands (ev):

   -68.2390 -68.2152 -35.1751 -34.9842 -34.8328 -34.7001 -34.5930 -34.5126
   -19.9318 -19.9260 -19.9212 -19.9187 -19.9078 -19.8994 -19.8901 -19.8745
   -19.8673 -19.8635 -19.8309 -19.8301 -19.8261 -19.8234 -11.9989  -6.4878
    -5.1479  -4.9953  -2.3997  -1.3039  -0.6020

          k = 0.4029 0.0460 0.0000 ( 19196 PWs)   bands (ev):

   -68.2391 -68.2153 -35.1753 -34.9847 -34.8325 -34.7003 -34.5920 -34.5115
   -19.9317 -19.9260 -19.9213 -19.9186 -19.9079 -19.8993 -19.8901 -19.8745
   -19.8673 -19.8635 -19.8309 -19.8300 -19.8261 -19.8235 -11.9995  -6.4896
    -5.1450  -4.9947  -2.4002  -1.3058  -0.6001

          k = 0.4029 0.1387 0.0000 ( 19222 PWs)   bands (ev):

   -68.2369 -68.2145 -35.1856 -35.0626 -34.8190 -34.7114 -34.5962 -34.4632
   -19.9355 -19.9235 -19.9228 -19.9165 -19.9105 -19.8984 -19.8897 -19.8739
   -19.8692 -19.8604 -19.8317 -19.8292 -19.8247 -19.8222 -11.9814  -6.9065
    -5.0239  -4.6465  -3.0821  -0.7092  -0.5734

          k =-0.4835-0.2777 0.0000 ( 19216 PWs)   bands (ev):

   -68.2276 -68.2120 -35.2137 -35.1632 -34.8432 -34.7248 -34.6142 -34.4549
   -19.9376 -19.9239 -19.9207 -19.9164 -19.9133 -19.8984 -19.8893 -19.8740
   -19.8681 -19.8574 -19.8360 -19.8320 -19.8189 -19.8173 -11.8622  -7.2693
    -4.9770  -4.4447  -3.6265   0.0844   0.1105

          k =-0.4835-0.1850 0.0000 ( 19224 PWs)   bands (ev):

   -68.2276 -68.2119 -35.1962 -35.1413 -34.8361 -34.7403 -34.6233 -34.4816
   -19.9360 -19.9238 -19.9206 -19.9164 -19.9128 -19.8988 -19.8898 -19.8736
   -19.8684 -19.8585 -19.8365 -19.8331 -19.8190 -19.8174 -11.8448  -7.1220
    -4.9267  -4.7089  -3.2898  -0.1297  -0.0600

          k =-0.4835-0.0923 0.0000 ( 19200 PWs)   bands (ev):

   -68.2276 -68.2119 -35.1641 -35.0772 -34.8469 -34.7566 -34.6374 -34.5467
   -19.9318 -19.9238 -19.9209 -19.9172 -19.9108 -19.9000 -19.8910 -19.8731
   -19.8679 -19.8614 -19.8374 -19.8354 -19.8191 -19.8174 -11.8095  -6.7466
    -5.1984  -4.7956  -2.5737  -0.6852  -0.4683

          k =-0.4835 0.0005 0.0000 ( 19186 PWs)   bands (ev):

   -68.2275 -68.2118 -35.1496 -35.0184 -34.8953 -34.7329 -34.6479 -34.5908
   -19.9274 -19.9263 -19.9200 -19.9185 -19.9093 -19.9009 -19.8916 -19.8732
   -19.8657 -19.8644 -19.8375 -19.8370 -19.8192 -19.8173 -11.7915  -6.4564
    -5.5147  -4.7286  -1.8363  -1.4029  -0.6729

          k =-0.4835 0.0932 0.0000 ( 19209 PWs)   bands (ev):

   -68.2274 -68.2118 -35.1641 -35.0769 -34.8472 -34.7569 -34.6388 -34.5483
   -19.9318 -19.9238 -19.9209 -19.9173 -19.9107 -19.9002 -19.8909 -19.8731
   -19.8679 -19.8613 -19.8374 -19.8355 -19.8190 -19.8173 -11.8084  -6.7451
    -5.2044  -4.7963  -2.5761  -0.6789  -0.4651

          k =-0.4835 0.1859 0.0000 ( 19226 PWs)   bands (ev):

   -68.2273 -68.2117 -35.1964 -35.1412 -34.8356 -34.7411 -34.6260 -34.4843
   -19.9360 -19.9238 -19.9205 -19.9166 -19.9127 -19.8990 -19.8897 -19.8735
   -19.8684 -19.8584 -19.8367 -19.8333 -19.8188 -19.8172 -11.8428  -7.1204
    -4.9274  -4.7193  -3.2906  -0.1237  -0.0535

          k =-0.4833-0.8341 0.0000 ( 19218 PWs)   bands (ev):

   -68.2273 -68.2117 -35.2141 -35.1632 -34.8426 -34.7251 -34.6175 -34.4579
   -19.9376 -19.9239 -19.9207 -19.9167 -19.9131 -19.8986 -19.8891 -19.8740
   -19.8680 -19.8573 -19.8362 -19.8323 -19.8187 -19.8172 -11.8599  -7.2676
    -4.9779  -4.4580  -3.6254   0.0916   0.1171

     highest occupied level (ev):     0.1171

!    total energy              =   -1373.24830765 Ry
     estimated scf accuracy    <          2.5E-13 Ry

     The total energy is the sum of the following terms:
     one-electron contribution =  -10891.87566630 Ry
     hartree contribution      =    5474.26939398 Ry
     xc contribution           =    -138.78075504 Ry
     ewald contribution        =    4183.13871972 Ry

     convergence has been achieved in  30 iterations

     negative rho (up, down):  1.208E-04 0.000E+00

     Forces acting on atoms (cartesian axes, Ry/au):

     atom    1 type  2   force =     0.00031091    0.00028336   -0.00017591
     atom    2 type  1   force =    -0.00026853   -0.00046464    0.00150913
     atom    3 type  1   force =    -0.00004238    0.00018128   -0.00133322

     Total force =     0.002092     Total SCF correction =     0.000007


     Computing stress (Cartesian axis) and pressure


     negative rho (up, down):  1.208E-04 0.000E+00
          total   stress  (Ry/bohr**3)                   (kbar)     P=        5.19
   0.00006420  -0.00000261   0.00000033            9.44       -0.38        0.05
  -0.00000261   0.00004917   0.00000093           -0.38        7.23        0.14
   0.00000033   0.00000093  -0.00000755            0.05        0.14       -1.11


     Writing output data file /scratch/as3359/Ta2C-CT-ecutoff/Ta2C.save/
 
     init_run     :     18.34s CPU     10.15s WALL (       1 calls)
     electrons    :    940.04s CPU    483.27s WALL (       1 calls)
     forces       :      6.01s CPU      3.13s WALL (       1 calls)
     stress       :     20.86s CPU     10.78s WALL (       1 calls)

     Called by init_run:
     wfcinit      :     13.20s CPU      6.77s WALL (       1 calls)
     potinit      :      1.22s CPU      0.63s WALL (       1 calls)
     hinit0       :      3.02s CPU      2.13s WALL (       1 calls)

     Called by electrons:
     c_bands      :    755.05s CPU    382.57s WALL (      30 calls)
     sum_band     :    153.69s CPU     81.74s WALL (      30 calls)
     v_of_rho     :      4.74s CPU      2.46s WALL (      31 calls)
     newd         :     25.35s CPU     15.94s WALL (      31 calls)
     mix_rho      :      1.51s CPU      0.81s WALL (      30 calls)

     Called by c_bands:
     init_us_2    :     21.46s CPU     10.76s WALL (    4662 calls)
     cegterg      :    685.17s CPU    347.39s WALL (    2220 calls)

     Called by *egterg:
     cdiaghg      :     17.77s CPU      9.11s WALL (   11868 calls)
     h_psi        :    548.34s CPU    278.55s WALL (   11942 calls)
     s_psi        :     26.81s CPU     13.45s WALL (   11942 calls)
     g_psi        :      3.59s CPU      1.81s WALL (    9648 calls)

     Called by h_psi:
     h_psi:calbec :     24.14s CPU     12.15s WALL (   11942 calls)
     vloc_psi     :    487.17s CPU    247.79s WALL (   11942 calls)
     add_vuspsi   :     32.79s CPU     16.44s WALL (   11942 calls)

     General routines
     calbec       :     32.38s CPU     16.29s WALL (   14532 calls)
     fft          :      2.36s CPU      1.22s WALL (     426 calls)
     ffts         :      0.21s CPU      0.11s WALL (      61 calls)
     fftw         :    491.64s CPU    250.27s WALL (  378996 calls)
     interpolate  :      0.38s CPU      0.20s WALL (      31 calls)
 
     Parallel routines
 
     PWSCF        :  16m27.44s CPU   8m29.33s WALL

 
   This run was terminated on:  20:35:57   6Apr2022            

=------------------------------------------------------------------------------=
   JOB DONE.
=------------------------------------------------------------------------------=
