
     Program PWSCF v.6.8 starts on  6Apr2022 at 21:53:15 

     This program is part of the open-source Quantum ESPRESSO suite
     for quantum simulation of materials; please cite
         "P. Giannozzi et al., J. Phys.:Condens. Matter 21 395502 (2009);
         "P. Giannozzi et al., J. Phys.:Condens. Matter 29 465901 (2017);
         "P. Giannozzi et al., J. Chem. Phys. 152 154105 (2020);
          URL http://www.quantum-espresso.org", 
     in publications or presentations arising from this work. More details at
     http://www.quantum-espresso.org/quote

     Parallel version (MPI & OpenMP), running on       4 processor cores
     Number of MPI processes:                 2
     Threads/MPI process:                     2

     MPI processes distributed on     1 nodes
     R & G space division:  proc/nbgrp/npool/nimage =       2
     124987 MiB available memory on the printing compute node when the environment starts
 
     Reading input from Ta2C.scf.115.in

     Current dimensions of program PWSCF are:
     Max number of different atomic species (ntypx) = 10
     Max number of k-points (npk) =  40000
     Max angular momentum in pseudopotentials (lmaxx) =  4
     file Ta.pbesol-spfn-rrkjus_psl.1.0.0.UPF: wavefunction(s)  5S 5P renormalized

     Subspace diagonalization in iterative solution of the eigenvalue problem:
     a serial algorithm will be used

 
     Parallelization info
     --------------------
     sticks:   dense  smooth     PW     G-vecs:    dense   smooth      PW
     Min         646     520    156               184683   132377   22120
     Max         647     521    157               184696   132382   22153
     Sum        1293    1041    313               369379   264759   44273
 
     Using Slab Decomposition
 


     bravais-lattice index     =            0
     lattice parameter (alat)  =       5.5500  a.u.
     unit-cell volume          =    1588.7844 (a.u.)^3
     number of atoms/cell      =            3
     number of atomic types    =            2
     number of electrons       =        58.00
     number of Kohn-Sham states=           29
     kinetic-energy cutoff     =     115.0000  Ry
     charge density cutoff     =     575.0000  Ry
     scf convergence threshold =      1.0E-12
     mixing beta               =       0.7000
     number of iterations used =            8  plain     mixing
     Exchange-correlation= PBESOL
                           (   1   4  10   8   0   0   0)

     celldm(1)=   5.550000  celldm(2)=   0.000000  celldm(3)=   0.000000
     celldm(4)=   0.000000  celldm(5)=   0.000000  celldm(6)=   0.000000

     crystal axes: (cart. coord. in units of alat)
               a(1) = (   1.034114   0.000203   0.000000 )  
               a(2) = (  -0.516207   0.898604   0.000000 )  
               a(3) = (   0.000000   0.000000  10.000000 )  

     reciprocal axes: (cart. coord. in units 2 pi/alat)
               b(1) = (  0.966902  0.555441  0.000000 )  
               b(2) = ( -0.000219  1.112711  0.000000 )  
               b(3) = (  0.000000  0.000000  0.100000 )  


     PseudoPot. # 1 for Ta read from file:
     /shared/home/as3359/pseudo/Ta.pbesol-spfn-rrkjus_psl.1.0.0.UPF
     MD5 check sum: f099565ffaca9b150a52e9412a28e20b
     Pseudo is Ultrasoft + core correction, Zval = 27.0
     Generated using &quot;atomic&quot; code by A. Dal Corso  v.6.3
     Using radial grid of 1273 points,  8 beta functions with: 
                l(1) =   0
                l(2) =   0
                l(3) =   1
                l(4) =   1
                l(5) =   2
                l(6) =   2
                l(7) =   3
                l(8) =   3
     Q(r) pseudized with 0 coefficients 


     PseudoPot. # 2 for C  read from file:
     /shared/home/as3359/pseudo/C.pbesol-n-rrkjus_psl.1.0.0.UPF
     MD5 check sum: 05995be603a8a7c99da3dc4413f31573
     Pseudo is Ultrasoft + core correction, Zval =  4.0
     Generated using &quot;atomic&quot; code by A. Dal Corso  v.6.3MaX
     Using radial grid of 1073 points,  4 beta functions with: 
                l(1) =   0
                l(2) =   0
                l(3) =   1
                l(4) =   1
     Q(r) pseudized with 0 coefficients 


     atomic species   valence    mass     pseudopotential
        Ta            27.00   180.94788     Ta( 1.00)
        C              4.00    12.01070     C ( 1.00)

     No symmetry found



   Cartesian axes

     site n.     atom                  positions (alat units)
         1           C   tau(   1) = (   0.0000000   0.0000000   0.0000000  )
         2           Ta  tau(   2) = (   0.5174615   0.3004190  -0.4127129  )
         3           Ta  tau(   3) = (   0.0007158   0.5986355   0.4125272  )

     number of k points=    74
                       cart. coord. in units 2pi/alat
        k(    1) = (   0.0000000   0.0000000   0.0000000), wk =   0.0138889
        k(    2) = (  -0.0000182   0.0927259   0.0000000), wk =   0.0277778
        k(    3) = (  -0.0000364   0.1854519   0.0000000), wk =   0.0277778
        k(    4) = (  -0.0000547   0.2781778   0.0000000), wk =   0.0277778
        k(    5) = (  -0.0000729   0.3709037   0.0000000), wk =   0.0277778
        k(    6) = (  -0.0000911   0.4636296   0.0000000), wk =   0.0277778
        k(    7) = (   0.0001093  -0.5563556   0.0000000), wk =   0.0138889
        k(    8) = (   0.0805752   0.0462867   0.0000000), wk =   0.0277778
        k(    9) = (   0.0805570   0.1390127   0.0000000), wk =   0.0277778
        k(   10) = (   0.0805388   0.2317386   0.0000000), wk =   0.0277778
        k(   11) = (   0.0805205   0.3244645   0.0000000), wk =   0.0277778
        k(   12) = (   0.0805023   0.4171904   0.0000000), wk =   0.0277778
        k(   13) = (   0.0804841   0.5099164   0.0000000), wk =   0.0277778
        k(   14) = (   0.0806845  -0.5100688   0.0000000), wk =   0.0277778
        k(   15) = (   0.0806663  -0.4173429   0.0000000), wk =   0.0277778
        k(   16) = (   0.0806481  -0.3246170   0.0000000), wk =   0.0277778
        k(   17) = (   0.0806298  -0.2318910   0.0000000), wk =   0.0277778
        k(   18) = (   0.0806116  -0.1391651   0.0000000), wk =   0.0277778
        k(   19) = (   0.0805934  -0.0464392   0.0000000), wk =   0.0277778
        k(   20) = (   0.1611504   0.0925735   0.0000000), wk =   0.0277778
        k(   21) = (   0.1611322   0.1852994   0.0000000), wk =   0.0277778
        k(   22) = (   0.1611139   0.2780253   0.0000000), wk =   0.0277778
        k(   23) = (   0.1610957   0.3707513   0.0000000), wk =   0.0277778
        k(   24) = (   0.1610775   0.4634772   0.0000000), wk =   0.0277778
        k(   25) = (   0.1610593   0.5562031   0.0000000), wk =   0.0277778
        k(   26) = (   0.1612597  -0.4637821   0.0000000), wk =   0.0277778
        k(   27) = (   0.1612415  -0.3710561   0.0000000), wk =   0.0277778
        k(   28) = (   0.1612232  -0.2783302   0.0000000), wk =   0.0277778
        k(   29) = (   0.1612050  -0.1856043   0.0000000), wk =   0.0277778
        k(   30) = (   0.1611868  -0.0928784   0.0000000), wk =   0.0277778
        k(   31) = (   0.1611686  -0.0001524   0.0000000), wk =   0.0277778
        k(   32) = (   0.2417256   0.1388602   0.0000000), wk =   0.0277778
        k(   33) = (   0.2417073   0.2315862   0.0000000), wk =   0.0277778
        k(   34) = (   0.2416891   0.3243121   0.0000000), wk =   0.0277778
        k(   35) = (   0.2416709   0.4170380   0.0000000), wk =   0.0277778
        k(   36) = (   0.2416527   0.5097639   0.0000000), wk =   0.0277778
        k(   37) = (   0.2416345   0.6024899   0.0000000), wk =   0.0277778
        k(   38) = (   0.2418349  -0.4174953   0.0000000), wk =   0.0277778
        k(   39) = (   0.2418166  -0.3247694   0.0000000), wk =   0.0277778
        k(   40) = (   0.2417984  -0.2320435   0.0000000), wk =   0.0277778
        k(   41) = (   0.2417802  -0.1393175   0.0000000), wk =   0.0277778
        k(   42) = (   0.2417620  -0.0465916   0.0000000), wk =   0.0277778
        k(   43) = (   0.2417438   0.0461343   0.0000000), wk =   0.0277778
        k(   44) = (   0.3223007   0.1851470   0.0000000), wk =   0.0277778
        k(   45) = (   0.3222825   0.2778729   0.0000000), wk =   0.0277778
        k(   46) = (   0.3222643   0.3705988   0.0000000), wk =   0.0277778
        k(   47) = (   0.3222461   0.4633248   0.0000000), wk =   0.0277778
        k(   48) = (   0.3222279   0.5560507   0.0000000), wk =   0.0277778
        k(   49) = (   0.3222097   0.6487766   0.0000000), wk =   0.0277778
        k(   50) = (   0.3224100  -0.3712086   0.0000000), wk =   0.0277778
        k(   51) = (   0.3223918  -0.2784827   0.0000000), wk =   0.0277778
        k(   52) = (   0.3223736  -0.1857567   0.0000000), wk =   0.0277778
        k(   53) = (   0.3223554  -0.0930308   0.0000000), wk =   0.0277778
        k(   54) = (   0.3223372  -0.0003049   0.0000000), wk =   0.0277778
        k(   55) = (   0.3223190   0.0924210   0.0000000), wk =   0.0277778
        k(   56) = (   0.4028759   0.2314337   0.0000000), wk =   0.0277778
        k(   57) = (   0.4028577   0.3241596   0.0000000), wk =   0.0277778
        k(   58) = (   0.4028395   0.4168856   0.0000000), wk =   0.0277778
        k(   59) = (   0.4028213   0.5096115   0.0000000), wk =   0.0277778
        k(   60) = (   0.4028031   0.6023374   0.0000000), wk =   0.0277778
        k(   61) = (   0.4027848   0.6950633   0.0000000), wk =   0.0277778
        k(   62) = (   0.4029852  -0.3249218   0.0000000), wk =   0.0277778
        k(   63) = (   0.4029670  -0.2321959   0.0000000), wk =   0.0277778
        k(   64) = (   0.4029488  -0.1394700   0.0000000), wk =   0.0277778
        k(   65) = (   0.4029306  -0.0467441   0.0000000), wk =   0.0277778
        k(   66) = (   0.4029124   0.0459819   0.0000000), wk =   0.0277778
        k(   67) = (   0.4028941   0.1387078   0.0000000), wk =   0.0277778
        k(   68) = (  -0.4834511  -0.2777205   0.0000000), wk =   0.0138889
        k(   69) = (  -0.4834693  -0.1849945   0.0000000), wk =   0.0277778
        k(   70) = (  -0.4834875  -0.0922686   0.0000000), wk =   0.0277778
        k(   71) = (  -0.4835058   0.0004573   0.0000000), wk =   0.0277778
        k(   72) = (  -0.4835240   0.0931832   0.0000000), wk =   0.0277778
        k(   73) = (  -0.4835422   0.1859092   0.0000000), wk =   0.0277778
        k(   74) = (  -0.4833418  -0.8340760   0.0000000), wk =   0.0138889

     Dense  grid:   369379 G-vectors     FFT dimensions: (  45,  45, 432)

     Smooth grid:   264759 G-vectors     FFT dimensions: (  40,  40, 384)

     Estimated max dynamical RAM per process >       2.27 GB

     Estimated total dynamical RAM >       4.55 GB

     Initial potential from superposition of free atoms

     starting charge   57.99842, renormalised to   58.00000

     negative rho (up, down):  7.559E-05 0.000E+00
     Starting wfcs are   38 randomized atomic wfcs

     total cpu time spent up to now is       16.3 secs

     Self-consistent Calculation

     iteration #  1     ecut=   115.00 Ry     beta= 0.70
     Davidson diagonalization with overlap
     ethr =  1.00E-02,  avg # of iterations =  2.1

     total cpu time spent up to now is       39.7 secs

     total energy              =   -1372.42460171 Ry
     estimated scf accuracy    <       1.29577927 Ry

     iteration #  2     ecut=   115.00 Ry     beta= 0.70
     Davidson diagonalization with overlap
     ethr =  2.23E-03,  avg # of iterations =  6.8

     total cpu time spent up to now is       73.7 secs

     total energy              =   -1371.92763986 Ry
     estimated scf accuracy    <       8.27634008 Ry

     iteration #  3     ecut=   115.00 Ry     beta= 0.70
     Davidson diagonalization with overlap
     ethr =  2.23E-03,  avg # of iterations =  5.7

     total cpu time spent up to now is      105.3 secs

     total energy              =   -1373.20810464 Ry
     estimated scf accuracy    <       0.14364919 Ry

     iteration #  4     ecut=   115.00 Ry     beta= 0.70
     Davidson diagonalization with overlap
     ethr =  2.48E-04,  avg # of iterations =  7.8

     total cpu time spent up to now is      137.1 secs

     total energy              =   -1373.21815087 Ry
     estimated scf accuracy    <       0.71741648 Ry

     iteration #  5     ecut=   115.00 Ry     beta= 0.70
     Davidson diagonalization with overlap
     ethr =  2.48E-04,  avg # of iterations =  6.6

     total cpu time spent up to now is      166.3 secs

     total energy              =   -1373.24703693 Ry
     estimated scf accuracy    <       0.02956142 Ry

     iteration #  6     ecut=   115.00 Ry     beta= 0.70
     Davidson diagonalization with overlap
     ethr =  5.10E-05,  avg # of iterations =  4.0

     total cpu time spent up to now is      192.0 secs

     total energy              =   -1373.24925127 Ry
     estimated scf accuracy    <       0.00754638 Ry

     iteration #  7     ecut=   115.00 Ry     beta= 0.70
     Davidson diagonalization with overlap
     ethr =  1.30E-05,  avg # of iterations =  6.5

     total cpu time spent up to now is      220.7 secs

     total energy              =   -1373.25010367 Ry
     estimated scf accuracy    <       0.00313306 Ry

     iteration #  8     ecut=   115.00 Ry     beta= 0.70
     Davidson diagonalization with overlap
     ethr =  5.40E-06,  avg # of iterations =  5.1

     negative rho (up, down):  1.547E-06 0.000E+00

     total cpu time spent up to now is      247.8 secs

     total energy              =   -1373.25075839 Ry
     estimated scf accuracy    <       0.00027689 Ry

     iteration #  9     ecut=   115.00 Ry     beta= 0.70
     Davidson diagonalization with overlap
     c_bands:  1 eigenvalues not converged
     ethr =  4.77E-07,  avg # of iterations =  7.4

     negative rho (up, down):  3.030E-05 0.000E+00

     total cpu time spent up to now is      279.1 secs

     total energy              =   -1373.25075450 Ry
     estimated scf accuracy    <       0.00029004 Ry

     iteration # 10     ecut=   115.00 Ry     beta= 0.70
     Davidson diagonalization with overlap
     ethr =  4.77E-07,  avg # of iterations =  3.3

     negative rho (up, down):  7.318E-06 0.000E+00

     total cpu time spent up to now is      304.0 secs

     total energy              =   -1373.25079075 Ry
     estimated scf accuracy    <       0.00002550 Ry

     iteration # 11     ecut=   115.00 Ry     beta= 0.70
     Davidson diagonalization with overlap
     ethr =  4.40E-08,  avg # of iterations =  6.9

     negative rho (up, down):  1.206E-05 0.000E+00

     total cpu time spent up to now is      334.0 secs

     total energy              =   -1373.25079818 Ry
     estimated scf accuracy    <       0.00000442 Ry

     iteration # 12     ecut=   115.00 Ry     beta= 0.70
     Davidson diagonalization with overlap
     ethr =  7.61E-09,  avg # of iterations =  4.8

     negative rho (up, down):  1.410E-05 0.000E+00

     total cpu time spent up to now is      361.4 secs

     total energy              =   -1373.25079861 Ry
     estimated scf accuracy    <       0.00000085 Ry

     iteration # 13     ecut=   115.00 Ry     beta= 0.70
     Davidson diagonalization with overlap
     ethr =  1.47E-09,  avg # of iterations =  6.7

     negative rho (up, down):  1.443E-05 0.000E+00

     total cpu time spent up to now is      391.0 secs

     total energy              =   -1373.25079879 Ry
     estimated scf accuracy    <       0.00000042 Ry

     iteration # 14     ecut=   115.00 Ry     beta= 0.70
     Davidson diagonalization with overlap
     ethr =  7.33E-10,  avg # of iterations =  1.7

     negative rho (up, down):  1.430E-05 0.000E+00

     total cpu time spent up to now is      413.4 secs

     total energy              =   -1373.25079877 Ry
     estimated scf accuracy    <       0.00000028 Ry

     iteration # 15     ecut=   115.00 Ry     beta= 0.70
     Davidson diagonalization with overlap
     ethr =  4.83E-10,  avg # of iterations =  5.3

     negative rho (up, down):  1.434E-05 0.000E+00

     total cpu time spent up to now is      440.1 secs

     total energy              =   -1373.25079880 Ry
     estimated scf accuracy    <       0.00000004 Ry

     iteration # 16     ecut=   115.00 Ry     beta= 0.70
     Davidson diagonalization with overlap
     ethr =  7.00E-11,  avg # of iterations =  5.2

     negative rho (up, down):  1.441E-05 0.000E+00

     total cpu time spent up to now is      467.5 secs

     total energy              =   -1373.25079880 Ry
     estimated scf accuracy    <       0.00000009 Ry

     iteration # 17     ecut=   115.00 Ry     beta= 0.70
     Davidson diagonalization with overlap
     ethr =  7.00E-11,  avg # of iterations =  2.6

     negative rho (up, down):  1.441E-05 0.000E+00

     total cpu time spent up to now is      490.9 secs

     total energy              =   -1373.25079881 Ry
     estimated scf accuracy    <       0.00000005 Ry

     iteration # 18     ecut=   115.00 Ry     beta= 0.70
     Davidson diagonalization with overlap
     ethr =  7.00E-11,  avg # of iterations =  1.1

     negative rho (up, down):  1.437E-05 0.000E+00

     total cpu time spent up to now is      512.4 secs

     total energy              =   -1373.25079880 Ry
     estimated scf accuracy    <       0.00000004 Ry

     iteration # 19     ecut=   115.00 Ry     beta= 0.70
     Davidson diagonalization with overlap
     ethr =  6.72E-11,  avg # of iterations =  3.9

     negative rho (up, down):  1.434E-05 0.000E+00

     total cpu time spent up to now is      537.2 secs

     total energy              =   -1373.25079881 Ry
     estimated scf accuracy    <          1.7E-09 Ry

     iteration # 20     ecut=   115.00 Ry     beta= 0.70
     Davidson diagonalization with overlap
     ethr =  3.01E-12,  avg # of iterations =  7.6

     negative rho (up, down):  1.432E-05 0.000E+00

     total cpu time spent up to now is      568.3 secs

     total energy              =   -1373.25079881 Ry
     estimated scf accuracy    <          3.2E-09 Ry

     iteration # 21     ecut=   115.00 Ry     beta= 0.70
     Davidson diagonalization with overlap
     ethr =  3.01E-12,  avg # of iterations =  1.2

     negative rho (up, down):  1.432E-05 0.000E+00

     total cpu time spent up to now is      590.0 secs

     total energy              =   -1373.25079881 Ry
     estimated scf accuracy    <          4.0E-09 Ry

     iteration # 22     ecut=   115.00 Ry     beta= 0.70
     Davidson diagonalization with overlap
     ethr =  3.01E-12,  avg # of iterations =  3.2

     negative rho (up, down):  1.432E-05 0.000E+00

     total cpu time spent up to now is      614.2 secs

     total energy              =   -1373.25079881 Ry
     estimated scf accuracy    <          1.1E-09 Ry

     iteration # 23     ecut=   115.00 Ry     beta= 0.70
     Davidson diagonalization with overlap
     ethr =  1.89E-12,  avg # of iterations =  4.5

     negative rho (up, down):  1.432E-05 0.000E+00

     total cpu time spent up to now is      639.7 secs

     total energy              =   -1373.25079881 Ry
     estimated scf accuracy    <          8.8E-12 Ry

     iteration # 24     ecut=   115.00 Ry     beta= 0.70
     Davidson diagonalization with overlap
     ethr =  1.00E-13,  avg # of iterations =  6.2

     negative rho (up, down):  1.432E-05 0.000E+00

     total cpu time spent up to now is      668.6 secs

     total energy              =   -1373.25079881 Ry
     estimated scf accuracy    <          6.8E-11 Ry

     iteration # 25     ecut=   115.00 Ry     beta= 0.70
     Davidson diagonalization with overlap
     ethr =  1.00E-13,  avg # of iterations =  5.2

     negative rho (up, down):  1.432E-05 0.000E+00

     total cpu time spent up to now is      695.4 secs

     total energy              =   -1373.25079881 Ry
     estimated scf accuracy    <          8.7E-12 Ry

     iteration # 26     ecut=   115.00 Ry     beta= 0.70
     Davidson diagonalization with overlap
     ethr =  1.00E-13,  avg # of iterations =  1.0

     negative rho (up, down):  1.432E-05 0.000E+00

     total cpu time spent up to now is      716.6 secs

     total energy              =   -1373.25079881 Ry
     estimated scf accuracy    <          7.9E-12 Ry

     iteration # 27     ecut=   115.00 Ry     beta= 0.70
     Davidson diagonalization with overlap
     ethr =  1.00E-13,  avg # of iterations =  1.6

     negative rho (up, down):  1.432E-05 0.000E+00

     total cpu time spent up to now is      738.6 secs

     total energy              =   -1373.25079881 Ry
     estimated scf accuracy    <          1.5E-12 Ry

     iteration # 28     ecut=   115.00 Ry     beta= 0.70
     Davidson diagonalization with overlap
     ethr =  1.00E-13,  avg # of iterations =  1.0

     negative rho (up, down):  1.432E-05 0.000E+00

     total cpu time spent up to now is      759.9 secs

     total energy              =   -1373.25079881 Ry
     estimated scf accuracy    <          2.4E-12 Ry

     iteration # 29     ecut=   115.00 Ry     beta= 0.70
     Davidson diagonalization with overlap
     ethr =  1.00E-13,  avg # of iterations =  1.0

     negative rho (up, down):  1.432E-05 0.000E+00

     total cpu time spent up to now is      781.1 secs

     total energy              =   -1373.25079881 Ry
     estimated scf accuracy    <          1.4E-12 Ry

     iteration # 30     ecut=   115.00 Ry     beta= 0.70
     Davidson diagonalization with overlap
     ethr =  1.00E-13,  avg # of iterations =  1.0

     negative rho (up, down):  1.432E-05 0.000E+00

     total cpu time spent up to now is      802.3 secs

     End of self-consistent calculation

          k = 0.0000 0.0000 0.0000 ( 32985 PWs)   bands (ev):

   -68.2899 -68.2423 -35.3156 -34.7119 -34.4038 -34.3988 -34.3388 -34.3324
   -19.9458 -19.9321 -19.9068 -19.9063 -19.9009 -19.9005 -19.8743 -19.8736
   -19.8664 -19.8664 -19.8592 -19.8538 -19.7927 -19.7912 -13.2785  -7.6693
    -4.3941  -4.3508  -1.9294  -0.8993  -0.7266

          k =-0.0000 0.0927 0.0000 ( 32988 PWs)   bands (ev):

   -68.2861 -68.2398 -35.3030 -34.7171 -34.4508 -34.4151 -34.3827 -34.3387
   -19.9443 -19.9311 -19.9083 -19.9067 -19.9012 -19.8994 -19.8758 -19.8733
   -19.8668 -19.8657 -19.8563 -19.8512 -19.7955 -19.7941 -13.1646  -7.4492
    -4.7175  -4.3165  -1.8344  -1.0829  -0.5375

          k =-0.0000 0.1855 0.0000 ( 33055 PWs)   bands (ev):

   -68.2755 -68.2334 -35.2687 -34.7449 -34.5652 -34.4998 -34.4564 -34.3578
   -19.9403 -19.9287 -19.9120 -19.9078 -19.9022 -19.8969 -19.8795 -19.8723
   -19.8677 -19.8638 -19.8486 -19.8439 -19.8030 -19.8019 -12.8642  -6.8677
    -5.3779  -4.2537  -1.8298  -1.4639  -0.9837

          k =-0.0001 0.2782 0.0000 ( 33119 PWs)   bands (ev):

   -68.2606 -68.2249 -35.2251 -34.8486 -34.6620 -34.6415 -34.5092 -34.3869
   -19.9358 -19.9253 -19.9163 -19.9092 -19.9040 -19.8947 -19.8832 -19.8704
   -19.8687 -19.8609 -19.8380 -19.8339 -19.8128 -19.8116 -12.4842  -6.4530
    -5.6912  -4.2424  -2.4628  -1.5268  -1.0283

          k =-0.0001 0.3709 0.0000 ( 33156 PWs)   bands (ev):

   -68.2450 -68.2171 -35.1950 -35.0051 -34.7788 -34.6874 -34.5597 -34.4177
   -19.9335 -19.9211 -19.9194 -19.9107 -19.9066 -19.8938 -19.8854 -19.8696
   -19.8678 -19.8576 -19.8271 -19.8239 -19.8225 -19.8203 -12.1485  -6.8400
    -5.2234  -4.3020  -3.0996  -1.1910  -0.6683

          k =-0.0001 0.4636 0.0000 ( 33161 PWs)   bands (ev):

   -68.2325 -68.2124 -35.1991 -35.1236 -34.8375 -34.7119 -34.5955 -34.4410
   -19.9336 -19.9205 -19.9179 -19.9120 -19.9090 -19.8941 -19.8858 -19.8701
   -19.8655 -19.8550 -19.8294 -19.8260 -19.8188 -19.8166 -11.9371  -7.1609
    -5.0004  -4.3781  -3.4991  -0.4173  -0.1612

          k = 0.0001-0.5564 0.0000 ( 33196 PWs)   bands (ev):

   -68.2275 -68.2111 -35.2127 -35.1637 -34.8469 -34.7231 -34.6085 -34.4496
   -19.9339 -19.9204 -19.9174 -19.9125 -19.9096 -19.8944 -19.8857 -19.8702
   -19.8646 -19.8539 -19.8319 -19.8279 -19.8156 -19.8140 -11.8679  -7.2709
    -4.9679  -4.4111  -3.6324   0.0684   0.0978

          k = 0.0806 0.0463 0.0000 ( 33003 PWs)   bands (ev):

   -68.2860 -68.2398 -35.3028 -34.7170 -34.4487 -34.4180 -34.3795 -34.3423
   -19.9443 -19.9311 -19.9081 -19.9069 -19.9011 -19.8995 -19.8755 -19.8736
   -19.8668 -19.8657 -19.8563 -19.8512 -19.7956 -19.7942 -13.1640  -7.4483
    -4.6958  -4.3415  -1.8328  -1.0814  -0.5379

          k = 0.0806 0.1390 0.0000 ( 33023 PWs)   bands (ev):

   -68.2788 -68.2354 -35.2793 -34.7322 -34.5208 -34.4921 -34.4175 -34.3618
   -19.9415 -19.9294 -19.9105 -19.9082 -19.9014 -19.8979 -19.8782 -19.8728
   -19.8672 -19.8646 -19.8510 -19.8462 -19.8007 -19.7995 -12.9570  -7.0390
    -5.1727  -4.3248  -1.7349  -1.2932  -0.9136

          k = 0.0805 0.2317 0.0000 ( 33072 PWs)   bands (ev):

   -68.2661 -68.2279 -35.2399 -34.7906 -34.6304 -34.6058 -34.4757 -34.3940
   -19.9369 -19.9268 -19.9141 -19.9102 -19.9021 -19.8957 -19.8819 -19.8718
   -19.8674 -19.8626 -19.8419 -19.8376 -19.8093 -19.8084 -12.6163  -6.3885
    -5.7339  -4.4048  -1.9817  -1.4635  -1.1262

          k = 0.0805 0.3245 0.0000 ( 33113 PWs)   bands (ev):

   -68.2508 -68.2199 -35.2010 -34.9239 -34.7431 -34.6734 -34.5416 -34.4286
   -19.9329 -19.9233 -19.9177 -19.9118 -19.9040 -19.8944 -19.8849 -19.8706
   -19.8669 -19.8598 -19.8312 -19.8276 -19.8191 -19.8178 -12.2586  -6.5050
    -5.4356  -4.5290  -2.6323  -1.1755  -1.0479

          k = 0.0805 0.4172 0.0000 ( 33116 PWs)   bands (ev):

   -68.2366 -68.2138 -35.1857 -35.0616 -34.8188 -34.7117 -34.5924 -34.4592
   -19.9318 -19.9199 -19.9192 -19.9126 -19.9069 -19.8944 -19.8862 -19.8700
   -19.8658 -19.8569 -19.8277 -19.8252 -19.8214 -19.8189 -11.9876  -6.9066
    -5.0201  -4.6233  -3.0769  -0.7192  -0.5737

          k = 0.0805 0.5099 0.0000 ( 33162 PWs)   bands (ev):

   -68.2275 -68.2111 -35.1950 -35.1413 -34.8387 -34.7390 -34.6189 -34.4772
   -19.9322 -19.9202 -19.9172 -19.9125 -19.9091 -19.8948 -19.8863 -19.8697
   -19.8650 -19.8550 -19.8325 -19.8291 -19.8157 -19.8140 -11.8505  -7.1220
    -4.9159  -4.6868  -3.2859  -0.1423  -0.0721

          k = 0.0807-0.5101 0.0000 ( 33146 PWs)   bands (ev):

   -68.2274 -68.2111 -35.1952 -35.1414 -34.8390 -34.7388 -34.6188 -34.4771
   -19.9322 -19.9203 -19.9171 -19.9125 -19.9092 -19.8948 -19.8863 -19.8698
   -19.8650 -19.8550 -19.8325 -19.8291 -19.8157 -19.8140 -11.8503  -7.1225
    -4.9165  -4.6859  -3.2871  -0.1421  -0.0727

          k = 0.0807-0.4173 0.0000 ( 33112 PWs)   bands (ev):

   -68.2365 -68.2137 -35.1860 -35.0622 -34.8195 -34.7115 -34.5923 -34.4591
   -19.9318 -19.9199 -19.9192 -19.9126 -19.9069 -19.8944 -19.8862 -19.8700
   -19.8657 -19.8569 -19.8277 -19.8253 -19.8214 -19.8188 -11.9871  -6.9077
    -5.0201  -4.6228  -3.0800  -0.7170  -0.5758

          k = 0.0806-0.3246 0.0000 ( 33103 PWs)   bands (ev):

   -68.2507 -68.2198 -35.2010 -34.9246 -34.7438 -34.6736 -34.5415 -34.4286
   -19.9329 -19.9233 -19.9177 -19.9118 -19.9040 -19.8945 -19.8849 -19.8707
   -19.8668 -19.8598 -19.8311 -19.8275 -19.8192 -19.8178 -12.2577  -6.5059
    -5.4350  -4.5291  -2.6355  -1.1748  -1.0474

          k = 0.0806-0.2319 0.0000 ( 33062 PWs)   bands (ev):

   -68.2660 -68.2279 -35.2398 -34.7908 -34.6306 -34.6061 -34.4763 -34.3944
   -19.9369 -19.9268 -19.9141 -19.9102 -19.9021 -19.8958 -19.8819 -19.8718
   -19.8674 -19.8626 -19.8419 -19.8375 -19.8093 -19.8085 -12.6153  -6.3872
    -5.7335  -4.4063  -1.9832  -1.4623  -1.1260

          k = 0.0806-0.1392 0.0000 ( 33011 PWs)   bands (ev):

   -68.2788 -68.2353 -35.2792 -34.7320 -34.5204 -34.4919 -34.4184 -34.3631
   -19.9415 -19.9295 -19.9103 -19.9083 -19.9012 -19.8980 -19.8781 -19.8729
   -19.8672 -19.8646 -19.8510 -19.8461 -19.8007 -19.7995 -12.9562  -7.0378
    -5.1675  -4.3317  -1.7337  -1.2916  -0.9091

          k = 0.0806-0.0464 0.0000 ( 33001 PWs)   bands (ev):

   -68.2860 -68.2398 -35.3028 -34.7170 -34.4472 -34.4198 -34.3779 -34.3441
   -19.9443 -19.9311 -19.9079 -19.9072 -19.9008 -19.8997 -19.8754 -19.8738
   -19.8668 -19.8658 -19.8563 -19.8511 -19.7956 -19.7942 -13.1637  -7.4478
    -4.6863  -4.3524  -1.8320  -1.0803  -0.5356

          k = 0.1612 0.0926 0.0000 ( 33051 PWs)   bands (ev):

   -68.2753 -68.2332 -35.2682 -34.7445 -34.5643 -34.4974 -34.4601 -34.3619
   -19.9402 -19.9287 -19.9119 -19.9080 -19.9020 -19.8971 -19.8792 -19.8726
   -19.8677 -19.8638 -19.8485 -19.8438 -19.8031 -19.8020 -12.8621  -6.8644
    -5.3614  -4.2801  -1.8199  -1.4634  -0.9780

          k = 0.1611 0.1853 0.0000 ( 33059 PWs)   bands (ev):

   -68.2660 -68.2278 -35.2396 -34.7898 -34.6309 -34.6047 -34.4773 -34.3968
   -19.9368 -19.9268 -19.9140 -19.9103 -19.9021 -19.8958 -19.8818 -19.8718
   -19.8674 -19.8626 -19.8419 -19.8375 -19.8094 -19.8085 -12.6148  -6.3857
    -5.7265  -4.4195  -1.9702  -1.4672  -1.1313

          k = 0.1611 0.2780 0.0000 ( 33094 PWs)   bands (ev):

   -68.2528 -68.2208 -35.2034 -34.8734 -34.7494 -34.6591 -34.5232 -34.4578
   -19.9319 -19.9247 -19.9157 -19.9139 -19.9024 -19.8952 -19.8846 -19.8714
   -19.8653 -19.8616 -19.8326 -19.8289 -19.8178 -19.8174 -12.2961  -6.1397
    -5.6825  -4.7642  -2.1270  -1.6199  -0.5746

          k = 0.1611 0.3708 0.0000 ( 33069 PWs)   bands (ev):

   -68.2387 -68.2145 -35.1754 -34.9811 -34.8305 -34.7009 -34.5910 -34.5097
   -19.9281 -19.9223 -19.9176 -19.9148 -19.9042 -19.8953 -19.8866 -19.8706
   -19.8638 -19.8601 -19.8269 -19.8261 -19.8227 -19.8201 -12.0057  -6.4836
    -5.1405  -4.9848  -2.3890  -1.2983  -0.6046

          k = 0.1611 0.4635 0.0000 ( 33097 PWs)   bands (ev):

   -68.2273 -68.2110 -35.1628 -35.0754 -34.8455 -34.7584 -34.6352 -34.5445
   -19.9280 -19.9202 -19.9173 -19.9133 -19.9072 -19.8961 -19.8874 -19.8692
   -19.8646 -19.8579 -19.8334 -19.8315 -19.8158 -19.8140 -11.8150  -6.7419
    -5.1823  -4.7890  -2.5620  -0.6834  -0.4810

          k = 0.1611 0.5562 0.0000 ( 33127 PWs)   bands (ev):

   -68.2225 -68.2103 -35.1556 -35.1177 -34.8186 -34.8106 -34.6469 -34.5575
   -19.9285 -19.9199 -19.9159 -19.9123 -19.9090 -19.8965 -19.8876 -19.8682
   -19.8656 -19.8569 -19.8358 -19.8334 -19.8130 -19.8118 -11.7502  -6.8371
    -5.2111  -4.7416  -2.6302  -0.3328  -0.2771

          k = 0.1613-0.4638 0.0000 ( 33093 PWs)   bands (ev):

   -68.2272 -68.2110 -35.1633 -35.0762 -34.8463 -34.7580 -34.6351 -34.5444
   -19.9280 -19.9201 -19.9173 -19.9133 -19.9072 -19.8961 -19.8874 -19.8693
   -19.8645 -19.8579 -19.8334 -19.8315 -19.8157 -19.8139 -11.8144  -6.7436
    -5.1826  -4.7892  -2.5642  -0.6875  -0.4803

          k = 0.1612-0.3711 0.0000 ( 33075 PWs)   bands (ev):

   -68.2386 -68.2144 -35.1756 -34.9824 -34.8314 -34.7012 -34.5910 -34.5097
   -19.9281 -19.9223 -19.9176 -19.9148 -19.9042 -19.8955 -19.8866 -19.8707
   -19.8637 -19.8601 -19.8270 -19.8262 -19.8226 -19.8200 -12.0044  -6.4859
    -5.1400  -4.9854  -2.3931  -1.3012  -0.6030

          k = 0.1612-0.2783 0.0000 ( 33084 PWs)   bands (ev):

   -68.2526 -68.2207 -35.2032 -34.8742 -34.7502 -34.6595 -34.5239 -34.4586
   -19.9319 -19.9247 -19.9156 -19.9140 -19.9023 -19.8953 -19.8846 -19.8714
   -19.8653 -19.8615 -19.8325 -19.8288 -19.8179 -19.8176 -12.2944  -6.1402
    -5.6804  -4.7669  -2.1300  -1.6200  -0.5745

          k = 0.1612-0.1856 0.0000 ( 33057 PWs)   bands (ev):

   -68.2658 -68.2277 -35.2393 -34.7896 -34.6311 -34.6048 -34.4786 -34.3986
   -19.9368 -19.9268 -19.9139 -19.9104 -19.9019 -19.8960 -19.8817 -19.8719
   -19.8674 -19.8626 -19.8418 -19.8374 -19.8095 -19.8086 -12.6132  -6.3832
    -5.7226  -4.4269  -1.9667  -1.4678  -1.1325

          k = 0.1612-0.0929 0.0000 ( 33055 PWs)   bands (ev):

   -68.2752 -68.2332 -35.2681 -34.7442 -34.5636 -34.4962 -34.4623 -34.3639
   -19.9402 -19.9287 -19.9117 -19.9082 -19.9018 -19.8973 -19.8791 -19.8726
   -19.8677 -19.8638 -19.8485 -19.8438 -19.8031 -19.8021 -12.8611  -6.8626
    -5.3544  -4.2905  -1.8154  -1.4629  -0.9755

          k = 0.1612-0.0002 0.0000 ( 33013 PWs)   bands (ev):

   -68.2786 -68.2352 -35.2789 -34.7320 -34.5201 -34.4911 -34.4196 -34.3660
   -19.9414 -19.9295 -19.9102 -19.9085 -19.9012 -19.8981 -19.8778 -19.8732
   -19.8672 -19.8646 -19.8509 -19.8461 -19.8008 -19.7996 -12.9546  -7.0355
    -5.1539  -4.3510  -1.7317  -1.2880  -0.8976

          k = 0.2417 0.1389 0.0000 ( 33094 PWs)   bands (ev):

   -68.2602 -68.2246 -35.2244 -34.8479 -34.6631 -34.6396 -34.5139 -34.3916
   -19.9357 -19.9253 -19.9162 -19.9094 -19.9038 -19.8949 -19.8830 -19.8705
   -19.8688 -19.8608 -19.8378 -19.8338 -19.8131 -19.8118 -12.4804  -6.4457
    -5.6829  -4.2709  -2.4519  -1.5294  -1.0279

          k = 0.2417 0.2316 0.0000 ( 33103 PWs)   bands (ev):

   -68.2504 -68.2196 -35.2004 -34.9228 -34.7433 -34.6729 -34.5456 -34.4327
   -19.9328 -19.9233 -19.9176 -19.9119 -19.9039 -19.8946 -19.8848 -19.8706
   -19.8670 -19.8597 -19.8310 -19.8275 -19.8193 -19.8180 -12.2556  -6.4974
    -5.4333  -4.5502  -2.6229  -1.1764  -1.0529

          k = 0.2417 0.3243 0.0000 ( 33051 PWs)   bands (ev):

   -68.2385 -68.2144 -35.1751 -34.9803 -34.8312 -34.7003 -34.5934 -34.5118
   -19.9281 -19.9223 -19.9174 -19.9149 -19.9042 -19.8954 -19.8866 -19.8706
   -19.8639 -19.8600 -19.8270 -19.8261 -19.8226 -19.8200 -12.0041  -6.4792
    -5.1500  -4.9870  -2.3861  -1.2953  -0.6101

          k = 0.2417 0.4170 0.0000 ( 33078 PWs)   bands (ev):

   -68.2271 -68.2109 -35.1483 -35.0135 -34.8959 -34.7330 -34.6488 -34.5902
   -19.9236 -19.9227 -19.9161 -19.9149 -19.9057 -19.8970 -19.8881 -19.8694
   -19.8623 -19.8611 -19.8336 -19.8331 -19.8158 -19.8139 -11.7963  -6.4455
    -5.5094  -4.7230  -1.8246  -1.3890  -0.6821

          k = 0.2417 0.5098 0.0000 ( 33086 PWs)   bands (ev):

   -68.2190 -68.2103 -35.1098 -35.0539 -34.9149 -34.7807 -34.6697 -34.6382
   -19.9248 -19.9193 -19.9156 -19.9120 -19.9080 -19.8983 -19.8891 -19.8673
   -19.8647 -19.8600 -19.8378 -19.8369 -19.8115 -19.8106 -11.6810  -6.4526
    -5.6949  -4.5638  -1.7427  -0.8862  -0.6468

          k = 0.2416 0.6025 0.0000 ( 33082 PWs)   bands (ev):

   -68.2189 -68.2103 -35.1102 -35.0545 -34.9150 -34.7809 -34.6696 -34.6382
   -19.9248 -19.9192 -19.9157 -19.9120 -19.9080 -19.8984 -19.8891 -19.8673
   -19.8647 -19.8599 -19.8379 -19.8369 -19.8115 -19.8105 -11.6806  -6.4539
    -5.6952  -4.5645  -1.7428  -0.8929  -0.6432

          k = 0.2418-0.4175 0.0000 ( 33079 PWs)   bands (ev):

   -68.2269 -68.2108 -35.1488 -35.0149 -34.8964 -34.7333 -34.6489 -34.5904
   -19.9236 -19.9227 -19.9162 -19.9148 -19.9057 -19.8971 -19.8881 -19.8694
   -19.8622 -19.8609 -19.8337 -19.8332 -19.8157 -19.8138 -11.7950  -6.4477
    -5.5113  -4.7238  -1.8279  -1.3932  -0.6804

          k = 0.2418-0.3248 0.0000 ( 33047 PWs)   bands (ev):

   -68.2383 -68.2143 -35.1752 -34.9811 -34.8324 -34.7004 -34.5944 -34.5129
   -19.9281 -19.9222 -19.9174 -19.9150 -19.9041 -19.8956 -19.8865 -19.8706
   -19.8638 -19.8600 -19.8272 -19.8263 -19.8225 -19.8199 -12.0022  -6.4798
    -5.1524  -4.9882  -2.3897  -1.2964  -0.6104

          k = 0.2418-0.2320 0.0000 ( 33108 PWs)   bands (ev):

   -68.2502 -68.2195 -35.2001 -34.9229 -34.7441 -34.6729 -34.5475 -34.4348
   -19.9329 -19.9233 -19.9175 -19.9121 -19.9038 -19.8948 -19.8848 -19.8706
   -19.8670 -19.8597 -19.8309 -19.8273 -19.8195 -19.8182 -12.2534  -6.4954
    -5.4299  -4.5587  -2.6228  -1.1760  -1.0538

          k = 0.2418-0.1393 0.0000 ( 33086 PWs)   bands (ev):

   -68.2600 -68.2245 -35.2240 -34.8473 -34.6633 -34.6389 -34.5165 -34.3940
   -19.9357 -19.9253 -19.9161 -19.9096 -19.9035 -19.8951 -19.8829 -19.8705
   -19.8688 -19.8608 -19.8377 -19.8337 -19.8132 -19.8120 -12.4786  -6.4425
    -5.6781  -4.2817  -2.4477  -1.5303  -1.0276

          k = 0.2418-0.0466 0.0000 ( 33061 PWs)   bands (ev):

   -68.2656 -68.2276 -35.2389 -34.7906 -34.6311 -34.6059 -34.4794 -34.3995
   -19.9368 -19.9268 -19.9139 -19.9105 -19.9019 -19.8960 -19.8816 -19.8720
   -19.8674 -19.8625 -19.8417 -19.8374 -19.8096 -19.8087 -12.6111  -6.3812
    -5.7213  -4.4331  -1.9697  -1.4657  -1.1316

          k = 0.2417 0.0461 0.0000 ( 33045 PWs)   bands (ev):

   -68.2657 -68.2276 -35.2391 -34.7911 -34.6312 -34.6061 -34.4787 -34.3981
   -19.9368 -19.9268 -19.9140 -19.9103 -19.9020 -19.8959 -19.8816 -19.8720
   -19.8675 -19.8625 -19.8417 -19.8374 -19.8095 -19.8087 -12.6118  -6.3825
    -5.7248  -4.4272  -1.9747  -1.4639  -1.1301

          k = 0.3223 0.1851 0.0000 ( 33129 PWs)   bands (ev):

   -68.2443 -68.2168 -35.1944 -35.0051 -34.7782 -34.6880 -34.5653 -34.4231
   -19.9335 -19.9210 -19.9193 -19.9110 -19.9064 -19.8941 -19.8853 -19.8697
   -19.8678 -19.8575 -19.8268 -19.8237 -19.8228 -19.8206 -12.1434  -6.8343
    -5.2221  -4.3329  -3.0921  -1.1884  -0.6647

          k = 0.3223 0.2779 0.0000 ( 33107 PWs)   bands (ev):

   -68.2360 -68.2135 -35.1855 -35.0612 -34.8177 -34.7128 -34.5977 -34.4641
   -19.9319 -19.9198 -19.9191 -19.9128 -19.9068 -19.8946 -19.8861 -19.8700
   -19.8659 -19.8568 -19.8280 -19.8255 -19.8212 -19.8186 -11.9834  -6.9017
    -5.0227  -4.6489  -3.0712  -0.7159  -0.5666

          k = 0.3223 0.3706 0.0000 ( 33095 PWs)   bands (ev):

   -68.2268 -68.2109 -35.1630 -35.0751 -34.8457 -34.7584 -34.6388 -34.5475
   -19.9281 -19.9201 -19.9171 -19.9135 -19.9072 -19.8963 -19.8874 -19.8692
   -19.8647 -19.8578 -19.8336 -19.8316 -19.8156 -19.8138 -11.8121  -6.7392
    -5.1970  -4.7948  -2.5657  -0.6710  -0.4726

          k = 0.3222 0.4633 0.0000 ( 33071 PWs)   bands (ev):

   -68.2186 -68.2103 -35.1104 -35.0537 -34.9161 -34.7796 -34.6723 -34.6385
   -19.9249 -19.9192 -19.9155 -19.9121 -19.9080 -19.8984 -19.8891 -19.8673
   -19.8648 -19.8598 -19.8380 -19.8369 -19.8114 -19.8105 -11.6795  -6.4520
    -5.7015  -4.5678  -1.7582  -0.8675  -0.6400

          k = 0.3222 0.5561 0.0000 ( 33037 PWs)   bands (ev):

   -68.2131 -68.2126 -35.0387 -35.0366 -35.0017 -34.7807 -34.6845 -34.6820
   -19.9243 -19.9166 -19.9165 -19.9096 -19.9094 -19.8997 -19.8900 -19.8656
   -19.8653 -19.8612 -19.8395 -19.8392 -19.8097 -19.8094 -11.6290  -6.1118
    -6.1106  -4.4610  -1.0919  -0.9611  -0.9496

          k = 0.3222 0.6488 0.0000 ( 33075 PWs)   bands (ev):

   -68.2184 -68.2103 -35.1109 -35.0541 -34.9168 -34.7797 -34.6728 -34.6390
   -19.9248 -19.9193 -19.9155 -19.9121 -19.9079 -19.8986 -19.8890 -19.8673
   -19.8648 -19.8597 -19.8380 -19.8370 -19.8113 -19.8104 -11.6785  -6.4525
    -5.7048  -4.5695  -1.7655  -0.8653  -0.6339

          k = 0.3224-0.3712 0.0000 ( 33081 PWs)   bands (ev):

   -68.2265 -68.2107 -35.1635 -35.0756 -34.8468 -34.7584 -34.6401 -34.5490
   -19.9281 -19.9201 -19.9171 -19.9136 -19.9071 -19.8965 -19.8873 -19.8693
   -19.8646 -19.8577 -19.8337 -19.8318 -19.8154 -19.8137 -11.8103  -6.7393
    -5.2034  -4.7956  -2.5702  -0.6687  -0.4687

          k = 0.3224-0.2785 0.0000 ( 33111 PWs)   bands (ev):

   -68.2357 -68.2133 -35.1855 -35.0615 -34.8182 -34.7129 -34.6000 -34.4665
   -19.9319 -19.9197 -19.9191 -19.9129 -19.9067 -19.8948 -19.8860 -19.8700
   -19.8658 -19.8567 -19.8282 -19.8257 -19.8210 -19.8185 -11.9811  -6.9004
    -5.0215  -4.6583  -3.0728  -0.7124  -0.5649

          k = 0.3224-0.1858 0.0000 ( 33123 PWs)   bands (ev):

   -68.2441 -68.2166 -35.1941 -35.0049 -34.7781 -34.6881 -34.5682 -34.4258
   -19.9335 -19.9210 -19.9192 -19.9112 -19.9062 -19.8943 -19.8852 -19.8696
   -19.8677 -19.8575 -19.8267 -19.8235 -19.8230 -19.8208 -12.1412  -6.8315
    -5.2192  -4.3448  -3.0899  -1.1874  -0.6625

          k = 0.3224-0.0930 0.0000 ( 33101 PWs)   bands (ev):

   -68.2500 -68.2193 -35.2001 -34.9249 -34.7454 -34.6732 -34.5471 -34.4350
   -19.9329 -19.9233 -19.9176 -19.9121 -19.9038 -19.8948 -19.8847 -19.8708
   -19.8668 -19.8596 -19.8308 -19.8273 -19.8196 -19.8183 -12.2513  -6.4987
    -5.4285  -4.5607  -2.6303  -1.1754  -1.0510

          k = 0.3223-0.0003 0.0000 ( 33062 PWs)   bands (ev):

   -68.2522 -68.2204 -35.2028 -34.8769 -34.7515 -34.6601 -34.5247 -34.4603
   -19.9318 -19.9247 -19.9156 -19.9141 -19.9023 -19.8954 -19.8844 -19.8716
   -19.8653 -19.8614 -19.8324 -19.8287 -19.8181 -19.8177 -12.2904  -6.1425
    -5.6768  -4.7769  -2.1350  -1.6224  -0.5774

          k = 0.3223 0.0924 0.0000 ( 33098 PWs)   bands (ev):

   -68.2501 -68.2195 -35.2004 -34.9256 -34.7454 -34.6734 -34.5451 -34.4329
   -19.9328 -19.9233 -19.9177 -19.9119 -19.9039 -19.8947 -19.8847 -19.8708
   -19.8668 -19.8596 -19.8309 -19.8273 -19.8195 -19.8181 -12.2526  -6.5017
    -5.4313  -4.5523  -2.6336  -1.1752  -1.0496

          k = 0.4029 0.2314 0.0000 ( 33128 PWs)   bands (ev):

   -68.2316 -68.2121 -35.1998 -35.1239 -34.8356 -34.7136 -34.6018 -34.4469
   -19.9336 -19.9204 -19.9177 -19.9123 -19.9089 -19.8944 -19.8857 -19.8702
   -19.8654 -19.8548 -19.8298 -19.8264 -19.8184 -19.8163 -11.9314  -7.1579
    -5.0064  -4.4110  -3.4927  -0.4063  -0.1512

          k = 0.4029 0.3242 0.0000 ( 33137 PWs)   bands (ev):

   -68.2266 -68.2108 -35.1961 -35.1414 -34.8361 -34.7415 -34.6243 -34.4825
   -19.9323 -19.9201 -19.9169 -19.9127 -19.9091 -19.8951 -19.8862 -19.8698
   -19.8649 -19.8549 -19.8328 -19.8294 -19.8154 -19.8137 -11.8454  -7.1200
    -4.9230  -4.7132  -3.2854  -0.1288  -0.0588

          k = 0.4028 0.4169 0.0000 ( 33106 PWs)   bands (ev):

   -68.2217 -68.2102 -35.1573 -35.1178 -34.8167 -34.8131 -34.6504 -34.5608
   -19.9286 -19.9199 -19.9157 -19.9124 -19.9090 -19.8967 -19.8875 -19.8684
   -19.8654 -19.8568 -19.8361 -19.8336 -19.8127 -19.8116 -11.7461  -6.8375
    -5.2271  -4.7499  -2.6391  -0.3206  -0.2603

          k = 0.4028 0.5096 0.0000 ( 33082 PWs)   bands (ev):

   -68.2183 -68.2103 -35.1119 -35.0561 -34.9157 -34.7800 -34.6710 -34.6395
   -19.9249 -19.9192 -19.9156 -19.9120 -19.9080 -19.8985 -19.8890 -19.8675
   -19.8646 -19.8597 -19.8380 -19.8370 -19.8113 -19.8104 -11.6777  -6.4579
    -5.7017  -4.5710  -1.7591  -0.8890  -0.6277

          k = 0.4028 0.6023 0.0000 ( 33090 PWs)   bands (ev):

   -68.2182 -68.2103 -35.1120 -35.0559 -34.9164 -34.7799 -34.6716 -34.6399
   -19.9249 -19.9194 -19.9156 -19.9121 -19.9079 -19.8986 -19.8890 -19.8675
   -19.8646 -19.8596 -19.8381 -19.8371 -19.8112 -19.8103 -11.6772  -6.4571
    -5.7047  -4.5719  -1.7663  -0.8802  -0.6251

          k = 0.4028 0.6951 0.0000 ( 33112 PWs)   bands (ev):

   -68.2214 -68.2101 -35.1577 -35.1178 -34.8163 -34.8144 -34.6517 -34.5626
   -19.9286 -19.9199 -19.9157 -19.9126 -19.9088 -19.8969 -19.8874 -19.8684
   -19.8653 -19.8567 -19.8362 -19.8338 -19.8126 -19.8115 -11.7446  -6.8369
    -5.2337  -4.7516  -2.6436  -0.3140  -0.2538

          k = 0.4030-0.3249 0.0000 ( 33141 PWs)   bands (ev):

   -68.2262 -68.2106 -35.1965 -35.1414 -34.8359 -34.7422 -34.6269 -34.4851
   -19.9323 -19.9201 -19.9169 -19.9129 -19.9090 -19.8953 -19.8860 -19.8698
   -19.8648 -19.8548 -19.8330 -19.8296 -19.8152 -19.8135 -11.8432  -7.1188
    -4.9241  -4.7228  -3.2874  -0.1227  -0.0528

          k = 0.4030-0.2322 0.0000 ( 33114 PWs)   bands (ev):

   -68.2313 -68.2118 -35.1999 -35.1239 -34.8353 -34.7139 -34.6049 -34.4498
   -19.9336 -19.9203 -19.9177 -19.9125 -19.9087 -19.8946 -19.8856 -19.8701
   -19.8653 -19.8548 -19.8300 -19.8266 -19.8183 -19.8161 -11.9291  -7.1560
    -5.0061  -4.4238  -3.4914  -0.4016  -0.1460

          k = 0.4029-0.1395 0.0000 ( 33100 PWs)   bands (ev):

   -68.2355 -68.2132 -35.1861 -35.0630 -34.8195 -34.7124 -34.5994 -34.4664
   -19.9319 -19.9197 -19.9191 -19.9130 -19.9067 -19.8949 -19.8859 -19.8702
   -19.8656 -19.8567 -19.8282 -19.8258 -19.8210 -19.8184 -11.9795  -6.9039
    -5.0226  -4.6563  -3.0805  -0.7076  -0.5693

          k = 0.4029-0.0467 0.0000 ( 33061 PWs)   bands (ev):

   -68.2379 -68.2141 -35.1758 -34.9849 -34.8335 -34.7008 -34.5937 -34.5133
   -19.9281 -19.9223 -19.9175 -19.9151 -19.9041 -19.8957 -19.8864 -19.8708
   -19.8636 -19.8599 -19.8273 -19.8265 -19.8224 -19.8198 -11.9987  -6.4876
    -5.1477  -4.9951  -2.3995  -1.3037  -0.6018

          k = 0.4029 0.0460 0.0000 ( 33055 PWs)   bands (ev):

   -68.2380 -68.2141 -35.1759 -34.9854 -34.8332 -34.7010 -34.5927 -34.5122
   -19.9281 -19.9223 -19.9176 -19.9150 -19.9042 -19.8956 -19.8865 -19.8708
   -19.8636 -19.8599 -19.8272 -19.8264 -19.8224 -19.8198 -11.9994  -6.4893
    -5.1447  -4.9945  -2.4000  -1.3056  -0.5998

          k = 0.4029 0.1387 0.0000 ( 33098 PWs)   bands (ev):

   -68.2357 -68.2134 -35.1863 -35.0633 -34.8198 -34.7121 -34.5969 -34.4639
   -19.9319 -19.9198 -19.9191 -19.9128 -19.9068 -19.8947 -19.8860 -19.8702
   -19.8655 -19.8568 -19.8281 -19.8256 -19.8211 -19.8186 -11.9813  -6.9063
    -5.0237  -4.6463  -3.0819  -0.7090  -0.5731

          k =-0.4835-0.2777 0.0000 ( 33126 PWs)   bands (ev):

   -68.2265 -68.2108 -35.2144 -35.1639 -34.8439 -34.7255 -34.6149 -34.4556
   -19.9340 -19.9203 -19.9171 -19.9128 -19.9096 -19.8947 -19.8856 -19.8703
   -19.8644 -19.8538 -19.8324 -19.8283 -19.8152 -19.8137 -11.8621  -7.2690
    -4.9769  -4.4446  -3.6263   0.0846   0.1107

          k =-0.4835-0.1850 0.0000 ( 33152 PWs)   bands (ev):

   -68.2265 -68.2108 -35.1969 -35.1419 -34.8369 -34.7410 -34.6241 -34.4824
   -19.9323 -19.9202 -19.9169 -19.9128 -19.9091 -19.8951 -19.8862 -19.8699
   -19.8648 -19.8548 -19.8329 -19.8294 -19.8153 -19.8137 -11.8446  -7.1217
    -4.9265  -4.7087  -3.2896  -0.1295  -0.0597

          k =-0.4835-0.0923 0.0000 ( 33076 PWs)   bands (ev):

   -68.2264 -68.2107 -35.1648 -35.0779 -34.8476 -34.7573 -34.6381 -34.5474
   -19.9281 -19.9201 -19.9172 -19.9135 -19.9072 -19.8963 -19.8873 -19.8695
   -19.8643 -19.8577 -19.8337 -19.8318 -19.8154 -19.8137 -11.8094  -6.7463
    -5.1982  -4.7954  -2.5735  -0.6850  -0.4680

          k =-0.4835 0.0005 0.0000 ( 33068 PWs)   bands (ev):

   -68.2264 -68.2107 -35.1503 -35.0192 -34.8961 -34.7336 -34.6486 -34.5916
   -19.9237 -19.9226 -19.9163 -19.9149 -19.9057 -19.8972 -19.8880 -19.8696
   -19.8620 -19.8608 -19.8338 -19.8333 -19.8155 -19.8137 -11.7913  -6.4561
    -5.5145  -4.7284  -1.8361  -1.4028  -0.6726

          k =-0.4835 0.0932 0.0000 ( 33079 PWs)   bands (ev):

   -68.2263 -68.2106 -35.1648 -35.0776 -34.8479 -34.7576 -34.6395 -34.5490
   -19.9281 -19.9201 -19.9172 -19.9136 -19.9071 -19.8965 -19.8873 -19.8695
   -19.8643 -19.8576 -19.8338 -19.8319 -19.8153 -19.8136 -11.8083  -6.7448
    -5.2042  -4.7961  -2.5759  -0.6787  -0.4648

          k =-0.4835 0.1859 0.0000 ( 33148 PWs)   bands (ev):

   -68.2262 -68.2106 -35.1970 -35.1419 -34.8363 -34.7418 -34.6267 -34.4850
   -19.9323 -19.9201 -19.9169 -19.9130 -19.9090 -19.8953 -19.8860 -19.8699
   -19.8647 -19.8548 -19.8330 -19.8297 -19.8151 -19.8135 -11.8426  -7.1201
    -4.9272  -4.7191  -3.2904  -0.1234  -0.0533

          k =-0.4833-0.8341 0.0000 ( 33114 PWs)   bands (ev):

   -68.2261 -68.2106 -35.2147 -35.1639 -34.8433 -34.7259 -34.6182 -34.4586
   -19.9340 -19.9202 -19.9170 -19.9130 -19.9094 -19.8949 -19.8855 -19.8703
   -19.8644 -19.8537 -19.8326 -19.8286 -19.8151 -19.8135 -11.8598  -7.2673
    -4.9778  -4.4578  -3.6252   0.0919   0.1174

     highest occupied level (ev):     0.1174

!    total energy              =   -1373.25079881 Ry
     estimated scf accuracy    <          1.8E-13 Ry

     The total energy is the sum of the following terms:
     one-electron contribution =  -10891.88706997 Ry
     hartree contribution      =    5474.27934892 Ry
     xc contribution           =    -138.78179748 Ry
     ewald contribution        =    4183.13871972 Ry

     convergence has been achieved in  30 iterations

     negative rho (up, down):  1.432E-05 0.000E+00

     Forces acting on atoms (cartesian axes, Ry/au):

     atom    1 type  2   force =     0.00031078    0.00028326   -0.00017350
     atom    2 type  1   force =    -0.00026851   -0.00046423    0.00154508
     atom    3 type  1   force =    -0.00004227    0.00018097   -0.00137158

     Total force =     0.002143     Total SCF correction =     0.000006


     Computing stress (Cartesian axis) and pressure


     negative rho (up, down):  1.432E-05 0.000E+00
          total   stress  (Ry/bohr**3)                   (kbar)     P=        5.60
   0.00006699  -0.00000261   0.00000033            9.85       -0.38        0.05
  -0.00000261   0.00005196   0.00000093           -0.38        7.64        0.14
   0.00000033   0.00000093  -0.00000467            0.05        0.14       -0.69


     Writing output data file /scratch/as3359/Ta2C-CT-ecutoff/Ta2C.save/
 
     init_run     :     29.14s CPU     16.09s WALL (       1 calls)
     electrons    :   1531.39s CPU    786.09s WALL (       1 calls)
     forces       :      9.86s CPU      5.14s WALL (       1 calls)
     stress       :     37.43s CPU     19.40s WALL (       1 calls)

     Called by init_run:
     wfcinit      :     21.13s CPU     10.79s WALL (       1 calls)
     potinit      :      2.00s CPU      1.02s WALL (       1 calls)
     hinit0       :      4.46s CPU      3.22s WALL (       1 calls)

     Called by electrons:
     c_bands      :   1220.35s CPU    617.37s WALL (      30 calls)
     sum_band     :    258.51s CPU    136.42s WALL (      30 calls)
     v_of_rho     :      7.80s CPU      4.34s WALL (      31 calls)
     newd         :     42.44s CPU     26.85s WALL (      31 calls)
     mix_rho      :      2.84s CPU      1.55s WALL (      30 calls)

     Called by c_bands:
     init_us_2    :     35.38s CPU     17.72s WALL (    4662 calls)
     cegterg      :   1107.57s CPU    560.66s WALL (    2220 calls)

     Called by *egterg:
     cdiaghg      :     16.27s CPU      8.34s WALL (   11618 calls)
     h_psi        :    889.18s CPU    450.93s WALL (   11692 calls)
     s_psi        :     50.78s CPU     25.44s WALL (   11692 calls)
     g_psi        :      5.28s CPU      2.65s WALL (    9398 calls)

     Called by h_psi:
     h_psi:calbec :     40.19s CPU     20.18s WALL (   11692 calls)
     vloc_psi     :    787.07s CPU    399.67s WALL (   11692 calls)
     add_vuspsi   :     55.46s CPU     27.78s WALL (   11692 calls)

     General routines
     calbec       :     54.47s CPU     27.34s WALL (   14282 calls)
     fft          :      9.56s CPU      4.99s WALL (     426 calls)
     ffts         :      0.41s CPU      0.21s WALL (      61 calls)
     fftw         :    817.01s CPU    415.44s WALL (  375242 calls)
     interpolate  :      0.68s CPU      0.35s WALL (      31 calls)
 
     Parallel routines
 
     PWSCF        :  26m51.01s CPU  13m50.01s WALL

 
   This run was terminated on:  22: 7: 5   6Apr2022            

=------------------------------------------------------------------------------=
   JOB DONE.
=------------------------------------------------------------------------------=
