
     Program PWSCF v.6.8 starts on  6Apr2022 at 22: 7: 6 

     This program is part of the open-source Quantum ESPRESSO suite
     for quantum simulation of materials; please cite
         "P. Giannozzi et al., J. Phys.:Condens. Matter 21 395502 (2009);
         "P. Giannozzi et al., J. Phys.:Condens. Matter 29 465901 (2017);
         "P. Giannozzi et al., J. Chem. Phys. 152 154105 (2020);
          URL http://www.quantum-espresso.org", 
     in publications or presentations arising from this work. More details at
     http://www.quantum-espresso.org/quote

     Parallel version (MPI & OpenMP), running on       4 processor cores
     Number of MPI processes:                 2
     Threads/MPI process:                     2

     MPI processes distributed on     1 nodes
     R & G space division:  proc/nbgrp/npool/nimage =       2
     124991 MiB available memory on the printing compute node when the environment starts
 
     Reading input from Ta2C.scf.120.in

     Current dimensions of program PWSCF are:
     Max number of different atomic species (ntypx) = 10
     Max number of k-points (npk) =  40000
     Max angular momentum in pseudopotentials (lmaxx) =  4
     file Ta.pbesol-spfn-rrkjus_psl.1.0.0.UPF: wavefunction(s)  5S 5P renormalized

     Subspace diagonalization in iterative solution of the eigenvalue problem:
     a serial algorithm will be used

 
     Parallelization info
     --------------------
     sticks:   dense  smooth     PW     G-vecs:    dense   smooth      PW
     Min         684     544    162               197288   140886   23286
     Max         685     545    165               197321   140889   23289
     Sum        1369    1089    327               394609   281775   46575
 
     Using Slab Decomposition
 


     bravais-lattice index     =            0
     lattice parameter (alat)  =       5.5500  a.u.
     unit-cell volume          =    1588.7844 (a.u.)^3
     number of atoms/cell      =            3
     number of atomic types    =            2
     number of electrons       =        58.00
     number of Kohn-Sham states=           29
     kinetic-energy cutoff     =     120.0000  Ry
     charge density cutoff     =     600.0000  Ry
     scf convergence threshold =      1.0E-12
     mixing beta               =       0.7000
     number of iterations used =            8  plain     mixing
     Exchange-correlation= PBESOL
                           (   1   4  10   8   0   0   0)

     celldm(1)=   5.550000  celldm(2)=   0.000000  celldm(3)=   0.000000
     celldm(4)=   0.000000  celldm(5)=   0.000000  celldm(6)=   0.000000

     crystal axes: (cart. coord. in units of alat)
               a(1) = (   1.034114   0.000203   0.000000 )  
               a(2) = (  -0.516207   0.898604   0.000000 )  
               a(3) = (   0.000000   0.000000  10.000000 )  

     reciprocal axes: (cart. coord. in units 2 pi/alat)
               b(1) = (  0.966902  0.555441  0.000000 )  
               b(2) = ( -0.000219  1.112711  0.000000 )  
               b(3) = (  0.000000  0.000000  0.100000 )  


     PseudoPot. # 1 for Ta read from file:
     /shared/home/as3359/pseudo/Ta.pbesol-spfn-rrkjus_psl.1.0.0.UPF
     MD5 check sum: f099565ffaca9b150a52e9412a28e20b
     Pseudo is Ultrasoft + core correction, Zval = 27.0
     Generated using &quot;atomic&quot; code by A. Dal Corso  v.6.3
     Using radial grid of 1273 points,  8 beta functions with: 
                l(1) =   0
                l(2) =   0
                l(3) =   1
                l(4) =   1
                l(5) =   2
                l(6) =   2
                l(7) =   3
                l(8) =   3
     Q(r) pseudized with 0 coefficients 


     PseudoPot. # 2 for C  read from file:
     /shared/home/as3359/pseudo/C.pbesol-n-rrkjus_psl.1.0.0.UPF
     MD5 check sum: 05995be603a8a7c99da3dc4413f31573
     Pseudo is Ultrasoft + core correction, Zval =  4.0
     Generated using &quot;atomic&quot; code by A. Dal Corso  v.6.3MaX
     Using radial grid of 1073 points,  4 beta functions with: 
                l(1) =   0
                l(2) =   0
                l(3) =   1
                l(4) =   1
     Q(r) pseudized with 0 coefficients 


     atomic species   valence    mass     pseudopotential
        Ta            27.00   180.94788     Ta( 1.00)
        C              4.00    12.01070     C ( 1.00)

     No symmetry found



   Cartesian axes

     site n.     atom                  positions (alat units)
         1           C   tau(   1) = (   0.0000000   0.0000000   0.0000000  )
         2           Ta  tau(   2) = (   0.5174615   0.3004190  -0.4127129  )
         3           Ta  tau(   3) = (   0.0007158   0.5986355   0.4125272  )

     number of k points=    74
                       cart. coord. in units 2pi/alat
        k(    1) = (   0.0000000   0.0000000   0.0000000), wk =   0.0138889
        k(    2) = (  -0.0000182   0.0927259   0.0000000), wk =   0.0277778
        k(    3) = (  -0.0000364   0.1854519   0.0000000), wk =   0.0277778
        k(    4) = (  -0.0000547   0.2781778   0.0000000), wk =   0.0277778
        k(    5) = (  -0.0000729   0.3709037   0.0000000), wk =   0.0277778
        k(    6) = (  -0.0000911   0.4636296   0.0000000), wk =   0.0277778
        k(    7) = (   0.0001093  -0.5563556   0.0000000), wk =   0.0138889
        k(    8) = (   0.0805752   0.0462867   0.0000000), wk =   0.0277778
        k(    9) = (   0.0805570   0.1390127   0.0000000), wk =   0.0277778
        k(   10) = (   0.0805388   0.2317386   0.0000000), wk =   0.0277778
        k(   11) = (   0.0805205   0.3244645   0.0000000), wk =   0.0277778
        k(   12) = (   0.0805023   0.4171904   0.0000000), wk =   0.0277778
        k(   13) = (   0.0804841   0.5099164   0.0000000), wk =   0.0277778
        k(   14) = (   0.0806845  -0.5100688   0.0000000), wk =   0.0277778
        k(   15) = (   0.0806663  -0.4173429   0.0000000), wk =   0.0277778
        k(   16) = (   0.0806481  -0.3246170   0.0000000), wk =   0.0277778
        k(   17) = (   0.0806298  -0.2318910   0.0000000), wk =   0.0277778
        k(   18) = (   0.0806116  -0.1391651   0.0000000), wk =   0.0277778
        k(   19) = (   0.0805934  -0.0464392   0.0000000), wk =   0.0277778
        k(   20) = (   0.1611504   0.0925735   0.0000000), wk =   0.0277778
        k(   21) = (   0.1611322   0.1852994   0.0000000), wk =   0.0277778
        k(   22) = (   0.1611139   0.2780253   0.0000000), wk =   0.0277778
        k(   23) = (   0.1610957   0.3707513   0.0000000), wk =   0.0277778
        k(   24) = (   0.1610775   0.4634772   0.0000000), wk =   0.0277778
        k(   25) = (   0.1610593   0.5562031   0.0000000), wk =   0.0277778
        k(   26) = (   0.1612597  -0.4637821   0.0000000), wk =   0.0277778
        k(   27) = (   0.1612415  -0.3710561   0.0000000), wk =   0.0277778
        k(   28) = (   0.1612232  -0.2783302   0.0000000), wk =   0.0277778
        k(   29) = (   0.1612050  -0.1856043   0.0000000), wk =   0.0277778
        k(   30) = (   0.1611868  -0.0928784   0.0000000), wk =   0.0277778
        k(   31) = (   0.1611686  -0.0001524   0.0000000), wk =   0.0277778
        k(   32) = (   0.2417256   0.1388602   0.0000000), wk =   0.0277778
        k(   33) = (   0.2417073   0.2315862   0.0000000), wk =   0.0277778
        k(   34) = (   0.2416891   0.3243121   0.0000000), wk =   0.0277778
        k(   35) = (   0.2416709   0.4170380   0.0000000), wk =   0.0277778
        k(   36) = (   0.2416527   0.5097639   0.0000000), wk =   0.0277778
        k(   37) = (   0.2416345   0.6024899   0.0000000), wk =   0.0277778
        k(   38) = (   0.2418349  -0.4174953   0.0000000), wk =   0.0277778
        k(   39) = (   0.2418166  -0.3247694   0.0000000), wk =   0.0277778
        k(   40) = (   0.2417984  -0.2320435   0.0000000), wk =   0.0277778
        k(   41) = (   0.2417802  -0.1393175   0.0000000), wk =   0.0277778
        k(   42) = (   0.2417620  -0.0465916   0.0000000), wk =   0.0277778
        k(   43) = (   0.2417438   0.0461343   0.0000000), wk =   0.0277778
        k(   44) = (   0.3223007   0.1851470   0.0000000), wk =   0.0277778
        k(   45) = (   0.3222825   0.2778729   0.0000000), wk =   0.0277778
        k(   46) = (   0.3222643   0.3705988   0.0000000), wk =   0.0277778
        k(   47) = (   0.3222461   0.4633248   0.0000000), wk =   0.0277778
        k(   48) = (   0.3222279   0.5560507   0.0000000), wk =   0.0277778
        k(   49) = (   0.3222097   0.6487766   0.0000000), wk =   0.0277778
        k(   50) = (   0.3224100  -0.3712086   0.0000000), wk =   0.0277778
        k(   51) = (   0.3223918  -0.2784827   0.0000000), wk =   0.0277778
        k(   52) = (   0.3223736  -0.1857567   0.0000000), wk =   0.0277778
        k(   53) = (   0.3223554  -0.0930308   0.0000000), wk =   0.0277778
        k(   54) = (   0.3223372  -0.0003049   0.0000000), wk =   0.0277778
        k(   55) = (   0.3223190   0.0924210   0.0000000), wk =   0.0277778
        k(   56) = (   0.4028759   0.2314337   0.0000000), wk =   0.0277778
        k(   57) = (   0.4028577   0.3241596   0.0000000), wk =   0.0277778
        k(   58) = (   0.4028395   0.4168856   0.0000000), wk =   0.0277778
        k(   59) = (   0.4028213   0.5096115   0.0000000), wk =   0.0277778
        k(   60) = (   0.4028031   0.6023374   0.0000000), wk =   0.0277778
        k(   61) = (   0.4027848   0.6950633   0.0000000), wk =   0.0277778
        k(   62) = (   0.4029852  -0.3249218   0.0000000), wk =   0.0277778
        k(   63) = (   0.4029670  -0.2321959   0.0000000), wk =   0.0277778
        k(   64) = (   0.4029488  -0.1394700   0.0000000), wk =   0.0277778
        k(   65) = (   0.4029306  -0.0467441   0.0000000), wk =   0.0277778
        k(   66) = (   0.4029124   0.0459819   0.0000000), wk =   0.0277778
        k(   67) = (   0.4028941   0.1387078   0.0000000), wk =   0.0277778
        k(   68) = (  -0.4834511  -0.2777205   0.0000000), wk =   0.0138889
        k(   69) = (  -0.4834693  -0.1849945   0.0000000), wk =   0.0277778
        k(   70) = (  -0.4834875  -0.0922686   0.0000000), wk =   0.0277778
        k(   71) = (  -0.4835058   0.0004573   0.0000000), wk =   0.0277778
        k(   72) = (  -0.4835240   0.0931832   0.0000000), wk =   0.0277778
        k(   73) = (  -0.4835422   0.1859092   0.0000000), wk =   0.0277778
        k(   74) = (  -0.4833418  -0.8340760   0.0000000), wk =   0.0138889

     Dense  grid:   394609 G-vectors     FFT dimensions: (  45,  45, 450)

     Smooth grid:   281775 G-vectors     FFT dimensions: (  45,  45, 400)

     Estimated max dynamical RAM per process >       2.43 GB

     Estimated total dynamical RAM >       4.85 GB

     Initial potential from superposition of free atoms

     starting charge   57.99842, renormalised to   58.00000

     negative rho (up, down):  9.930E-05 0.000E+00
     Starting wfcs are   38 randomized atomic wfcs

     total cpu time spent up to now is       20.0 secs

     Self-consistent Calculation

     iteration #  1     ecut=   120.00 Ry     beta= 0.70
     Davidson diagonalization with overlap
     ethr =  1.00E-02,  avg # of iterations =  2.1

     negative rho (up, down):  9.274E-06 0.000E+00

     total cpu time spent up to now is       50.4 secs

     total energy              =   -1372.42490821 Ry
     estimated scf accuracy    <       1.29579688 Ry

     iteration #  2     ecut=   120.00 Ry     beta= 0.70
     Davidson diagonalization with overlap
     ethr =  2.23E-03,  avg # of iterations =  7.1

     total cpu time spent up to now is       94.4 secs

     total energy              =   -1371.83625745 Ry
     estimated scf accuracy    <       8.74034839 Ry

     iteration #  3     ecut=   120.00 Ry     beta= 0.70
     Davidson diagonalization with overlap
     ethr =  2.23E-03,  avg # of iterations =  6.2

     total cpu time spent up to now is      135.8 secs

     total energy              =   -1373.21359824 Ry
     estimated scf accuracy    <       0.16372412 Ry

     iteration #  4     ecut=   120.00 Ry     beta= 0.70
     Davidson diagonalization with overlap
     ethr =  2.82E-04,  avg # of iterations =  7.0

     total cpu time spent up to now is      174.5 secs

     total energy              =   -1373.23024439 Ry
     estimated scf accuracy    <       0.44299215 Ry

     iteration #  5     ecut=   120.00 Ry     beta= 0.70
     Davidson diagonalization with overlap
     ethr =  2.82E-04,  avg # of iterations =  5.9

     total cpu time spent up to now is      210.1 secs

     total energy              =   -1373.24778136 Ry
     estimated scf accuracy    <       0.03182901 Ry

     iteration #  6     ecut=   120.00 Ry     beta= 0.70
     Davidson diagonalization with overlap
     ethr =  5.49E-05,  avg # of iterations =  3.7

     total cpu time spent up to now is      242.4 secs

     total energy              =   -1373.24922939 Ry
     estimated scf accuracy    <       0.00931943 Ry

     iteration #  7     ecut=   120.00 Ry     beta= 0.70
     Davidson diagonalization with overlap
     ethr =  1.61E-05,  avg # of iterations =  5.7

     total cpu time spent up to now is      277.8 secs

     total energy              =   -1373.25054834 Ry
     estimated scf accuracy    <       0.00101488 Ry

     iteration #  8     ecut=   120.00 Ry     beta= 0.70
     Davidson diagonalization with overlap
     c_bands:  1 eigenvalues not converged
     c_bands:  1 eigenvalues not converged
     ethr =  1.75E-06,  avg # of iterations =  7.0

     negative rho (up, down):  1.849E-05 0.000E+00

     total cpu time spent up to now is      319.7 secs

     total energy              =   -1373.25077853 Ry
     estimated scf accuracy    <       0.00111125 Ry

     iteration #  9     ecut=   120.00 Ry     beta= 0.70
     Davidson diagonalization with overlap
     ethr =  1.75E-06,  avg # of iterations =  2.9

     negative rho (up, down):  1.221E-04 0.000E+00

     total cpu time spent up to now is      350.6 secs

     total energy              =   -1373.25082398 Ry
     estimated scf accuracy    <       0.00025123 Ry

     iteration # 10     ecut=   120.00 Ry     beta= 0.70
     Davidson diagonalization with overlap
     ethr =  4.33E-07,  avg # of iterations =  6.3

     negative rho (up, down):  1.313E-04 0.000E+00

     total cpu time spent up to now is      385.7 secs

     total energy              =   -1373.25085620 Ry
     estimated scf accuracy    <       0.00007441 Ry

     iteration # 11     ecut=   120.00 Ry     beta= 0.70
     Davidson diagonalization with overlap
     ethr =  1.28E-07,  avg # of iterations =  2.8

     negative rho (up, down):  1.088E-04 0.000E+00

     total cpu time spent up to now is      416.3 secs

     total energy              =   -1373.25085123 Ry
     estimated scf accuracy    <       0.00003655 Ry

     iteration # 12     ecut=   120.00 Ry     beta= 0.70
     Davidson diagonalization with overlap
     ethr =  6.30E-08,  avg # of iterations =  6.4

     negative rho (up, down):  1.063E-04 0.000E+00

     total cpu time spent up to now is      453.7 secs

     total energy              =   -1373.25085872 Ry
     estimated scf accuracy    <       0.00003139 Ry

     iteration # 13     ecut=   120.00 Ry     beta= 0.70
     Davidson diagonalization with overlap
     ethr =  5.41E-08,  avg # of iterations =  2.0

     negative rho (up, down):  1.056E-04 0.000E+00

     total cpu time spent up to now is      483.4 secs

     total energy              =   -1373.25085853 Ry
     estimated scf accuracy    <       0.00001707 Ry

     iteration # 14     ecut=   120.00 Ry     beta= 0.70
     Davidson diagonalization with overlap
     ethr =  2.94E-08,  avg # of iterations =  3.7

     negative rho (up, down):  1.046E-04 0.000E+00

     total cpu time spent up to now is      514.7 secs

     total energy              =   -1373.25085916 Ry
     estimated scf accuracy    <       0.00000208 Ry

     iteration # 15     ecut=   120.00 Ry     beta= 0.70
     Davidson diagonalization with overlap
     ethr =  3.59E-09,  avg # of iterations =  6.9

     negative rho (up, down):  1.039E-04 0.000E+00

     total cpu time spent up to now is      552.7 secs

     total energy              =   -1373.25085978 Ry
     estimated scf accuracy    <       0.00000100 Ry

     iteration # 16     ecut=   120.00 Ry     beta= 0.70
     Davidson diagonalization with overlap
     ethr =  1.72E-09,  avg # of iterations =  1.3

     negative rho (up, down):  1.043E-04 0.000E+00

     total cpu time spent up to now is      581.0 secs

     total energy              =   -1373.25085971 Ry
     estimated scf accuracy    <       0.00000079 Ry

     iteration # 17     ecut=   120.00 Ry     beta= 0.70
     Davidson diagonalization with overlap
     ethr =  1.36E-09,  avg # of iterations =  3.2

     negative rho (up, down):  1.043E-04 0.000E+00

     total cpu time spent up to now is      612.0 secs

     total energy              =   -1373.25085973 Ry
     estimated scf accuracy    <       0.00000012 Ry

     iteration # 18     ecut=   120.00 Ry     beta= 0.70
     Davidson diagonalization with overlap
     ethr =  2.13E-10,  avg # of iterations =  7.4

     negative rho (up, down):  1.042E-04 0.000E+00

     total cpu time spent up to now is      651.6 secs

     total energy              =   -1373.25085977 Ry
     estimated scf accuracy    <       0.00000033 Ry

     iteration # 19     ecut=   120.00 Ry     beta= 0.70
     Davidson diagonalization with overlap
     ethr =  2.13E-10,  avg # of iterations =  1.8

     negative rho (up, down):  1.042E-04 0.000E+00

     total cpu time spent up to now is      680.6 secs

     total energy              =   -1373.25085977 Ry
     estimated scf accuracy    <       0.00000022 Ry

     iteration # 20     ecut=   120.00 Ry     beta= 0.70
     Davidson diagonalization with overlap
     ethr =  2.13E-10,  avg # of iterations =  1.0

     negative rho (up, down):  1.042E-04 0.000E+00

     total cpu time spent up to now is      708.2 secs

     total energy              =   -1373.25085978 Ry
     estimated scf accuracy    <       0.00000021 Ry

     iteration # 21     ecut=   120.00 Ry     beta= 0.70
     Davidson diagonalization with overlap
     ethr =  2.13E-10,  avg # of iterations =  1.0

     negative rho (up, down):  1.042E-04 0.000E+00

     total cpu time spent up to now is      735.8 secs

     total energy              =   -1373.25085978 Ry
     estimated scf accuracy    <       0.00000021 Ry

     iteration # 22     ecut=   120.00 Ry     beta= 0.70
     Davidson diagonalization with overlap
     ethr =  2.13E-10,  avg # of iterations =  1.0

     negative rho (up, down):  1.043E-04 0.000E+00

     total cpu time spent up to now is      763.4 secs

     total energy              =   -1373.25085976 Ry
     estimated scf accuracy    <       0.00000023 Ry

     iteration # 23     ecut=   120.00 Ry     beta= 0.70
     Davidson diagonalization with overlap
     ethr =  2.13E-10,  avg # of iterations =  2.9

     negative rho (up, down):  1.042E-04 0.000E+00

     total cpu time spent up to now is      793.9 secs

     total energy              =   -1373.25085976 Ry
     estimated scf accuracy    <       0.00000006 Ry

     iteration # 24     ecut=   120.00 Ry     beta= 0.70
     Davidson diagonalization with overlap
     ethr =  1.07E-10,  avg # of iterations =  6.3

     negative rho (up, down):  1.042E-04 0.000E+00

     total cpu time spent up to now is      830.5 secs

     total energy              =   -1373.25085977 Ry
     estimated scf accuracy    <       0.00000009 Ry

     iteration # 25     ecut=   120.00 Ry     beta= 0.70
     Davidson diagonalization with overlap
     ethr =  1.07E-10,  avg # of iterations =  1.1

     negative rho (up, down):  1.042E-04 0.000E+00

     total cpu time spent up to now is      858.2 secs

     total energy              =   -1373.25085977 Ry
     estimated scf accuracy    <       0.00000007 Ry

     iteration # 26     ecut=   120.00 Ry     beta= 0.70
     Davidson diagonalization with overlap
     ethr =  1.07E-10,  avg # of iterations =  1.0

     negative rho (up, down):  1.042E-04 0.000E+00

     total cpu time spent up to now is      885.8 secs

     total energy              =   -1373.25085977 Ry
     estimated scf accuracy    <       0.00000007 Ry

     iteration # 27     ecut=   120.00 Ry     beta= 0.70
     Davidson diagonalization with overlap
     ethr =  1.07E-10,  avg # of iterations =  2.1

     negative rho (up, down):  1.042E-04 0.000E+00

     total cpu time spent up to now is      915.1 secs

     total energy              =   -1373.25085977 Ry
     estimated scf accuracy    <       0.00000002 Ry

     iteration # 28     ecut=   120.00 Ry     beta= 0.70
     Davidson diagonalization with overlap
     ethr =  4.22E-11,  avg # of iterations =  2.6

     negative rho (up, down):  1.042E-04 0.000E+00

     total cpu time spent up to now is      944.6 secs

     total energy              =   -1373.25085977 Ry
     estimated scf accuracy    <          9.5E-09 Ry

     iteration # 29     ecut=   120.00 Ry     beta= 0.70
     Davidson diagonalization with overlap
     ethr =  1.63E-11,  avg # of iterations =  2.8

     negative rho (up, down):  1.042E-04 0.000E+00

     total cpu time spent up to now is      974.3 secs

     total energy              =   -1373.25085977 Ry
     estimated scf accuracy    <       0.00000002 Ry

     iteration # 30     ecut=   120.00 Ry     beta= 0.70
     Davidson diagonalization with overlap
     ethr =  1.63E-11,  avg # of iterations =  1.4

     negative rho (up, down):  1.042E-04 0.000E+00

     total cpu time spent up to now is     1002.5 secs

     total energy              =   -1373.25085977 Ry
     estimated scf accuracy    <       0.00000001 Ry

     iteration # 31     ecut=   120.00 Ry     beta= 0.70
     Davidson diagonalization with overlap
     ethr =  1.63E-11,  avg # of iterations =  2.2

     negative rho (up, down):  1.042E-04 0.000E+00

     total cpu time spent up to now is     1031.7 secs

     total energy              =   -1373.25085977 Ry
     estimated scf accuracy    <          4.9E-09 Ry

     iteration # 32     ecut=   120.00 Ry     beta= 0.70
     Davidson diagonalization with overlap
     ethr =  8.42E-12,  avg # of iterations =  5.4

     negative rho (up, down):  1.042E-04 0.000E+00

     total cpu time spent up to now is     1065.7 secs

     total energy              =   -1373.25085977 Ry
     estimated scf accuracy    <          6.8E-10 Ry

     iteration # 33     ecut=   120.00 Ry     beta= 0.70
     Davidson diagonalization with overlap
     ethr =  1.18E-12,  avg # of iterations =  5.6

     negative rho (up, down):  1.042E-04 0.000E+00

     total cpu time spent up to now is     1099.8 secs

     total energy              =   -1373.25085977 Ry
     estimated scf accuracy    <          2.0E-09 Ry

     iteration # 34     ecut=   120.00 Ry     beta= 0.70
     Davidson diagonalization with overlap
     ethr =  1.18E-12,  avg # of iterations =  1.4

     negative rho (up, down):  1.042E-04 0.000E+00

     total cpu time spent up to now is     1128.0 secs

     total energy              =   -1373.25085977 Ry
     estimated scf accuracy    <          1.5E-09 Ry

     iteration # 35     ecut=   120.00 Ry     beta= 0.70
     Davidson diagonalization with overlap
     ethr =  1.18E-12,  avg # of iterations =  1.9

     negative rho (up, down):  1.042E-04 0.000E+00

     total cpu time spent up to now is     1156.7 secs

     total energy              =   -1373.25085977 Ry
     estimated scf accuracy    <          9.7E-10 Ry

     iteration # 36     ecut=   120.00 Ry     beta= 0.70
     Davidson diagonalization with overlap
     ethr =  1.18E-12,  avg # of iterations =  5.9

     negative rho (up, down):  1.042E-04 0.000E+00

     total cpu time spent up to now is     1191.3 secs

     total energy              =   -1373.25085977 Ry
     estimated scf accuracy    <          4.1E-11 Ry

     iteration # 37     ecut=   120.00 Ry     beta= 0.70
     Davidson diagonalization with overlap
     ethr =  1.00E-13,  avg # of iterations =  5.4

     negative rho (up, down):  1.042E-04 0.000E+00

     total cpu time spent up to now is     1225.3 secs

     total energy              =   -1373.25085977 Ry
     estimated scf accuracy    <          1.0E-10 Ry

     iteration # 38     ecut=   120.00 Ry     beta= 0.70
     Davidson diagonalization with overlap
     ethr =  1.00E-13,  avg # of iterations =  1.5

     negative rho (up, down):  1.042E-04 0.000E+00

     total cpu time spent up to now is     1253.6 secs

     total energy              =   -1373.25085977 Ry
     estimated scf accuracy    <          7.2E-11 Ry

     iteration # 39     ecut=   120.00 Ry     beta= 0.70
     Davidson diagonalization with overlap
     ethr =  1.00E-13,  avg # of iterations =  3.4

     negative rho (up, down):  1.042E-04 0.000E+00

     total cpu time spent up to now is     1284.4 secs

     total energy              =   -1373.25085977 Ry
     estimated scf accuracy    <          1.4E-11 Ry

     iteration # 40     ecut=   120.00 Ry     beta= 0.70
     Davidson diagonalization with overlap
     ethr =  1.00E-13,  avg # of iterations =  1.5

     negative rho (up, down):  1.042E-04 0.000E+00

     total cpu time spent up to now is     1312.7 secs

     total energy              =   -1373.25085977 Ry
     estimated scf accuracy    <          5.4E-12 Ry

     iteration # 41     ecut=   120.00 Ry     beta= 0.70
     Davidson diagonalization with overlap
     ethr =  1.00E-13,  avg # of iterations =  1.0

     negative rho (up, down):  1.042E-04 0.000E+00

     total cpu time spent up to now is     1340.3 secs

     total energy              =   -1373.25085977 Ry
     estimated scf accuracy    <          3.6E-12 Ry

     iteration # 42     ecut=   120.00 Ry     beta= 0.70
     Davidson diagonalization with overlap
     ethr =  1.00E-13,  avg # of iterations =  1.4

     negative rho (up, down):  1.042E-04 0.000E+00

     total cpu time spent up to now is     1368.5 secs

     End of self-consistent calculation

          k = 0.0000 0.0000 0.0000 ( 35135 PWs)   bands (ev):

   -68.2901 -68.2424 -35.3157 -34.7120 -34.4039 -34.3989 -34.3389 -34.3325
   -19.9460 -19.9323 -19.9070 -19.9065 -19.9011 -19.9007 -19.8744 -19.8738
   -19.8666 -19.8666 -19.8594 -19.8540 -19.7929 -19.7914 -13.2786  -7.6694
    -4.3942  -4.3509  -1.9295  -0.8995  -0.7267

          k =-0.0000 0.0927 0.0000 ( 35155 PWs)   bands (ev):

   -68.2863 -68.2400 -35.3030 -34.7172 -34.4509 -34.4152 -34.3828 -34.3387
   -19.9445 -19.9313 -19.9085 -19.9069 -19.9014 -19.8996 -19.8760 -19.8735
   -19.8670 -19.8659 -19.8565 -19.8514 -19.7957 -19.7943 -13.1647  -7.4494
    -4.7176  -4.3166  -1.8345  -1.0831  -0.5376

          k =-0.0000 0.1855 0.0000 ( 35145 PWs)   bands (ev):

   -68.2757 -68.2335 -35.2688 -34.7450 -34.5653 -34.4999 -34.4565 -34.3579
   -19.9405 -19.9289 -19.9122 -19.9080 -19.9024 -19.8971 -19.8796 -19.8725
   -19.8679 -19.8640 -19.8488 -19.8441 -19.8031 -19.8020 -12.8643  -6.8678
    -5.3780  -4.2538  -1.8299  -1.4640  -0.9838

          k =-0.0001 0.2782 0.0000 ( 35169 PWs)   bands (ev):

   -68.2608 -68.2251 -35.2252 -34.8487 -34.6621 -34.6416 -34.5093 -34.3870
   -19.9360 -19.9255 -19.9165 -19.9093 -19.9041 -19.8949 -19.8834 -19.8705
   -19.8689 -19.8611 -19.8382 -19.8341 -19.8130 -19.8118 -12.4844  -6.4531
    -5.6913  -4.2426  -2.4629  -1.5269  -1.0284

          k =-0.0001 0.3709 0.0000 ( 35220 PWs)   bands (ev):

   -68.2451 -68.2173 -35.1951 -35.0052 -34.7789 -34.6874 -34.5598 -34.4178
   -19.9337 -19.9213 -19.9196 -19.9109 -19.9068 -19.8940 -19.8856 -19.8697
   -19.8680 -19.8578 -19.8273 -19.8241 -19.8227 -19.8205 -12.1486  -6.8401
    -5.2235  -4.3021  -3.0997  -1.1911  -0.6684

          k =-0.0001 0.4636 0.0000 ( 35246 PWs)   bands (ev):

   -68.2327 -68.2126 -35.1992 -35.1237 -34.8376 -34.7120 -34.5956 -34.4411
   -19.9338 -19.9207 -19.9181 -19.9122 -19.9092 -19.8943 -19.8860 -19.8702
   -19.8657 -19.8551 -19.8296 -19.8262 -19.8190 -19.8168 -11.9372  -7.1610
    -5.0005  -4.3783  -3.4992  -0.4174  -0.1613

          k = 0.0001-0.5564 0.0000 ( 35256 PWs)   bands (ev):

   -68.2277 -68.2113 -35.2128 -35.1638 -34.8470 -34.7232 -34.6086 -34.4497
   -19.9341 -19.9206 -19.9176 -19.9127 -19.9098 -19.8946 -19.8859 -19.8704
   -19.8647 -19.8541 -19.8321 -19.8281 -19.8158 -19.8142 -11.8680  -7.2710
    -4.9680  -4.4112  -3.6325   0.0683   0.0977

          k = 0.0806 0.0463 0.0000 ( 35173 PWs)   bands (ev):

   -68.2862 -68.2400 -35.3029 -34.7171 -34.4488 -34.4181 -34.3796 -34.3424
   -19.9445 -19.9313 -19.9083 -19.9071 -19.9012 -19.8997 -19.8757 -19.8738
   -19.8670 -19.8659 -19.8565 -19.8513 -19.7957 -19.7944 -13.1641  -7.4484
    -4.6959  -4.3417  -1.8329  -1.0815  -0.5381

          k = 0.0806 0.1390 0.0000 ( 35182 PWs)   bands (ev):

   -68.2790 -68.2356 -35.2794 -34.7322 -34.5208 -34.4922 -34.4176 -34.3619
   -19.9417 -19.9296 -19.9107 -19.9084 -19.9016 -19.8981 -19.8784 -19.8730
   -19.8674 -19.8648 -19.8512 -19.8464 -19.8008 -19.7997 -12.9571  -7.0391
    -5.1728  -4.3249  -1.7350  -1.2934  -0.9137

          k = 0.0805 0.2317 0.0000 ( 35166 PWs)   bands (ev):

   -68.2663 -68.2281 -35.2400 -34.7907 -34.6304 -34.6059 -34.4758 -34.3941
   -19.9370 -19.9269 -19.9143 -19.9103 -19.9023 -19.8959 -19.8821 -19.8719
   -19.8676 -19.8628 -19.8421 -19.8377 -19.8094 -19.8086 -12.6164  -6.3886
    -5.7340  -4.4049  -1.9818  -1.4637  -1.1263

          k = 0.0805 0.3245 0.0000 ( 35246 PWs)   bands (ev):

   -68.2510 -68.2200 -35.2011 -34.9240 -34.7432 -34.6735 -34.5417 -34.4287
   -19.9331 -19.9235 -19.9179 -19.9120 -19.9042 -19.8946 -19.8851 -19.8708
   -19.8671 -19.8600 -19.8314 -19.8278 -19.8193 -19.8180 -12.2587  -6.5051
    -5.4357  -4.5291  -2.6324  -1.1756  -1.0480

          k = 0.0805 0.4172 0.0000 ( 35267 PWs)   bands (ev):

   -68.2368 -68.2139 -35.1858 -35.0617 -34.8189 -34.7118 -34.5925 -34.4593
   -19.9320 -19.9201 -19.9194 -19.9128 -19.9071 -19.8946 -19.8863 -19.8701
   -19.8660 -19.8571 -19.8279 -19.8254 -19.8216 -19.8191 -11.9877  -6.9067
    -5.0203  -4.6234  -3.0770  -0.7193  -0.5738

          k = 0.0805 0.5099 0.0000 ( 35276 PWs)   bands (ev):

   -68.2276 -68.2113 -35.1951 -35.1414 -34.8388 -34.7390 -34.6190 -34.4772
   -19.9324 -19.9204 -19.9174 -19.9127 -19.9093 -19.8950 -19.8864 -19.8699
   -19.8652 -19.8552 -19.8326 -19.8292 -19.8159 -19.8142 -11.8506  -7.1222
    -4.9160  -4.6869  -3.2860  -0.1424  -0.0722

          k = 0.0807-0.5101 0.0000 ( 35280 PWs)   bands (ev):

   -68.2276 -68.2113 -35.1953 -35.1415 -34.8391 -34.7389 -34.6189 -34.4772
   -19.9324 -19.9204 -19.9173 -19.9127 -19.9093 -19.8950 -19.8865 -19.8699
   -19.8651 -19.8552 -19.8327 -19.8292 -19.8159 -19.8142 -11.8504  -7.1226
    -4.9166  -4.6860  -3.2872  -0.1422  -0.0728

          k = 0.0807-0.4173 0.0000 ( 35277 PWs)   bands (ev):

   -68.2367 -68.2139 -35.1860 -35.0623 -34.8196 -34.7116 -34.5923 -34.4592
   -19.9320 -19.9201 -19.9194 -19.9128 -19.9071 -19.8946 -19.8863 -19.8702
   -19.8659 -19.8571 -19.8279 -19.8255 -19.8216 -19.8190 -11.9872  -6.9078
    -5.0202  -4.6229  -3.0801  -0.7171  -0.5759

          k = 0.0806-0.3246 0.0000 ( 35254 PWs)   bands (ev):

   -68.2509 -68.2200 -35.2011 -34.9247 -34.7439 -34.6737 -34.5416 -34.4287
   -19.9331 -19.9235 -19.9179 -19.9119 -19.9042 -19.8947 -19.8851 -19.8708
   -19.8670 -19.8599 -19.8313 -19.8277 -19.8194 -19.8180 -12.2578  -6.5060
    -5.4351  -4.5292  -2.6356  -1.1749  -1.0475

          k = 0.0806-0.2319 0.0000 ( 35178 PWs)   bands (ev):

   -68.2662 -68.2280 -35.2398 -34.7909 -34.6307 -34.6062 -34.4764 -34.3945
   -19.9370 -19.9270 -19.9143 -19.9103 -19.9023 -19.8960 -19.8821 -19.8720
   -19.8676 -19.8628 -19.8421 -19.8377 -19.8095 -19.8087 -12.6154  -6.3873
    -5.7336  -4.4064  -1.9833  -1.4624  -1.1261

          k = 0.0806-0.1392 0.0000 ( 35179 PWs)   bands (ev):

   -68.2790 -68.2355 -35.2793 -34.7321 -34.5205 -34.4919 -34.4185 -34.3632
   -19.9417 -19.9296 -19.9105 -19.9085 -19.9014 -19.8982 -19.8783 -19.8731
   -19.8673 -19.8648 -19.8512 -19.8463 -19.8009 -19.7997 -12.9563  -7.0379
    -5.1677  -4.3318  -1.7338  -1.2917  -0.9092

          k = 0.0806-0.0464 0.0000 ( 35161 PWs)   bands (ev):

   -68.2862 -68.2400 -35.3029 -34.7171 -34.4473 -34.4199 -34.3780 -34.3442
   -19.9445 -19.9313 -19.9081 -19.9074 -19.9010 -19.8999 -19.8755 -19.8740
   -19.8669 -19.8659 -19.8565 -19.8513 -19.7958 -19.7944 -13.1638  -7.4479
    -4.6864  -4.3525  -1.8322  -1.0805  -0.5357

          k = 0.1612 0.0926 0.0000 ( 35149 PWs)   bands (ev):

   -68.2755 -68.2334 -35.2683 -34.7446 -34.5644 -34.4975 -34.4602 -34.3620
   -19.9404 -19.9289 -19.9121 -19.9082 -19.9022 -19.8973 -19.8793 -19.8727
   -19.8679 -19.8639 -19.8487 -19.8440 -19.8033 -19.8022 -12.8622  -6.8645
    -5.3615  -4.2803  -1.8200  -1.4635  -0.9782

          k = 0.1611 0.1853 0.0000 ( 35208 PWs)   bands (ev):

   -68.2661 -68.2280 -35.2397 -34.7899 -34.6310 -34.6048 -34.4773 -34.3969
   -19.9370 -19.9270 -19.9142 -19.9105 -19.9022 -19.8960 -19.8820 -19.8720
   -19.8676 -19.8627 -19.8420 -19.8377 -19.8095 -19.8087 -12.6149  -6.3858
    -5.7266  -4.4196  -1.9703  -1.4673  -1.1314

          k = 0.1611 0.2780 0.0000 ( 35260 PWs)   bands (ev):

   -68.2529 -68.2210 -35.2035 -34.8735 -34.7494 -34.6592 -34.5233 -34.4579
   -19.9320 -19.9248 -19.9159 -19.9141 -19.9026 -19.8953 -19.8848 -19.8716
   -19.8655 -19.8618 -19.8328 -19.8291 -19.8180 -19.8176 -12.2962  -6.1398
    -5.6826  -4.7643  -2.1271  -1.6200  -0.5747

          k = 0.1611 0.3708 0.0000 ( 35312 PWs)   bands (ev):

   -68.2389 -68.2147 -35.1755 -34.9812 -34.8306 -34.7010 -34.5911 -34.5098
   -19.9283 -19.9225 -19.9178 -19.9150 -19.9044 -19.8955 -19.8868 -19.8708
   -19.8640 -19.8603 -19.8271 -19.8263 -19.8229 -19.8203 -12.0058  -6.4837
    -5.1406  -4.9849  -2.3891  -1.2984  -0.6047

          k = 0.1611 0.4635 0.0000 ( 35321 PWs)   bands (ev):

   -68.2275 -68.2112 -35.1629 -35.0755 -34.8456 -34.7584 -34.6353 -34.5446
   -19.9282 -19.9204 -19.9175 -19.9135 -19.9074 -19.8963 -19.8876 -19.8694
   -19.8648 -19.8581 -19.8336 -19.8316 -19.8160 -19.8142 -11.8151  -6.7420
    -5.1824  -4.7891  -2.5621  -0.6835  -0.4811

          k = 0.1611 0.5562 0.0000 ( 35326 PWs)   bands (ev):

   -68.2226 -68.2105 -35.1556 -35.1178 -34.8187 -34.8107 -34.6469 -34.5576
   -19.9286 -19.9201 -19.9161 -19.9125 -19.9092 -19.8967 -19.8878 -19.8684
   -19.8657 -19.8571 -19.8360 -19.8336 -19.8132 -19.8120 -11.7503  -6.8372
    -5.2113  -4.7417  -2.6303  -0.3329  -0.2772

          k = 0.1613-0.4638 0.0000 ( 35321 PWs)   bands (ev):

   -68.2274 -68.2112 -35.1634 -35.0763 -34.8464 -34.7581 -34.6351 -34.5445
   -19.9282 -19.9203 -19.9175 -19.9135 -19.9074 -19.8963 -19.8876 -19.8695
   -19.8647 -19.8581 -19.8336 -19.8317 -19.8159 -19.8141 -11.8145  -6.7437
    -5.1827  -4.7893  -2.5643  -0.6876  -0.4804

          k = 0.1612-0.3711 0.0000 ( 35316 PWs)   bands (ev):

   -68.2388 -68.2146 -35.1757 -34.9825 -34.8315 -34.7013 -34.5911 -34.5098
   -19.9283 -19.9225 -19.9178 -19.9150 -19.9044 -19.8956 -19.8868 -19.8708
   -19.8639 -19.8603 -19.8272 -19.8263 -19.8228 -19.8202 -12.0045  -6.4860
    -5.1401  -4.9855  -2.3932  -1.3013  -0.6031

          k = 0.1612-0.2783 0.0000 ( 35271 PWs)   bands (ev):

   -68.2528 -68.2209 -35.2033 -34.8743 -34.7503 -34.6595 -34.5240 -34.4586
   -19.9321 -19.9249 -19.9158 -19.9142 -19.9025 -19.8955 -19.8848 -19.8716
   -19.8655 -19.8617 -19.8327 -19.8290 -19.8181 -19.8177 -12.2945  -6.1403
    -5.6805  -4.7670  -2.1301  -1.6201  -0.5746

          k = 0.1612-0.1856 0.0000 ( 35202 PWs)   bands (ev):

   -68.2660 -68.2279 -35.2394 -34.7897 -34.6311 -34.6049 -34.4787 -34.3986
   -19.9370 -19.9270 -19.9141 -19.9106 -19.9021 -19.8962 -19.8819 -19.8720
   -19.8676 -19.8627 -19.8420 -19.8376 -19.8096 -19.8088 -12.6133  -6.3833
    -5.7227  -4.4270  -1.9668  -1.4679  -1.1327

          k = 0.1612-0.0929 0.0000 ( 35153 PWs)   bands (ev):

   -68.2754 -68.2333 -35.2681 -34.7443 -34.5637 -34.4963 -34.4623 -34.3640
   -19.9404 -19.9289 -19.9119 -19.9084 -19.9020 -19.8975 -19.8792 -19.8728
   -19.8679 -19.8640 -19.8487 -19.8440 -19.8033 -19.8022 -12.8612  -6.8627
    -5.3545  -4.2906  -1.8155  -1.4630  -0.9756

          k = 0.1612-0.0002 0.0000 ( 35174 PWs)   bands (ev):

   -68.2788 -68.2354 -35.2790 -34.7321 -34.5202 -34.4912 -34.4197 -34.3661
   -19.9416 -19.9296 -19.9104 -19.9087 -19.9014 -19.8983 -19.8780 -19.8734
   -19.8674 -19.8648 -19.8511 -19.8463 -19.8010 -19.7998 -12.9547  -7.0357
    -5.1540  -4.3512  -1.7318  -1.2881  -0.8977

          k = 0.2417 0.1389 0.0000 ( 35176 PWs)   bands (ev):

   -68.2604 -68.2248 -35.2244 -34.8480 -34.6632 -34.6397 -34.5140 -34.3917
   -19.9359 -19.9255 -19.9164 -19.9096 -19.9040 -19.8951 -19.8832 -19.8707
   -19.8690 -19.8610 -19.8380 -19.8340 -19.8133 -19.8120 -12.4805  -6.4458
    -5.6830  -4.2710  -2.4520  -1.5295  -1.0280

          k = 0.2417 0.2316 0.0000 ( 35252 PWs)   bands (ev):

   -68.2506 -68.2198 -35.2005 -34.9229 -34.7434 -34.6730 -34.5457 -34.4328
   -19.9330 -19.9235 -19.9178 -19.9121 -19.9041 -19.8948 -19.8850 -19.8708
   -19.8672 -19.8599 -19.8312 -19.8276 -19.8195 -19.8182 -12.2557  -6.4975
    -5.4334  -4.5503  -2.6230  -1.1765  -1.0530

          k = 0.2417 0.3243 0.0000 ( 35317 PWs)   bands (ev):

   -68.2387 -68.2146 -35.1752 -34.9804 -34.8313 -34.7004 -34.5935 -34.5119
   -19.9283 -19.9225 -19.9176 -19.9151 -19.9044 -19.8956 -19.8868 -19.8708
   -19.8641 -19.8602 -19.8272 -19.8263 -19.8228 -19.8202 -12.0042  -6.4793
    -5.1501  -4.9871  -2.3862  -1.2954  -0.6102

          k = 0.2417 0.4170 0.0000 ( 35388 PWs)   bands (ev):

   -68.2272 -68.2111 -35.1484 -35.0136 -34.8960 -34.7330 -34.6489 -34.5903
   -19.9238 -19.9228 -19.9163 -19.9151 -19.9059 -19.8972 -19.8883 -19.8696
   -19.8625 -19.8612 -19.8338 -19.8332 -19.8160 -19.8141 -11.7964  -6.4456
    -5.5095  -4.7231  -1.8247  -1.3891  -0.6822

          k = 0.2417 0.5098 0.0000 ( 35385 PWs)   bands (ev):

   -68.2191 -68.2105 -35.1099 -35.0539 -34.9150 -34.7808 -34.6698 -34.6383
   -19.9250 -19.9194 -19.9158 -19.9122 -19.9082 -19.8985 -19.8893 -19.8675
   -19.8649 -19.8601 -19.8380 -19.8371 -19.8117 -19.8107 -11.6811  -6.4527
    -5.6951  -4.5639  -1.7428  -0.8863  -0.6469

          k = 0.2416 0.6025 0.0000 ( 35387 PWs)   bands (ev):

   -68.2191 -68.2105 -35.1103 -35.0545 -34.9151 -34.7810 -34.6697 -34.6383
   -19.9250 -19.9194 -19.9159 -19.9122 -19.9082 -19.8986 -19.8893 -19.8675
   -19.8648 -19.8601 -19.8381 -19.8371 -19.8116 -19.8107 -11.6807  -6.4540
    -5.6954  -4.5646  -1.7429  -0.8930  -0.6433

          k = 0.2418-0.4175 0.0000 ( 35364 PWs)   bands (ev):

   -68.2271 -68.2110 -35.1489 -35.0150 -34.8965 -34.7334 -34.6490 -34.5905
   -19.9238 -19.9229 -19.9164 -19.9150 -19.9059 -19.8973 -19.8883 -19.8696
   -19.8624 -19.8611 -19.8339 -19.8333 -19.8159 -19.8140 -11.7951  -6.4478
    -5.5114  -4.7239  -1.8280  -1.3933  -0.6805

          k = 0.2418-0.3248 0.0000 ( 35321 PWs)   bands (ev):

   -68.2384 -68.2144 -35.1753 -34.9812 -34.8325 -34.7005 -34.5945 -34.5130
   -19.9283 -19.9224 -19.9176 -19.9152 -19.9043 -19.8958 -19.8867 -19.8708
   -19.8640 -19.8601 -19.8273 -19.8265 -19.8227 -19.8201 -12.0023  -6.4799
    -5.1525  -4.9883  -2.3898  -1.2965  -0.6105

          k = 0.2418-0.2320 0.0000 ( 35261 PWs)   bands (ev):

   -68.2504 -68.2197 -35.2002 -34.9230 -34.7442 -34.6730 -34.5476 -34.4349
   -19.9331 -19.9234 -19.9177 -19.9123 -19.9040 -19.8950 -19.8849 -19.8708
   -19.8671 -19.8599 -19.8311 -19.8275 -19.8197 -19.8184 -12.2535  -6.4955
    -5.4300  -4.5588  -2.6229  -1.1761  -1.0539

          k = 0.2418-0.1393 0.0000 ( 35187 PWs)   bands (ev):

   -68.2602 -68.2247 -35.2241 -34.8473 -34.6634 -34.6390 -34.5165 -34.3941
   -19.9359 -19.9255 -19.9163 -19.9098 -19.9037 -19.8953 -19.8831 -19.8707
   -19.8690 -19.8610 -19.8379 -19.8339 -19.8134 -19.8122 -12.4787  -6.4426
    -5.6782  -4.2818  -2.4478  -1.5304  -1.0277

          k = 0.2418-0.0466 0.0000 ( 35188 PWs)   bands (ev):

   -68.2658 -68.2278 -35.2390 -34.7907 -34.6312 -34.6059 -34.4795 -34.3996
   -19.9370 -19.9270 -19.9141 -19.9107 -19.9021 -19.8962 -19.8818 -19.8722
   -19.8676 -19.8626 -19.8419 -19.8375 -19.8098 -19.8089 -12.6112  -6.3813
    -5.7214  -4.4332  -1.9698  -1.4658  -1.1317

          k = 0.2417 0.0461 0.0000 ( 35193 PWs)   bands (ev):

   -68.2659 -68.2278 -35.2392 -34.7912 -34.6313 -34.6062 -34.4787 -34.3982
   -19.9370 -19.9270 -19.9142 -19.9105 -19.9022 -19.8961 -19.8818 -19.8722
   -19.8676 -19.8626 -19.8419 -19.8376 -19.8097 -19.8089 -12.6119  -6.3826
    -5.7249  -4.4274  -1.9748  -1.4640  -1.1302

          k = 0.3223 0.1851 0.0000 ( 35238 PWs)   bands (ev):

   -68.2445 -68.2170 -35.1945 -35.0052 -34.7783 -34.6881 -34.5654 -34.4232
   -19.9337 -19.9212 -19.9195 -19.9112 -19.9066 -19.8943 -19.8855 -19.8698
   -19.8679 -19.8577 -19.8270 -19.8239 -19.8230 -19.8208 -12.1435  -6.8344
    -5.2222  -4.3330  -3.0922  -1.1885  -0.6648

          k = 0.3223 0.2779 0.0000 ( 35256 PWs)   bands (ev):

   -68.2361 -68.2137 -35.1856 -35.0613 -34.8178 -34.7129 -34.5978 -34.4642
   -19.9320 -19.9200 -19.9192 -19.9130 -19.9070 -19.8948 -19.8863 -19.8701
   -19.8661 -19.8570 -19.8282 -19.8257 -19.8214 -19.8188 -11.9835  -6.9018
    -5.0228  -4.6490  -3.0713  -0.7160  -0.5667

          k = 0.3223 0.3706 0.0000 ( 35335 PWs)   bands (ev):

   -68.2270 -68.2111 -35.1631 -35.0751 -34.8458 -34.7585 -34.6389 -34.5476
   -19.9283 -19.9203 -19.9173 -19.9137 -19.9073 -19.8965 -19.8876 -19.8694
   -19.8649 -19.8580 -19.8338 -19.8318 -19.8158 -19.8140 -11.8122  -6.7393
    -5.1972  -4.7949  -2.5658  -0.6711  -0.4727

          k = 0.3222 0.4633 0.0000 ( 35379 PWs)   bands (ev):

   -68.2188 -68.2105 -35.1105 -35.0538 -34.9162 -34.7797 -34.6723 -34.6386
   -19.9251 -19.9194 -19.9157 -19.9123 -19.9082 -19.8986 -19.8893 -19.8674
   -19.8650 -19.8600 -19.8381 -19.8371 -19.8116 -19.8107 -11.6796  -6.4521
    -5.7016  -4.5679  -1.7583  -0.8676  -0.6401

          k = 0.3222 0.5561 0.0000 ( 35360 PWs)   bands (ev):

   -68.2133 -68.2128 -35.0387 -35.0367 -35.0018 -34.7808 -34.6846 -34.6821
   -19.9245 -19.9168 -19.9166 -19.9098 -19.9096 -19.8999 -19.8901 -19.8658
   -19.8655 -19.8614 -19.8396 -19.8394 -19.8099 -19.8096 -11.6291  -6.1119
    -6.1107  -4.4611  -1.0920  -0.9612  -0.9497

          k = 0.3222 0.6488 0.0000 ( 35367 PWs)   bands (ev):

   -68.2186 -68.2105 -35.1110 -35.0542 -34.9169 -34.7798 -34.6729 -34.6391
   -19.9250 -19.9195 -19.9157 -19.9123 -19.9081 -19.8988 -19.8892 -19.8675
   -19.8650 -19.8599 -19.8382 -19.8372 -19.8115 -19.8106 -11.6786  -6.4526
    -5.7049  -4.5696  -1.7656  -0.8654  -0.6340

          k = 0.3224-0.3712 0.0000 ( 35327 PWs)   bands (ev):

   -68.2267 -68.2109 -35.1636 -35.0757 -34.8469 -34.7584 -34.6402 -34.5491
   -19.9283 -19.9203 -19.9173 -19.9138 -19.9073 -19.8966 -19.8875 -19.8694
   -19.8647 -19.8579 -19.8339 -19.8320 -19.8156 -19.8139 -11.8104  -6.7394
    -5.2035  -4.7957  -2.5703  -0.6688  -0.4688

          k = 0.3224-0.2785 0.0000 ( 35271 PWs)   bands (ev):

   -68.2358 -68.2134 -35.1856 -35.0615 -34.8182 -34.7130 -34.6001 -34.4666
   -19.9321 -19.9199 -19.9192 -19.9131 -19.9069 -19.8950 -19.8862 -19.8702
   -19.8660 -19.8569 -19.8283 -19.8259 -19.8212 -19.8187 -11.9812  -6.9005
    -5.0216  -4.6584  -3.0730  -0.7125  -0.5650

          k = 0.3224-0.1858 0.0000 ( 35239 PWs)   bands (ev):

   -68.2442 -68.2168 -35.1942 -35.0049 -34.7782 -34.6882 -34.5683 -34.4259
   -19.9337 -19.9212 -19.9194 -19.9114 -19.9064 -19.8945 -19.8854 -19.8698
   -19.8679 -19.8577 -19.8269 -19.8237 -19.8232 -19.8210 -12.1413  -6.8316
    -5.2193  -4.3449  -3.0900  -1.1875  -0.6626

          k = 0.3224-0.0930 0.0000 ( 35259 PWs)   bands (ev):

   -68.2502 -68.2195 -35.2002 -34.9250 -34.7455 -34.6733 -34.5472 -34.4350
   -19.9330 -19.9235 -19.9178 -19.9123 -19.9040 -19.8950 -19.8848 -19.8710
   -19.8670 -19.8598 -19.8310 -19.8274 -19.8197 -19.8185 -12.2514  -6.4988
    -5.4286  -4.5608  -2.6304  -1.1755  -1.0511

          k = 0.3223-0.0003 0.0000 ( 35264 PWs)   bands (ev):

   -68.2524 -68.2206 -35.2029 -34.8770 -34.7515 -34.6602 -34.5248 -34.4604
   -19.9320 -19.9249 -19.9158 -19.9143 -19.9025 -19.8956 -19.8846 -19.8718
   -19.8655 -19.8615 -19.8325 -19.8289 -19.8183 -19.8179 -12.2905  -6.1426
    -5.6769  -4.7770  -2.1351  -1.6225  -0.5775

          k = 0.3223 0.0924 0.0000 ( 35263 PWs)   bands (ev):

   -68.2503 -68.2196 -35.2005 -34.9257 -34.7455 -34.6735 -34.5452 -34.4330
   -19.9330 -19.9235 -19.9179 -19.9121 -19.9041 -19.8949 -19.8849 -19.8710
   -19.8670 -19.8598 -19.8311 -19.8275 -19.8197 -19.8183 -12.2527  -6.5018
    -5.4314  -4.5524  -2.6337  -1.1753  -1.0497

          k = 0.4029 0.2314 0.0000 ( 35268 PWs)   bands (ev):

   -68.2318 -68.2122 -35.1999 -35.1240 -34.8357 -34.7137 -34.6018 -34.4469
   -19.9338 -19.9206 -19.9179 -19.9125 -19.9091 -19.8946 -19.8859 -19.8703
   -19.8655 -19.8550 -19.8300 -19.8265 -19.8186 -19.8165 -11.9315  -7.1580
    -5.0065  -4.4111  -3.4928  -0.4064  -0.1513

          k = 0.4029 0.3242 0.0000 ( 35264 PWs)   bands (ev):

   -68.2268 -68.2110 -35.1962 -35.1414 -34.8362 -34.7416 -34.6244 -34.4826
   -19.9325 -19.9203 -19.9171 -19.9129 -19.9093 -19.8953 -19.8864 -19.8700
   -19.8651 -19.8550 -19.8330 -19.8296 -19.8155 -19.8139 -11.8455  -7.1201
    -4.9231  -4.7133  -3.2855  -0.1289  -0.0589

          k = 0.4028 0.4169 0.0000 ( 35330 PWs)   bands (ev):

   -68.2219 -68.2104 -35.1574 -35.1179 -34.8167 -34.8132 -34.6505 -34.5609
   -19.9288 -19.9200 -19.9159 -19.9126 -19.9092 -19.8969 -19.8877 -19.8685
   -19.8656 -19.8569 -19.8363 -19.8338 -19.8129 -19.8118 -11.7462  -6.8376
    -5.2272  -4.7500  -2.6392  -0.3207  -0.2604

          k = 0.4028 0.5096 0.0000 ( 35343 PWs)   bands (ev):

   -68.2185 -68.2105 -35.1120 -35.0562 -34.9158 -34.7800 -34.6710 -34.6396
   -19.9251 -19.9194 -19.9158 -19.9122 -19.9082 -19.8987 -19.8892 -19.8677
   -19.8647 -19.8599 -19.8382 -19.8372 -19.8115 -19.8106 -11.6778  -6.4580
    -5.7019  -4.5711  -1.7592  -0.8891  -0.6278

          k = 0.4028 0.6023 0.0000 ( 35353 PWs)   bands (ev):

   -68.2184 -68.2105 -35.1121 -35.0560 -34.9165 -34.7800 -34.6717 -34.6400
   -19.9251 -19.9195 -19.9157 -19.9123 -19.9081 -19.8988 -19.8891 -19.8677
   -19.8648 -19.8598 -19.8383 -19.8373 -19.8114 -19.8105 -11.6773  -6.4572
    -5.7048  -4.5720  -1.7664  -0.8803  -0.6252

          k = 0.4028 0.6951 0.0000 ( 35326 PWs)   bands (ev):

   -68.2216 -68.2103 -35.1578 -35.1179 -34.8164 -34.8145 -34.6518 -34.5626
   -19.9288 -19.9201 -19.9159 -19.9128 -19.9090 -19.8971 -19.8876 -19.8686
   -19.8655 -19.8569 -19.8364 -19.8340 -19.8128 -19.8116 -11.7447  -6.8370
    -5.2338  -4.7517  -2.6437  -0.3141  -0.2539

          k = 0.4030-0.3249 0.0000 ( 35257 PWs)   bands (ev):

   -68.2264 -68.2108 -35.1966 -35.1415 -34.8359 -34.7422 -34.6270 -34.4852
   -19.9325 -19.9203 -19.9170 -19.9131 -19.9092 -19.8955 -19.8862 -19.8700
   -19.8650 -19.8550 -19.8332 -19.8298 -19.8154 -19.8137 -11.8433  -7.1189
    -4.9242  -4.7229  -3.2875  -0.1228  -0.0530

          k = 0.4030-0.2322 0.0000 ( 35276 PWs)   bands (ev):

   -68.2315 -68.2120 -35.2000 -35.1240 -34.8353 -34.7140 -34.6050 -34.4499
   -19.9338 -19.9205 -19.9179 -19.9127 -19.9089 -19.8948 -19.8858 -19.8703
   -19.8655 -19.8549 -19.8302 -19.8268 -19.8185 -19.8163 -11.9292  -7.1561
    -5.0062  -4.4239  -3.4915  -0.4017  -0.1461

          k = 0.4029-0.1395 0.0000 ( 35287 PWs)   bands (ev):

   -68.2357 -68.2134 -35.1862 -35.0631 -34.8196 -34.7125 -34.5995 -34.4665
   -19.9321 -19.9199 -19.9193 -19.9132 -19.9069 -19.8950 -19.8861 -19.8704
   -19.8657 -19.8569 -19.8284 -19.8260 -19.8211 -19.8186 -11.9796  -6.9040
    -5.0227  -4.6564  -3.0806  -0.7077  -0.5694

          k = 0.4029-0.0467 0.0000 ( 35323 PWs)   bands (ev):

   -68.2381 -68.2143 -35.1759 -34.9850 -34.8336 -34.7009 -34.5938 -34.5134
   -19.9283 -19.9225 -19.9177 -19.9153 -19.9043 -19.8959 -19.8866 -19.8710
   -19.8638 -19.8600 -19.8275 -19.8266 -19.8226 -19.8199 -11.9988  -6.4877
    -5.1478  -4.9952  -2.3996  -1.3038  -0.6019

          k = 0.4029 0.0460 0.0000 ( 35321 PWs)   bands (ev):

   -68.2381 -68.2143 -35.1760 -34.9855 -34.8333 -34.7011 -34.5928 -34.5123
   -19.9283 -19.9225 -19.9178 -19.9151 -19.9044 -19.8958 -19.8867 -19.8710
   -19.8638 -19.8601 -19.8274 -19.8266 -19.8226 -19.8200 -11.9995  -6.4894
    -5.1449  -4.9946  -2.4001  -1.3057  -0.6000

          k = 0.4029 0.1387 0.0000 ( 35285 PWs)   bands (ev):

   -68.2359 -68.2135 -35.1864 -35.0634 -34.8198 -34.7122 -34.5970 -34.4640
   -19.9320 -19.9200 -19.9193 -19.9130 -19.9070 -19.8949 -19.8862 -19.8704
   -19.8657 -19.8569 -19.8282 -19.8258 -19.8213 -19.8188 -11.9814  -6.9064
    -5.0238  -4.6464  -3.0820  -0.7091  -0.5732

          k =-0.4835-0.2777 0.0000 ( 35274 PWs)   bands (ev):

   -68.2267 -68.2110 -35.2144 -35.1640 -34.8440 -34.7256 -34.6150 -34.4557
   -19.9342 -19.9205 -19.9173 -19.9130 -19.9098 -19.8949 -19.8858 -19.8705
   -19.8646 -19.8539 -19.8325 -19.8285 -19.8154 -19.8139 -11.8622  -7.2691
    -4.9770  -4.4447  -3.6264   0.0845   0.1106

          k =-0.4835-0.1850 0.0000 ( 35297 PWs)   bands (ev):

   -68.2267 -68.2110 -35.1969 -35.1420 -34.8370 -34.7411 -34.6242 -34.4824
   -19.9325 -19.9204 -19.9171 -19.9130 -19.9093 -19.8953 -19.8863 -19.8701
   -19.8649 -19.8550 -19.8330 -19.8296 -19.8155 -19.8139 -11.8448  -7.1219
    -4.9266  -4.7088  -3.2897  -0.1296  -0.0599

          k =-0.4835-0.0923 0.0000 ( 35332 PWs)   bands (ev):

   -68.2266 -68.2109 -35.1649 -35.0780 -34.8477 -34.7574 -34.6382 -34.5475
   -19.9283 -19.9203 -19.9174 -19.9137 -19.9074 -19.8965 -19.8875 -19.8697
   -19.8645 -19.8579 -19.8339 -19.8319 -19.8156 -19.8139 -11.8095  -6.7464
    -5.1983  -4.7955  -2.5736  -0.6851  -0.4681

          k =-0.4835 0.0005 0.0000 ( 35366 PWs)   bands (ev):

   -68.2266 -68.2109 -35.1504 -35.0192 -34.8961 -34.7337 -34.6487 -34.5917
   -19.9239 -19.9228 -19.9165 -19.9151 -19.9059 -19.8974 -19.8882 -19.8698
   -19.8622 -19.8609 -19.8340 -19.8335 -19.8157 -19.8139 -11.7914  -6.4562
    -5.5146  -4.7285  -1.8362  -1.4029  -0.6727

          k =-0.4835 0.0932 0.0000 ( 35343 PWs)   bands (ev):

   -68.2265 -68.2108 -35.1649 -35.0777 -34.8480 -34.7577 -34.6396 -34.5491
   -19.9283 -19.9203 -19.9174 -19.9138 -19.9073 -19.8967 -19.8874 -19.8697
   -19.8645 -19.8578 -19.8340 -19.8321 -19.8155 -19.8138 -11.8084  -6.7449
    -5.2043  -4.7962  -2.5760  -0.6788  -0.4649

          k =-0.4835 0.1859 0.0000 ( 35275 PWs)   bands (ev):

   -68.2264 -68.2108 -35.1971 -35.1419 -34.8364 -34.7419 -34.6268 -34.4851
   -19.9325 -19.9203 -19.9171 -19.9132 -19.9092 -19.8955 -19.8862 -19.8701
   -19.8649 -19.8549 -19.8332 -19.8298 -19.8153 -19.8137 -11.8428  -7.1202
    -4.9273  -4.7192  -3.2905  -0.1235  -0.0534

          k =-0.4833-0.8341 0.0000 ( 35256 PWs)   bands (ev):

   -68.2263 -68.2108 -35.2148 -35.1639 -34.8434 -34.7260 -34.6183 -34.4587
   -19.9342 -19.9204 -19.9172 -19.9132 -19.9096 -19.8951 -19.8857 -19.8705
   -19.8645 -19.8539 -19.8327 -19.8288 -19.8152 -19.8137 -11.8599  -7.2674
    -4.9779  -4.4579  -3.6253   0.0918   0.1173

     highest occupied level (ev):     0.1173

!    total energy              =   -1373.25085977 Ry
     estimated scf accuracy    <          4.3E-15 Ry

     The total energy is the sum of the following terms:
     one-electron contribution =  -10891.88658359 Ry
     hartree contribution      =    5474.27876697 Ry
     xc contribution           =    -138.78176286 Ry
     ewald contribution        =    4183.13871972 Ry

     convergence has been achieved in  42 iterations

     negative rho (up, down):  1.042E-04 0.000E+00

     Forces acting on atoms (cartesian axes, Ry/au):

     atom    1 type  2   force =     0.00031080    0.00028328   -0.00017459
     atom    2 type  1   force =    -0.00026866   -0.00046485    0.00155089
     atom    3 type  1   force =    -0.00004213    0.00018157   -0.00137631

     Total force =     0.002150     Total SCF correction =     0.000001


     Computing stress (Cartesian axis) and pressure


     negative rho (up, down):  1.042E-04 0.000E+00
          total   stress  (Ry/bohr**3)                   (kbar)     P=        5.57
   0.00006675  -0.00000261   0.00000033            9.82       -0.38        0.05
  -0.00000261   0.00005172   0.00000093           -0.38        7.61        0.14
   0.00000033   0.00000093  -0.00000493            0.05        0.14       -0.72


     Writing output data file /scratch/as3359/Ta2C-CT-ecutoff/Ta2C.save/
 
     init_run     :     36.39s CPU     19.85s WALL (       1 calls)
     electrons    :   2636.87s CPU   1348.51s WALL (       1 calls)
     forces       :     10.60s CPU      5.52s WALL (       1 calls)
     stress       :     40.04s CPU     20.77s WALL (       1 calls)

     Called by init_run:
     wfcinit      :     27.89s CPU     14.21s WALL (       1 calls)
     potinit      :      2.16s CPU      1.10s WALL (       1 calls)
     hinit0       :      4.71s CPU      3.42s WALL (       1 calls)

     Called by electrons:
     c_bands      :   2086.39s CPU   1053.63s WALL (      42 calls)
     sum_band     :    472.63s CPU    246.98s WALL (      42 calls)
     v_of_rho     :     11.34s CPU      6.28s WALL (      43 calls)
     newd         :     62.37s CPU     39.49s WALL (      43 calls)
     mix_rho      :      4.08s CPU      2.26s WALL (      42 calls)

     Called by c_bands:
     init_us_2    :     52.59s CPU     26.33s WALL (    6438 calls)
     cegterg      :   1916.40s CPU    968.16s WALL (    3108 calls)

     Called by *egterg:
     cdiaghg      :     19.11s CPU      9.79s WALL (   14145 calls)
     h_psi        :   1624.13s CPU    821.40s WALL (   14219 calls)
     s_psi        :     69.95s CPU     35.03s WALL (   14219 calls)
     g_psi        :      7.75s CPU      3.89s WALL (   11037 calls)

     Called by h_psi:
     h_psi:calbec :     53.15s CPU     26.66s WALL (   14219 calls)
     vloc_psi     :   1484.58s CPU    751.39s WALL (   14219 calls)
     add_vuspsi   :     77.21s CPU     38.66s WALL (   14219 calls)

     General routines
     calbec       :     72.73s CPU     36.49s WALL (   17697 calls)
     fft          :      6.20s CPU      3.32s WALL (     582 calls)
     ffts         :      0.68s CPU      0.35s WALL (      85 calls)
     fftw         :   1578.63s CPU    799.58s WALL (  503938 calls)
     interpolate  :      1.09s CPU      0.57s WALL (      43 calls)
 
     Parallel routines
 
     PWSCF        :  45m27.18s CPU  23m17.56s WALL

 
   This run was terminated on:  22:30:24   6Apr2022            

=------------------------------------------------------------------------------=
   JOB DONE.
=------------------------------------------------------------------------------=
