
     Program PWSCF v.6.8 starts on  6Apr2022 at 23:35:10 

     This program is part of the open-source Quantum ESPRESSO suite
     for quantum simulation of materials; please cite
         "P. Giannozzi et al., J. Phys.:Condens. Matter 21 395502 (2009);
         "P. Giannozzi et al., J. Phys.:Condens. Matter 29 465901 (2017);
         "P. Giannozzi et al., J. Chem. Phys. 152 154105 (2020);
          URL http://www.quantum-espresso.org", 
     in publications or presentations arising from this work. More details at
     http://www.quantum-espresso.org/quote

     Parallel version (MPI & OpenMP), running on       4 processor cores
     Number of MPI processes:                 2
     Threads/MPI process:                     2

     MPI processes distributed on     1 nodes
     R & G space division:  proc/nbgrp/npool/nimage =       2
     124980 MiB available memory on the printing compute node when the environment starts
 
     Reading input from Ta2C.scf.140.in

     Current dimensions of program PWSCF are:
     Max number of different atomic species (ntypx) = 10
     Max number of k-points (npk) =  40000
     Max angular momentum in pseudopotentials (lmaxx) =  4
     file Ta.pbesol-spfn-rrkjus_psl.1.0.0.UPF: wavefunction(s)  5S 5P renormalized

     Subspace diagonalization in iterative solution of the eigenvalue problem:
     a serial algorithm will be used

 
     Parallelization info
     --------------------
     sticks:   dense  smooth     PW     G-vecs:    dense   smooth      PW
     Min         797     640    189               248368   177914   28959
     Max         798     641    190               248373   177917   28980
     Sum        1595    1281    379               496741   355831   57939
 
     Using Slab Decomposition
 


     bravais-lattice index     =            0
     lattice parameter (alat)  =       5.5500  a.u.
     unit-cell volume          =    1588.7844 (a.u.)^3
     number of atoms/cell      =            3
     number of atomic types    =            2
     number of electrons       =        58.00
     number of Kohn-Sham states=           29
     kinetic-energy cutoff     =     140.0000  Ry
     charge density cutoff     =     700.0000  Ry
     scf convergence threshold =      1.0E-12
     mixing beta               =       0.7000
     number of iterations used =            8  plain     mixing
     Exchange-correlation= PBESOL
                           (   1   4  10   8   0   0   0)

     celldm(1)=   5.550000  celldm(2)=   0.000000  celldm(3)=   0.000000
     celldm(4)=   0.000000  celldm(5)=   0.000000  celldm(6)=   0.000000

     crystal axes: (cart. coord. in units of alat)
               a(1) = (   1.034114   0.000203   0.000000 )  
               a(2) = (  -0.516207   0.898604   0.000000 )  
               a(3) = (   0.000000   0.000000  10.000000 )  

     reciprocal axes: (cart. coord. in units 2 pi/alat)
               b(1) = (  0.966902  0.555441  0.000000 )  
               b(2) = ( -0.000219  1.112711  0.000000 )  
               b(3) = (  0.000000  0.000000  0.100000 )  


     PseudoPot. # 1 for Ta read from file:
     /shared/home/as3359/pseudo/Ta.pbesol-spfn-rrkjus_psl.1.0.0.UPF
     MD5 check sum: f099565ffaca9b150a52e9412a28e20b
     Pseudo is Ultrasoft + core correction, Zval = 27.0
     Generated using &quot;atomic&quot; code by A. Dal Corso  v.6.3
     Using radial grid of 1273 points,  8 beta functions with: 
                l(1) =   0
                l(2) =   0
                l(3) =   1
                l(4) =   1
                l(5) =   2
                l(6) =   2
                l(7) =   3
                l(8) =   3
     Q(r) pseudized with 0 coefficients 


     PseudoPot. # 2 for C  read from file:
     /shared/home/as3359/pseudo/C.pbesol-n-rrkjus_psl.1.0.0.UPF
     MD5 check sum: 05995be603a8a7c99da3dc4413f31573
     Pseudo is Ultrasoft + core correction, Zval =  4.0
     Generated using &quot;atomic&quot; code by A. Dal Corso  v.6.3MaX
     Using radial grid of 1073 points,  4 beta functions with: 
                l(1) =   0
                l(2) =   0
                l(3) =   1
                l(4) =   1
     Q(r) pseudized with 0 coefficients 


     atomic species   valence    mass     pseudopotential
        Ta            27.00   180.94788     Ta( 1.00)
        C              4.00    12.01070     C ( 1.00)

     No symmetry found



   Cartesian axes

     site n.     atom                  positions (alat units)
         1           C   tau(   1) = (   0.0000000   0.0000000   0.0000000  )
         2           Ta  tau(   2) = (   0.5174615   0.3004190  -0.4127129  )
         3           Ta  tau(   3) = (   0.0007158   0.5986355   0.4125272  )

     number of k points=    74
                       cart. coord. in units 2pi/alat
        k(    1) = (   0.0000000   0.0000000   0.0000000), wk =   0.0138889
        k(    2) = (  -0.0000182   0.0927259   0.0000000), wk =   0.0277778
        k(    3) = (  -0.0000364   0.1854519   0.0000000), wk =   0.0277778
        k(    4) = (  -0.0000547   0.2781778   0.0000000), wk =   0.0277778
        k(    5) = (  -0.0000729   0.3709037   0.0000000), wk =   0.0277778
        k(    6) = (  -0.0000911   0.4636296   0.0000000), wk =   0.0277778
        k(    7) = (   0.0001093  -0.5563556   0.0000000), wk =   0.0138889
        k(    8) = (   0.0805752   0.0462867   0.0000000), wk =   0.0277778
        k(    9) = (   0.0805570   0.1390127   0.0000000), wk =   0.0277778
        k(   10) = (   0.0805388   0.2317386   0.0000000), wk =   0.0277778
        k(   11) = (   0.0805205   0.3244645   0.0000000), wk =   0.0277778
        k(   12) = (   0.0805023   0.4171904   0.0000000), wk =   0.0277778
        k(   13) = (   0.0804841   0.5099164   0.0000000), wk =   0.0277778
        k(   14) = (   0.0806845  -0.5100688   0.0000000), wk =   0.0277778
        k(   15) = (   0.0806663  -0.4173429   0.0000000), wk =   0.0277778
        k(   16) = (   0.0806481  -0.3246170   0.0000000), wk =   0.0277778
        k(   17) = (   0.0806298  -0.2318910   0.0000000), wk =   0.0277778
        k(   18) = (   0.0806116  -0.1391651   0.0000000), wk =   0.0277778
        k(   19) = (   0.0805934  -0.0464392   0.0000000), wk =   0.0277778
        k(   20) = (   0.1611504   0.0925735   0.0000000), wk =   0.0277778
        k(   21) = (   0.1611322   0.1852994   0.0000000), wk =   0.0277778
        k(   22) = (   0.1611139   0.2780253   0.0000000), wk =   0.0277778
        k(   23) = (   0.1610957   0.3707513   0.0000000), wk =   0.0277778
        k(   24) = (   0.1610775   0.4634772   0.0000000), wk =   0.0277778
        k(   25) = (   0.1610593   0.5562031   0.0000000), wk =   0.0277778
        k(   26) = (   0.1612597  -0.4637821   0.0000000), wk =   0.0277778
        k(   27) = (   0.1612415  -0.3710561   0.0000000), wk =   0.0277778
        k(   28) = (   0.1612232  -0.2783302   0.0000000), wk =   0.0277778
        k(   29) = (   0.1612050  -0.1856043   0.0000000), wk =   0.0277778
        k(   30) = (   0.1611868  -0.0928784   0.0000000), wk =   0.0277778
        k(   31) = (   0.1611686  -0.0001524   0.0000000), wk =   0.0277778
        k(   32) = (   0.2417256   0.1388602   0.0000000), wk =   0.0277778
        k(   33) = (   0.2417073   0.2315862   0.0000000), wk =   0.0277778
        k(   34) = (   0.2416891   0.3243121   0.0000000), wk =   0.0277778
        k(   35) = (   0.2416709   0.4170380   0.0000000), wk =   0.0277778
        k(   36) = (   0.2416527   0.5097639   0.0000000), wk =   0.0277778
        k(   37) = (   0.2416345   0.6024899   0.0000000), wk =   0.0277778
        k(   38) = (   0.2418349  -0.4174953   0.0000000), wk =   0.0277778
        k(   39) = (   0.2418166  -0.3247694   0.0000000), wk =   0.0277778
        k(   40) = (   0.2417984  -0.2320435   0.0000000), wk =   0.0277778
        k(   41) = (   0.2417802  -0.1393175   0.0000000), wk =   0.0277778
        k(   42) = (   0.2417620  -0.0465916   0.0000000), wk =   0.0277778
        k(   43) = (   0.2417438   0.0461343   0.0000000), wk =   0.0277778
        k(   44) = (   0.3223007   0.1851470   0.0000000), wk =   0.0277778
        k(   45) = (   0.3222825   0.2778729   0.0000000), wk =   0.0277778
        k(   46) = (   0.3222643   0.3705988   0.0000000), wk =   0.0277778
        k(   47) = (   0.3222461   0.4633248   0.0000000), wk =   0.0277778
        k(   48) = (   0.3222279   0.5560507   0.0000000), wk =   0.0277778
        k(   49) = (   0.3222097   0.6487766   0.0000000), wk =   0.0277778
        k(   50) = (   0.3224100  -0.3712086   0.0000000), wk =   0.0277778
        k(   51) = (   0.3223918  -0.2784827   0.0000000), wk =   0.0277778
        k(   52) = (   0.3223736  -0.1857567   0.0000000), wk =   0.0277778
        k(   53) = (   0.3223554  -0.0930308   0.0000000), wk =   0.0277778
        k(   54) = (   0.3223372  -0.0003049   0.0000000), wk =   0.0277778
        k(   55) = (   0.3223190   0.0924210   0.0000000), wk =   0.0277778
        k(   56) = (   0.4028759   0.2314337   0.0000000), wk =   0.0277778
        k(   57) = (   0.4028577   0.3241596   0.0000000), wk =   0.0277778
        k(   58) = (   0.4028395   0.4168856   0.0000000), wk =   0.0277778
        k(   59) = (   0.4028213   0.5096115   0.0000000), wk =   0.0277778
        k(   60) = (   0.4028031   0.6023374   0.0000000), wk =   0.0277778
        k(   61) = (   0.4027848   0.6950633   0.0000000), wk =   0.0277778
        k(   62) = (   0.4029852  -0.3249218   0.0000000), wk =   0.0277778
        k(   63) = (   0.4029670  -0.2321959   0.0000000), wk =   0.0277778
        k(   64) = (   0.4029488  -0.1394700   0.0000000), wk =   0.0277778
        k(   65) = (   0.4029306  -0.0467441   0.0000000), wk =   0.0277778
        k(   66) = (   0.4029124   0.0459819   0.0000000), wk =   0.0277778
        k(   67) = (   0.4028941   0.1387078   0.0000000), wk =   0.0277778
        k(   68) = (  -0.4834511  -0.2777205   0.0000000), wk =   0.0138889
        k(   69) = (  -0.4834693  -0.1849945   0.0000000), wk =   0.0277778
        k(   70) = (  -0.4834875  -0.0922686   0.0000000), wk =   0.0277778
        k(   71) = (  -0.4835058   0.0004573   0.0000000), wk =   0.0277778
        k(   72) = (  -0.4835240   0.0931832   0.0000000), wk =   0.0277778
        k(   73) = (  -0.4835422   0.1859092   0.0000000), wk =   0.0277778
        k(   74) = (  -0.4833418  -0.8340760   0.0000000), wk =   0.0138889

     Dense  grid:   496741 G-vectors     FFT dimensions: (  50,  50, 480)

     Smooth grid:   355831 G-vectors     FFT dimensions: (  45,  45, 432)

     Estimated max dynamical RAM per process >       3.06 GB

     Estimated total dynamical RAM >       6.11 GB

     Initial potential from superposition of free atoms

     starting charge   57.99842, renormalised to   58.00000

     negative rho (up, down):  5.374E-05 0.000E+00
     Starting wfcs are   38 randomized atomic wfcs

     total cpu time spent up to now is       24.2 secs

     Self-consistent Calculation

     iteration #  1     ecut=   140.00 Ry     beta= 0.70
     Davidson diagonalization with overlap
     ethr =  1.00E-02,  avg # of iterations =  2.1

     negative rho (up, down):  9.824E-06 0.000E+00

     total cpu time spent up to now is       60.4 secs

     total energy              =   -1372.42551457 Ry
     estimated scf accuracy    <       1.29526234 Ry

     iteration #  2     ecut=   140.00 Ry     beta= 0.70
     Davidson diagonalization with overlap
     ethr =  2.23E-03,  avg # of iterations =  6.5

     negative rho (up, down):  3.749E-07 0.000E+00

     total cpu time spent up to now is      112.5 secs

     total energy              =   -1371.97862207 Ry
     estimated scf accuracy    <       8.02337852 Ry

     iteration #  3     ecut=   140.00 Ry     beta= 0.70
     Davidson diagonalization with overlap
     ethr =  2.23E-03,  avg # of iterations =  5.5

     negative rho (up, down):  1.425E-06 0.000E+00

     total cpu time spent up to now is      160.9 secs

     total energy              =   -1373.20413231 Ry
     estimated scf accuracy    <       0.15021236 Ry

     iteration #  4     ecut=   140.00 Ry     beta= 0.70
     Davidson diagonalization with overlap
     ethr =  2.59E-04,  avg # of iterations =  8.3

     negative rho (up, down):  3.908E-06 0.000E+00

     total cpu time spent up to now is      210.5 secs

     total energy              =   -1373.19863431 Ry
     estimated scf accuracy    <       1.11831393 Ry

     iteration #  5     ecut=   140.00 Ry     beta= 0.70
     Davidson diagonalization with overlap
     ethr =  2.59E-04,  avg # of iterations =  7.1

     negative rho (up, down):  1.098E-05 0.000E+00

     total cpu time spent up to now is      256.5 secs

     total energy              =   -1373.24809959 Ry
     estimated scf accuracy    <       0.03064647 Ry

     iteration #  6     ecut=   140.00 Ry     beta= 0.70
     Davidson diagonalization with overlap
     ethr =  5.28E-05,  avg # of iterations =  3.8

     negative rho (up, down):  3.664E-05 0.000E+00

     total cpu time spent up to now is      295.0 secs

     total energy              =   -1373.24950772 Ry
     estimated scf accuracy    <       0.00742079 Ry

     iteration #  7     ecut=   140.00 Ry     beta= 0.70
     Davidson diagonalization with overlap
     ethr =  1.28E-05,  avg # of iterations =  6.7

     negative rho (up, down):  3.240E-05 0.000E+00

     total cpu time spent up to now is      340.8 secs

     total energy              =   -1373.25047165 Ry
     estimated scf accuracy    <       0.00461371 Ry

     iteration #  8     ecut=   140.00 Ry     beta= 0.70
     Davidson diagonalization with overlap
     ethr =  7.95E-06,  avg # of iterations =  3.8

     negative rho (up, down):  7.017E-05 0.000E+00

     total cpu time spent up to now is      379.9 secs

     total energy              =   -1373.25109696 Ry
     estimated scf accuracy    <       0.00020733 Ry

     iteration #  9     ecut=   140.00 Ry     beta= 0.70
     Davidson diagonalization with overlap
     c_bands:  1 eigenvalues not converged
     c_bands:  1 eigenvalues not converged
     c_bands:  1 eigenvalues not converged
     ethr =  3.57E-07,  avg # of iterations = 10.1

     negative rho (up, down):  6.378E-05 0.000E+00

     total cpu time spent up to now is      437.8 secs

     total energy              =   -1373.25116522 Ry
     estimated scf accuracy    <       0.00071721 Ry

     iteration # 10     ecut=   140.00 Ry     beta= 0.70
     Davidson diagonalization with overlap
     ethr =  3.57E-07,  avg # of iterations =  5.6

     negative rho (up, down):  5.688E-05 0.000E+00

     total cpu time spent up to now is      480.3 secs

     total energy              =   -1373.25123409 Ry
     estimated scf accuracy    <       0.00002518 Ry

     iteration # 11     ecut=   140.00 Ry     beta= 0.70
     Davidson diagonalization with overlap
     ethr =  4.34E-08,  avg # of iterations =  6.8

     negative rho (up, down):  6.486E-05 0.000E+00

     total cpu time spent up to now is      527.1 secs

     total energy              =   -1373.25124145 Ry
     estimated scf accuracy    <       0.00000196 Ry

     iteration # 12     ecut=   140.00 Ry     beta= 0.70
     Davidson diagonalization with overlap
     ethr =  3.37E-09,  avg # of iterations =  5.8

     negative rho (up, down):  6.528E-05 0.000E+00

     total cpu time spent up to now is      574.6 secs

     total energy              =   -1373.25124182 Ry
     estimated scf accuracy    <       0.00000153 Ry

     iteration # 13     ecut=   140.00 Ry     beta= 0.70
     Davidson diagonalization with overlap
     ethr =  2.64E-09,  avg # of iterations =  1.5

     negative rho (up, down):  6.512E-05 0.000E+00

     total cpu time spent up to now is      608.9 secs

     total energy              =   -1373.25124166 Ry
     estimated scf accuracy    <       0.00000103 Ry

     iteration # 14     ecut=   140.00 Ry     beta= 0.70
     Davidson diagonalization with overlap
     ethr =  1.78E-09,  avg # of iterations =  6.5

     negative rho (up, down):  6.591E-05 0.000E+00

     total cpu time spent up to now is      653.6 secs

     total energy              =   -1373.25124181 Ry
     estimated scf accuracy    <       0.00000101 Ry

     iteration # 15     ecut=   140.00 Ry     beta= 0.70
     Davidson diagonalization with overlap
     ethr =  1.75E-09,  avg # of iterations =  1.8

     negative rho (up, down):  6.589E-05 0.000E+00

     total cpu time spent up to now is      688.5 secs

     total energy              =   -1373.25124179 Ry
     estimated scf accuracy    <       0.00000051 Ry

     iteration # 16     ecut=   140.00 Ry     beta= 0.70
     Davidson diagonalization with overlap
     ethr =  8.84E-10,  avg # of iterations =  5.1

     negative rho (up, down):  6.594E-05 0.000E+00

     total cpu time spent up to now is      728.6 secs

     total energy              =   -1373.25124184 Ry
     estimated scf accuracy    <       0.00000002 Ry

     iteration # 17     ecut=   140.00 Ry     beta= 0.70
     Davidson diagonalization with overlap
     ethr =  3.66E-11,  avg # of iterations =  5.7

     negative rho (up, down):  6.591E-05 0.000E+00

     total cpu time spent up to now is      772.4 secs

     total energy              =   -1373.25124184 Ry
     estimated scf accuracy    <       0.00000005 Ry

     iteration # 18     ecut=   140.00 Ry     beta= 0.70
     Davidson diagonalization with overlap
     ethr =  3.66E-11,  avg # of iterations =  2.9

     negative rho (up, down):  6.592E-05 0.000E+00

     total cpu time spent up to now is      809.9 secs

     total energy              =   -1373.25124184 Ry
     estimated scf accuracy    <       0.00000002 Ry

     iteration # 19     ecut=   140.00 Ry     beta= 0.70
     Davidson diagonalization with overlap
     ethr =  3.29E-11,  avg # of iterations =  4.8

     negative rho (up, down):  6.594E-05 0.000E+00

     total cpu time spent up to now is      849.7 secs

     total energy              =   -1373.25124184 Ry
     estimated scf accuracy    <          6.4E-11 Ry

     iteration # 20     ecut=   140.00 Ry     beta= 0.70
     Davidson diagonalization with overlap
     c_bands:  1 eigenvalues not converged
     c_bands:  1 eigenvalues not converged
     c_bands:  1 eigenvalues not converged
     ethr =  1.10E-13,  avg # of iterations = 12.2

     negative rho (up, down):  6.594E-05 0.000E+00

     total cpu time spent up to now is      921.6 secs

     total energy              =   -1373.25124184 Ry
     estimated scf accuracy    <       0.00000001 Ry

     iteration # 21     ecut=   140.00 Ry     beta= 0.70
     Davidson diagonalization with overlap
     c_bands:  1 eigenvalues not converged
     c_bands:  1 eigenvalues not converged
     c_bands:  1 eigenvalues not converged
     ethr =  1.10E-13,  avg # of iterations = 11.2

     negative rho (up, down):  6.594E-05 0.000E+00

     total cpu time spent up to now is      982.8 secs

     total energy              =   -1373.25124184 Ry
     estimated scf accuracy    <          1.1E-09 Ry

     iteration # 22     ecut=   140.00 Ry     beta= 0.70
     Davidson diagonalization with overlap
     c_bands:  1 eigenvalues not converged
     ethr =  1.10E-13,  avg # of iterations =  4.3

     negative rho (up, down):  6.594E-05 0.000E+00

     total cpu time spent up to now is     1022.0 secs

     total energy              =   -1373.25124184 Ry
     estimated scf accuracy    <          6.1E-10 Ry

     iteration # 23     ecut=   140.00 Ry     beta= 0.70
     Davidson diagonalization with overlap
     ethr =  1.10E-13,  avg # of iterations =  7.6

     negative rho (up, down):  6.594E-05 0.000E+00

     total cpu time spent up to now is     1070.8 secs

     total energy              =   -1373.25124184 Ry
     estimated scf accuracy    <          1.3E-11 Ry

     iteration # 24     ecut=   140.00 Ry     beta= 0.70
     Davidson diagonalization with overlap
     ethr =  1.00E-13,  avg # of iterations =  1.0

     negative rho (up, down):  6.594E-05 0.000E+00

     total cpu time spent up to now is     1104.1 secs

     total energy              =   -1373.25124184 Ry
     estimated scf accuracy    <          7.7E-12 Ry

     iteration # 25     ecut=   140.00 Ry     beta= 0.70
     Davidson diagonalization with overlap
     ethr =  1.00E-13,  avg # of iterations =  1.0

     negative rho (up, down):  6.594E-05 0.000E+00

     total cpu time spent up to now is     1137.3 secs

     total energy              =   -1373.25124184 Ry
     estimated scf accuracy    <          5.5E-12 Ry

     iteration # 26     ecut=   140.00 Ry     beta= 0.70
     Davidson diagonalization with overlap
     ethr =  1.00E-13,  avg # of iterations =  1.0

     negative rho (up, down):  6.594E-05 0.000E+00

     total cpu time spent up to now is     1170.5 secs

     total energy              =   -1373.25124184 Ry
     estimated scf accuracy    <          2.6E-12 Ry

     iteration # 27     ecut=   140.00 Ry     beta= 0.70
     Davidson diagonalization with overlap
     ethr =  1.00E-13,  avg # of iterations =  1.2

     negative rho (up, down):  6.594E-05 0.000E+00

     total cpu time spent up to now is     1203.9 secs

     End of self-consistent calculation

          k = 0.0000 0.0000 0.0000 ( 44429 PWs)   bands (ev):

   -68.2898 -68.2422 -35.3154 -34.7117 -34.4035 -34.3986 -34.3385 -34.3322
   -19.9453 -19.9316 -19.9063 -19.9058 -19.9004 -19.9000 -19.8738 -19.8731
   -19.8660 -19.8659 -19.8588 -19.8533 -19.7922 -19.7907 -13.2782  -7.6690
    -4.3938  -4.3505  -1.9290  -0.8990  -0.7263

          k =-0.0000 0.0927 0.0000 ( 44397 PWs)   bands (ev):

   -68.2860 -68.2398 -35.3027 -34.7169 -34.4506 -34.4149 -34.3825 -34.3384
   -19.9438 -19.9306 -19.9078 -19.9063 -19.9007 -19.8989 -19.8753 -19.8728
   -19.8663 -19.8653 -19.8559 -19.8507 -19.7950 -19.7937 -13.1643  -7.4489
    -4.7172  -4.3161  -1.8341  -1.0826  -0.5372

          k =-0.0000 0.1855 0.0000 ( 44373 PWs)   bands (ev):

   -68.2754 -68.2333 -35.2684 -34.7447 -34.5650 -34.4995 -34.4561 -34.3575
   -19.9398 -19.9282 -19.9115 -19.9073 -19.9017 -19.8965 -19.8790 -19.8718
   -19.8672 -19.8633 -19.8481 -19.8434 -19.8025 -19.8014 -12.8639  -6.8674
    -5.3776  -4.2534  -1.8295  -1.4635  -0.9834

          k =-0.0001 0.2782 0.0000 ( 44433 PWs)   bands (ev):

   -68.2605 -68.2248 -35.2249 -34.8483 -34.6618 -34.6412 -34.5090 -34.3866
   -19.9353 -19.9248 -19.9158 -19.9087 -19.9035 -19.8942 -19.8828 -19.8699
   -19.8682 -19.8604 -19.8375 -19.8334 -19.8123 -19.8111 -12.4839  -6.4526
    -5.6909  -4.2421  -2.4625  -1.5265  -1.0279

          k =-0.0001 0.3709 0.0000 ( 44451 PWs)   bands (ev):

   -68.2449 -68.2171 -35.1947 -35.0049 -34.7785 -34.6871 -34.5594 -34.4175
   -19.9331 -19.9206 -19.9189 -19.9102 -19.9061 -19.8933 -19.8849 -19.8691
   -19.8673 -19.8571 -19.8266 -19.8234 -19.8220 -19.8198 -12.1482  -6.8397
    -5.2231  -4.3016  -3.0993  -1.1907  -0.6680

          k =-0.0001 0.4636 0.0000 ( 44482 PWs)   bands (ev):

   -68.2324 -68.2123 -35.1989 -35.1234 -34.8373 -34.7116 -34.5953 -34.4407
   -19.9331 -19.9200 -19.9174 -19.9115 -19.9085 -19.8936 -19.8853 -19.8696
   -19.8650 -19.8545 -19.8289 -19.8255 -19.8183 -19.8161 -11.9368  -7.1606
    -5.0001  -4.3778  -3.4987  -0.4169  -0.1608

          k = 0.0001-0.5564 0.0000 ( 44512 PWs)   bands (ev):

   -68.2274 -68.2110 -35.2125 -35.1634 -34.8466 -34.7228 -34.6082 -34.4493
   -19.9334 -19.9199 -19.9169 -19.9120 -19.9091 -19.8939 -19.8853 -19.8697
   -19.8641 -19.8534 -19.8314 -19.8274 -19.8152 -19.8135 -11.8676  -7.2706
    -4.9675  -4.4108  -3.6321   0.0688   0.0981

          k = 0.0806 0.0463 0.0000 ( 44403 PWs)   bands (ev):

   -68.2860 -68.2397 -35.3026 -34.7168 -34.4484 -34.4178 -34.3792 -34.3420
   -19.9438 -19.9306 -19.9076 -19.9065 -19.9006 -19.8991 -19.8750 -19.8732
   -19.8663 -19.8652 -19.8558 -19.8507 -19.7951 -19.7937 -13.1637  -7.4479
    -4.6955  -4.3412  -1.8325  -1.0811  -0.5376

          k = 0.0806 0.1390 0.0000 ( 44389 PWs)   bands (ev):

   -68.2788 -68.2353 -35.2791 -34.7319 -34.5205 -34.4918 -34.4173 -34.3616
   -19.9410 -19.9290 -19.9100 -19.9077 -19.9009 -19.8974 -19.8777 -19.8724
   -19.8667 -19.8641 -19.8506 -19.8457 -19.8002 -19.7990 -12.9566  -7.0387
    -5.1724  -4.3245  -1.7345  -1.2929  -0.9132

          k = 0.0805 0.2317 0.0000 ( 44396 PWs)   bands (ev):

   -68.2660 -68.2278 -35.2396 -34.7903 -34.6301 -34.6055 -34.4755 -34.3938
   -19.9364 -19.9263 -19.9136 -19.9097 -19.9017 -19.8952 -19.8814 -19.8713
   -19.8669 -19.8621 -19.8414 -19.8371 -19.8088 -19.8079 -12.6159  -6.3881
    -5.7336  -4.4045  -1.9814  -1.4632  -1.1259

          k = 0.0805 0.3245 0.0000 ( 44458 PWs)   bands (ev):

   -68.2507 -68.2198 -35.2008 -34.9236 -34.7428 -34.6732 -34.5413 -34.4283
   -19.9324 -19.9228 -19.9172 -19.9113 -19.9035 -19.8939 -19.8844 -19.8701
   -19.8664 -19.8593 -19.8307 -19.8271 -19.8186 -19.8173 -12.2583  -6.5046
    -5.4352  -4.5286  -2.6320  -1.1752  -1.0476

          k = 0.0805 0.4172 0.0000 ( 44487 PWs)   bands (ev):

   -68.2365 -68.2137 -35.1855 -35.0613 -34.8185 -34.7114 -34.5922 -34.4589
   -19.9313 -19.9194 -19.9187 -19.9121 -19.9064 -19.8939 -19.8857 -19.8695
   -19.8654 -19.8564 -19.8272 -19.8248 -19.8209 -19.8184 -11.9873  -6.9063
    -5.0198  -4.6230  -3.0766  -0.7189  -0.5733

          k = 0.0805 0.5099 0.0000 ( 44493 PWs)   bands (ev):

   -68.2274 -68.2110 -35.1947 -35.1410 -34.8385 -34.7387 -34.6186 -34.4769
   -19.9317 -19.9198 -19.9167 -19.9120 -19.9086 -19.8943 -19.8858 -19.8692
   -19.8645 -19.8545 -19.8320 -19.8286 -19.8152 -19.8135 -11.8501  -7.1217
    -4.9156  -4.6864  -3.2856  -0.1419  -0.0718

          k = 0.0807-0.5101 0.0000 ( 44498 PWs)   bands (ev):

   -68.2274 -68.2110 -35.1949 -35.1412 -34.8387 -34.7385 -34.6186 -34.4769
   -19.9317 -19.9198 -19.9166 -19.9120 -19.9087 -19.8944 -19.8858 -19.8693
   -19.8645 -19.8545 -19.8320 -19.8286 -19.8152 -19.8135 -11.8500  -7.1221
    -4.9162  -4.6856  -3.2868  -0.1418  -0.0724

          k = 0.0807-0.4173 0.0000 ( 44484 PWs)   bands (ev):

   -68.2364 -68.2136 -35.1857 -35.0619 -34.8193 -34.7112 -34.5920 -34.4588
   -19.9313 -19.9194 -19.9187 -19.9121 -19.9065 -19.8939 -19.8857 -19.8695
   -19.8652 -19.8564 -19.8272 -19.8248 -19.8209 -19.8184 -11.9867  -6.9073
    -5.0198  -4.6225  -3.0797  -0.7167  -0.5755

          k = 0.0806-0.3246 0.0000 ( 44446 PWs)   bands (ev):

   -68.2506 -68.2197 -35.2008 -34.9244 -34.7436 -34.6733 -34.5413 -34.4284
   -19.9324 -19.9228 -19.9173 -19.9113 -19.9036 -19.8940 -19.8844 -19.8702
   -19.8663 -19.8593 -19.8307 -19.8271 -19.8187 -19.8174 -12.2574  -6.5056
    -5.4346  -4.5288  -2.6352  -1.1745  -1.0471

          k = 0.0806-0.2319 0.0000 ( 44389 PWs)   bands (ev):

   -68.2659 -68.2278 -35.2395 -34.7905 -34.6303 -34.6059 -34.4761 -34.3941
   -19.9364 -19.9263 -19.9136 -19.9097 -19.9016 -19.8953 -19.8814 -19.8713
   -19.8669 -19.8621 -19.8414 -19.8370 -19.8088 -19.8080 -12.6150  -6.3869
    -5.7332  -4.4060  -1.9829  -1.4620  -1.1256

          k = 0.0806-0.1392 0.0000 ( 44391 PWs)   bands (ev):

   -68.2787 -68.2352 -35.2789 -34.7318 -34.5201 -34.4916 -34.4182 -34.3628
   -19.9410 -19.9290 -19.9099 -19.9078 -19.9008 -19.8975 -19.8777 -19.8724
   -19.8667 -19.8642 -19.8505 -19.8457 -19.8002 -19.7991 -12.9559  -7.0374
    -5.1672  -4.3314  -1.7334  -1.2913  -0.9088

          k = 0.0806-0.0464 0.0000 ( 44407 PWs)   bands (ev):

   -68.2859 -68.2397 -35.3025 -34.7167 -34.4469 -34.4196 -34.3777 -34.3439
   -19.9438 -19.9306 -19.9074 -19.9067 -19.9004 -19.8993 -19.8749 -19.8733
   -19.8663 -19.8653 -19.8558 -19.8507 -19.7951 -19.7937 -13.1634  -7.4474
    -4.6859  -4.3520  -1.8317  -1.0800  -0.5353

          k = 0.1612 0.0926 0.0000 ( 44356 PWs)   bands (ev):

   -68.2752 -68.2332 -35.2680 -34.7443 -34.5640 -34.4971 -34.4599 -34.3617
   -19.9398 -19.9282 -19.9114 -19.9075 -19.9015 -19.8966 -19.8787 -19.8721
   -19.8673 -19.8633 -19.8480 -19.8433 -19.8026 -19.8015 -12.8617  -6.8641
    -5.3611  -4.2798  -1.8196  -1.4631  -0.9777

          k = 0.1611 0.1853 0.0000 ( 44390 PWs)   bands (ev):

   -68.2659 -68.2278 -35.2393 -34.7896 -34.6306 -34.6045 -34.4770 -34.3965
   -19.9363 -19.9263 -19.9135 -19.9098 -19.9016 -19.8953 -19.8813 -19.8713
   -19.8669 -19.8621 -19.8414 -19.8370 -19.8089 -19.8080 -12.6145  -6.3854
    -5.7262  -4.4192  -1.9699  -1.4669  -1.1310

          k = 0.1611 0.2780 0.0000 ( 44414 PWs)   bands (ev):

   -68.2527 -68.2207 -35.2031 -34.8732 -34.7491 -34.6588 -34.5229 -34.4576
   -19.9314 -19.9242 -19.9152 -19.9134 -19.9019 -19.8947 -19.8842 -19.8710
   -19.8648 -19.8611 -19.8321 -19.8284 -19.8173 -19.8170 -12.2957  -6.1393
    -5.6821  -4.7639  -2.1267  -1.6196  -0.5743

          k = 0.1611 0.3708 0.0000 ( 44461 PWs)   bands (ev):

   -68.2386 -68.2145 -35.1751 -34.9808 -34.8303 -34.7007 -34.5908 -34.5094
   -19.9276 -19.9218 -19.9171 -19.9143 -19.9037 -19.8949 -19.8861 -19.8701
   -19.8634 -19.8596 -19.8264 -19.8256 -19.8222 -19.8196 -12.0054  -6.4833
    -5.1401  -4.9844  -2.3886  -1.2980  -0.6043

          k = 0.1611 0.4635 0.0000 ( 44467 PWs)   bands (ev):

   -68.2272 -68.2109 -35.1625 -35.0751 -34.8452 -34.7581 -34.6349 -34.5442
   -19.9275 -19.9197 -19.9168 -19.9128 -19.9067 -19.8956 -19.8870 -19.8687
   -19.8641 -19.8574 -19.8329 -19.8310 -19.8153 -19.8135 -11.8147  -6.7415
    -5.1820  -4.7886  -2.5616  -0.6830  -0.4807

          k = 0.1611 0.5562 0.0000 ( 44456 PWs)   bands (ev):

   -68.2224 -68.2103 -35.1553 -35.1175 -34.8183 -34.8104 -34.6466 -34.5572
   -19.9280 -19.9194 -19.9154 -19.9118 -19.9085 -19.8960 -19.8871 -19.8677
   -19.8651 -19.8564 -19.8353 -19.8329 -19.8125 -19.8113 -11.7499  -6.8367
    -5.2108  -4.7413  -2.6299  -0.3325  -0.2768

          k = 0.1613-0.4638 0.0000 ( 44469 PWs)   bands (ev):

   -68.2271 -68.2109 -35.1631 -35.0759 -34.8460 -34.7577 -34.6348 -34.5441
   -19.9275 -19.9197 -19.9168 -19.9128 -19.9067 -19.8956 -19.8870 -19.8688
   -19.8640 -19.8574 -19.8330 -19.8310 -19.8152 -19.8135 -11.8140  -6.7432
    -5.1822  -4.7888  -2.5638  -0.6871  -0.4800

          k = 0.1612-0.3711 0.0000 ( 44464 PWs)   bands (ev):

   -68.2385 -68.2143 -35.1753 -34.9822 -34.8311 -34.7009 -34.5907 -34.5095
   -19.9276 -19.9218 -19.9171 -19.9143 -19.9038 -19.8950 -19.8861 -19.8702
   -19.8632 -19.8596 -19.8265 -19.8257 -19.8222 -19.8195 -12.0041  -6.4856
    -5.1396  -4.9850  -2.3928  -1.3009  -0.6027

          k = 0.1612-0.2783 0.0000 ( 44425 PWs)   bands (ev):

   -68.2525 -68.2206 -35.2029 -34.8739 -34.7500 -34.6592 -34.5236 -34.4583
   -19.9314 -19.9242 -19.9151 -19.9135 -19.9018 -19.8948 -19.8841 -19.8710
   -19.8648 -19.8611 -19.8320 -19.8283 -19.8174 -19.8171 -12.2940  -6.1398
    -5.6801  -4.7666  -2.1297  -1.6197  -0.5742

          k = 0.1612-0.1856 0.0000 ( 44374 PWs)   bands (ev):

   -68.2657 -68.2276 -35.2390 -34.7893 -34.6308 -34.6046 -34.4784 -34.3983
   -19.9363 -19.9263 -19.9134 -19.9100 -19.9014 -19.8955 -19.8813 -19.8714
   -19.8669 -19.8621 -19.8413 -19.8369 -19.8090 -19.8081 -12.6129  -6.3828
    -5.7222  -4.4266  -1.9664  -1.4675  -1.1322

          k = 0.1612-0.0929 0.0000 ( 44359 PWs)   bands (ev):

   -68.2751 -68.2331 -35.2678 -34.7439 -34.5633 -34.4960 -34.4620 -34.3637
   -19.9398 -19.9282 -19.9112 -19.9077 -19.9013 -19.8968 -19.8786 -19.8721
   -19.8672 -19.8633 -19.8480 -19.8433 -19.8027 -19.8016 -12.8607  -6.8623
    -5.3541  -4.2902  -1.8150  -1.4626  -0.9752

          k = 0.1612-0.0002 0.0000 ( 44365 PWs)   bands (ev):

   -68.2786 -68.2352 -35.2786 -34.7317 -34.5198 -34.4908 -34.4193 -34.3657
   -19.9409 -19.9290 -19.9097 -19.9080 -19.9007 -19.8976 -19.8773 -19.8727
   -19.8667 -19.8641 -19.8505 -19.8456 -19.8003 -19.7991 -12.9543  -7.0352
    -5.1536  -4.3507  -1.7313  -1.2877  -0.8973

          k = 0.2417 0.1389 0.0000 ( 44413 PWs)   bands (ev):

   -68.2601 -68.2246 -35.2241 -34.8476 -34.6629 -34.6393 -34.5137 -34.3914
   -19.9352 -19.9248 -19.9157 -19.9089 -19.9033 -19.8944 -19.8825 -19.8700
   -19.8683 -19.8603 -19.8374 -19.8333 -19.8126 -19.8114 -12.4801  -6.4453
    -5.6826  -4.2705  -2.4516  -1.5291  -1.0276

          k = 0.2417 0.2316 0.0000 ( 44456 PWs)   bands (ev):

   -68.2503 -68.2196 -35.2002 -34.9226 -34.7431 -34.6727 -34.5453 -34.4325
   -19.9324 -19.9228 -19.9171 -19.9115 -19.9034 -19.8941 -19.8843 -19.8701
   -19.8665 -19.8592 -19.8306 -19.8270 -19.8188 -19.8175 -12.2552  -6.4971
    -5.4330  -4.5499  -2.6226  -1.1761  -1.0526

          k = 0.2417 0.3243 0.0000 ( 44453 PWs)   bands (ev):

   -68.2384 -68.2143 -35.1749 -34.9800 -34.8309 -34.7001 -34.5932 -34.5115
   -19.9276 -19.9218 -19.9169 -19.9144 -19.9037 -19.8950 -19.8861 -19.8701
   -19.8634 -19.8596 -19.8266 -19.8257 -19.8222 -19.8195 -12.0038  -6.4789
    -5.1496  -4.9866  -2.3858  -1.2950  -0.6097

          k = 0.2417 0.4170 0.0000 ( 44463 PWs)   bands (ev):

   -68.2270 -68.2109 -35.1480 -35.0132 -34.8957 -34.7327 -34.6486 -34.5900
   -19.9232 -19.9222 -19.9156 -19.9144 -19.9052 -19.8965 -19.8876 -19.8689
   -19.8618 -19.8606 -19.8331 -19.8326 -19.8153 -19.8134 -11.7959  -6.4452
    -5.5091  -4.7227  -1.8243  -1.3887  -0.6818

          k = 0.2417 0.5098 0.0000 ( 44468 PWs)   bands (ev):

   -68.2189 -68.2103 -35.1096 -35.0536 -34.9147 -34.7805 -34.6695 -34.6379
   -19.9243 -19.9188 -19.9151 -19.9115 -19.9075 -19.8978 -19.8886 -19.8668
   -19.8642 -19.8595 -19.8374 -19.8364 -19.8110 -19.8101 -11.6807  -6.4523
    -5.6946  -4.5634  -1.7423  -0.8859  -0.6465

          k = 0.2416 0.6025 0.0000 ( 44442 PWs)   bands (ev):

   -68.2188 -68.2102 -35.1100 -35.0542 -34.9147 -34.7806 -34.6693 -34.6380
   -19.9243 -19.9187 -19.9152 -19.9115 -19.9076 -19.8979 -19.8886 -19.8668
   -19.8642 -19.8594 -19.8374 -19.8364 -19.8110 -19.8100 -11.6802  -6.4535
    -5.6949  -4.5642  -1.7425  -0.8926  -0.6429

          k = 0.2418-0.4175 0.0000 ( 44457 PWs)   bands (ev):

   -68.2268 -68.2107 -35.1486 -35.0146 -34.8961 -34.7330 -34.6487 -34.5902
   -19.9231 -19.9222 -19.9158 -19.9143 -19.9052 -19.8967 -19.8876 -19.8689
   -19.8617 -19.8604 -19.8332 -19.8327 -19.8152 -19.8133 -11.7947  -6.4474
    -5.5110  -4.7235  -1.8276  -1.3929  -0.6801

          k = 0.2418-0.3248 0.0000 ( 44460 PWs)   bands (ev):

   -68.2382 -68.2142 -35.1749 -34.9809 -34.8322 -34.7001 -34.5941 -34.5126
   -19.9277 -19.9217 -19.9169 -19.9145 -19.9036 -19.8951 -19.8861 -19.8701
   -19.8633 -19.8595 -19.8267 -19.8258 -19.8220 -19.8194 -12.0018  -6.4795
    -5.1520  -4.9878  -2.3894  -1.2960  -0.6101

          k = 0.2418-0.2320 0.0000 ( 44448 PWs)   bands (ev):

   -68.2501 -68.2194 -35.1999 -34.9226 -34.7438 -34.6726 -34.5473 -34.4345
   -19.9324 -19.9228 -19.9170 -19.9116 -19.9033 -19.8943 -19.8843 -19.8701
   -19.8665 -19.8592 -19.8304 -19.8268 -19.8190 -19.8177 -12.2530  -6.4950
    -5.4296  -4.5584  -2.6225  -1.1757  -1.0535

          k = 0.2418-0.1393 0.0000 ( 44401 PWs)   bands (ev):

   -68.2600 -68.2244 -35.2238 -34.8470 -34.6631 -34.6386 -34.5162 -34.3937
   -19.9353 -19.9248 -19.9156 -19.9091 -19.9031 -19.8946 -19.8825 -19.8700
   -19.8683 -19.8603 -19.8373 -19.8332 -19.8127 -19.8115 -12.4783  -6.4421
    -5.6778  -4.2814  -2.4474  -1.5300  -1.0273

          k = 0.2418-0.0466 0.0000 ( 44361 PWs)   bands (ev):

   -68.2655 -68.2275 -35.2387 -34.7904 -34.6308 -34.6056 -34.4792 -34.3992
   -19.9363 -19.9263 -19.9134 -19.9100 -19.9014 -19.8956 -19.8811 -19.8715
   -19.8670 -19.8620 -19.8412 -19.8369 -19.8091 -19.8082 -12.6107  -6.3808
    -5.7209  -4.4328  -1.9694  -1.4654  -1.1312

          k = 0.2417 0.0461 0.0000 ( 44368 PWs)   bands (ev):

   -68.2656 -68.2276 -35.2388 -34.7908 -34.6309 -34.6058 -34.4784 -34.3979
   -19.9363 -19.9263 -19.9135 -19.9098 -19.9015 -19.8954 -19.8811 -19.8715
   -19.8670 -19.8620 -19.8412 -19.8369 -19.8090 -19.8082 -12.6114  -6.3821
    -5.7245  -4.4269  -1.9744  -1.4636  -1.1297

          k = 0.3223 0.1851 0.0000 ( 44459 PWs)   bands (ev):

   -68.2442 -68.2167 -35.1942 -35.0049 -34.7780 -34.6878 -34.5650 -34.4229
   -19.9330 -19.9205 -19.9189 -19.9105 -19.9059 -19.8936 -19.8848 -19.8692
   -19.8673 -19.8570 -19.8264 -19.8232 -19.8224 -19.8201 -12.1431  -6.8339
    -5.2218  -4.3326  -3.0917  -1.1881  -0.6643

          k = 0.3223 0.2779 0.0000 ( 44467 PWs)   bands (ev):

   -68.2359 -68.2134 -35.1852 -35.0609 -34.8174 -34.7125 -34.5974 -34.4638
   -19.9314 -19.9193 -19.9186 -19.9123 -19.9063 -19.8941 -19.8856 -19.8695
   -19.8654 -19.8563 -19.8275 -19.8250 -19.8207 -19.8182 -11.9831  -6.9013
    -5.0224  -4.6486  -3.0708  -0.7156  -0.5662

          k = 0.3223 0.3706 0.0000 ( 44463 PWs)   bands (ev):

   -68.2267 -68.2108 -35.1628 -35.0748 -34.8454 -34.7582 -34.6386 -34.5473
   -19.9276 -19.9196 -19.9166 -19.9130 -19.9067 -19.8958 -19.8869 -19.8687
   -19.8642 -19.8573 -19.8331 -19.8312 -19.8151 -19.8133 -11.8118  -6.7388
    -5.1967  -4.7944  -2.5654  -0.6706  -0.4723

          k = 0.3222 0.4633 0.0000 ( 44472 PWs)   bands (ev):

   -68.2185 -68.2103 -35.1102 -35.0534 -34.9159 -34.7794 -34.6720 -34.6383
   -19.9244 -19.9188 -19.9150 -19.9116 -19.9075 -19.8979 -19.8886 -19.8668
   -19.8643 -19.8593 -19.8375 -19.8364 -19.8109 -19.8100 -11.6792  -6.4517
    -5.7012  -4.5675  -1.7579  -0.8672  -0.6397

          k = 0.3222 0.5561 0.0000 ( 44503 PWs)   bands (ev):

   -68.2130 -68.2125 -35.0384 -35.0363 -35.0015 -34.7804 -34.6842 -34.6817
   -19.9238 -19.9161 -19.9160 -19.9091 -19.9090 -19.8992 -19.8895 -19.8651
   -19.8648 -19.8607 -19.8390 -19.8387 -19.8092 -19.8089 -11.6287  -6.1115
    -6.1102  -4.4607  -1.0916  -0.9608  -0.9493

          k = 0.3222 0.6488 0.0000 ( 44484 PWs)   bands (ev):

   -68.2184 -68.2102 -35.1106 -35.0539 -34.9166 -34.7794 -34.6725 -34.6387
   -19.9244 -19.9189 -19.9150 -19.9116 -19.9074 -19.8981 -19.8885 -19.8668
   -19.8643 -19.8592 -19.8375 -19.8366 -19.8108 -19.8099 -11.6782  -6.4521
    -5.7045  -4.5692  -1.7652  -0.8650  -0.6336

          k = 0.3224-0.3712 0.0000 ( 44456 PWs)   bands (ev):

   -68.2264 -68.2106 -35.1632 -35.0753 -34.8465 -34.7581 -34.6399 -34.5488
   -19.9276 -19.9196 -19.9166 -19.9131 -19.9066 -19.8960 -19.8868 -19.8688
   -19.8641 -19.8572 -19.8333 -19.8313 -19.8150 -19.8132 -11.8099  -6.7389
    -5.2031  -4.7952  -2.5699  -0.6684  -0.4684

          k = 0.3224-0.2785 0.0000 ( 44458 PWs)   bands (ev):

   -68.2356 -68.2132 -35.1852 -35.0612 -34.8179 -34.7126 -34.5997 -34.4662
   -19.9314 -19.9192 -19.9186 -19.9124 -19.9062 -19.8943 -19.8855 -19.8695
   -19.8653 -19.8562 -19.8277 -19.8252 -19.8205 -19.8180 -11.9807  -6.9000
    -5.0212  -4.6580  -3.0725  -0.7120  -0.5646

          k = 0.3224-0.1858 0.0000 ( 44436 PWs)   bands (ev):

   -68.2440 -68.2165 -35.1938 -35.0046 -34.7779 -34.6879 -34.5679 -34.4255
   -19.9331 -19.9205 -19.9188 -19.9107 -19.9057 -19.8938 -19.8847 -19.8691
   -19.8672 -19.8570 -19.8262 -19.8230 -19.8225 -19.8203 -12.1409  -6.8312
    -5.2188  -4.3445  -3.0896  -1.1871  -0.6622

          k = 0.3224-0.0930 0.0000 ( 44435 PWs)   bands (ev):

   -68.2499 -68.2193 -35.1998 -34.9247 -34.7452 -34.6729 -34.5468 -34.4347
   -19.9324 -19.9228 -19.9171 -19.9116 -19.9033 -19.8943 -19.8842 -19.8703
   -19.8663 -19.8591 -19.8303 -19.8268 -19.8191 -19.8178 -12.2509  -6.4983
    -5.4281  -4.5604  -2.6300  -1.1751  -1.0507

          k = 0.3223-0.0003 0.0000 ( 44370 PWs)   bands (ev):

   -68.2521 -68.2204 -35.2025 -34.8767 -34.7512 -34.6599 -34.5244 -34.4600
   -19.9313 -19.9242 -19.9151 -19.9136 -19.9018 -19.8949 -19.8839 -19.8711
   -19.8648 -19.8609 -19.8319 -19.8282 -19.8176 -19.8173 -12.2900  -6.1421
    -5.6765  -4.7766  -2.1347  -1.6221  -0.5771

          k = 0.3223 0.0924 0.0000 ( 44427 PWs)   bands (ev):

   -68.2501 -68.2194 -35.2001 -34.9253 -34.7451 -34.6731 -34.5448 -34.4326
   -19.9323 -19.9228 -19.9172 -19.9115 -19.9034 -19.8942 -19.8842 -19.8704
   -19.8663 -19.8591 -19.8304 -19.8269 -19.8190 -19.8176 -12.2523  -6.5013
    -5.4310  -4.5519  -2.6333  -1.1748  -1.0493

          k = 0.4029 0.2314 0.0000 ( 44491 PWs)   bands (ev):

   -68.2316 -68.2120 -35.1996 -35.1237 -34.8353 -34.7134 -34.6015 -34.4466
   -19.9331 -19.9199 -19.9172 -19.9118 -19.9084 -19.8939 -19.8852 -19.8697
   -19.8649 -19.8543 -19.8294 -19.8259 -19.8180 -19.8158 -11.9311  -7.1576
    -5.0060  -4.4106  -3.4924  -0.4060  -0.1509

          k = 0.4029 0.3242 0.0000 ( 44490 PWs)   bands (ev):

   -68.2265 -68.2107 -35.1958 -35.1411 -34.8359 -34.7413 -34.6241 -34.4822
   -19.9318 -19.9197 -19.9164 -19.9122 -19.9086 -19.8946 -19.8857 -19.8693
   -19.8644 -19.8544 -19.8324 -19.8289 -19.8149 -19.8132 -11.8451  -7.1196
    -4.9226  -4.7128  -3.2851  -0.1285  -0.0585

          k = 0.4028 0.4169 0.0000 ( 44449 PWs)   bands (ev):

   -68.2216 -68.2101 -35.1571 -35.1175 -34.8164 -34.8128 -34.6501 -34.5606
   -19.9281 -19.9194 -19.9152 -19.9120 -19.9085 -19.8962 -19.8871 -19.8679
   -19.8649 -19.8563 -19.8356 -19.8332 -19.8123 -19.8111 -11.7458  -6.8372
    -5.2268  -4.7496  -2.6388  -0.3203  -0.2600

          k = 0.4028 0.5096 0.0000 ( 44456 PWs)   bands (ev):

   -68.2182 -68.2102 -35.1116 -35.0558 -34.9155 -34.7797 -34.6707 -34.6392
   -19.9244 -19.9187 -19.9151 -19.9116 -19.9075 -19.8980 -19.8885 -19.8670
   -19.8641 -19.8592 -19.8376 -19.8365 -19.8108 -19.8099 -11.6774  -6.4575
    -5.7014  -4.5706  -1.7588  -0.8887  -0.6274

          k = 0.4028 0.6023 0.0000 ( 44446 PWs)   bands (ev):

   -68.2181 -68.2102 -35.1117 -35.0557 -34.9161 -34.7796 -34.6714 -34.6396
   -19.9244 -19.9189 -19.9151 -19.9116 -19.9074 -19.8981 -19.8885 -19.8670
   -19.8641 -19.8592 -19.8376 -19.8366 -19.8107 -19.8099 -11.6769  -6.4567
    -5.7044  -4.5716  -1.7660  -0.8799  -0.6248

          k = 0.4028 0.6951 0.0000 ( 44446 PWs)   bands (ev):

   -68.2213 -68.2100 -35.1575 -35.1175 -34.8160 -34.8141 -34.6515 -34.5623
   -19.9281 -19.9194 -19.9152 -19.9121 -19.9084 -19.8964 -19.8869 -19.8679
   -19.8649 -19.8562 -19.8357 -19.8333 -19.8121 -19.8110 -11.7443  -6.8365
    -5.2334  -4.7512  -2.6432  -0.3137  -0.2535

          k = 0.4030-0.3249 0.0000 ( 44483 PWs)   bands (ev):

   -68.2262 -68.2105 -35.1963 -35.1412 -34.8356 -34.7419 -34.6266 -34.4848
   -19.9318 -19.9196 -19.9164 -19.9125 -19.9085 -19.8948 -19.8856 -19.8693
   -19.8643 -19.8543 -19.8325 -19.8292 -19.8147 -19.8131 -11.8429  -7.1184
    -4.9238  -4.7225  -3.2871  -0.1224  -0.0525

          k = 0.4030-0.2322 0.0000 ( 44494 PWs)   bands (ev):

   -68.2312 -68.2118 -35.1996 -35.1237 -34.8350 -34.7136 -34.6047 -34.4495
   -19.9332 -19.9198 -19.9172 -19.9120 -19.9082 -19.8941 -19.8851 -19.8697
   -19.8648 -19.8543 -19.8295 -19.8261 -19.8178 -19.8156 -11.9287  -7.1556
    -5.0058  -4.4235  -3.4911  -0.4012  -0.1457

          k = 0.4029-0.1395 0.0000 ( 44479 PWs)   bands (ev):

   -68.2354 -68.2131 -35.1858 -35.0627 -34.8193 -34.7122 -34.5992 -34.4661
   -19.9314 -19.9193 -19.9186 -19.9125 -19.9062 -19.8944 -19.8854 -19.8697
   -19.8651 -19.8562 -19.8277 -19.8253 -19.8205 -19.8179 -11.9792  -6.9035
    -5.0222  -4.6559  -3.0802  -0.7073  -0.5690

          k = 0.4029-0.0467 0.0000 ( 44454 PWs)   bands (ev):

   -68.2378 -68.2140 -35.1755 -34.9847 -34.8333 -34.7006 -34.5935 -34.5131
   -19.9276 -19.9218 -19.9170 -19.9146 -19.9036 -19.8952 -19.8860 -19.8703
   -19.8631 -19.8594 -19.8268 -19.8260 -19.8219 -19.8193 -11.9984  -6.4872
    -5.1474  -4.9947  -2.3992  -1.3034  -0.6015

          k = 0.4029 0.0460 0.0000 ( 44457 PWs)   bands (ev):

   -68.2379 -68.2141 -35.1757 -34.9851 -34.8329 -34.7007 -34.5925 -34.5120
   -19.9276 -19.9218 -19.9171 -19.9145 -19.9037 -19.8951 -19.8860 -19.8704
   -19.8631 -19.8594 -19.8268 -19.8259 -19.8220 -19.8193 -11.9991  -6.4890
    -5.1444  -4.9941  -2.3997  -1.3053  -0.5995

          k = 0.4029 0.1387 0.0000 ( 44455 PWs)   bands (ev):

   -68.2356 -68.2133 -35.1861 -35.0630 -34.8195 -34.7119 -34.5966 -34.4637
   -19.9314 -19.9193 -19.9186 -19.9123 -19.9064 -19.8942 -19.8855 -19.8697
   -19.8650 -19.8563 -19.8276 -19.8251 -19.8206 -19.8181 -11.9810  -6.9059
    -5.0234  -4.6460  -3.0816  -0.7086  -0.5728

          k =-0.4835-0.2777 0.0000 ( 44466 PWs)   bands (ev):

   -68.2264 -68.2107 -35.2141 -35.1636 -34.8436 -34.7252 -34.6147 -34.4554
   -19.9335 -19.9198 -19.9166 -19.9123 -19.9091 -19.8942 -19.8852 -19.8699
   -19.8639 -19.8533 -19.8319 -19.8278 -19.8148 -19.8132 -11.8618  -7.2686
    -4.9765  -4.4442  -3.6260   0.0850   0.1111

          k =-0.4835-0.1850 0.0000 ( 44482 PWs)   bands (ev):

   -68.2264 -68.2107 -35.1966 -35.1417 -34.8366 -34.7408 -34.6238 -34.4821
   -19.9318 -19.9197 -19.9164 -19.9123 -19.9086 -19.8947 -19.8857 -19.8694
   -19.8643 -19.8543 -19.8324 -19.8289 -19.8148 -19.8132 -11.8443  -7.1214
    -4.9262  -4.7083  -3.2893  -0.1291  -0.0594

          k =-0.4835-0.0923 0.0000 ( 44459 PWs)   bands (ev):

   -68.2264 -68.2107 -35.1646 -35.0777 -34.8473 -34.7571 -34.6379 -34.5472
   -19.9276 -19.9196 -19.9167 -19.9130 -19.9067 -19.8959 -19.8869 -19.8690
   -19.8638 -19.8572 -19.8332 -19.8313 -19.8150 -19.8132 -11.8091  -6.7460
    -5.1978  -4.7951  -2.5732  -0.6846  -0.4677

          k =-0.4835 0.0005 0.0000 ( 44458 PWs)   bands (ev):

   -68.2263 -68.2106 -35.1500 -35.0189 -34.8958 -34.7333 -34.6484 -34.5913
   -19.9232 -19.9221 -19.9158 -19.9144 -19.9052 -19.8967 -19.8875 -19.8691
   -19.8615 -19.8603 -19.8333 -19.8328 -19.8150 -19.8132 -11.7910  -6.4558
    -5.5142  -4.7281  -1.8358  -1.4025  -0.6723

          k =-0.4835 0.0932 0.0000 ( 44458 PWs)   bands (ev):

   -68.2262 -68.2105 -35.1645 -35.0774 -34.8476 -34.7574 -34.6393 -34.5488
   -19.9276 -19.9196 -19.9167 -19.9131 -19.9066 -19.8960 -19.8868 -19.8690
   -19.8638 -19.8572 -19.8333 -19.8314 -19.8149 -19.8131 -11.8079  -6.7444
    -5.2039  -4.7957  -2.5755  -0.6783  -0.4645

          k =-0.4835 0.1859 0.0000 ( 44482 PWs)   bands (ev):

   -68.2261 -68.2105 -35.1968 -35.1416 -34.8361 -34.7415 -34.6264 -34.4848
   -19.9319 -19.9196 -19.9164 -19.9125 -19.9085 -19.8948 -19.8855 -19.8694
   -19.8642 -19.8543 -19.8325 -19.8292 -19.8147 -19.8130 -11.8423  -7.1198
    -4.9268  -4.7188  -3.2901  -0.1231  -0.0529

          k =-0.4833-0.8341 0.0000 ( 44482 PWs)   bands (ev):

   -68.2261 -68.2105 -35.2145 -35.1636 -34.8431 -34.7256 -34.6180 -34.4584
   -19.9335 -19.9197 -19.9165 -19.9125 -19.9089 -19.8944 -19.8850 -19.8698
   -19.8639 -19.8532 -19.8321 -19.8281 -19.8146 -19.8130 -11.8595  -7.2669
    -4.9774  -4.4575  -3.6249   0.0922   0.1177

     highest occupied level (ev):     0.1177

!    total energy              =   -1373.25124184 Ry
     estimated scf accuracy    <          1.1E-13 Ry

     The total energy is the sum of the following terms:
     one-electron contribution =  -10891.88959990 Ry
     hartree contribution      =    5474.28135839 Ry
     xc contribution           =    -138.78172006 Ry
     ewald contribution        =    4183.13871972 Ry

     convergence has been achieved in  27 iterations

     negative rho (up, down):  6.594E-05 0.000E+00

     Forces acting on atoms (cartesian axes, Ry/au):

     atom    1 type  2   force =     0.00031075    0.00028325   -0.00017505
     atom    2 type  1   force =    -0.00026854   -0.00046453    0.00155211
     atom    3 type  1   force =    -0.00004221    0.00018128   -0.00137706

     Total force =     0.002151     Total SCF correction =     0.000004


     Computing stress (Cartesian axis) and pressure


     negative rho (up, down):  6.594E-05 0.000E+00
          total   stress  (Ry/bohr**3)                   (kbar)     P=        5.52
   0.00006642  -0.00000261   0.00000033            9.77       -0.38        0.05
  -0.00000261   0.00005139   0.00000093           -0.38        7.56        0.14
   0.00000033   0.00000093  -0.00000523            0.05        0.14       -0.77


     Writing output data file /scratch/as3359/Ta2C-CT-ecutoff/Ta2C.save/
 
     init_run     :     43.97s CPU     24.04s WALL (       1 calls)
     electrons    :   2311.21s CPU   1179.74s WALL (       1 calls)
     forces       :     13.61s CPU      7.08s WALL (       1 calls)
     stress       :     53.65s CPU     27.73s WALL (       1 calls)

     Called by init_run:
     wfcinit      :     33.20s CPU     16.91s WALL (       1 calls)
     potinit      :      2.77s CPU      1.42s WALL (       1 calls)
     hinit0       :      5.89s CPU      4.29s WALL (       1 calls)

     Called by electrons:
     c_bands      :   1884.84s CPU    951.33s WALL (      27 calls)
     sum_band     :    362.42s CPU    189.30s WALL (      27 calls)
     v_of_rho     :      9.39s CPU      5.12s WALL (      28 calls)
     newd         :     51.85s CPU     32.70s WALL (      28 calls)
     mix_rho      :      3.48s CPU      1.87s WALL (      27 calls)

     Called by c_bands:
     init_us_2    :     43.41s CPU     21.72s WALL (    4218 calls)
     cegterg      :   1745.02s CPU    881.05s WALL (    1998 calls)

     Called by *egterg:
     cdiaghg      :     18.48s CPU      9.45s WALL (   12351 calls)
     h_psi        :   1433.59s CPU    724.81s WALL (   12425 calls)
     s_psi        :     74.02s CPU     37.05s WALL (   12425 calls)
     g_psi        :      8.05s CPU      4.04s WALL (   10353 calls)

     Called by h_psi:
     h_psi:calbec :     54.91s CPU     27.53s WALL (   12425 calls)
     vloc_psi     :   1289.74s CPU    652.68s WALL (   12425 calls)
     add_vuspsi   :     80.22s CPU     40.15s WALL (   12425 calls)

     General routines
     calbec       :     71.83s CPU     36.01s WALL (   14793 calls)
     fft          :      5.33s CPU      2.72s WALL (     387 calls)
     ffts         :      0.58s CPU      0.30s WALL (      55 calls)
     fftw         :   1333.38s CPU    675.37s WALL (  363908 calls)
     interpolate  :      0.92s CPU      0.48s WALL (      28 calls)
 
     Parallel routines
 
     PWSCF        :  40m26.53s CPU  20m42.26s WALL

 
   This run was terminated on:  23:55:52   6Apr2022            

=------------------------------------------------------------------------------=
   JOB DONE.
=------------------------------------------------------------------------------=
