
     Program PWSCF v.6.8 starts on  6Apr2022 at 22:53:27 

     This program is part of the open-source Quantum ESPRESSO suite
     for quantum simulation of materials; please cite
         "P. Giannozzi et al., J. Phys.:Condens. Matter 21 395502 (2009);
         "P. Giannozzi et al., J. Phys.:Condens. Matter 29 465901 (2017);
         "P. Giannozzi et al., J. Chem. Phys. 152 154105 (2020);
          URL http://www.quantum-espresso.org", 
     in publications or presentations arising from this work. More details at
     http://www.quantum-espresso.org/quote

     Parallel version (MPI & OpenMP), running on       4 processor cores
     Number of MPI processes:                 2
     Threads/MPI process:                     2

     MPI processes distributed on     1 nodes
     R & G space division:  proc/nbgrp/npool/nimage =       2
     124984 MiB available memory on the printing compute node when the environment starts
 
     Reading input from Ta2C.scf.130.in

     Current dimensions of program PWSCF are:
     Max number of different atomic species (ntypx) = 10
     Max number of k-points (npk) =  40000
     Max angular momentum in pseudopotentials (lmaxx) =  4
     file Ta.pbesol-spfn-rrkjus_psl.1.0.0.UPF: wavefunction(s)  5S 5P renormalized

     Subspace diagonalization in iterative solution of the eigenvalue problem:
     a serial algorithm will be used

 
     Parallelization info
     --------------------
     sticks:   dense  smooth     PW     G-vecs:    dense   smooth      PW
     Min         742     590    180               222419   158914   26230
     Max         743     591    181               222428   158925   26243
     Sum        1485    1181    361               444847   317839   52473
 
     Using Slab Decomposition
 


     bravais-lattice index     =            0
     lattice parameter (alat)  =       5.5500  a.u.
     unit-cell volume          =    1588.7844 (a.u.)^3
     number of atoms/cell      =            3
     number of atomic types    =            2
     number of electrons       =        58.00
     number of Kohn-Sham states=           29
     kinetic-energy cutoff     =     130.0000  Ry
     charge density cutoff     =     650.0000  Ry
     scf convergence threshold =      1.0E-12
     mixing beta               =       0.7000
     number of iterations used =            8  plain     mixing
     Exchange-correlation= PBESOL
                           (   1   4  10   8   0   0   0)

     celldm(1)=   5.550000  celldm(2)=   0.000000  celldm(3)=   0.000000
     celldm(4)=   0.000000  celldm(5)=   0.000000  celldm(6)=   0.000000

     crystal axes: (cart. coord. in units of alat)
               a(1) = (   1.034114   0.000203   0.000000 )  
               a(2) = (  -0.516207   0.898604   0.000000 )  
               a(3) = (   0.000000   0.000000  10.000000 )  

     reciprocal axes: (cart. coord. in units 2 pi/alat)
               b(1) = (  0.966902  0.555441  0.000000 )  
               b(2) = ( -0.000219  1.112711  0.000000 )  
               b(3) = (  0.000000  0.000000  0.100000 )  


     PseudoPot. # 1 for Ta read from file:
     /shared/home/as3359/pseudo/Ta.pbesol-spfn-rrkjus_psl.1.0.0.UPF
     MD5 check sum: f099565ffaca9b150a52e9412a28e20b
     Pseudo is Ultrasoft + core correction, Zval = 27.0
     Generated using &quot;atomic&quot; code by A. Dal Corso  v.6.3
     Using radial grid of 1273 points,  8 beta functions with: 
                l(1) =   0
                l(2) =   0
                l(3) =   1
                l(4) =   1
                l(5) =   2
                l(6) =   2
                l(7) =   3
                l(8) =   3
     Q(r) pseudized with 0 coefficients 


     PseudoPot. # 2 for C  read from file:
     /shared/home/as3359/pseudo/C.pbesol-n-rrkjus_psl.1.0.0.UPF
     MD5 check sum: 05995be603a8a7c99da3dc4413f31573
     Pseudo is Ultrasoft + core correction, Zval =  4.0
     Generated using &quot;atomic&quot; code by A. Dal Corso  v.6.3MaX
     Using radial grid of 1073 points,  4 beta functions with: 
                l(1) =   0
                l(2) =   0
                l(3) =   1
                l(4) =   1
     Q(r) pseudized with 0 coefficients 


     atomic species   valence    mass     pseudopotential
        Ta            27.00   180.94788     Ta( 1.00)
        C              4.00    12.01070     C ( 1.00)

     No symmetry found



   Cartesian axes

     site n.     atom                  positions (alat units)
         1           C   tau(   1) = (   0.0000000   0.0000000   0.0000000  )
         2           Ta  tau(   2) = (   0.5174615   0.3004190  -0.4127129  )
         3           Ta  tau(   3) = (   0.0007158   0.5986355   0.4125272  )

     number of k points=    74
                       cart. coord. in units 2pi/alat
        k(    1) = (   0.0000000   0.0000000   0.0000000), wk =   0.0138889
        k(    2) = (  -0.0000182   0.0927259   0.0000000), wk =   0.0277778
        k(    3) = (  -0.0000364   0.1854519   0.0000000), wk =   0.0277778
        k(    4) = (  -0.0000547   0.2781778   0.0000000), wk =   0.0277778
        k(    5) = (  -0.0000729   0.3709037   0.0000000), wk =   0.0277778
        k(    6) = (  -0.0000911   0.4636296   0.0000000), wk =   0.0277778
        k(    7) = (   0.0001093  -0.5563556   0.0000000), wk =   0.0138889
        k(    8) = (   0.0805752   0.0462867   0.0000000), wk =   0.0277778
        k(    9) = (   0.0805570   0.1390127   0.0000000), wk =   0.0277778
        k(   10) = (   0.0805388   0.2317386   0.0000000), wk =   0.0277778
        k(   11) = (   0.0805205   0.3244645   0.0000000), wk =   0.0277778
        k(   12) = (   0.0805023   0.4171904   0.0000000), wk =   0.0277778
        k(   13) = (   0.0804841   0.5099164   0.0000000), wk =   0.0277778
        k(   14) = (   0.0806845  -0.5100688   0.0000000), wk =   0.0277778
        k(   15) = (   0.0806663  -0.4173429   0.0000000), wk =   0.0277778
        k(   16) = (   0.0806481  -0.3246170   0.0000000), wk =   0.0277778
        k(   17) = (   0.0806298  -0.2318910   0.0000000), wk =   0.0277778
        k(   18) = (   0.0806116  -0.1391651   0.0000000), wk =   0.0277778
        k(   19) = (   0.0805934  -0.0464392   0.0000000), wk =   0.0277778
        k(   20) = (   0.1611504   0.0925735   0.0000000), wk =   0.0277778
        k(   21) = (   0.1611322   0.1852994   0.0000000), wk =   0.0277778
        k(   22) = (   0.1611139   0.2780253   0.0000000), wk =   0.0277778
        k(   23) = (   0.1610957   0.3707513   0.0000000), wk =   0.0277778
        k(   24) = (   0.1610775   0.4634772   0.0000000), wk =   0.0277778
        k(   25) = (   0.1610593   0.5562031   0.0000000), wk =   0.0277778
        k(   26) = (   0.1612597  -0.4637821   0.0000000), wk =   0.0277778
        k(   27) = (   0.1612415  -0.3710561   0.0000000), wk =   0.0277778
        k(   28) = (   0.1612232  -0.2783302   0.0000000), wk =   0.0277778
        k(   29) = (   0.1612050  -0.1856043   0.0000000), wk =   0.0277778
        k(   30) = (   0.1611868  -0.0928784   0.0000000), wk =   0.0277778
        k(   31) = (   0.1611686  -0.0001524   0.0000000), wk =   0.0277778
        k(   32) = (   0.2417256   0.1388602   0.0000000), wk =   0.0277778
        k(   33) = (   0.2417073   0.2315862   0.0000000), wk =   0.0277778
        k(   34) = (   0.2416891   0.3243121   0.0000000), wk =   0.0277778
        k(   35) = (   0.2416709   0.4170380   0.0000000), wk =   0.0277778
        k(   36) = (   0.2416527   0.5097639   0.0000000), wk =   0.0277778
        k(   37) = (   0.2416345   0.6024899   0.0000000), wk =   0.0277778
        k(   38) = (   0.2418349  -0.4174953   0.0000000), wk =   0.0277778
        k(   39) = (   0.2418166  -0.3247694   0.0000000), wk =   0.0277778
        k(   40) = (   0.2417984  -0.2320435   0.0000000), wk =   0.0277778
        k(   41) = (   0.2417802  -0.1393175   0.0000000), wk =   0.0277778
        k(   42) = (   0.2417620  -0.0465916   0.0000000), wk =   0.0277778
        k(   43) = (   0.2417438   0.0461343   0.0000000), wk =   0.0277778
        k(   44) = (   0.3223007   0.1851470   0.0000000), wk =   0.0277778
        k(   45) = (   0.3222825   0.2778729   0.0000000), wk =   0.0277778
        k(   46) = (   0.3222643   0.3705988   0.0000000), wk =   0.0277778
        k(   47) = (   0.3222461   0.4633248   0.0000000), wk =   0.0277778
        k(   48) = (   0.3222279   0.5560507   0.0000000), wk =   0.0277778
        k(   49) = (   0.3222097   0.6487766   0.0000000), wk =   0.0277778
        k(   50) = (   0.3224100  -0.3712086   0.0000000), wk =   0.0277778
        k(   51) = (   0.3223918  -0.2784827   0.0000000), wk =   0.0277778
        k(   52) = (   0.3223736  -0.1857567   0.0000000), wk =   0.0277778
        k(   53) = (   0.3223554  -0.0930308   0.0000000), wk =   0.0277778
        k(   54) = (   0.3223372  -0.0003049   0.0000000), wk =   0.0277778
        k(   55) = (   0.3223190   0.0924210   0.0000000), wk =   0.0277778
        k(   56) = (   0.4028759   0.2314337   0.0000000), wk =   0.0277778
        k(   57) = (   0.4028577   0.3241596   0.0000000), wk =   0.0277778
        k(   58) = (   0.4028395   0.4168856   0.0000000), wk =   0.0277778
        k(   59) = (   0.4028213   0.5096115   0.0000000), wk =   0.0277778
        k(   60) = (   0.4028031   0.6023374   0.0000000), wk =   0.0277778
        k(   61) = (   0.4027848   0.6950633   0.0000000), wk =   0.0277778
        k(   62) = (   0.4029852  -0.3249218   0.0000000), wk =   0.0277778
        k(   63) = (   0.4029670  -0.2321959   0.0000000), wk =   0.0277778
        k(   64) = (   0.4029488  -0.1394700   0.0000000), wk =   0.0277778
        k(   65) = (   0.4029306  -0.0467441   0.0000000), wk =   0.0277778
        k(   66) = (   0.4029124   0.0459819   0.0000000), wk =   0.0277778
        k(   67) = (   0.4028941   0.1387078   0.0000000), wk =   0.0277778
        k(   68) = (  -0.4834511  -0.2777205   0.0000000), wk =   0.0138889
        k(   69) = (  -0.4834693  -0.1849945   0.0000000), wk =   0.0277778
        k(   70) = (  -0.4834875  -0.0922686   0.0000000), wk =   0.0277778
        k(   71) = (  -0.4835058   0.0004573   0.0000000), wk =   0.0277778
        k(   72) = (  -0.4835240   0.0931832   0.0000000), wk =   0.0277778
        k(   73) = (  -0.4835422   0.1859092   0.0000000), wk =   0.0277778
        k(   74) = (  -0.4833418  -0.8340760   0.0000000), wk =   0.0138889

     Dense  grid:   444847 G-vectors     FFT dimensions: (  48,  48, 480)

     Smooth grid:   317839 G-vectors     FFT dimensions: (  45,  45, 405)

     Estimated max dynamical RAM per process >       2.74 GB

     Estimated total dynamical RAM >       5.48 GB

     Initial potential from superposition of free atoms

     starting charge   57.99842, renormalised to   58.00000

     negative rho (up, down):  8.187E-05 0.000E+00
     Starting wfcs are   38 randomized atomic wfcs

     total cpu time spent up to now is       22.4 secs

     Self-consistent Calculation

     iteration #  1     ecut=   130.00 Ry     beta= 0.70
     Davidson diagonalization with overlap
     ethr =  1.00E-02,  avg # of iterations =  2.1

     negative rho (up, down):  5.390E-05 0.000E+00

     total cpu time spent up to now is       55.9 secs

     total energy              =   -1372.42495486 Ry
     estimated scf accuracy    <       1.29601509 Ry

     iteration #  2     ecut=   130.00 Ry     beta= 0.70
     Davidson diagonalization with overlap
     ethr =  2.23E-03,  avg # of iterations =  6.9

     total cpu time spent up to now is      104.2 secs

     total energy              =   -1371.92147127 Ry
     estimated scf accuracy    <       8.31266493 Ry

     iteration #  3     ecut=   130.00 Ry     beta= 0.70
     Davidson diagonalization with overlap
     ethr =  2.23E-03,  avg # of iterations =  5.8

     total cpu time spent up to now is      148.9 secs

     total energy              =   -1373.21300540 Ry
     estimated scf accuracy    <       0.12008177 Ry

     iteration #  4     ecut=   130.00 Ry     beta= 0.70
     Davidson diagonalization with overlap
     ethr =  2.07E-04,  avg # of iterations =  5.8

     total cpu time spent up to now is      188.9 secs

     total energy              =   -1373.24791563 Ry
     estimated scf accuracy    <       0.03352712 Ry

     iteration #  5     ecut=   130.00 Ry     beta= 0.70
     Davidson diagonalization with overlap
     ethr =  5.78E-05,  avg # of iterations =  6.9

     total cpu time spent up to now is      230.7 secs

     total energy              =   -1373.24140205 Ry
     estimated scf accuracy    <       0.15613422 Ry

     iteration #  6     ecut=   130.00 Ry     beta= 0.70
     Davidson diagonalization with overlap
     ethr =  5.78E-05,  avg # of iterations =  6.6

     negative rho (up, down):  7.671E-06 0.000E+00

     total cpu time spent up to now is      271.3 secs

     total energy              =   -1373.24983619 Ry
     estimated scf accuracy    <       0.00992808 Ry

     iteration #  7     ecut=   130.00 Ry     beta= 0.70
     Davidson diagonalization with overlap
     ethr =  1.71E-05,  avg # of iterations =  4.2

     negative rho (up, down):  5.682E-06 0.000E+00

     total cpu time spent up to now is      307.7 secs

     total energy              =   -1373.25031831 Ry
     estimated scf accuracy    <       0.00342179 Ry

     iteration #  8     ecut=   130.00 Ry     beta= 0.70
     Davidson diagonalization with overlap
     ethr =  5.90E-06,  avg # of iterations =  5.5

     negative rho (up, down):  8.324E-05 0.000E+00

     total cpu time spent up to now is      346.8 secs

     total energy              =   -1373.25097573 Ry
     estimated scf accuracy    <       0.00074305 Ry

     iteration #  9     ecut=   130.00 Ry     beta= 0.70
     Davidson diagonalization with overlap
     ethr =  1.28E-06,  avg # of iterations =  3.9

     negative rho (up, down):  1.681E-04 0.000E+00

     total cpu time spent up to now is      382.1 secs

     total energy              =   -1373.25101021 Ry
     estimated scf accuracy    <       0.00030127 Ry

     iteration # 10     ecut=   130.00 Ry     beta= 0.70
     Davidson diagonalization with overlap
     ethr =  5.19E-07,  avg # of iterations =  3.8

     negative rho (up, down):  1.797E-04 0.000E+00

     total cpu time spent up to now is      417.3 secs

     total energy              =   -1373.25103166 Ry
     estimated scf accuracy    <       0.00006772 Ry

     iteration # 11     ecut=   130.00 Ry     beta= 0.70
     Davidson diagonalization with overlap
     ethr =  1.17E-07,  avg # of iterations =  6.3

     negative rho (up, down):  1.768E-04 0.000E+00

     total cpu time spent up to now is      457.6 secs

     total energy              =   -1373.25104207 Ry
     estimated scf accuracy    <       0.00001265 Ry

     iteration # 12     ecut=   130.00 Ry     beta= 0.70
     Davidson diagonalization with overlap
     ethr =  2.18E-08,  avg # of iterations =  5.2

     negative rho (up, down):  1.794E-04 0.000E+00

     total cpu time spent up to now is      496.2 secs

     total energy              =   -1373.25104322 Ry
     estimated scf accuracy    <       0.00001165 Ry

     iteration # 13     ecut=   130.00 Ry     beta= 0.70
     Davidson diagonalization with overlap
     ethr =  2.01E-08,  avg # of iterations =  2.1

     negative rho (up, down):  1.787E-04 0.000E+00

     total cpu time spent up to now is      528.9 secs

     total energy              =   -1373.25104303 Ry
     estimated scf accuracy    <       0.00000675 Ry

     iteration # 14     ecut=   130.00 Ry     beta= 0.70
     Davidson diagonalization with overlap
     ethr =  1.16E-08,  avg # of iterations =  3.9

     negative rho (up, down):  1.780E-04 0.000E+00

     total cpu time spent up to now is      563.9 secs

     total energy              =   -1373.25104341 Ry
     estimated scf accuracy    <       0.00000046 Ry

     iteration # 15     ecut=   130.00 Ry     beta= 0.70
     Davidson diagonalization with overlap
     ethr =  7.92E-10,  avg # of iterations =  7.3

     negative rho (up, down):  1.773E-04 0.000E+00

     total cpu time spent up to now is      608.0 secs

     total energy              =   -1373.25104360 Ry
     estimated scf accuracy    <       0.00000047 Ry

     iteration # 16     ecut=   130.00 Ry     beta= 0.70
     Davidson diagonalization with overlap
     ethr =  7.92E-10,  avg # of iterations =  1.2

     negative rho (up, down):  1.775E-04 0.000E+00

     total cpu time spent up to now is      639.5 secs

     total energy              =   -1373.25104359 Ry
     estimated scf accuracy    <       0.00000032 Ry

     iteration # 17     ecut=   130.00 Ry     beta= 0.70
     Davidson diagonalization with overlap
     ethr =  5.48E-10,  avg # of iterations =  2.6

     negative rho (up, down):  1.774E-04 0.000E+00

     total cpu time spent up to now is      673.5 secs

     total energy              =   -1373.25104358 Ry
     estimated scf accuracy    <       0.00000013 Ry

     iteration # 18     ecut=   130.00 Ry     beta= 0.70
     Davidson diagonalization with overlap
     ethr =  2.27E-10,  avg # of iterations =  6.9

     negative rho (up, down):  1.774E-04 0.000E+00

     total cpu time spent up to now is      718.0 secs

     total energy              =   -1373.25104361 Ry
     estimated scf accuracy    <       0.00000029 Ry

     iteration # 19     ecut=   130.00 Ry     beta= 0.70
     Davidson diagonalization with overlap
     ethr =  2.27E-10,  avg # of iterations =  1.4

     negative rho (up, down):  1.775E-04 0.000E+00

     total cpu time spent up to now is      751.8 secs

     total energy              =   -1373.25104359 Ry
     estimated scf accuracy    <       0.00000021 Ry

     iteration # 20     ecut=   130.00 Ry     beta= 0.70
     Davidson diagonalization with overlap
     ethr =  2.27E-10,  avg # of iterations =  5.3

     negative rho (up, down):  1.775E-04 0.000E+00

     total cpu time spent up to now is      791.4 secs

     total energy              =   -1373.25104361 Ry
     estimated scf accuracy    <          9.5E-09 Ry

     iteration # 21     ecut=   130.00 Ry     beta= 0.70
     Davidson diagonalization with overlap
     ethr =  1.63E-11,  avg # of iterations =  6.0

     negative rho (up, down):  1.775E-04 0.000E+00

     total cpu time spent up to now is      832.0 secs

     total energy              =   -1373.25104361 Ry
     estimated scf accuracy    <          9.6E-09 Ry

     iteration # 22     ecut=   130.00 Ry     beta= 0.70
     Davidson diagonalization with overlap
     ethr =  1.63E-11,  avg # of iterations =  1.2

     negative rho (up, down):  1.775E-04 0.000E+00

     total cpu time spent up to now is      863.7 secs

     total energy              =   -1373.25104361 Ry
     estimated scf accuracy    <          7.8E-09 Ry

     iteration # 23     ecut=   130.00 Ry     beta= 0.70
     Davidson diagonalization with overlap
     ethr =  1.35E-11,  avg # of iterations =  5.0

     negative rho (up, down):  1.775E-04 0.000E+00

     total cpu time spent up to now is      901.5 secs

     total energy              =   -1373.25104361 Ry
     estimated scf accuracy    <          5.6E-10 Ry

     iteration # 24     ecut=   130.00 Ry     beta= 0.70
     Davidson diagonalization with overlap
     ethr =  9.67E-13,  avg # of iterations =  6.0

     negative rho (up, down):  1.775E-04 0.000E+00

     total cpu time spent up to now is      943.2 secs

     total energy              =   -1373.25104361 Ry
     estimated scf accuracy    <          2.5E-09 Ry

     iteration # 25     ecut=   130.00 Ry     beta= 0.70
     Davidson diagonalization with overlap
     ethr =  9.67E-13,  avg # of iterations =  1.7

     negative rho (up, down):  1.775E-04 0.000E+00

     total cpu time spent up to now is      976.1 secs

     total energy              =   -1373.25104361 Ry
     estimated scf accuracy    <          1.8E-09 Ry

     iteration # 26     ecut=   130.00 Ry     beta= 0.70
     Davidson diagonalization with overlap
     ethr =  9.67E-13,  avg # of iterations =  2.5

     negative rho (up, down):  1.775E-04 0.000E+00

     total cpu time spent up to now is     1010.7 secs

     total energy              =   -1373.25104361 Ry
     estimated scf accuracy    <          1.0E-09 Ry

     iteration # 27     ecut=   130.00 Ry     beta= 0.70
     Davidson diagonalization with overlap
     c_bands:  1 eigenvalues not converged
     ethr =  9.67E-13,  avg # of iterations =  4.2

     negative rho (up, down):  1.775E-04 0.000E+00

     total cpu time spent up to now is     1047.5 secs

     total energy              =   -1373.25104361 Ry
     estimated scf accuracy    <          1.4E-10 Ry

     iteration # 28     ecut=   130.00 Ry     beta= 0.70
     Davidson diagonalization with overlap
     ethr =  2.43E-13,  avg # of iterations =  5.4

     negative rho (up, down):  1.775E-04 0.000E+00

     total cpu time spent up to now is     1086.4 secs

     End of self-consistent calculation

          k = 0.0000 0.0000 0.0000 ( 39909 PWs)   bands (ev):

   -68.2901 -68.2425 -35.3156 -34.7119 -34.4037 -34.3988 -34.3388 -34.3324
   -19.9458 -19.9321 -19.9068 -19.9063 -19.9009 -19.9005 -19.8743 -19.8736
   -19.8664 -19.8664 -19.8592 -19.8538 -19.7927 -19.7912 -13.2785  -7.6693
    -4.3941  -4.3508  -1.9293  -0.8993  -0.7266

          k =-0.0000 0.0927 0.0000 ( 39866 PWs)   bands (ev):

   -68.2863 -68.2400 -35.3029 -34.7171 -34.4508 -34.4151 -34.3827 -34.3386
   -19.9443 -19.9311 -19.9083 -19.9068 -19.9012 -19.8994 -19.8758 -19.8733
   -19.8668 -19.8657 -19.8563 -19.8512 -19.7955 -19.7941 -13.1646  -7.4492
    -4.7175  -4.3164  -1.8344  -1.0829  -0.5375

          k =-0.0000 0.1855 0.0000 ( 39849 PWs)   bands (ev):

   -68.2757 -68.2336 -35.2687 -34.7449 -34.5652 -34.4997 -34.4563 -34.3577
   -19.9403 -19.9287 -19.9120 -19.9078 -19.9022 -19.8969 -19.8795 -19.8723
   -19.8677 -19.8638 -19.8486 -19.8439 -19.8030 -19.8019 -12.8642  -6.8677
    -5.3779  -4.2537  -1.8298  -1.4638  -0.9837

          k =-0.0001 0.2782 0.0000 ( 39832 PWs)   bands (ev):

   -68.2608 -68.2251 -35.2251 -34.8486 -34.6620 -34.6414 -34.5092 -34.3868
   -19.9358 -19.9253 -19.9163 -19.9092 -19.9040 -19.8947 -19.8832 -19.8704
   -19.8687 -19.8609 -19.8380 -19.8339 -19.8128 -19.8116 -12.4842  -6.4530
    -5.6912  -4.2424  -2.4628  -1.5267  -1.0282

          k =-0.0001 0.3709 0.0000 ( 39830 PWs)   bands (ev):

   -68.2452 -68.2173 -35.1950 -35.0051 -34.7787 -34.6873 -34.5596 -34.4177
   -19.9335 -19.9211 -19.9194 -19.9107 -19.9066 -19.8938 -19.8854 -19.8695
   -19.8678 -19.8576 -19.8271 -19.8239 -19.8225 -19.8203 -12.1485  -6.8400
    -5.2234  -4.3019  -3.0996  -1.1910  -0.6683

          k =-0.0001 0.4636 0.0000 ( 39712 PWs)   bands (ev):

   -68.2327 -68.2126 -35.1991 -35.1236 -34.8375 -34.7118 -34.5955 -34.4409
   -19.9336 -19.9205 -19.9179 -19.9120 -19.9090 -19.8941 -19.8858 -19.8700
   -19.8655 -19.8549 -19.8294 -19.8260 -19.8188 -19.8166 -11.9371  -7.1609
    -5.0004  -4.3781  -3.4990  -0.4172  -0.1611

          k = 0.0001-0.5564 0.0000 ( 39660 PWs)   bands (ev):

   -68.2277 -68.2113 -35.2127 -35.1636 -34.8468 -34.7230 -34.6084 -34.4495
   -19.9339 -19.9204 -19.9174 -19.9125 -19.9096 -19.8944 -19.8857 -19.8702
   -19.8646 -19.8539 -19.8319 -19.8279 -19.8156 -19.8140 -11.8679  -7.2709
    -4.9678  -4.4111  -3.6324   0.0685   0.0978

          k = 0.0806 0.0463 0.0000 ( 39871 PWs)   bands (ev):

   -68.2862 -68.2400 -35.3028 -34.7170 -34.4486 -34.4180 -34.3795 -34.3423
   -19.9443 -19.9311 -19.9081 -19.9069 -19.9011 -19.8995 -19.8755 -19.8736
   -19.8668 -19.8657 -19.8563 -19.8512 -19.7956 -19.7942 -13.1640  -7.4483
    -4.6958  -4.3415  -1.8328  -1.0814  -0.5379

          k = 0.0806 0.1390 0.0000 ( 39843 PWs)   bands (ev):

   -68.2790 -68.2356 -35.2793 -34.7321 -34.5207 -34.4921 -34.4175 -34.3618
   -19.9415 -19.9294 -19.9105 -19.9082 -19.9014 -19.8979 -19.8782 -19.8728
   -19.8672 -19.8646 -19.8510 -19.8462 -19.8007 -19.7995 -12.9569  -7.0390
    -5.1727  -4.3248  -1.7348  -1.2932  -0.9135

          k = 0.0805 0.2317 0.0000 ( 39838 PWs)   bands (ev):

   -68.2663 -68.2281 -35.2399 -34.7905 -34.6303 -34.6058 -34.4757 -34.3940
   -19.9369 -19.9268 -19.9141 -19.9102 -19.9021 -19.8957 -19.8819 -19.8718
   -19.8674 -19.8626 -19.8419 -19.8376 -19.8093 -19.8084 -12.6162  -6.3885
    -5.7339  -4.4048  -1.9817  -1.4635  -1.1262

          k = 0.0805 0.3245 0.0000 ( 39807 PWs)   bands (ev):

   -68.2510 -68.2200 -35.2010 -34.9239 -34.7430 -34.6734 -34.5415 -34.4286
   -19.9329 -19.9233 -19.9177 -19.9118 -19.9040 -19.8944 -19.8849 -19.8706
   -19.8669 -19.8598 -19.8312 -19.8276 -19.8191 -19.8178 -12.2586  -6.5049
    -5.4355  -4.5290  -2.6323  -1.1755  -1.0479

          k = 0.0805 0.4172 0.0000 ( 39772 PWs)   bands (ev):

   -68.2368 -68.2139 -35.1857 -35.0615 -34.8187 -34.7116 -34.5924 -34.4591
   -19.9318 -19.9199 -19.9192 -19.9126 -19.9069 -19.8944 -19.8861 -19.8700
   -19.8658 -19.8569 -19.8277 -19.8252 -19.8214 -19.8189 -11.9876  -6.9066
    -5.0201  -4.6233  -3.0769  -0.7192  -0.5736

          k = 0.0805 0.5099 0.0000 ( 39709 PWs)   bands (ev):

   -68.2276 -68.2113 -35.1949 -35.1412 -34.8387 -34.7389 -34.6188 -34.4771
   -19.9322 -19.9202 -19.9172 -19.9125 -19.9091 -19.8948 -19.8863 -19.8697
   -19.8650 -19.8550 -19.8325 -19.8290 -19.8157 -19.8140 -11.8504  -7.1220
    -4.9159  -4.6867  -3.2859  -0.1422  -0.0721

          k = 0.0807-0.5101 0.0000 ( 39707 PWs)   bands (ev):

   -68.2276 -68.2113 -35.1951 -35.1414 -34.8389 -34.7388 -34.6188 -34.4771
   -19.9322 -19.9203 -19.9171 -19.9125 -19.9092 -19.8948 -19.8863 -19.8697
   -19.8650 -19.8550 -19.8325 -19.8291 -19.8157 -19.8140 -11.8503  -7.1224
    -4.9165  -4.6859  -3.2871  -0.1421  -0.0727

          k = 0.0807-0.4173 0.0000 ( 39772 PWs)   bands (ev):

   -68.2367 -68.2139 -35.1859 -35.0621 -34.8195 -34.7114 -34.5922 -34.4590
   -19.9318 -19.9199 -19.9192 -19.9126 -19.9069 -19.8944 -19.8862 -19.8700
   -19.8657 -19.8569 -19.8277 -19.8253 -19.8214 -19.8188 -11.9870  -6.9077
    -5.0201  -4.6228  -3.0800  -0.7170  -0.5758

          k = 0.0806-0.3246 0.0000 ( 39806 PWs)   bands (ev):

   -68.2509 -68.2200 -35.2010 -34.9246 -34.7438 -34.6735 -34.5415 -34.4286
   -19.9329 -19.9233 -19.9177 -19.9118 -19.9040 -19.8945 -19.8849 -19.8707
   -19.8668 -19.8598 -19.8311 -19.8275 -19.8192 -19.8178 -12.2577  -6.5059
    -5.4349  -4.5291  -2.6355  -1.1748  -1.0474

          k = 0.0806-0.2319 0.0000 ( 39832 PWs)   bands (ev):

   -68.2662 -68.2281 -35.2397 -34.7907 -34.6305 -34.6061 -34.4763 -34.3944
   -19.9369 -19.9268 -19.9141 -19.9102 -19.9021 -19.8958 -19.8819 -19.8718
   -19.8674 -19.8626 -19.8419 -19.8375 -19.8093 -19.8085 -12.6153  -6.3872
    -5.7335  -4.4063  -1.9832  -1.4623  -1.1259

          k = 0.0806-0.1392 0.0000 ( 39838 PWs)   bands (ev):

   -68.2790 -68.2355 -35.2792 -34.7320 -34.5203 -34.4918 -34.4184 -34.3630
   -19.9415 -19.9295 -19.9103 -19.9083 -19.9012 -19.8980 -19.8781 -19.8729
   -19.8671 -19.8646 -19.8510 -19.8461 -19.8007 -19.7995 -12.9562  -7.0377
    -5.1675  -4.3317  -1.7337  -1.2916  -0.9091

          k = 0.0806-0.0464 0.0000 ( 39871 PWs)   bands (ev):

   -68.2862 -68.2400 -35.3027 -34.7169 -34.4471 -34.4198 -34.3779 -34.3441
   -19.9443 -19.9311 -19.9079 -19.9072 -19.9008 -19.8997 -19.8754 -19.8738
   -19.8668 -19.8657 -19.8563 -19.8511 -19.7956 -19.7942 -13.1637  -7.4478
    -4.6862  -4.3524  -1.8320  -1.0803  -0.5356

          k = 0.1612 0.0926 0.0000 ( 39838 PWs)   bands (ev):

   -68.2755 -68.2334 -35.2682 -34.7445 -34.5643 -34.4973 -34.4601 -34.3619
   -19.9402 -19.9287 -19.9119 -19.9080 -19.9020 -19.8971 -19.8792 -19.8726
   -19.8677 -19.8637 -19.8485 -19.8438 -19.8031 -19.8020 -12.8620  -6.8644
    -5.3614  -4.2801  -1.8199  -1.4634  -0.9780

          k = 0.1611 0.1853 0.0000 ( 39853 PWs)   bands (ev):

   -68.2662 -68.2280 -35.2395 -34.7898 -34.6308 -34.6047 -34.4772 -34.3968
   -19.9368 -19.9268 -19.9140 -19.9103 -19.9021 -19.8958 -19.8818 -19.8718
   -19.8674 -19.8626 -19.8418 -19.8375 -19.8094 -19.8085 -12.6148  -6.3857
    -5.7265  -4.4195  -1.9702  -1.4672  -1.1313

          k = 0.1611 0.2780 0.0000 ( 39817 PWs)   bands (ev):

   -68.2529 -68.2210 -35.2033 -34.8734 -34.7493 -34.6590 -34.5232 -34.4578
   -19.9319 -19.9247 -19.9157 -19.9139 -19.9024 -19.8952 -19.8846 -19.8714
   -19.8653 -19.8616 -19.8326 -19.8289 -19.8178 -19.8174 -12.2960  -6.1396
    -5.6824  -4.7642  -2.1270  -1.6199  -0.5746

          k = 0.1611 0.3708 0.0000 ( 39757 PWs)   bands (ev):

   -68.2389 -68.2147 -35.1753 -34.9810 -34.8305 -34.7009 -34.5910 -34.5097
   -19.9281 -19.9223 -19.9176 -19.9148 -19.9042 -19.8953 -19.8866 -19.8706
   -19.8638 -19.8601 -19.8269 -19.8261 -19.8227 -19.8201 -12.0057  -6.4836
    -5.1404  -4.9848  -2.3889  -1.2983  -0.6046

          k = 0.1611 0.4635 0.0000 ( 39722 PWs)   bands (ev):

   -68.2275 -68.2112 -35.1628 -35.0753 -34.8454 -34.7583 -34.6351 -34.5445
   -19.9280 -19.9202 -19.9173 -19.9133 -19.9072 -19.8961 -19.8874 -19.8692
   -19.8646 -19.8579 -19.8334 -19.8315 -19.8158 -19.8140 -11.8150  -6.7419
    -5.1823  -4.7890  -2.5619  -0.6833  -0.4810

          k = 0.1611 0.5562 0.0000 ( 39683 PWs)   bands (ev):

   -68.2226 -68.2105 -35.1555 -35.1177 -34.8186 -34.8106 -34.6468 -34.5575
   -19.9285 -19.9199 -19.9159 -19.9123 -19.9090 -19.8965 -19.8876 -19.8682
   -19.8656 -19.8569 -19.8358 -19.8334 -19.8130 -19.8118 -11.7502  -6.8370
    -5.2111  -4.7416  -2.6302  -0.3328  -0.2771

          k = 0.1613-0.4638 0.0000 ( 39737 PWs)   bands (ev):

   -68.2274 -68.2112 -35.1633 -35.0761 -34.8462 -34.7579 -34.6350 -34.5443
   -19.9280 -19.9202 -19.9173 -19.9133 -19.9072 -19.8961 -19.8874 -19.8693
   -19.8645 -19.8579 -19.8334 -19.8315 -19.8157 -19.8139 -11.8143  -6.7435
    -5.1825  -4.7891  -2.5641  -0.6874  -0.4803

          k = 0.1612-0.3711 0.0000 ( 39780 PWs)   bands (ev):

   -68.2388 -68.2146 -35.1755 -34.9824 -34.8313 -34.7011 -34.5909 -34.5097
   -19.9281 -19.9223 -19.9176 -19.9148 -19.9042 -19.8955 -19.8866 -19.8706
   -19.8637 -19.8601 -19.8270 -19.8262 -19.8226 -19.8200 -12.0044  -6.4859
    -5.1399  -4.9853  -2.3931  -1.3012  -0.6030

          k = 0.1612-0.2783 0.0000 ( 39825 PWs)   bands (ev):

   -68.2528 -68.2209 -35.2032 -34.8741 -34.7502 -34.6594 -34.5238 -34.4585
   -19.9319 -19.9247 -19.9156 -19.9140 -19.9023 -19.8953 -19.8846 -19.8714
   -19.8653 -19.8615 -19.8325 -19.8288 -19.8179 -19.8175 -12.2943  -6.1401
    -5.6804  -4.7669  -2.1300  -1.6200  -0.5745

          k = 0.1612-0.1856 0.0000 ( 39841 PWs)   bands (ev):

   -68.2660 -68.2279 -35.2393 -34.7895 -34.6310 -34.6048 -34.4786 -34.3985
   -19.9368 -19.9268 -19.9139 -19.9105 -19.9019 -19.8960 -19.8817 -19.8718
   -19.8674 -19.8625 -19.8418 -19.8374 -19.8095 -19.8086 -12.6132  -6.3831
    -5.7226  -4.4269  -1.9667  -1.4678  -1.1325

          k = 0.1612-0.0929 0.0000 ( 39826 PWs)   bands (ev):

   -68.2754 -68.2334 -35.2680 -34.7441 -34.5635 -34.4962 -34.4622 -34.3639
   -19.9403 -19.9287 -19.9117 -19.9082 -19.9018 -19.8973 -19.8791 -19.8726
   -19.8677 -19.8638 -19.8485 -19.8438 -19.8031 -19.8021 -12.8610  -6.8626
    -5.3544  -4.2905  -1.8153  -1.4629  -0.9755

          k = 0.1612-0.0002 0.0000 ( 39827 PWs)   bands (ev):

   -68.2788 -68.2354 -35.2788 -34.7320 -34.5200 -34.4910 -34.4196 -34.3660
   -19.9414 -19.9295 -19.9102 -19.9085 -19.9012 -19.8981 -19.8778 -19.8732
   -19.8672 -19.8646 -19.8509 -19.8461 -19.8008 -19.7996 -12.9546  -7.0355
    -5.1539  -4.3510  -1.7316  -1.2880  -0.8976

          k = 0.2417 0.1389 0.0000 ( 39834 PWs)   bands (ev):

   -68.2604 -68.2248 -35.2243 -34.8478 -34.6631 -34.6395 -34.5139 -34.3916
   -19.9357 -19.9253 -19.9162 -19.9094 -19.9038 -19.8949 -19.8830 -19.8705
   -19.8688 -19.8608 -19.8378 -19.8338 -19.8131 -19.8118 -12.4804  -6.4456
    -5.6829  -4.2708  -2.4519  -1.5294  -1.0279

          k = 0.2417 0.2316 0.0000 ( 39812 PWs)   bands (ev):

   -68.2506 -68.2198 -35.2004 -34.9228 -34.7433 -34.6729 -34.5456 -34.4327
   -19.9328 -19.9233 -19.9176 -19.9119 -19.9039 -19.8946 -19.8848 -19.8706
   -19.8670 -19.8597 -19.8310 -19.8275 -19.8193 -19.8180 -12.2555  -6.4974
    -5.4333  -4.5502  -2.6229  -1.1764  -1.0529

          k = 0.2417 0.3243 0.0000 ( 39771 PWs)   bands (ev):

   -68.2387 -68.2146 -35.1751 -34.9802 -34.8312 -34.7003 -34.5934 -34.5117
   -19.9281 -19.9223 -19.9174 -19.9149 -19.9042 -19.8954 -19.8866 -19.8706
   -19.8639 -19.8600 -19.8270 -19.8261 -19.8226 -19.8200 -12.0041  -6.4792
    -5.1499  -4.9869  -2.3861  -1.2953  -0.6100

          k = 0.2417 0.4170 0.0000 ( 39719 PWs)   bands (ev):

   -68.2272 -68.2111 -35.1483 -35.0134 -34.8959 -34.7329 -34.6488 -34.5902
   -19.9236 -19.9227 -19.9161 -19.9149 -19.9057 -19.8970 -19.8881 -19.8694
   -19.8623 -19.8610 -19.8336 -19.8331 -19.8158 -19.8139 -11.7962  -6.4455
    -5.5094  -4.7230  -1.8246  -1.3890  -0.6821

          k = 0.2417 0.5098 0.0000 ( 39675 PWs)   bands (ev):

   -68.2191 -68.2105 -35.1098 -35.0538 -34.9149 -34.7807 -34.6697 -34.6381
   -19.9248 -19.9193 -19.9156 -19.9120 -19.9080 -19.8983 -19.8891 -19.8673
   -19.8647 -19.8599 -19.8378 -19.8369 -19.8115 -19.8106 -11.6810  -6.4526
    -5.6949  -4.5637  -1.7426  -0.8862  -0.6468

          k = 0.2416 0.6025 0.0000 ( 39658 PWs)   bands (ev):

   -68.2191 -68.2105 -35.1102 -35.0544 -34.9150 -34.7808 -34.6695 -34.6382
   -19.9248 -19.9192 -19.9157 -19.9120 -19.9080 -19.8984 -19.8891 -19.8673
   -19.8646 -19.8599 -19.8379 -19.8369 -19.8115 -19.8105 -11.6805  -6.4538
    -5.6952  -4.5645  -1.7428  -0.8929  -0.6432

          k = 0.2418-0.4175 0.0000 ( 39727 PWs)   bands (ev):

   -68.2271 -68.2110 -35.1488 -35.0149 -34.8964 -34.7332 -34.6489 -34.5904
   -19.9236 -19.9227 -19.9162 -19.9148 -19.9057 -19.8971 -19.8881 -19.8694
   -19.8622 -19.8609 -19.8337 -19.8332 -19.8157 -19.8138 -11.7950  -6.4477
    -5.5113  -4.7238  -1.8279  -1.3932  -0.6804

          k = 0.2418-0.3248 0.0000 ( 39761 PWs)   bands (ev):

   -68.2385 -68.2144 -35.1752 -34.9811 -34.8324 -34.7004 -34.5943 -34.5129
   -19.9281 -19.9222 -19.9174 -19.9150 -19.9041 -19.8956 -19.8865 -19.8706
   -19.8638 -19.8599 -19.8272 -19.8263 -19.8225 -19.8199 -12.0021  -6.4798
    -5.1524  -4.9882  -2.3897  -1.2963  -0.6104

          k = 0.2418-0.2320 0.0000 ( 39814 PWs)   bands (ev):

   -68.2504 -68.2197 -35.2001 -34.9228 -34.7441 -34.6728 -34.5475 -34.4347
   -19.9329 -19.9233 -19.9175 -19.9121 -19.9038 -19.8948 -19.8847 -19.8706
   -19.8670 -19.8597 -19.8309 -19.8273 -19.8195 -19.8182 -12.2533  -6.4953
    -5.4299  -4.5587  -2.6228  -1.1760  -1.0538

          k = 0.2418-0.1393 0.0000 ( 39836 PWs)   bands (ev):

   -68.2602 -68.2247 -35.2240 -34.8472 -34.6633 -34.6388 -34.5164 -34.3939
   -19.9357 -19.9253 -19.9161 -19.9096 -19.9035 -19.8951 -19.8829 -19.8705
   -19.8688 -19.8608 -19.8377 -19.8337 -19.8132 -19.8120 -12.4786  -6.4424
    -5.6781  -4.2817  -2.4477  -1.5302  -1.0276

          k = 0.2418-0.0466 0.0000 ( 39840 PWs)   bands (ev):

   -68.2658 -68.2278 -35.2389 -34.7906 -34.6311 -34.6058 -34.4794 -34.3994
   -19.9368 -19.9268 -19.9139 -19.9105 -19.9019 -19.8960 -19.8816 -19.8720
   -19.8674 -19.8625 -19.8417 -19.8374 -19.8096 -19.8087 -12.6110  -6.3811
    -5.7213  -4.4331  -1.9697  -1.4657  -1.1315

          k = 0.2417 0.0461 0.0000 ( 39837 PWs)   bands (ev):

   -68.2659 -68.2278 -35.2390 -34.7910 -34.6311 -34.6060 -34.4786 -34.3981
   -19.9368 -19.9268 -19.9140 -19.9103 -19.9020 -19.8959 -19.8816 -19.8720
   -19.8674 -19.8624 -19.8417 -19.8374 -19.8095 -19.8087 -12.6117  -6.3824
    -5.7248  -4.4272  -1.9747  -1.4639  -1.1300

          k = 0.3223 0.1851 0.0000 ( 39819 PWs)   bands (ev):

   -68.2445 -68.2170 -35.1944 -35.0051 -34.7782 -34.6880 -34.5652 -34.4231
   -19.9335 -19.9210 -19.9193 -19.9110 -19.9064 -19.8941 -19.8853 -19.8696
   -19.8677 -19.8575 -19.8268 -19.8237 -19.8228 -19.8206 -12.1434  -6.8342
    -5.2221  -4.3329  -3.0920  -1.1884  -0.6646

          k = 0.3223 0.2779 0.0000 ( 39749 PWs)   bands (ev):

   -68.2361 -68.2137 -35.1854 -35.0612 -34.8176 -34.7127 -34.5976 -34.4640
   -19.9319 -19.9198 -19.9191 -19.9128 -19.9068 -19.8946 -19.8861 -19.8700
   -19.8659 -19.8568 -19.8280 -19.8255 -19.8212 -19.8186 -11.9834  -6.9016
    -5.0227  -4.6489  -3.0711  -0.7159  -0.5665

          k = 0.3223 0.3706 0.0000 ( 39722 PWs)   bands (ev):

   -68.2270 -68.2111 -35.1630 -35.0750 -34.8456 -34.7584 -34.6388 -34.5475
   -19.9281 -19.9201 -19.9171 -19.9135 -19.9072 -19.8963 -19.8874 -19.8692
   -19.8647 -19.8578 -19.8336 -19.8316 -19.8156 -19.8138 -11.8121  -6.7391
    -5.1970  -4.7947  -2.5657  -0.6709  -0.4726

          k = 0.3222 0.4633 0.0000 ( 39685 PWs)   bands (ev):

   -68.2188 -68.2105 -35.1104 -35.0536 -34.9161 -34.7796 -34.6722 -34.6385
   -19.9249 -19.9192 -19.9155 -19.9121 -19.9080 -19.8984 -19.8891 -19.8672
   -19.8648 -19.8598 -19.8380 -19.8369 -19.8114 -19.8105 -11.6795  -6.4520
    -5.7015  -4.5678  -1.7582  -0.8675  -0.6400

          k = 0.3222 0.5561 0.0000 ( 39628 PWs)   bands (ev):

   -68.2133 -68.2128 -35.0386 -35.0365 -35.0017 -34.7806 -34.6844 -34.6819
   -19.9243 -19.9166 -19.9165 -19.9096 -19.9094 -19.8997 -19.8900 -19.8656
   -19.8653 -19.8612 -19.8395 -19.8392 -19.8097 -19.8094 -11.6290  -6.1118
    -6.1106  -4.4610  -1.0919  -0.9611  -0.9496

          k = 0.3222 0.6488 0.0000 ( 39667 PWs)   bands (ev):

   -68.2186 -68.2105 -35.1109 -35.0541 -34.9168 -34.7797 -34.6727 -34.6389
   -19.9248 -19.9194 -19.9155 -19.9121 -19.9079 -19.8986 -19.8890 -19.8673
   -19.8648 -19.8597 -19.8380 -19.8370 -19.8113 -19.8104 -11.6785  -6.4525
    -5.7048  -4.5695  -1.7655  -0.8653  -0.6339

          k = 0.3224-0.3712 0.0000 ( 39740 PWs)   bands (ev):

   -68.2267 -68.2109 -35.1634 -35.0755 -34.8467 -34.7583 -34.6401 -34.5490
   -19.9281 -19.9201 -19.9171 -19.9136 -19.9071 -19.8965 -19.8873 -19.8692
   -19.8646 -19.8577 -19.8337 -19.8318 -19.8154 -19.8137 -11.8102  -6.7393
    -5.2034  -4.7955  -2.5702  -0.6687  -0.4687

          k = 0.3224-0.2785 0.0000 ( 39762 PWs)   bands (ev):

   -68.2358 -68.2134 -35.1855 -35.0614 -34.8181 -34.7129 -34.6000 -34.4664
   -19.9319 -19.9197 -19.9191 -19.9129 -19.9067 -19.8948 -19.8860 -19.8700
   -19.8658 -19.8567 -19.8281 -19.8257 -19.8210 -19.8185 -11.9810  -6.9003
    -5.0215  -4.6583  -3.0728  -0.7123  -0.5649

          k = 0.3224-0.1858 0.0000 ( 39815 PWs)   bands (ev):

   -68.2443 -68.2168 -35.1941 -35.0048 -34.7781 -34.6881 -34.5681 -34.4258
   -19.9335 -19.9210 -19.9192 -19.9112 -19.9062 -19.8943 -19.8852 -19.8696
   -19.8677 -19.8575 -19.8267 -19.8235 -19.8230 -19.8208 -12.1412  -6.8315
    -5.2192  -4.3448  -3.0899  -1.1874  -0.6625

          k = 0.3224-0.0930 0.0000 ( 39811 PWs)   bands (ev):

   -68.2502 -68.2195 -35.2000 -34.9249 -34.7454 -34.6731 -34.5470 -34.4349
   -19.9329 -19.9233 -19.9176 -19.9121 -19.9038 -19.8948 -19.8846 -19.8708
   -19.8668 -19.8596 -19.8308 -19.8273 -19.8196 -19.8183 -12.2512  -6.4987
    -5.4285  -4.5607  -2.6303  -1.1754  -1.0510

          k = 0.3223-0.0003 0.0000 ( 39835 PWs)   bands (ev):

   -68.2524 -68.2206 -35.2028 -34.8769 -34.7514 -34.6601 -34.5247 -34.4603
   -19.9318 -19.9247 -19.9156 -19.9141 -19.9023 -19.8954 -19.8844 -19.8716
   -19.8653 -19.8614 -19.8324 -19.8287 -19.8181 -19.8177 -12.2903  -6.1424
    -5.6768  -4.7769  -2.1350  -1.6224  -0.5774

          k = 0.3223 0.0924 0.0000 ( 39807 PWs)   bands (ev):

   -68.2503 -68.2197 -35.2003 -34.9256 -34.7453 -34.6734 -34.5450 -34.4329
   -19.9328 -19.9233 -19.9177 -19.9119 -19.9039 -19.8947 -19.8847 -19.8708
   -19.8668 -19.8596 -19.8309 -19.8273 -19.8195 -19.8181 -12.2526  -6.5017
    -5.4313  -4.5523  -2.6336  -1.1751  -1.0496

          k = 0.4029 0.2314 0.0000 ( 39718 PWs)   bands (ev):

   -68.2318 -68.2123 -35.1998 -35.1239 -34.8355 -34.7136 -34.6017 -34.4468
   -19.9336 -19.9204 -19.9177 -19.9123 -19.9089 -19.8944 -19.8857 -19.8702
   -19.8653 -19.8548 -19.8298 -19.8264 -19.8184 -19.8163 -11.9314  -7.1579
    -5.0064  -4.4109  -3.4927  -0.4063  -0.1512

          k = 0.4029 0.3242 0.0000 ( 39696 PWs)   bands (ev):

   -68.2268 -68.2110 -35.1961 -35.1413 -34.8361 -34.7415 -34.6243 -34.4824
   -19.9323 -19.9201 -19.9169 -19.9127 -19.9091 -19.8951 -19.8862 -19.8698
   -19.8649 -19.8548 -19.8328 -19.8294 -19.8153 -19.8137 -11.8454  -7.1199
    -4.9229  -4.7132  -3.2854  -0.1288  -0.0588

          k = 0.4028 0.4169 0.0000 ( 39674 PWs)   bands (ev):

   -68.2219 -68.2104 -35.1573 -35.1178 -34.8166 -34.8131 -34.6504 -34.5608
   -19.9286 -19.9199 -19.9157 -19.9124 -19.9090 -19.8967 -19.8875 -19.8684
   -19.8654 -19.8568 -19.8361 -19.8336 -19.8127 -19.8116 -11.7461  -6.8375
    -5.2271  -4.7499  -2.6391  -0.3206  -0.2603

          k = 0.4028 0.5096 0.0000 ( 39668 PWs)   bands (ev):

   -68.2185 -68.2105 -35.1118 -35.0560 -34.9157 -34.7799 -34.6709 -34.6394
   -19.9249 -19.9192 -19.9156 -19.9120 -19.9080 -19.8985 -19.8890 -19.8675
   -19.8646 -19.8597 -19.8380 -19.8370 -19.8113 -19.8104 -11.6777  -6.4578
    -5.7017  -4.5709  -1.7591  -0.8890  -0.6277

          k = 0.4028 0.6023 0.0000 ( 39659 PWs)   bands (ev):

   -68.2184 -68.2105 -35.1119 -35.0559 -34.9163 -34.7798 -34.6716 -34.6398
   -19.9249 -19.9194 -19.9156 -19.9121 -19.9079 -19.8986 -19.8890 -19.8675
   -19.8646 -19.8596 -19.8381 -19.8371 -19.8112 -19.8103 -11.6772  -6.4571
    -5.7047  -4.5719  -1.7663  -0.8802  -0.6251

          k = 0.4028 0.6951 0.0000 ( 39657 PWs)   bands (ev):

   -68.2216 -68.2103 -35.1577 -35.1177 -34.8162 -34.8143 -34.6517 -34.5625
   -19.9286 -19.9199 -19.9157 -19.9126 -19.9088 -19.8969 -19.8874 -19.8684
   -19.8653 -19.8567 -19.8362 -19.8338 -19.8126 -19.8115 -11.7446  -6.8368
    -5.2337  -4.7515  -2.6435  -0.3140  -0.2538

          k = 0.4030-0.3249 0.0000 ( 39706 PWs)   bands (ev):

   -68.2264 -68.2108 -35.1965 -35.1414 -34.8358 -34.7421 -34.6268 -34.4850
   -19.9323 -19.9201 -19.9169 -19.9129 -19.9090 -19.8953 -19.8860 -19.8698
   -19.8648 -19.8548 -19.8330 -19.8296 -19.8152 -19.8135 -11.8432  -7.1187
    -4.9241  -4.7228  -3.2874  -0.1227  -0.0528

          k = 0.4030-0.2322 0.0000 ( 39715 PWs)   bands (ev):

   -68.2315 -68.2120 -35.1999 -35.1239 -34.8352 -34.7138 -34.6049 -34.4497
   -19.9336 -19.9203 -19.9177 -19.9125 -19.9087 -19.8946 -19.8856 -19.8701
   -19.8653 -19.8548 -19.8300 -19.8266 -19.8183 -19.8161 -11.9290  -7.1559
    -5.0061  -4.4238  -3.4914  -0.4015  -0.1460

          k = 0.4029-0.1395 0.0000 ( 39742 PWs)   bands (ev):

   -68.2357 -68.2134 -35.1860 -35.0629 -34.8195 -34.7124 -34.5994 -34.4664
   -19.9319 -19.9198 -19.9191 -19.9130 -19.9067 -19.8949 -19.8859 -19.8702
   -19.8655 -19.8567 -19.8282 -19.8258 -19.8209 -19.8184 -11.9795  -6.9038
    -5.0226  -4.6562  -3.0805  -0.7076  -0.5693

          k = 0.4029-0.0467 0.0000 ( 39778 PWs)   bands (ev):

   -68.2381 -68.2143 -35.1757 -34.9849 -34.8335 -34.7008 -34.5937 -34.5133
   -19.9281 -19.9223 -19.9175 -19.9151 -19.9041 -19.8957 -19.8864 -19.8708
   -19.8636 -19.8598 -19.8273 -19.8264 -19.8224 -19.8198 -11.9987  -6.4875
    -5.1477  -4.9950  -2.3995  -1.3037  -0.6018

          k = 0.4029 0.0460 0.0000 ( 39776 PWs)   bands (ev):

   -68.2382 -68.2143 -35.1759 -34.9853 -34.8331 -34.7010 -34.5927 -34.5122
   -19.9281 -19.9223 -19.9176 -19.9150 -19.9042 -19.8956 -19.8865 -19.8708
   -19.8636 -19.8599 -19.8272 -19.8264 -19.8224 -19.8198 -11.9994  -6.4893
    -5.1447  -4.9944  -2.4000  -1.3056  -0.5998

          k = 0.4029 0.1387 0.0000 ( 39763 PWs)   bands (ev):

   -68.2359 -68.2135 -35.1863 -35.0633 -34.8197 -34.7121 -34.5969 -34.4639
   -19.9319 -19.9198 -19.9191 -19.9128 -19.9068 -19.8947 -19.8860 -19.8702
   -19.8655 -19.8567 -19.8281 -19.8256 -19.8211 -19.8186 -11.9813  -6.9062
    -5.0237  -4.6463  -3.0819  -0.7089  -0.5731

          k =-0.4835-0.2777 0.0000 ( 39640 PWs)   bands (ev):

   -68.2267 -68.2110 -35.2143 -35.1638 -34.8439 -34.7255 -34.6149 -34.4556
   -19.9340 -19.9203 -19.9171 -19.9128 -19.9096 -19.8947 -19.8856 -19.8703
   -19.8644 -19.8538 -19.8324 -19.8283 -19.8152 -19.8137 -11.8621  -7.2689
    -4.9768  -4.4445  -3.6263   0.0847   0.1108

          k =-0.4835-0.1850 0.0000 ( 39720 PWs)   bands (ev):

   -68.2267 -68.2110 -35.1968 -35.1419 -34.8368 -34.7410 -34.6240 -34.4823
   -19.9323 -19.9202 -19.9169 -19.9128 -19.9091 -19.8951 -19.8862 -19.8699
   -19.8648 -19.8548 -19.8329 -19.8294 -19.8153 -19.8137 -11.8446  -7.1217
    -4.9265  -4.7087  -3.2896  -0.1294  -0.0597

          k =-0.4835-0.0923 0.0000 ( 39750 PWs)   bands (ev):

   -68.2266 -68.2109 -35.1648 -35.0779 -34.8476 -34.7573 -34.6381 -34.5474
   -19.9281 -19.9201 -19.9172 -19.9135 -19.9072 -19.8963 -19.8873 -19.8695
   -19.8643 -19.8577 -19.8337 -19.8317 -19.8154 -19.8137 -11.8094  -6.7463
    -5.1981  -4.7954  -2.5735  -0.6849  -0.4680

          k =-0.4835 0.0005 0.0000 ( 39732 PWs)   bands (ev):

   -68.2266 -68.2109 -35.1502 -35.0191 -34.8960 -34.7336 -34.6486 -34.5915
   -19.9237 -19.9226 -19.9163 -19.9149 -19.9057 -19.8972 -19.8880 -19.8696
   -19.8620 -19.8608 -19.8338 -19.8333 -19.8155 -19.8137 -11.7913  -6.4561
    -5.5145  -4.7284  -1.8361  -1.4027  -0.6726

          k =-0.4835 0.0932 0.0000 ( 39746 PWs)   bands (ev):

   -68.2265 -68.2108 -35.1647 -35.0776 -34.8478 -34.7576 -34.6395 -34.5490
   -19.9281 -19.9201 -19.9172 -19.9136 -19.9071 -19.8965 -19.8872 -19.8695
   -19.8643 -19.8576 -19.8338 -19.8319 -19.8153 -19.8136 -11.8082  -6.7448
    -5.2042  -4.7960  -2.5758  -0.6786  -0.4648

          k =-0.4835 0.1859 0.0000 ( 39717 PWs)   bands (ev):

   -68.2264 -68.2108 -35.1970 -35.1418 -34.8363 -34.7417 -34.6266 -34.4850
   -19.9323 -19.9201 -19.9169 -19.9130 -19.9090 -19.8953 -19.8860 -19.8699
   -19.8647 -19.8548 -19.8330 -19.8297 -19.8151 -19.8135 -11.8426  -7.1201
    -4.9271  -4.7191  -3.2904  -0.1234  -0.0532

          k =-0.4833-0.8341 0.0000 ( 39644 PWs)   bands (ev):

   -68.2263 -68.2108 -35.2147 -35.1638 -34.8433 -34.7258 -34.6182 -34.4586
   -19.9340 -19.9202 -19.9170 -19.9130 -19.9094 -19.8949 -19.8855 -19.8703
   -19.8643 -19.8537 -19.8325 -19.8286 -19.8151 -19.8135 -11.8598  -7.2672
    -4.9777  -4.4578  -3.6252   0.0919   0.1174

     highest occupied level (ev):     0.1174

!    total energy              =   -1373.25104361 Ry
     estimated scf accuracy    <          5.1E-13 Ry

     The total energy is the sum of the following terms:
     one-electron contribution =  -10891.88764074 Ry
     hartree contribution      =    5474.27960436 Ry
     xc contribution           =    -138.78172696 Ry
     ewald contribution        =    4183.13871972 Ry

     convergence has been achieved in  28 iterations

     negative rho (up, down):  1.775E-04 0.000E+00

     Forces acting on atoms (cartesian axes, Ry/au):

     atom    1 type  2   force =     0.00031077    0.00028321   -0.00017434
     atom    2 type  1   force =    -0.00026838   -0.00046500    0.00154700
     atom    3 type  1   force =    -0.00004239    0.00018179   -0.00137266

     Total force =     0.002145     Total SCF correction =     0.000005


     Computing stress (Cartesian axis) and pressure


     negative rho (up, down):  1.775E-04 0.000E+00
          total   stress  (Ry/bohr**3)                   (kbar)     P=        5.51
   0.00006635  -0.00000261   0.00000033            9.76       -0.38        0.05
  -0.00000261   0.00005133   0.00000093           -0.38        7.55        0.14
   0.00000033   0.00000093  -0.00000534            0.05        0.14       -0.79


     Writing output data file /scratch/as3359/Ta2C-CT-ecutoff/Ta2C.save/
 
     init_run     :     40.35s CPU     22.23s WALL (       1 calls)
     electrons    :   2082.22s CPU   1064.01s WALL (       1 calls)
     forces       :     12.54s CPU      6.53s WALL (       1 calls)
     stress       :     47.61s CPU     24.70s WALL (       1 calls)

     Called by init_run:
     wfcinit      :     30.74s CPU     15.88s WALL (       1 calls)
     potinit      :      2.45s CPU      1.26s WALL (       1 calls)
     hinit0       :      5.27s CPU      3.82s WALL (       1 calls)

     Called by electrons:
     c_bands      :   1665.60s CPU    840.91s WALL (      28 calls)
     sum_band     :    355.73s CPU    185.73s WALL (      28 calls)
     v_of_rho     :      9.44s CPU      5.30s WALL (      29 calls)
     newd         :     48.70s CPU     30.74s WALL (      29 calls)
     mix_rho      :      3.40s CPU      1.83s WALL (      28 calls)

     Called by c_bands:
     init_us_2    :     40.74s CPU     20.40s WALL (    4366 calls)
     cegterg      :   1534.78s CPU    775.12s WALL (    2072 calls)

     Called by *egterg:
     cdiaghg      :     15.86s CPU      8.13s WALL (   11379 calls)
     h_psi        :   1280.68s CPU    647.71s WALL (   11453 calls)
     s_psi        :     61.68s CPU     30.87s WALL (   11453 calls)
     g_psi        :      6.47s CPU      3.25s WALL (    9307 calls)

     Called by h_psi:
     h_psi:calbec :     47.38s CPU     23.77s WALL (   11453 calls)
     vloc_psi     :   1159.96s CPU    587.05s WALL (   11453 calls)
     add_vuspsi   :     65.79s CPU     32.94s WALL (   11453 calls)

     General routines
     calbec       :     64.60s CPU     32.42s WALL (   13895 calls)
     fft          :     10.81s CPU      5.70s WALL (     400 calls)
     ffts         :      0.53s CPU      0.27s WALL (      57 calls)
     fftw         :   1230.17s CPU    623.01s WALL (  350314 calls)
     interpolate  :      0.85s CPU      0.44s WALL (      29 calls)
 
     Parallel routines
 
     PWSCF        :  36m26.28s CPU  18m40.63s WALL

 
   This run was terminated on:  23:12: 8   6Apr2022            

=------------------------------------------------------------------------------=
   JOB DONE.
=------------------------------------------------------------------------------=
