
     Program PWSCF v.6.8 starts on  6Apr2022 at 23:55:53 

     This program is part of the open-source Quantum ESPRESSO suite
     for quantum simulation of materials; please cite
         "P. Giannozzi et al., J. Phys.:Condens. Matter 21 395502 (2009);
         "P. Giannozzi et al., J. Phys.:Condens. Matter 29 465901 (2017);
         "P. Giannozzi et al., J. Chem. Phys. 152 154105 (2020);
          URL http://www.quantum-espresso.org", 
     in publications or presentations arising from this work. More details at
     http://www.quantum-espresso.org/quote

     Parallel version (MPI & OpenMP), running on       4 processor cores
     Number of MPI processes:                 2
     Threads/MPI process:                     2

     MPI processes distributed on     1 nodes
     R & G space division:  proc/nbgrp/npool/nimage =       2
     124975 MiB available memory on the printing compute node when the environment starts
 
     Reading input from Ta2C.scf.145.in

     Current dimensions of program PWSCF are:
     Max number of different atomic species (ntypx) = 10
     Max number of k-points (npk) =  40000
     Max angular momentum in pseudopotentials (lmaxx) =  4
     file Ta.pbesol-spfn-rrkjus_psl.1.0.0.UPF: wavefunction(s)  5S 5P renormalized

     Subspace diagonalization in iterative solution of the eigenvalue problem:
     a serial algorithm will be used

 
     Parallelization info
     --------------------
     sticks:   dense  smooth     PW     G-vecs:    dense   smooth      PW
     Min         825     660    190               261983   187174   30228
     Max         826     661    193               261998   187183   30239
     Sum        1651    1321    383               523981   374357   60467
 
     Using Slab Decomposition
 


     bravais-lattice index     =            0
     lattice parameter (alat)  =       5.5500  a.u.
     unit-cell volume          =    1588.7844 (a.u.)^3
     number of atoms/cell      =            3
     number of atomic types    =            2
     number of electrons       =        58.00
     number of Kohn-Sham states=           29
     kinetic-energy cutoff     =     145.0000  Ry
     charge density cutoff     =     725.0000  Ry
     scf convergence threshold =      1.0E-12
     mixing beta               =       0.7000
     number of iterations used =            8  plain     mixing
     Exchange-correlation= PBESOL
                           (   1   4  10   8   0   0   0)

     celldm(1)=   5.550000  celldm(2)=   0.000000  celldm(3)=   0.000000
     celldm(4)=   0.000000  celldm(5)=   0.000000  celldm(6)=   0.000000

     crystal axes: (cart. coord. in units of alat)
               a(1) = (   1.034114   0.000203   0.000000 )  
               a(2) = (  -0.516207   0.898604   0.000000 )  
               a(3) = (   0.000000   0.000000  10.000000 )  

     reciprocal axes: (cart. coord. in units 2 pi/alat)
               b(1) = (  0.966902  0.555441  0.000000 )  
               b(2) = ( -0.000219  1.112711  0.000000 )  
               b(3) = (  0.000000  0.000000  0.100000 )  


     PseudoPot. # 1 for Ta read from file:
     /shared/home/as3359/pseudo/Ta.pbesol-spfn-rrkjus_psl.1.0.0.UPF
     MD5 check sum: f099565ffaca9b150a52e9412a28e20b
     Pseudo is Ultrasoft + core correction, Zval = 27.0
     Generated using &quot;atomic&quot; code by A. Dal Corso  v.6.3
     Using radial grid of 1273 points,  8 beta functions with: 
                l(1) =   0
                l(2) =   0
                l(3) =   1
                l(4) =   1
                l(5) =   2
                l(6) =   2
                l(7) =   3
                l(8) =   3
     Q(r) pseudized with 0 coefficients 


     PseudoPot. # 2 for C  read from file:
     /shared/home/as3359/pseudo/C.pbesol-n-rrkjus_psl.1.0.0.UPF
     MD5 check sum: 05995be603a8a7c99da3dc4413f31573
     Pseudo is Ultrasoft + core correction, Zval =  4.0
     Generated using &quot;atomic&quot; code by A. Dal Corso  v.6.3MaX
     Using radial grid of 1073 points,  4 beta functions with: 
                l(1) =   0
                l(2) =   0
                l(3) =   1
                l(4) =   1
     Q(r) pseudized with 0 coefficients 


     atomic species   valence    mass     pseudopotential
        Ta            27.00   180.94788     Ta( 1.00)
        C              4.00    12.01070     C ( 1.00)

     No symmetry found



   Cartesian axes

     site n.     atom                  positions (alat units)
         1           C   tau(   1) = (   0.0000000   0.0000000   0.0000000  )
         2           Ta  tau(   2) = (   0.5174615   0.3004190  -0.4127129  )
         3           Ta  tau(   3) = (   0.0007158   0.5986355   0.4125272  )

     number of k points=    74
                       cart. coord. in units 2pi/alat
        k(    1) = (   0.0000000   0.0000000   0.0000000), wk =   0.0138889
        k(    2) = (  -0.0000182   0.0927259   0.0000000), wk =   0.0277778
        k(    3) = (  -0.0000364   0.1854519   0.0000000), wk =   0.0277778
        k(    4) = (  -0.0000547   0.2781778   0.0000000), wk =   0.0277778
        k(    5) = (  -0.0000729   0.3709037   0.0000000), wk =   0.0277778
        k(    6) = (  -0.0000911   0.4636296   0.0000000), wk =   0.0277778
        k(    7) = (   0.0001093  -0.5563556   0.0000000), wk =   0.0138889
        k(    8) = (   0.0805752   0.0462867   0.0000000), wk =   0.0277778
        k(    9) = (   0.0805570   0.1390127   0.0000000), wk =   0.0277778
        k(   10) = (   0.0805388   0.2317386   0.0000000), wk =   0.0277778
        k(   11) = (   0.0805205   0.3244645   0.0000000), wk =   0.0277778
        k(   12) = (   0.0805023   0.4171904   0.0000000), wk =   0.0277778
        k(   13) = (   0.0804841   0.5099164   0.0000000), wk =   0.0277778
        k(   14) = (   0.0806845  -0.5100688   0.0000000), wk =   0.0277778
        k(   15) = (   0.0806663  -0.4173429   0.0000000), wk =   0.0277778
        k(   16) = (   0.0806481  -0.3246170   0.0000000), wk =   0.0277778
        k(   17) = (   0.0806298  -0.2318910   0.0000000), wk =   0.0277778
        k(   18) = (   0.0806116  -0.1391651   0.0000000), wk =   0.0277778
        k(   19) = (   0.0805934  -0.0464392   0.0000000), wk =   0.0277778
        k(   20) = (   0.1611504   0.0925735   0.0000000), wk =   0.0277778
        k(   21) = (   0.1611322   0.1852994   0.0000000), wk =   0.0277778
        k(   22) = (   0.1611139   0.2780253   0.0000000), wk =   0.0277778
        k(   23) = (   0.1610957   0.3707513   0.0000000), wk =   0.0277778
        k(   24) = (   0.1610775   0.4634772   0.0000000), wk =   0.0277778
        k(   25) = (   0.1610593   0.5562031   0.0000000), wk =   0.0277778
        k(   26) = (   0.1612597  -0.4637821   0.0000000), wk =   0.0277778
        k(   27) = (   0.1612415  -0.3710561   0.0000000), wk =   0.0277778
        k(   28) = (   0.1612232  -0.2783302   0.0000000), wk =   0.0277778
        k(   29) = (   0.1612050  -0.1856043   0.0000000), wk =   0.0277778
        k(   30) = (   0.1611868  -0.0928784   0.0000000), wk =   0.0277778
        k(   31) = (   0.1611686  -0.0001524   0.0000000), wk =   0.0277778
        k(   32) = (   0.2417256   0.1388602   0.0000000), wk =   0.0277778
        k(   33) = (   0.2417073   0.2315862   0.0000000), wk =   0.0277778
        k(   34) = (   0.2416891   0.3243121   0.0000000), wk =   0.0277778
        k(   35) = (   0.2416709   0.4170380   0.0000000), wk =   0.0277778
        k(   36) = (   0.2416527   0.5097639   0.0000000), wk =   0.0277778
        k(   37) = (   0.2416345   0.6024899   0.0000000), wk =   0.0277778
        k(   38) = (   0.2418349  -0.4174953   0.0000000), wk =   0.0277778
        k(   39) = (   0.2418166  -0.3247694   0.0000000), wk =   0.0277778
        k(   40) = (   0.2417984  -0.2320435   0.0000000), wk =   0.0277778
        k(   41) = (   0.2417802  -0.1393175   0.0000000), wk =   0.0277778
        k(   42) = (   0.2417620  -0.0465916   0.0000000), wk =   0.0277778
        k(   43) = (   0.2417438   0.0461343   0.0000000), wk =   0.0277778
        k(   44) = (   0.3223007   0.1851470   0.0000000), wk =   0.0277778
        k(   45) = (   0.3222825   0.2778729   0.0000000), wk =   0.0277778
        k(   46) = (   0.3222643   0.3705988   0.0000000), wk =   0.0277778
        k(   47) = (   0.3222461   0.4633248   0.0000000), wk =   0.0277778
        k(   48) = (   0.3222279   0.5560507   0.0000000), wk =   0.0277778
        k(   49) = (   0.3222097   0.6487766   0.0000000), wk =   0.0277778
        k(   50) = (   0.3224100  -0.3712086   0.0000000), wk =   0.0277778
        k(   51) = (   0.3223918  -0.2784827   0.0000000), wk =   0.0277778
        k(   52) = (   0.3223736  -0.1857567   0.0000000), wk =   0.0277778
        k(   53) = (   0.3223554  -0.0930308   0.0000000), wk =   0.0277778
        k(   54) = (   0.3223372  -0.0003049   0.0000000), wk =   0.0277778
        k(   55) = (   0.3223190   0.0924210   0.0000000), wk =   0.0277778
        k(   56) = (   0.4028759   0.2314337   0.0000000), wk =   0.0277778
        k(   57) = (   0.4028577   0.3241596   0.0000000), wk =   0.0277778
        k(   58) = (   0.4028395   0.4168856   0.0000000), wk =   0.0277778
        k(   59) = (   0.4028213   0.5096115   0.0000000), wk =   0.0277778
        k(   60) = (   0.4028031   0.6023374   0.0000000), wk =   0.0277778
        k(   61) = (   0.4027848   0.6950633   0.0000000), wk =   0.0277778
        k(   62) = (   0.4029852  -0.3249218   0.0000000), wk =   0.0277778
        k(   63) = (   0.4029670  -0.2321959   0.0000000), wk =   0.0277778
        k(   64) = (   0.4029488  -0.1394700   0.0000000), wk =   0.0277778
        k(   65) = (   0.4029306  -0.0467441   0.0000000), wk =   0.0277778
        k(   66) = (   0.4029124   0.0459819   0.0000000), wk =   0.0277778
        k(   67) = (   0.4028941   0.1387078   0.0000000), wk =   0.0277778
        k(   68) = (  -0.4834511  -0.2777205   0.0000000), wk =   0.0138889
        k(   69) = (  -0.4834693  -0.1849945   0.0000000), wk =   0.0277778
        k(   70) = (  -0.4834875  -0.0922686   0.0000000), wk =   0.0277778
        k(   71) = (  -0.4835058   0.0004573   0.0000000), wk =   0.0277778
        k(   72) = (  -0.4835240   0.0931832   0.0000000), wk =   0.0277778
        k(   73) = (  -0.4835422   0.1859092   0.0000000), wk =   0.0277778
        k(   74) = (  -0.4833418  -0.8340760   0.0000000), wk =   0.0138889

     Dense  grid:   523981 G-vectors     FFT dimensions: (  50,  50, 480)

     Smooth grid:   374357 G-vectors     FFT dimensions: (  45,  45, 432)

     Estimated max dynamical RAM per process >       3.22 GB

     Estimated total dynamical RAM >       6.44 GB

     Initial potential from superposition of free atoms

     starting charge   57.99842, renormalised to   58.00000

     negative rho (up, down):  7.309E-05 0.000E+00
     Starting wfcs are   38 randomized atomic wfcs

     total cpu time spent up to now is       25.1 secs

     Self-consistent Calculation

     iteration #  1     ecut=   145.00 Ry     beta= 0.70
     Davidson diagonalization with overlap
     ethr =  1.00E-02,  avg # of iterations =  2.1

     negative rho (up, down):  7.248E-07 0.000E+00

     total cpu time spent up to now is       62.3 secs

     total energy              =   -1372.42791061 Ry
     estimated scf accuracy    <       1.29199043 Ry

     iteration #  2     ecut=   145.00 Ry     beta= 0.70
     Davidson diagonalization with overlap
     ethr =  2.23E-03,  avg # of iterations =  6.5

     negative rho (up, down):  4.330E-07 0.000E+00

     total cpu time spent up to now is      116.1 secs

     total energy              =   -1371.98437433 Ry
     estimated scf accuracy    <       7.97774711 Ry

     iteration #  3     ecut=   145.00 Ry     beta= 0.70
     Davidson diagonalization with overlap
     ethr =  2.23E-03,  avg # of iterations =  5.5

     negative rho (up, down):  4.965E-07 0.000E+00

     total cpu time spent up to now is      165.3 secs

     total energy              =   -1373.21155295 Ry
     estimated scf accuracy    <       0.12409967 Ry

     iteration #  4     ecut=   145.00 Ry     beta= 0.70
     Davidson diagonalization with overlap
     ethr =  2.14E-04,  avg # of iterations =  7.6

     negative rho (up, down):  1.159E-07 0.000E+00

     total cpu time spent up to now is      214.8 secs

     total energy              =   -1373.22639284 Ry
     estimated scf accuracy    <       0.53161597 Ry

     iteration #  5     ecut=   145.00 Ry     beta= 0.70
     Davidson diagonalization with overlap
     ethr =  2.14E-04,  avg # of iterations =  6.6

     negative rho (up, down):  1.786E-06 0.000E+00

     total cpu time spent up to now is      260.1 secs

     total energy              =   -1373.24777127 Ry
     estimated scf accuracy    <       0.03053413 Ry

     iteration #  6     ecut=   145.00 Ry     beta= 0.70
     Davidson diagonalization with overlap
     ethr =  5.26E-05,  avg # of iterations =  3.8

     negative rho (up, down):  1.721E-05 0.000E+00

     total cpu time spent up to now is      299.8 secs

     total energy              =   -1373.24991480 Ry
     estimated scf accuracy    <       0.00586572 Ry

     iteration #  7     ecut=   145.00 Ry     beta= 0.70
     Davidson diagonalization with overlap
     ethr =  1.01E-05,  avg # of iterations =  6.8

     negative rho (up, down):  1.182E-05 0.000E+00

     total cpu time spent up to now is      348.0 secs

     total energy              =   -1373.25058727 Ry
     estimated scf accuracy    <       0.00453625 Ry

     iteration #  8     ecut=   145.00 Ry     beta= 0.70
     Davidson diagonalization with overlap
     ethr =  7.82E-06,  avg # of iterations =  4.4

     negative rho (up, down):  2.342E-05 0.000E+00

     total cpu time spent up to now is      388.8 secs

     total energy              =   -1373.25118766 Ry
     estimated scf accuracy    <       0.00017396 Ry

     iteration #  9     ecut=   145.00 Ry     beta= 0.70
     Davidson diagonalization with overlap
     c_bands:  1 eigenvalues not converged
     c_bands:  1 eigenvalues not converged
     ethr =  3.00E-07,  avg # of iterations =  8.9

     negative rho (up, down):  2.837E-05 0.000E+00

     total cpu time spent up to now is      447.0 secs

     total energy              =   -1373.25125568 Ry
     estimated scf accuracy    <       0.00057260 Ry

     iteration # 10     ecut=   145.00 Ry     beta= 0.70
     Davidson diagonalization with overlap
     ethr =  3.00E-07,  avg # of iterations =  5.8

     negative rho (up, down):  2.459E-05 0.000E+00

     total cpu time spent up to now is      491.5 secs

     total energy              =   -1373.25131786 Ry
     estimated scf accuracy    <       0.00001655 Ry

     iteration # 11     ecut=   145.00 Ry     beta= 0.70
     Davidson diagonalization with overlap
     ethr =  2.85E-08,  avg # of iterations =  5.8

     negative rho (up, down):  2.720E-05 0.000E+00

     total cpu time spent up to now is      537.1 secs

     total energy              =   -1373.25132196 Ry
     estimated scf accuracy    <       0.00000072 Ry

     iteration # 12     ecut=   145.00 Ry     beta= 0.70
     Davidson diagonalization with overlap
     c_bands:  1 eigenvalues not converged
     c_bands:  1 eigenvalues not converged
     c_bands:  1 eigenvalues not converged
     ethr =  1.24E-09,  avg # of iterations =  8.2

     negative rho (up, down):  2.748E-05 0.000E+00

     total cpu time spent up to now is      598.4 secs

     total energy              =   -1373.25132259 Ry
     estimated scf accuracy    <       0.00000081 Ry

     iteration # 13     ecut=   145.00 Ry     beta= 0.70
     Davidson diagonalization with overlap
     ethr =  1.24E-09,  avg # of iterations =  2.1

     negative rho (up, down):  2.733E-05 0.000E+00

     total cpu time spent up to now is      635.0 secs

     total energy              =   -1373.25132252 Ry
     estimated scf accuracy    <       0.00000042 Ry

     iteration # 14     ecut=   145.00 Ry     beta= 0.70
     Davidson diagonalization with overlap
     ethr =  7.18E-10,  avg # of iterations =  6.9

     negative rho (up, down):  2.784E-05 0.000E+00

     total cpu time spent up to now is      681.8 secs

     total energy              =   -1373.25132256 Ry
     estimated scf accuracy    <       0.00000110 Ry

     iteration # 15     ecut=   145.00 Ry     beta= 0.70
     Davidson diagonalization with overlap
     ethr =  7.18E-10,  avg # of iterations =  4.6

     negative rho (up, down):  2.798E-05 0.000E+00

     total cpu time spent up to now is      722.2 secs

     total energy              =   -1373.25132258 Ry
     estimated scf accuracy    <       0.00000012 Ry

     iteration # 16     ecut=   145.00 Ry     beta= 0.70
     Davidson diagonalization with overlap
     ethr =  2.07E-10,  avg # of iterations =  5.6

     negative rho (up, down):  2.799E-05 0.000E+00

     total cpu time spent up to now is      765.3 secs

     total energy              =   -1373.25132260 Ry
     estimated scf accuracy    <          5.4E-09 Ry

     iteration # 17     ecut=   145.00 Ry     beta= 0.70
     Davidson diagonalization with overlap
     c_bands:  1 eigenvalues not converged
     ethr =  9.34E-12,  avg # of iterations =  7.0

     negative rho (up, down):  2.796E-05 0.000E+00

     total cpu time spent up to now is      812.6 secs

     total energy              =   -1373.25132260 Ry
     estimated scf accuracy    <       0.00000002 Ry

     iteration # 18     ecut=   145.00 Ry     beta= 0.70
     Davidson diagonalization with overlap
     ethr =  9.34E-12,  avg # of iterations =  6.2

     negative rho (up, down):  2.796E-05 0.000E+00

     total cpu time spent up to now is      856.2 secs

     total energy              =   -1373.25132260 Ry
     estimated scf accuracy    <          2.0E-10 Ry

     iteration # 19     ecut=   145.00 Ry     beta= 0.70
     Davidson diagonalization with overlap
     ethr =  3.42E-13,  avg # of iterations =  7.0

     negative rho (up, down):  2.797E-05 0.000E+00

     total cpu time spent up to now is      905.5 secs

     total energy              =   -1373.25132260 Ry
     estimated scf accuracy    <          2.6E-11 Ry

     iteration # 20     ecut=   145.00 Ry     beta= 0.70
     Davidson diagonalization with overlap
     ethr =  1.00E-13,  avg # of iterations =  2.2

     negative rho (up, down):  2.796E-05 0.000E+00

     total cpu time spent up to now is      942.5 secs

     total energy              =   -1373.25132260 Ry
     estimated scf accuracy    <          1.7E-11 Ry

     iteration # 21     ecut=   145.00 Ry     beta= 0.70
     Davidson diagonalization with overlap
     ethr =  1.00E-13,  avg # of iterations =  2.5

     negative rho (up, down):  2.797E-05 0.000E+00

     total cpu time spent up to now is      979.2 secs

     total energy              =   -1373.25132260 Ry
     estimated scf accuracy    <          1.5E-11 Ry

     iteration # 22     ecut=   145.00 Ry     beta= 0.70
     Davidson diagonalization with overlap
     ethr =  1.00E-13,  avg # of iterations =  1.0

     negative rho (up, down):  2.797E-05 0.000E+00

     total cpu time spent up to now is     1012.7 secs

     total energy              =   -1373.25132260 Ry
     estimated scf accuracy    <          1.4E-11 Ry

     iteration # 23     ecut=   145.00 Ry     beta= 0.70
     Davidson diagonalization with overlap
     ethr =  1.00E-13,  avg # of iterations =  1.0

     negative rho (up, down):  2.797E-05 0.000E+00

     total cpu time spent up to now is     1046.1 secs

     total energy              =   -1373.25132260 Ry
     estimated scf accuracy    <          8.7E-12 Ry

     iteration # 24     ecut=   145.00 Ry     beta= 0.70
     Davidson diagonalization with overlap
     ethr =  1.00E-13,  avg # of iterations =  1.0

     negative rho (up, down):  2.797E-05 0.000E+00

     total cpu time spent up to now is     1079.6 secs

     total energy              =   -1373.25132260 Ry
     estimated scf accuracy    <          3.3E-12 Ry

     iteration # 25     ecut=   145.00 Ry     beta= 0.70
     Davidson diagonalization with overlap
     ethr =  1.00E-13,  avg # of iterations =  1.8

     negative rho (up, down):  2.796E-05 0.000E+00

     total cpu time spent up to now is     1114.4 secs

     End of self-consistent calculation

          k = 0.0000 0.0000 0.0000 ( 46499 PWs)   bands (ev):

   -68.2900 -68.2423 -35.3156 -34.7118 -34.4037 -34.3987 -34.3387 -34.3323
   -19.9455 -19.9318 -19.9064 -19.9059 -19.9005 -19.9002 -19.8739 -19.8733
   -19.8661 -19.8660 -19.8589 -19.8535 -19.7924 -19.7909 -13.2783  -7.6691
    -4.3939  -4.3506  -1.9291  -0.8991  -0.7264

          k =-0.0000 0.0927 0.0000 ( 46587 PWs)   bands (ev):

   -68.2861 -68.2399 -35.3029 -34.7170 -34.4508 -34.4150 -34.3826 -34.3386
   -19.9439 -19.9308 -19.9079 -19.9064 -19.9008 -19.8991 -19.8755 -19.8730
   -19.8664 -19.8654 -19.8560 -19.8508 -19.7952 -19.7938 -13.1644  -7.4490
    -4.7173  -4.3163  -1.8342  -1.0828  -0.5373

          k =-0.0000 0.1855 0.0000 ( 46729 PWs)   bands (ev):

   -68.2755 -68.2334 -35.2686 -34.7449 -34.5652 -34.4997 -34.4563 -34.3577
   -19.9400 -19.9283 -19.9117 -19.9074 -19.9018 -19.8966 -19.8791 -19.8719
   -19.8673 -19.8634 -19.8483 -19.8435 -19.8026 -19.8015 -12.8640  -6.8675
    -5.3777  -4.2535  -1.8296  -1.4637  -0.9835

          k =-0.0001 0.2782 0.0000 ( 46791 PWs)   bands (ev):

   -68.2607 -68.2249 -35.2251 -34.8485 -34.6619 -34.6414 -34.5092 -34.3868
   -19.9355 -19.9249 -19.9160 -19.9088 -19.9036 -19.8943 -19.8829 -19.8700
   -19.8684 -19.8605 -19.8377 -19.8336 -19.8125 -19.8113 -12.4840  -6.4528
    -5.6910  -4.2423  -2.4626  -1.5266  -1.0281

          k =-0.0001 0.3709 0.0000 ( 46853 PWs)   bands (ev):

   -68.2450 -68.2172 -35.1949 -35.0050 -34.7787 -34.6873 -34.5596 -34.4177
   -19.9332 -19.9207 -19.9191 -19.9104 -19.9062 -19.8935 -19.8851 -19.8692
   -19.8674 -19.8573 -19.8268 -19.8235 -19.8222 -19.8199 -12.1483  -6.8398
    -5.2232  -4.3018  -3.0994  -1.1908  -0.6681

          k =-0.0001 0.4636 0.0000 ( 46837 PWs)   bands (ev):

   -68.2326 -68.2125 -35.1991 -35.1236 -34.8374 -34.7118 -34.5955 -34.4409
   -19.9332 -19.9201 -19.9176 -19.9116 -19.9086 -19.8937 -19.8855 -19.8697
   -19.8651 -19.8546 -19.8291 -19.8256 -19.8185 -19.8163 -11.9369  -7.1607
    -5.0002  -4.3780  -3.4989  -0.4171  -0.1610

          k = 0.0001-0.5564 0.0000 ( 46866 PWs)   bands (ev):

   -68.2276 -68.2112 -35.2127 -35.1636 -34.8468 -34.7230 -34.6084 -34.4495
   -19.9335 -19.9200 -19.9170 -19.9121 -19.9092 -19.8940 -19.8854 -19.8699
   -19.8642 -19.8536 -19.8316 -19.8276 -19.8153 -19.8137 -11.8677  -7.2707
    -4.9677  -4.4109  -3.6322   0.0686   0.0980

          k = 0.0806 0.0463 0.0000 ( 46626 PWs)   bands (ev):

   -68.2861 -68.2398 -35.3028 -34.7170 -34.4486 -34.4179 -34.3794 -34.3422
   -19.9439 -19.9308 -19.9078 -19.9066 -19.9007 -19.8992 -19.8751 -19.8733
   -19.8665 -19.8653 -19.8560 -19.8508 -19.7952 -19.7938 -13.1638  -7.4481
    -4.6956  -4.3414  -1.8326  -1.0812  -0.5378

          k = 0.0806 0.1390 0.0000 ( 46665 PWs)   bands (ev):

   -68.2789 -68.2354 -35.2793 -34.7321 -34.5207 -34.4920 -34.4174 -34.3617
   -19.9411 -19.9291 -19.9101 -19.9078 -19.9010 -19.8975 -19.8779 -19.8725
   -19.8668 -19.8643 -19.8507 -19.8458 -19.8003 -19.7992 -12.9567  -7.0388
    -5.1725  -4.3246  -1.7347  -1.2931  -0.9134

          k = 0.0805 0.2317 0.0000 ( 46795 PWs)   bands (ev):

   -68.2661 -68.2280 -35.2398 -34.7905 -34.6303 -34.6057 -34.4757 -34.3939
   -19.9365 -19.9264 -19.9138 -19.9098 -19.9018 -19.8954 -19.8816 -19.8714
   -19.8670 -19.8622 -19.8416 -19.8372 -19.8089 -19.8081 -12.6161  -6.3883
    -5.7337  -4.4046  -1.9815  -1.4634  -1.1260

          k = 0.0805 0.3245 0.0000 ( 46856 PWs)   bands (ev):

   -68.2508 -68.2199 -35.2010 -34.9238 -34.7430 -34.6734 -34.5415 -34.4285
   -19.9325 -19.9229 -19.9174 -19.9114 -19.9037 -19.8941 -19.8846 -19.8703
   -19.8666 -19.8594 -19.8308 -19.8272 -19.8188 -19.8174 -12.2584  -6.5047
    -5.4354  -4.5288  -2.6321  -1.1753  -1.0477

          k = 0.0805 0.4172 0.0000 ( 46913 PWs)   bands (ev):

   -68.2366 -68.2138 -35.1856 -35.0615 -34.8187 -34.7116 -34.5924 -34.4591
   -19.9315 -19.9195 -19.9189 -19.9122 -19.9065 -19.8940 -19.8858 -19.8696
   -19.8655 -19.8566 -19.8273 -19.8249 -19.8211 -19.8185 -11.9874  -6.9064
    -5.0199  -4.6231  -3.0767  -0.7190  -0.5735

          k = 0.0805 0.5099 0.0000 ( 46904 PWs)   bands (ev):

   -68.2275 -68.2111 -35.1949 -35.1412 -34.8386 -34.7389 -34.6188 -34.4771
   -19.9319 -19.9199 -19.9168 -19.9121 -19.9088 -19.8945 -19.8859 -19.8694
   -19.8647 -19.8546 -19.8321 -19.8287 -19.8153 -19.8137 -11.8503  -7.1218
    -4.9157  -4.6866  -3.2857  -0.1421  -0.0719

          k = 0.0807-0.5101 0.0000 ( 46908 PWs)   bands (ev):

   -68.2275 -68.2111 -35.1951 -35.1414 -34.8389 -34.7387 -34.6187 -34.4770
   -19.9319 -19.9199 -19.9168 -19.9122 -19.9088 -19.8945 -19.8859 -19.8694
   -19.8646 -19.8546 -19.8321 -19.8287 -19.8153 -19.8136 -11.8501  -7.1222
    -4.9163  -4.6857  -3.2869  -0.1419  -0.0725

          k = 0.0807-0.4173 0.0000 ( 46895 PWs)   bands (ev):

   -68.2365 -68.2138 -35.1859 -35.0621 -34.8194 -34.7114 -34.5922 -34.4590
   -19.9315 -19.9195 -19.9189 -19.9122 -19.9066 -19.8941 -19.8858 -19.8697
   -19.8654 -19.8565 -19.8274 -19.8249 -19.8210 -19.8185 -11.9869  -6.9075
    -5.0199  -4.6226  -3.0798  -0.7168  -0.5756

          k = 0.0806-0.3246 0.0000 ( 46856 PWs)   bands (ev):

   -68.2507 -68.2198 -35.2009 -34.9246 -34.7437 -34.6735 -34.5414 -34.4286
   -19.9325 -19.9230 -19.9174 -19.9114 -19.9037 -19.8941 -19.8846 -19.8703
   -19.8665 -19.8594 -19.8308 -19.8272 -19.8188 -19.8175 -12.2575  -6.5057
    -5.4347  -4.5289  -2.6353  -1.1746  -1.0472

          k = 0.0806-0.2319 0.0000 ( 46793 PWs)   bands (ev):

   -68.2661 -68.2279 -35.2397 -34.7907 -34.6305 -34.6061 -34.4763 -34.3943
   -19.9365 -19.9264 -19.9137 -19.9098 -19.9018 -19.8955 -19.8815 -19.8714
   -19.8670 -19.8622 -19.8415 -19.8372 -19.8090 -19.8081 -12.6151  -6.3870
    -5.7333  -4.4061  -1.9830  -1.4621  -1.1258

          k = 0.0806-0.1392 0.0000 ( 46700 PWs)   bands (ev):

   -68.2788 -68.2354 -35.2791 -34.7319 -34.5203 -34.4918 -34.4184 -34.3630
   -19.9411 -19.9291 -19.9100 -19.9079 -19.9009 -19.8977 -19.8778 -19.8726
   -19.8668 -19.8643 -19.8507 -19.8458 -19.8004 -19.7992 -12.9560  -7.0375
    -5.1673  -4.3315  -1.7335  -1.2914  -0.9089

          k = 0.0806-0.0464 0.0000 ( 46633 PWs)   bands (ev):

   -68.2861 -68.2398 -35.3027 -34.7169 -34.4471 -34.4198 -34.3779 -34.3441
   -19.9439 -19.9308 -19.9076 -19.9068 -19.9005 -19.8994 -19.8750 -19.8734
   -19.8664 -19.8654 -19.8559 -19.8508 -19.7952 -19.7938 -13.1635  -7.4476
    -4.6861  -4.3522  -1.8318  -1.0802  -0.5354

          k = 0.1612 0.0926 0.0000 ( 46743 PWs)   bands (ev):

   -68.2753 -68.2333 -35.2682 -34.7445 -34.5642 -34.4973 -34.4601 -34.3618
   -19.9399 -19.9283 -19.9115 -19.9076 -19.9017 -19.8967 -19.8788 -19.8722
   -19.8674 -19.8634 -19.8482 -19.8435 -19.8027 -19.8016 -12.8619  -6.8642
    -5.3612  -4.2800  -1.8197  -1.4632  -0.9779

          k = 0.1611 0.1853 0.0000 ( 46789 PWs)   bands (ev):

   -68.2660 -68.2279 -35.2395 -34.7898 -34.6308 -34.6046 -34.4772 -34.3967
   -19.9365 -19.9264 -19.9137 -19.9099 -19.9017 -19.8955 -19.8815 -19.8715
   -19.8671 -19.8622 -19.8415 -19.8372 -19.8090 -19.8082 -12.6146  -6.3855
    -5.7263  -4.4193  -1.9700  -1.4670  -1.1311

          k = 0.1611 0.2780 0.0000 ( 46825 PWs)   bands (ev):

   -68.2528 -68.2209 -35.2033 -34.8734 -34.7493 -34.6590 -34.5231 -34.4578
   -19.9315 -19.9243 -19.9153 -19.9135 -19.9020 -19.8948 -19.8843 -19.8711
   -19.8650 -19.8613 -19.8323 -19.8286 -19.8174 -19.8171 -12.2959  -6.1395
    -5.6822  -4.7640  -2.1268  -1.6197  -0.5745

          k = 0.1611 0.3708 0.0000 ( 46879 PWs)   bands (ev):

   -68.2388 -68.2146 -35.1753 -34.9810 -34.8304 -34.7009 -34.5909 -34.5096
   -19.9277 -19.9220 -19.9172 -19.9144 -19.9039 -19.8950 -19.8863 -19.8703
   -19.8635 -19.8598 -19.8266 -19.8257 -19.8224 -19.8197 -12.0055  -6.4834
    -5.1403  -4.9846  -2.3888  -1.2981  -0.6044

          k = 0.1611 0.4635 0.0000 ( 46889 PWs)   bands (ev):

   -68.2273 -68.2111 -35.1627 -35.0753 -34.8454 -34.7583 -34.6351 -34.5444
   -19.9276 -19.9198 -19.9169 -19.9130 -19.9068 -19.8957 -19.8871 -19.8689
   -19.8643 -19.8576 -19.8330 -19.8311 -19.8154 -19.8136 -11.8148  -6.7417
    -5.1821  -4.7888  -2.5618  -0.6832  -0.4808

          k = 0.1611 0.5562 0.0000 ( 46915 PWs)   bands (ev):

   -68.2225 -68.2104 -35.1555 -35.1176 -34.8185 -34.8106 -34.6468 -34.5574
   -19.9281 -19.9196 -19.9156 -19.9119 -19.9086 -19.8961 -19.8873 -19.8678
   -19.8652 -19.8566 -19.8355 -19.8331 -19.8127 -19.8115 -11.7500  -6.8368
    -5.2109  -4.7414  -2.6300  -0.3326  -0.2769

          k = 0.1613-0.4638 0.0000 ( 46911 PWs)   bands (ev):

   -68.2272 -68.2110 -35.1632 -35.0761 -34.8462 -34.7579 -34.6350 -34.5443
   -19.9276 -19.9198 -19.9170 -19.9130 -19.9069 -19.8958 -19.8871 -19.8689
   -19.8641 -19.8575 -19.8331 -19.8312 -19.8154 -19.8136 -11.8142  -6.7433
    -5.1824  -4.7890  -2.5640  -0.6873  -0.4802

          k = 0.1612-0.3711 0.0000 ( 46883 PWs)   bands (ev):

   -68.2386 -68.2145 -35.1755 -34.9824 -34.8313 -34.7011 -34.5909 -34.5097
   -19.9277 -19.9219 -19.9173 -19.9144 -19.9039 -19.8951 -19.8863 -19.8703
   -19.8634 -19.8597 -19.8266 -19.8258 -19.8223 -19.8197 -12.0042  -6.4857
    -5.1397  -4.9852  -2.3929  -1.3010  -0.6028

          k = 0.1612-0.2783 0.0000 ( 46844 PWs)   bands (ev):

   -68.2526 -68.2207 -35.2031 -34.8741 -34.7501 -34.6594 -34.5238 -34.4585
   -19.9315 -19.9243 -19.9153 -19.9136 -19.9020 -19.8950 -19.8843 -19.8711
   -19.8649 -19.8612 -19.8322 -19.8285 -19.8176 -19.8172 -12.2942  -6.1400
    -5.6802  -4.7667  -2.1298  -1.6198  -0.5743

          k = 0.1612-0.1856 0.0000 ( 46803 PWs)   bands (ev):

   -68.2659 -68.2278 -35.2392 -34.7895 -34.6310 -34.6048 -34.4786 -34.3985
   -19.9365 -19.9264 -19.9135 -19.9101 -19.9016 -19.8957 -19.8814 -19.8715
   -19.8671 -19.8622 -19.8414 -19.8371 -19.8091 -19.8083 -12.6130  -6.3829
    -5.7224  -4.4267  -1.9665  -1.4676  -1.1324

          k = 0.1612-0.0929 0.0000 ( 46771 PWs)   bands (ev):

   -68.2753 -68.2332 -35.2680 -34.7441 -34.5635 -34.4962 -34.4622 -34.3638
   -19.9399 -19.9283 -19.9114 -19.9079 -19.9015 -19.8969 -19.8787 -19.8723
   -19.8674 -19.8634 -19.8481 -19.8434 -19.8028 -19.8017 -12.8609  -6.8624
    -5.3542  -4.2903  -1.8152  -1.4627  -0.9753

          k = 0.1612-0.0002 0.0000 ( 46701 PWs)   bands (ev):

   -68.2787 -68.2353 -35.2788 -34.7319 -34.5200 -34.4910 -34.4195 -34.3659
   -19.9411 -19.9291 -19.9099 -19.9081 -19.9008 -19.8977 -19.8775 -19.8729
   -19.8669 -19.8642 -19.8506 -19.8458 -19.8004 -19.7993 -12.9544  -7.0353
    -5.1537  -4.3509  -1.7315  -1.2878  -0.8974

          k = 0.2417 0.1389 0.0000 ( 46813 PWs)   bands (ev):

   -68.2603 -68.2247 -35.2243 -34.8478 -34.6631 -34.6395 -34.5139 -34.3916
   -19.9354 -19.9249 -19.9159 -19.9090 -19.9034 -19.8945 -19.8827 -19.8702
   -19.8684 -19.8605 -19.8375 -19.8334 -19.8127 -19.8115 -12.4802  -6.4454
    -5.6827  -4.2707  -2.4517  -1.5292  -1.0277

          k = 0.2417 0.2316 0.0000 ( 46848 PWs)   bands (ev):

   -68.2505 -68.2197 -35.2003 -34.9228 -34.7432 -34.6729 -34.5455 -34.4326
   -19.9325 -19.9229 -19.9173 -19.9116 -19.9036 -19.8942 -19.8845 -19.8703
   -19.8667 -19.8594 -19.8307 -19.8271 -19.8190 -19.8176 -12.2554  -6.4972
    -5.4331  -4.5500  -2.6227  -1.1763  -1.0527

          k = 0.2417 0.3243 0.0000 ( 46883 PWs)   bands (ev):

   -68.2385 -68.2145 -35.1751 -34.9802 -34.8311 -34.7003 -34.5934 -34.5117
   -19.9278 -19.9219 -19.9171 -19.9146 -19.9038 -19.8951 -19.8862 -19.8702
   -19.8636 -19.8597 -19.8267 -19.8258 -19.8223 -19.8197 -12.0039  -6.4790
    -5.1498  -4.9868  -2.3859  -1.2951  -0.6099

          k = 0.2417 0.4170 0.0000 ( 46872 PWs)   bands (ev):

   -68.2271 -68.2110 -35.1482 -35.0134 -34.8959 -34.7329 -34.6488 -34.5901
   -19.9233 -19.9223 -19.9157 -19.9145 -19.9054 -19.8967 -19.8878 -19.8690
   -19.8619 -19.8607 -19.8332 -19.8327 -19.8154 -19.8136 -11.7961  -6.4453
    -5.5092  -4.7228  -1.8244  -1.3888  -0.6820

          k = 0.2417 0.5098 0.0000 ( 46887 PWs)   bands (ev):

   -68.2190 -68.2104 -35.1098 -35.0538 -34.9148 -34.7807 -34.6697 -34.6381
   -19.9245 -19.9189 -19.9152 -19.9117 -19.9077 -19.8980 -19.8888 -19.8669
   -19.8644 -19.8596 -19.8375 -19.8365 -19.8111 -19.8102 -11.6808  -6.4524
    -5.6947  -4.5636  -1.7425  -0.8861  -0.6466

          k = 0.2416 0.6025 0.0000 ( 46872 PWs)   bands (ev):

   -68.2189 -68.2104 -35.1102 -35.0544 -34.9149 -34.7808 -34.6695 -34.6382
   -19.9245 -19.9189 -19.9153 -19.9116 -19.9077 -19.8980 -19.8887 -19.8670
   -19.8643 -19.8595 -19.8375 -19.8366 -19.8111 -19.8102 -11.6804  -6.4536
    -5.6950  -4.5643  -1.7426  -0.8927  -0.6430

          k = 0.2418-0.4175 0.0000 ( 46886 PWs)   bands (ev):

   -68.2269 -68.2109 -35.1487 -35.0148 -34.8963 -34.7332 -34.6489 -34.5904
   -19.9232 -19.9223 -19.9159 -19.9145 -19.9053 -19.8968 -19.8877 -19.8691
   -19.8619 -19.8606 -19.8333 -19.8328 -19.8153 -19.8135 -11.7948  -6.4475
    -5.5111  -4.7236  -1.8277  -1.3930  -0.6802

          k = 0.2418-0.3248 0.0000 ( 46884 PWs)   bands (ev):

   -68.2383 -68.2143 -35.1751 -34.9811 -34.8323 -34.7003 -34.5943 -34.5128
   -19.9278 -19.9219 -19.9171 -19.9147 -19.9038 -19.8953 -19.8862 -19.8703
   -19.8635 -19.8596 -19.8268 -19.8259 -19.8222 -19.8195 -12.0020  -6.4796
    -5.1522  -4.9880  -2.3895  -1.2962  -0.6102

          k = 0.2418-0.2320 0.0000 ( 46860 PWs)   bands (ev):

   -68.2502 -68.2195 -35.2000 -34.9228 -34.7440 -34.6728 -34.5475 -34.4347
   -19.9325 -19.9229 -19.9172 -19.9117 -19.9034 -19.8945 -19.8844 -19.8703
   -19.8666 -19.8593 -19.8306 -19.8270 -19.8191 -19.8178 -12.2532  -6.4951
    -5.4297  -4.5585  -2.6226  -1.1758  -1.0536

          k = 0.2418-0.1393 0.0000 ( 46808 PWs)   bands (ev):

   -68.2601 -68.2246 -35.2239 -34.8472 -34.6632 -34.6388 -34.5164 -34.3939
   -19.9354 -19.9249 -19.9157 -19.9093 -19.9032 -19.8947 -19.8826 -19.8702
   -19.8684 -19.8604 -19.8374 -19.8333 -19.8128 -19.8116 -12.4784  -6.4422
    -5.6779  -4.2815  -2.4475  -1.5301  -1.0274

          k = 0.2418-0.0466 0.0000 ( 46820 PWs)   bands (ev):

   -68.2657 -68.2276 -35.2389 -34.7905 -34.6310 -34.6058 -34.4793 -34.3994
   -19.9364 -19.9265 -19.9135 -19.9101 -19.9016 -19.8957 -19.8812 -19.8717
   -19.8671 -19.8621 -19.8413 -19.8370 -19.8092 -19.8084 -12.6109  -6.3809
    -5.7211  -4.4329  -1.9695  -1.4655  -1.1314

          k = 0.2417 0.0461 0.0000 ( 46811 PWs)   bands (ev):

   -68.2657 -68.2277 -35.2390 -34.7910 -34.6311 -34.6060 -34.4786 -34.3980
   -19.9364 -19.9265 -19.9137 -19.9100 -19.9017 -19.8956 -19.8813 -19.8717
   -19.8671 -19.8621 -19.8414 -19.8370 -19.8092 -19.8083 -12.6115  -6.3822
    -5.7246  -4.4271  -1.9745  -1.4637  -1.1299

          k = 0.3223 0.1851 0.0000 ( 46869 PWs)   bands (ev):

   -68.2444 -68.2168 -35.1943 -35.0050 -34.7782 -34.6880 -34.5652 -34.4231
   -19.9332 -19.9207 -19.9190 -19.9106 -19.9061 -19.8937 -19.8849 -19.8693
   -19.8674 -19.8572 -19.8265 -19.8233 -19.8225 -19.8202 -12.1432  -6.8340
    -5.2219  -4.3327  -3.0919  -1.1882  -0.6645

          k = 0.3223 0.2779 0.0000 ( 46888 PWs)   bands (ev):

   -68.2360 -68.2135 -35.1854 -35.0611 -34.8176 -34.7127 -34.5976 -34.4640
   -19.9315 -19.9195 -19.9187 -19.9124 -19.9065 -19.8943 -19.8857 -19.8696
   -19.8655 -19.8565 -19.8276 -19.8252 -19.8208 -19.8183 -11.9832  -6.9014
    -5.0225  -4.6487  -3.0710  -0.7157  -0.5664

          k = 0.3223 0.3706 0.0000 ( 46903 PWs)   bands (ev):

   -68.2268 -68.2109 -35.1630 -35.0750 -34.8456 -34.7584 -34.6388 -34.5474
   -19.9277 -19.9197 -19.9167 -19.9131 -19.9068 -19.8959 -19.8871 -19.8688
   -19.8643 -19.8574 -19.8333 -19.8313 -19.8152 -19.8135 -11.8119  -6.7389
    -5.1968  -4.7946  -2.5655  -0.6708  -0.4724

          k = 0.3222 0.4633 0.0000 ( 46905 PWs)   bands (ev):

   -68.2187 -68.2104 -35.1103 -35.0536 -34.9160 -34.7796 -34.6722 -34.6384
   -19.9246 -19.9189 -19.9151 -19.9117 -19.9077 -19.8981 -19.8887 -19.8669
   -19.8645 -19.8595 -19.8376 -19.8366 -19.8110 -19.8101 -11.6793  -6.4518
    -5.7013  -4.5676  -1.7580  -0.8673  -0.6398

          k = 0.3222 0.5561 0.0000 ( 46893 PWs)   bands (ev):

   -68.2131 -68.2127 -35.0386 -35.0365 -35.0017 -34.7806 -34.6844 -34.6819
   -19.9240 -19.9163 -19.9161 -19.9093 -19.9091 -19.8993 -19.8896 -19.8652
   -19.8650 -19.8609 -19.8391 -19.8389 -19.8093 -19.8091 -11.6289  -6.1116
    -6.1104  -4.4608  -1.0917  -0.9609  -0.9494

          k = 0.3222 0.6488 0.0000 ( 46899 PWs)   bands (ev):

   -68.2185 -68.2103 -35.1108 -35.0541 -34.9168 -34.7796 -34.6727 -34.6389
   -19.9245 -19.9190 -19.9151 -19.9118 -19.9076 -19.8982 -19.8886 -19.8670
   -19.8644 -19.8593 -19.8377 -19.8367 -19.8110 -19.8100 -11.6783  -6.4523
    -5.7046  -4.5693  -1.7653  -0.8651  -0.6337

          k = 0.3224-0.3712 0.0000 ( 46897 PWs)   bands (ev):

   -68.2266 -68.2107 -35.1634 -35.0755 -34.8467 -34.7583 -34.6401 -34.5489
   -19.9277 -19.9198 -19.9167 -19.9132 -19.9067 -19.8961 -19.8870 -19.8689
   -19.8642 -19.8573 -19.8334 -19.8315 -19.8151 -19.8133 -11.8101  -6.7391
    -5.2032  -4.7954  -2.5700  -0.6685  -0.4685

          k = 0.3224-0.2785 0.0000 ( 46892 PWs)   bands (ev):

   -68.2357 -68.2133 -35.1854 -35.0614 -34.8181 -34.7128 -34.5999 -34.4664
   -19.9315 -19.9194 -19.9187 -19.9126 -19.9064 -19.8945 -19.8856 -19.8696
   -19.8654 -19.8564 -19.8278 -19.8254 -19.8207 -19.8181 -11.9809  -6.9001
    -5.0213  -4.6581  -3.0727  -0.7122  -0.5647

          k = 0.3224-0.1858 0.0000 ( 46848 PWs)   bands (ev):

   -68.2441 -68.2166 -35.1940 -35.0048 -34.7781 -34.6880 -34.5681 -34.4257
   -19.9332 -19.9206 -19.9189 -19.9109 -19.9058 -19.8939 -19.8848 -19.8693
   -19.8674 -19.8571 -19.8263 -19.8232 -19.8227 -19.8205 -12.1410  -6.8313
    -5.2190  -4.3446  -3.0897  -1.1872  -0.6623

          k = 0.3224-0.0930 0.0000 ( 46876 PWs)   bands (ev):

   -68.2500 -68.2194 -35.2000 -34.9248 -34.7454 -34.6731 -34.5470 -34.4349
   -19.9325 -19.9229 -19.9172 -19.9118 -19.9034 -19.8945 -19.8843 -19.8705
   -19.8665 -19.8593 -19.8305 -19.8269 -19.8192 -19.8179 -12.2511  -6.4985
    -5.4283  -4.5605  -2.6301  -1.1752  -1.0508

          k = 0.3223-0.0003 0.0000 ( 46843 PWs)   bands (ev):

   -68.2522 -68.2205 -35.2027 -34.8769 -34.7514 -34.6600 -34.5246 -34.4602
   -19.9314 -19.9244 -19.9153 -19.9137 -19.9019 -19.8950 -19.8841 -19.8713
   -19.8650 -19.8610 -19.8320 -19.8283 -19.8178 -19.8174 -12.2902  -6.1422
    -5.6766  -4.7767  -2.1348  -1.6222  -0.5772

          k = 0.3223 0.0924 0.0000 ( 46854 PWs)   bands (ev):

   -68.2502 -68.2195 -35.2003 -34.9255 -34.7453 -34.6733 -34.5450 -34.4328
   -19.9325 -19.9230 -19.9173 -19.9116 -19.9036 -19.8943 -19.8844 -19.8705
   -19.8665 -19.8593 -19.8306 -19.8270 -19.8191 -19.8178 -12.2524  -6.5015
    -5.4311  -4.5521  -2.6334  -1.1750  -1.0494

          k = 0.4029 0.2314 0.0000 ( 46856 PWs)   bands (ev):

   -68.2317 -68.2121 -35.1998 -35.1239 -34.8355 -34.7135 -34.6017 -34.4468
   -19.9333 -19.9200 -19.9174 -19.9119 -19.9085 -19.8940 -19.8854 -19.8698
   -19.8650 -19.8545 -19.8295 -19.8260 -19.8181 -19.8159 -11.9312  -7.1577
    -5.0062  -4.4108  -3.4925  -0.4061  -0.1510

          k = 0.4029 0.3242 0.0000 ( 46913 PWs)   bands (ev):

   -68.2266 -68.2109 -35.1960 -35.1413 -34.8360 -34.7415 -34.6243 -34.4824
   -19.9320 -19.9198 -19.9166 -19.9124 -19.9088 -19.8948 -19.8858 -19.8695
   -19.8646 -19.8545 -19.8325 -19.8290 -19.8150 -19.8134 -11.8452  -7.1197
    -4.9228  -4.7130  -3.2852  -0.1286  -0.0586

          k = 0.4028 0.4169 0.0000 ( 46911 PWs)   bands (ev):

   -68.2217 -68.2103 -35.1573 -35.1177 -34.8166 -34.8130 -34.6503 -34.5608
   -19.9282 -19.9195 -19.9154 -19.9121 -19.9086 -19.8964 -19.8872 -19.8680
   -19.8651 -19.8564 -19.8358 -19.8333 -19.8124 -19.8112 -11.7459  -6.8373
    -5.2269  -4.7497  -2.6389  -0.3204  -0.2601

          k = 0.4028 0.5096 0.0000 ( 46880 PWs)   bands (ev):

   -68.2183 -68.2104 -35.1118 -35.0560 -34.9156 -34.7799 -34.6709 -34.6394
   -19.9246 -19.9189 -19.9152 -19.9117 -19.9077 -19.8982 -19.8887 -19.8671
   -19.8642 -19.8594 -19.8377 -19.8367 -19.8109 -19.8100 -11.6775  -6.4576
    -5.7015  -4.5708  -1.7589  -0.8888  -0.6275

          k = 0.4028 0.6023 0.0000 ( 46891 PWs)   bands (ev):

   -68.2182 -68.2103 -35.1119 -35.0558 -34.9163 -34.7798 -34.6716 -34.6398
   -19.9245 -19.9190 -19.9152 -19.9118 -19.9076 -19.8982 -19.8886 -19.8671
   -19.8642 -19.8593 -19.8377 -19.8368 -19.8109 -19.8100 -11.6770  -6.4569
    -5.7045  -4.5717  -1.7661  -0.8800  -0.6249

          k = 0.4028 0.6951 0.0000 ( 46923 PWs)   bands (ev):

   -68.2215 -68.2101 -35.1577 -35.1177 -34.8162 -34.8143 -34.6516 -34.5625
   -19.9282 -19.9196 -19.9153 -19.9123 -19.9085 -19.8965 -19.8871 -19.8680
   -19.8650 -19.8563 -19.8359 -19.8335 -19.8123 -19.8111 -11.7444  -6.8366
    -5.2335  -4.7514  -2.6434  -0.3138  -0.2536

          k = 0.4030-0.3249 0.0000 ( 46911 PWs)   bands (ev):

   -68.2263 -68.2107 -35.1965 -35.1413 -34.8358 -34.7421 -34.6268 -34.4850
   -19.9320 -19.9198 -19.9165 -19.9126 -19.9087 -19.8950 -19.8857 -19.8695
   -19.8645 -19.8544 -19.8327 -19.8293 -19.8148 -19.8132 -11.8430  -7.1185
    -4.9239  -4.7226  -3.2872  -0.1225  -0.0526

          k = 0.4030-0.2322 0.0000 ( 46885 PWs)   bands (ev):

   -68.2314 -68.2119 -35.1998 -35.1238 -34.8352 -34.7138 -34.6049 -34.4497
   -19.9333 -19.9200 -19.9173 -19.9122 -19.9084 -19.8942 -19.8852 -19.8698
   -19.8650 -19.8544 -19.8297 -19.8263 -19.8179 -19.8158 -11.9289  -7.1557
    -5.0059  -4.4236  -3.4912  -0.4014  -0.1458

          k = 0.4029-0.1395 0.0000 ( 46871 PWs)   bands (ev):

   -68.2355 -68.2132 -35.1860 -35.0629 -34.8194 -34.7123 -34.5994 -34.4663
   -19.9315 -19.9194 -19.9187 -19.9126 -19.9063 -19.8945 -19.8856 -19.8698
   -19.8652 -19.8563 -19.8278 -19.8254 -19.8206 -19.8181 -11.9793  -6.9036
    -5.0224  -4.6561  -3.0803  -0.7074  -0.5691

          k = 0.4029-0.0467 0.0000 ( 46887 PWs)   bands (ev):

   -68.2379 -68.2141 -35.1757 -34.9848 -34.8335 -34.7007 -34.5937 -34.5132
   -19.9278 -19.9220 -19.9172 -19.9147 -19.9038 -19.8953 -19.8861 -19.8705
   -19.8633 -19.8595 -19.8269 -19.8261 -19.8221 -19.8194 -11.9985  -6.4873
    -5.1475  -4.9949  -2.3993  -1.3035  -0.6016

          k = 0.4029 0.0460 0.0000 ( 46883 PWs)   bands (ev):

   -68.2380 -68.2142 -35.1759 -34.9853 -34.8331 -34.7009 -34.5927 -34.5121
   -19.9277 -19.9220 -19.9172 -19.9146 -19.9038 -19.8952 -19.8861 -19.8705
   -19.8633 -19.8595 -19.8269 -19.8260 -19.8221 -19.8194 -11.9992  -6.4891
    -5.1445  -4.9943  -2.3998  -1.3054  -0.5997

          k = 0.4029 0.1387 0.0000 ( 46887 PWs)   bands (ev):

   -68.2358 -68.2134 -35.1862 -35.0632 -34.8197 -34.7120 -34.5968 -34.4638
   -19.9315 -19.9195 -19.9188 -19.9125 -19.9065 -19.8943 -19.8857 -19.8699
   -19.8652 -19.8564 -19.8277 -19.8253 -19.8207 -19.8182 -11.9811  -6.9060
    -5.0235  -4.6461  -3.0817  -0.7088  -0.5729

          k =-0.4835-0.2777 0.0000 ( 46896 PWs)   bands (ev):

   -68.2266 -68.2109 -35.2143 -35.1638 -34.8438 -34.7254 -34.6149 -34.4556
   -19.9336 -19.9199 -19.9167 -19.9124 -19.9092 -19.8943 -19.8853 -19.8700
   -19.8641 -19.8534 -19.8320 -19.8280 -19.8149 -19.8133 -11.8619  -7.2687
    -4.9766  -4.4444  -3.6261   0.0848   0.1110

          k =-0.4835-0.1850 0.0000 ( 46893 PWs)   bands (ev):

   -68.2265 -68.2108 -35.1968 -35.1419 -34.8368 -34.7409 -34.6240 -34.4823
   -19.9320 -19.9198 -19.9165 -19.9124 -19.9088 -19.8948 -19.8858 -19.8696
   -19.8644 -19.8545 -19.8325 -19.8291 -19.8150 -19.8133 -11.8445  -7.1215
    -4.9263  -4.7085  -3.2894  -0.1293  -0.0595

          k =-0.4835-0.0923 0.0000 ( 46894 PWs)   bands (ev):

   -68.2265 -68.2108 -35.1648 -35.0779 -34.8475 -34.7573 -34.6380 -34.5474
   -19.9278 -19.9197 -19.9169 -19.9132 -19.9068 -19.8960 -19.8870 -19.8691
   -19.8639 -19.8574 -19.8334 -19.8314 -19.8151 -19.8133 -11.8092  -6.7461
    -5.1980  -4.7952  -2.5733  -0.6848  -0.4678

          k =-0.4835 0.0005 0.0000 ( 46877 PWs)   bands (ev):

   -68.2264 -68.2107 -35.1502 -35.0191 -34.8960 -34.7335 -34.6486 -34.5915
   -19.9233 -19.9223 -19.9160 -19.9145 -19.9053 -19.8969 -19.8876 -19.8692
   -19.8617 -19.8604 -19.8335 -19.8330 -19.8151 -19.8133 -11.7911  -6.4559
    -5.5143  -4.7282  -1.8359  -1.4026  -0.6725

          k =-0.4835 0.0932 0.0000 ( 46906 PWs)   bands (ev):

   -68.2263 -68.2107 -35.1647 -35.0776 -34.8478 -34.7575 -34.6394 -34.5490
   -19.9278 -19.9198 -19.9168 -19.9132 -19.9067 -19.8961 -19.8869 -19.8691
   -19.8639 -19.8573 -19.8335 -19.8316 -19.8150 -19.8133 -11.8081  -6.7446
    -5.2040  -4.7959  -2.5757  -0.6785  -0.4646

          k =-0.4835 0.1859 0.0000 ( 46901 PWs)   bands (ev):

   -68.2262 -68.2106 -35.1970 -35.1418 -34.8363 -34.7417 -34.6266 -34.4849
   -19.9320 -19.9198 -19.9165 -19.9126 -19.9086 -19.8950 -19.8857 -19.8695
   -19.8644 -19.8544 -19.8327 -19.8293 -19.8148 -19.8132 -11.8425  -7.1199
    -4.9270  -4.7189  -3.2902  -0.1232  -0.0531

          k =-0.4833-0.8341 0.0000 ( 46912 PWs)   bands (ev):

   -68.2262 -68.2106 -35.2147 -35.1638 -34.8433 -34.7258 -34.6181 -34.4586
   -19.9336 -19.9199 -19.9167 -19.9127 -19.9091 -19.8945 -19.8851 -19.8700
   -19.8640 -19.8533 -19.8322 -19.8283 -19.8147 -19.8131 -11.8596  -7.2670
    -4.9775  -4.4576  -3.6250   0.0921   0.1176

     highest occupied level (ev):     0.1176

!    total energy              =   -1373.25132260 Ry
     estimated scf accuracy    <          1.8E-13 Ry

     The total energy is the sum of the following terms:
     one-electron contribution =  -10891.88915573 Ry
     hartree contribution      =    5474.28080732 Ry
     xc contribution           =    -138.78169391 Ry
     ewald contribution        =    4183.13871972 Ry

     convergence has been achieved in  25 iterations

     negative rho (up, down):  2.796E-05 0.000E+00

     Forces acting on atoms (cartesian axes, Ry/au):

     atom    1 type  2   force =     0.00031075    0.00028325   -0.00017347
     atom    2 type  1   force =    -0.00026852   -0.00046466    0.00155188
     atom    3 type  1   force =    -0.00004223    0.00018141   -0.00137841

     Total force =     0.002152     Total SCF correction =     0.000005


     Computing stress (Cartesian axis) and pressure


     negative rho (up, down):  2.796E-05 0.000E+00
          total   stress  (Ry/bohr**3)                   (kbar)     P=        5.54
   0.00006657  -0.00000261   0.00000033            9.79       -0.38        0.05
  -0.00000261   0.00005154   0.00000093           -0.38        7.58        0.14
   0.00000033   0.00000093  -0.00000507            0.05        0.14       -0.75


     Writing output data file /scratch/as3359/Ta2C-CT-ecutoff/Ta2C.save/
 
     init_run     :     45.46s CPU     24.95s WALL (       1 calls)
     electrons    :   2130.84s CPU   1089.34s WALL (       1 calls)
     forces       :     14.16s CPU      7.38s WALL (       1 calls)
     stress       :     56.32s CPU     29.22s WALL (       1 calls)

     Called by init_run:
     wfcinit      :     34.16s CPU     17.46s WALL (       1 calls)
     potinit      :      2.89s CPU      1.47s WALL (       1 calls)
     hinit0       :      6.14s CPU      4.49s WALL (       1 calls)

     Called by electrons:
     c_bands      :   1726.72s CPU    872.01s WALL (      25 calls)
     sum_band     :    341.74s CPU    178.89s WALL (      25 calls)
     v_of_rho     :      8.96s CPU      5.06s WALL (      26 calls)
     newd         :     51.17s CPU     32.29s WALL (      26 calls)
     mix_rho      :      3.19s CPU      1.78s WALL (      25 calls)

     Called by c_bands:
     init_us_2    :     42.91s CPU     21.48s WALL (    3922 calls)
     cegterg      :   1593.92s CPU    805.25s WALL (    1850 calls)

     Called by *egterg:
     cdiaghg      :     15.74s CPU      8.05s WALL (   10798 calls)
     h_psi        :   1305.64s CPU    660.60s WALL (   10872 calls)
     s_psi        :     67.39s CPU     33.73s WALL (   10872 calls)
     g_psi        :      6.96s CPU      3.49s WALL (    8948 calls)

     Called by h_psi:
     h_psi:calbec :     51.28s CPU     25.70s WALL (   10872 calls)
     vloc_psi     :   1171.69s CPU    593.41s WALL (   10872 calls)
     add_vuspsi   :     74.31s CPU     37.22s WALL (   10872 calls)

     General routines
     calbec       :     68.02s CPU     34.10s WALL (   13092 calls)
     fft          :      5.18s CPU      2.82s WALL (     361 calls)
     ffts         :      0.53s CPU      0.27s WALL (      51 calls)
     fftw         :   1218.48s CPU    617.50s WALL (  331500 calls)
     interpolate  :      0.88s CPU      0.45s WALL (      26 calls)
 
     Parallel routines
 
     PWSCF        :  37m30.76s CPU  19m14.37s WALL

 
   This run was terminated on:   0:15: 7   7Apr2022            

=------------------------------------------------------------------------------=
   JOB DONE.
=------------------------------------------------------------------------------=
