
     Program PWSCF v.6.8 starts on  7Apr2022 at  1:29:25 

     This program is part of the open-source Quantum ESPRESSO suite
     for quantum simulation of materials; please cite
         "P. Giannozzi et al., J. Phys.:Condens. Matter 21 395502 (2009);
         "P. Giannozzi et al., J. Phys.:Condens. Matter 29 465901 (2017);
         "P. Giannozzi et al., J. Chem. Phys. 152 154105 (2020);
          URL http://www.quantum-espresso.org", 
     in publications or presentations arising from this work. More details at
     http://www.quantum-espresso.org/quote

     Parallel version (MPI & OpenMP), running on       4 processor cores
     Number of MPI processes:                 2
     Threads/MPI process:                     2

     MPI processes distributed on     1 nodes
     R & G space division:  proc/nbgrp/npool/nimage =       2
     124970 MiB available memory on the printing compute node when the environment starts
 
     Reading input from Ta2C.scf.165.in

     Current dimensions of program PWSCF are:
     Max number of different atomic species (ntypx) = 10
     Max number of k-points (npk) =  40000
     Max angular momentum in pseudopotentials (lmaxx) =  4
     file Ta.pbesol-spfn-rrkjus_psl.1.0.0.UPF: wavefunction(s)  5S 5P renormalized

     Subspace diagonalization in iterative solution of the eigenvalue problem:
     a serial algorithm will be used

 
     Parallelization info
     --------------------
     sticks:   dense  smooth     PW     G-vecs:    dense   smooth      PW
     Min         945     753    219               318035   227631   36315
     Max         946     754    220               318042   227652   36330
     Sum        1891    1507    439               636077   455283   72645
 
     Using Slab Decomposition
 


     bravais-lattice index     =            0
     lattice parameter (alat)  =       5.5500  a.u.
     unit-cell volume          =    1588.7844 (a.u.)^3
     number of atoms/cell      =            3
     number of atomic types    =            2
     number of electrons       =        58.00
     number of Kohn-Sham states=           29
     kinetic-energy cutoff     =     165.0000  Ry
     charge density cutoff     =     825.0000  Ry
     scf convergence threshold =      1.0E-12
     mixing beta               =       0.7000
     number of iterations used =            8  plain     mixing
     Exchange-correlation= PBESOL
                           (   1   4  10   8   0   0   0)

     celldm(1)=   5.550000  celldm(2)=   0.000000  celldm(3)=   0.000000
     celldm(4)=   0.000000  celldm(5)=   0.000000  celldm(6)=   0.000000

     crystal axes: (cart. coord. in units of alat)
               a(1) = (   1.034114   0.000203   0.000000 )  
               a(2) = (  -0.516207   0.898604   0.000000 )  
               a(3) = (   0.000000   0.000000  10.000000 )  

     reciprocal axes: (cart. coord. in units 2 pi/alat)
               b(1) = (  0.966902  0.555441  0.000000 )  
               b(2) = ( -0.000219  1.112711  0.000000 )  
               b(3) = (  0.000000  0.000000  0.100000 )  


     PseudoPot. # 1 for Ta read from file:
     /shared/home/as3359/pseudo/Ta.pbesol-spfn-rrkjus_psl.1.0.0.UPF
     MD5 check sum: f099565ffaca9b150a52e9412a28e20b
     Pseudo is Ultrasoft + core correction, Zval = 27.0
     Generated using &quot;atomic&quot; code by A. Dal Corso  v.6.3
     Using radial grid of 1273 points,  8 beta functions with: 
                l(1) =   0
                l(2) =   0
                l(3) =   1
                l(4) =   1
                l(5) =   2
                l(6) =   2
                l(7) =   3
                l(8) =   3
     Q(r) pseudized with 0 coefficients 


     PseudoPot. # 2 for C  read from file:
     /shared/home/as3359/pseudo/C.pbesol-n-rrkjus_psl.1.0.0.UPF
     MD5 check sum: 05995be603a8a7c99da3dc4413f31573
     Pseudo is Ultrasoft + core correction, Zval =  4.0
     Generated using &quot;atomic&quot; code by A. Dal Corso  v.6.3MaX
     Using radial grid of 1073 points,  4 beta functions with: 
                l(1) =   0
                l(2) =   0
                l(3) =   1
                l(4) =   1
     Q(r) pseudized with 0 coefficients 


     atomic species   valence    mass     pseudopotential
        Ta            27.00   180.94788     Ta( 1.00)
        C              4.00    12.01070     C ( 1.00)

     No symmetry found



   Cartesian axes

     site n.     atom                  positions (alat units)
         1           C   tau(   1) = (   0.0000000   0.0000000   0.0000000  )
         2           Ta  tau(   2) = (   0.5174615   0.3004190  -0.4127129  )
         3           Ta  tau(   3) = (   0.0007158   0.5986355   0.4125272  )

     number of k points=    74
                       cart. coord. in units 2pi/alat
        k(    1) = (   0.0000000   0.0000000   0.0000000), wk =   0.0138889
        k(    2) = (  -0.0000182   0.0927259   0.0000000), wk =   0.0277778
        k(    3) = (  -0.0000364   0.1854519   0.0000000), wk =   0.0277778
        k(    4) = (  -0.0000547   0.2781778   0.0000000), wk =   0.0277778
        k(    5) = (  -0.0000729   0.3709037   0.0000000), wk =   0.0277778
        k(    6) = (  -0.0000911   0.4636296   0.0000000), wk =   0.0277778
        k(    7) = (   0.0001093  -0.5563556   0.0000000), wk =   0.0138889
        k(    8) = (   0.0805752   0.0462867   0.0000000), wk =   0.0277778
        k(    9) = (   0.0805570   0.1390127   0.0000000), wk =   0.0277778
        k(   10) = (   0.0805388   0.2317386   0.0000000), wk =   0.0277778
        k(   11) = (   0.0805205   0.3244645   0.0000000), wk =   0.0277778
        k(   12) = (   0.0805023   0.4171904   0.0000000), wk =   0.0277778
        k(   13) = (   0.0804841   0.5099164   0.0000000), wk =   0.0277778
        k(   14) = (   0.0806845  -0.5100688   0.0000000), wk =   0.0277778
        k(   15) = (   0.0806663  -0.4173429   0.0000000), wk =   0.0277778
        k(   16) = (   0.0806481  -0.3246170   0.0000000), wk =   0.0277778
        k(   17) = (   0.0806298  -0.2318910   0.0000000), wk =   0.0277778
        k(   18) = (   0.0806116  -0.1391651   0.0000000), wk =   0.0277778
        k(   19) = (   0.0805934  -0.0464392   0.0000000), wk =   0.0277778
        k(   20) = (   0.1611504   0.0925735   0.0000000), wk =   0.0277778
        k(   21) = (   0.1611322   0.1852994   0.0000000), wk =   0.0277778
        k(   22) = (   0.1611139   0.2780253   0.0000000), wk =   0.0277778
        k(   23) = (   0.1610957   0.3707513   0.0000000), wk =   0.0277778
        k(   24) = (   0.1610775   0.4634772   0.0000000), wk =   0.0277778
        k(   25) = (   0.1610593   0.5562031   0.0000000), wk =   0.0277778
        k(   26) = (   0.1612597  -0.4637821   0.0000000), wk =   0.0277778
        k(   27) = (   0.1612415  -0.3710561   0.0000000), wk =   0.0277778
        k(   28) = (   0.1612232  -0.2783302   0.0000000), wk =   0.0277778
        k(   29) = (   0.1612050  -0.1856043   0.0000000), wk =   0.0277778
        k(   30) = (   0.1611868  -0.0928784   0.0000000), wk =   0.0277778
        k(   31) = (   0.1611686  -0.0001524   0.0000000), wk =   0.0277778
        k(   32) = (   0.2417256   0.1388602   0.0000000), wk =   0.0277778
        k(   33) = (   0.2417073   0.2315862   0.0000000), wk =   0.0277778
        k(   34) = (   0.2416891   0.3243121   0.0000000), wk =   0.0277778
        k(   35) = (   0.2416709   0.4170380   0.0000000), wk =   0.0277778
        k(   36) = (   0.2416527   0.5097639   0.0000000), wk =   0.0277778
        k(   37) = (   0.2416345   0.6024899   0.0000000), wk =   0.0277778
        k(   38) = (   0.2418349  -0.4174953   0.0000000), wk =   0.0277778
        k(   39) = (   0.2418166  -0.3247694   0.0000000), wk =   0.0277778
        k(   40) = (   0.2417984  -0.2320435   0.0000000), wk =   0.0277778
        k(   41) = (   0.2417802  -0.1393175   0.0000000), wk =   0.0277778
        k(   42) = (   0.2417620  -0.0465916   0.0000000), wk =   0.0277778
        k(   43) = (   0.2417438   0.0461343   0.0000000), wk =   0.0277778
        k(   44) = (   0.3223007   0.1851470   0.0000000), wk =   0.0277778
        k(   45) = (   0.3222825   0.2778729   0.0000000), wk =   0.0277778
        k(   46) = (   0.3222643   0.3705988   0.0000000), wk =   0.0277778
        k(   47) = (   0.3222461   0.4633248   0.0000000), wk =   0.0277778
        k(   48) = (   0.3222279   0.5560507   0.0000000), wk =   0.0277778
        k(   49) = (   0.3222097   0.6487766   0.0000000), wk =   0.0277778
        k(   50) = (   0.3224100  -0.3712086   0.0000000), wk =   0.0277778
        k(   51) = (   0.3223918  -0.2784827   0.0000000), wk =   0.0277778
        k(   52) = (   0.3223736  -0.1857567   0.0000000), wk =   0.0277778
        k(   53) = (   0.3223554  -0.0930308   0.0000000), wk =   0.0277778
        k(   54) = (   0.3223372  -0.0003049   0.0000000), wk =   0.0277778
        k(   55) = (   0.3223190   0.0924210   0.0000000), wk =   0.0277778
        k(   56) = (   0.4028759   0.2314337   0.0000000), wk =   0.0277778
        k(   57) = (   0.4028577   0.3241596   0.0000000), wk =   0.0277778
        k(   58) = (   0.4028395   0.4168856   0.0000000), wk =   0.0277778
        k(   59) = (   0.4028213   0.5096115   0.0000000), wk =   0.0277778
        k(   60) = (   0.4028031   0.6023374   0.0000000), wk =   0.0277778
        k(   61) = (   0.4027848   0.6950633   0.0000000), wk =   0.0277778
        k(   62) = (   0.4029852  -0.3249218   0.0000000), wk =   0.0277778
        k(   63) = (   0.4029670  -0.2321959   0.0000000), wk =   0.0277778
        k(   64) = (   0.4029488  -0.1394700   0.0000000), wk =   0.0277778
        k(   65) = (   0.4029306  -0.0467441   0.0000000), wk =   0.0277778
        k(   66) = (   0.4029124   0.0459819   0.0000000), wk =   0.0277778
        k(   67) = (   0.4028941   0.1387078   0.0000000), wk =   0.0277778
        k(   68) = (  -0.4834511  -0.2777205   0.0000000), wk =   0.0138889
        k(   69) = (  -0.4834693  -0.1849945   0.0000000), wk =   0.0277778
        k(   70) = (  -0.4834875  -0.0922686   0.0000000), wk =   0.0277778
        k(   71) = (  -0.4835058   0.0004573   0.0000000), wk =   0.0277778
        k(   72) = (  -0.4835240   0.0931832   0.0000000), wk =   0.0277778
        k(   73) = (  -0.4835422   0.1859092   0.0000000), wk =   0.0277778
        k(   74) = (  -0.4833418  -0.8340760   0.0000000), wk =   0.0138889

     Dense  grid:   636077 G-vectors     FFT dimensions: (  54,  54, 512)

     Smooth grid:   455283 G-vectors     FFT dimensions: (  48,  48, 480)

     Estimated max dynamical RAM per process >       3.91 GB

     Estimated total dynamical RAM >       7.82 GB

     Initial potential from superposition of free atoms

     starting charge   57.99842, renormalised to   58.00000

     negative rho (up, down):  1.486E-04 0.000E+00
     Starting wfcs are   38 randomized atomic wfcs

     total cpu time spent up to now is       29.7 secs

     Self-consistent Calculation

     iteration #  1     ecut=   165.00 Ry     beta= 0.70
     Davidson diagonalization with overlap
     ethr =  1.00E-02,  avg # of iterations =  2.1

     negative rho (up, down):  1.764E-05 0.000E+00

     total cpu time spent up to now is       73.8 secs

     total energy              =   -1372.42715104 Ry
     estimated scf accuracy    <       1.29348498 Ry

     iteration #  2     ecut=   165.00 Ry     beta= 0.70
     Davidson diagonalization with overlap
     ethr =  2.23E-03,  avg # of iterations =  6.7

     total cpu time spent up to now is      136.7 secs

     total energy              =   -1371.96377551 Ry
     estimated scf accuracy    <       8.08817466 Ry

     iteration #  3     ecut=   165.00 Ry     beta= 0.70
     Davidson diagonalization with overlap
     ethr =  2.23E-03,  avg # of iterations =  5.8

     total cpu time spent up to now is      192.7 secs

     total energy              =   -1373.21731868 Ry
     estimated scf accuracy    <       0.12059741 Ry

     iteration #  4     ecut=   165.00 Ry     beta= 0.70
     Davidson diagonalization with overlap
     ethr =  2.08E-04,  avg # of iterations =  6.0

     total cpu time spent up to now is      243.6 secs

     total energy              =   -1373.24579419 Ry
     estimated scf accuracy    <       0.08535785 Ry

     iteration #  5     ecut=   165.00 Ry     beta= 0.70
     Davidson diagonalization with overlap
     ethr =  1.47E-04,  avg # of iterations =  5.0

     total cpu time spent up to now is      290.8 secs

     total energy              =   -1373.24730468 Ry
     estimated scf accuracy    <       0.04971064 Ry

     iteration #  6     ecut=   165.00 Ry     beta= 0.70
     Davidson diagonalization with overlap
     ethr =  8.57E-05,  avg # of iterations =  3.4

     negative rho (up, down):  2.862E-06 0.000E+00

     total cpu time spent up to now is      333.9 secs

     total energy              =   -1373.25009913 Ry
     estimated scf accuracy    <       0.00419938 Ry

     iteration #  7     ecut=   165.00 Ry     beta= 0.70
     Davidson diagonalization with overlap
     ethr =  7.24E-06,  avg # of iterations =  7.6

     negative rho (up, down):  7.042E-06 0.000E+00

     total cpu time spent up to now is      394.3 secs

     total energy              =   -1373.25102530 Ry
     estimated scf accuracy    <       0.00282864 Ry

     iteration #  8     ecut=   165.00 Ry     beta= 0.70
     Davidson diagonalization with overlap
     ethr =  4.88E-06,  avg # of iterations =  4.0

     negative rho (up, down):  4.220E-05 0.000E+00

     total cpu time spent up to now is      439.9 secs

     total energy              =   -1373.25142178 Ry
     estimated scf accuracy    <       0.00028483 Ry

     iteration #  9     ecut=   165.00 Ry     beta= 0.70
     Davidson diagonalization with overlap
     ethr =  4.91E-07,  avg # of iterations =  8.3

     negative rho (up, down):  5.577E-05 0.000E+00

     total cpu time spent up to now is      505.6 secs

     total energy              =   -1373.25146816 Ry
     estimated scf accuracy    <       0.00048741 Ry

     iteration # 10     ecut=   165.00 Ry     beta= 0.70
     Davidson diagonalization with overlap
     ethr =  4.91E-07,  avg # of iterations =  3.1

     negative rho (up, down):  4.929E-05 0.000E+00

     total cpu time spent up to now is      551.5 secs

     total energy              =   -1373.25148801 Ry
     estimated scf accuracy    <       0.00007623 Ry

     iteration # 11     ecut=   165.00 Ry     beta= 0.70
     Davidson diagonalization with overlap
     ethr =  1.31E-07,  avg # of iterations =  6.8

     negative rho (up, down):  6.327E-05 0.000E+00

     total cpu time spent up to now is      603.7 secs

     total energy              =   -1373.25150367 Ry
     estimated scf accuracy    <       0.00002037 Ry

     iteration # 12     ecut=   165.00 Ry     beta= 0.70
     Davidson diagonalization with overlap
     ethr =  3.51E-08,  avg # of iterations =  4.0

     negative rho (up, down):  6.377E-05 0.000E+00

     total cpu time spent up to now is      648.1 secs

     total energy              =   -1373.25150469 Ry
     estimated scf accuracy    <       0.00000479 Ry

     iteration # 13     ecut=   165.00 Ry     beta= 0.70
     Davidson diagonalization with overlap
     ethr =  8.26E-09,  avg # of iterations =  5.7

     negative rho (up, down):  6.430E-05 0.000E+00

     total cpu time spent up to now is      698.2 secs

     total energy              =   -1373.25150537 Ry
     estimated scf accuracy    <       0.00000012 Ry

     iteration # 14     ecut=   165.00 Ry     beta= 0.70
     Davidson diagonalization with overlap
     ethr =  2.15E-10,  avg # of iterations =  7.5

     negative rho (up, down):  6.435E-05 0.000E+00

     total cpu time spent up to now is      762.0 secs

     total energy              =   -1373.25150543 Ry
     estimated scf accuracy    <       0.00000014 Ry

     iteration # 15     ecut=   165.00 Ry     beta= 0.70
     Davidson diagonalization with overlap
     ethr =  2.15E-10,  avg # of iterations =  4.7

     negative rho (up, down):  6.452E-05 0.000E+00

     total cpu time spent up to now is      808.5 secs

     total energy              =   -1373.25150543 Ry
     estimated scf accuracy    <       0.00000003 Ry

     iteration # 16     ecut=   165.00 Ry     beta= 0.70
     Davidson diagonalization with overlap
     c_bands:  1 eigenvalues not converged
     c_bands:  1 eigenvalues not converged
     c_bands:  1 eigenvalues not converged
     ethr =  5.15E-11,  avg # of iterations =  7.5

     negative rho (up, down):  6.447E-05 0.000E+00

     total cpu time spent up to now is      866.1 secs

     total energy              =   -1373.25150543 Ry
     estimated scf accuracy    <       0.00000017 Ry

     iteration # 17     ecut=   165.00 Ry     beta= 0.70
     Davidson diagonalization with overlap
     ethr =  5.15E-11,  avg # of iterations =  3.4

     negative rho (up, down):  6.448E-05 0.000E+00

     total cpu time spent up to now is      910.9 secs

     total energy              =   -1373.25150543 Ry
     estimated scf accuracy    <       0.00000008 Ry

     iteration # 18     ecut=   165.00 Ry     beta= 0.70
     Davidson diagonalization with overlap
     ethr =  5.15E-11,  avg # of iterations =  4.2

     negative rho (up, down):  6.449E-05 0.000E+00

     total cpu time spent up to now is      956.4 secs

     total energy              =   -1373.25150543 Ry
     estimated scf accuracy    <       0.00000001 Ry

     iteration # 19     ecut=   165.00 Ry     beta= 0.70
     Davidson diagonalization with overlap
     ethr =  2.13E-11,  avg # of iterations =  5.7

     negative rho (up, down):  6.449E-05 0.000E+00

     total cpu time spent up to now is     1005.6 secs

     total energy              =   -1373.25150543 Ry
     estimated scf accuracy    <          4.3E-09 Ry

     iteration # 20     ecut=   165.00 Ry     beta= 0.70
     Davidson diagonalization with overlap
     ethr =  7.45E-12,  avg # of iterations =  2.1

     negative rho (up, down):  6.446E-05 0.000E+00

     total cpu time spent up to now is     1046.0 secs

     total energy              =   -1373.25150543 Ry
     estimated scf accuracy    <          3.3E-09 Ry

     iteration # 21     ecut=   165.00 Ry     beta= 0.70
     Davidson diagonalization with overlap
     ethr =  5.71E-12,  avg # of iterations =  6.8

     negative rho (up, down):  6.446E-05 0.000E+00

     total cpu time spent up to now is     1097.4 secs

     total energy              =   -1373.25150543 Ry
     estimated scf accuracy    <          5.6E-09 Ry

     iteration # 22     ecut=   165.00 Ry     beta= 0.70
     Davidson diagonalization with overlap
     ethr =  5.71E-12,  avg # of iterations =  3.2

     negative rho (up, down):  6.445E-05 0.000E+00

     total cpu time spent up to now is     1140.1 secs

     total energy              =   -1373.25150543 Ry
     estimated scf accuracy    <          1.2E-09 Ry

     iteration # 23     ecut=   165.00 Ry     beta= 0.70
     Davidson diagonalization with overlap
     ethr =  2.13E-12,  avg # of iterations =  4.8

     negative rho (up, down):  6.445E-05 0.000E+00

     total cpu time spent up to now is     1185.3 secs

     total energy              =   -1373.25150543 Ry
     estimated scf accuracy    <          7.4E-12 Ry

     iteration # 24     ecut=   165.00 Ry     beta= 0.70
     Davidson diagonalization with overlap
     ethr =  1.00E-13,  avg # of iterations =  7.0

     negative rho (up, down):  6.445E-05 0.000E+00

     total cpu time spent up to now is     1238.9 secs

     total energy              =   -1373.25150543 Ry
     estimated scf accuracy    <          2.2E-10 Ry

     iteration # 25     ecut=   165.00 Ry     beta= 0.70
     Davidson diagonalization with overlap
     ethr =  1.00E-13,  avg # of iterations =  2.6

     negative rho (up, down):  6.445E-05 0.000E+00

     total cpu time spent up to now is     1280.6 secs

     total energy              =   -1373.25150543 Ry
     estimated scf accuracy    <          1.1E-10 Ry

     iteration # 26     ecut=   165.00 Ry     beta= 0.70
     Davidson diagonalization with overlap
     ethr =  1.00E-13,  avg # of iterations =  5.0

     negative rho (up, down):  6.445E-05 0.000E+00

     total cpu time spent up to now is     1325.8 secs

     total energy              =   -1373.25150543 Ry
     estimated scf accuracy    <          9.2E-12 Ry

     iteration # 27     ecut=   165.00 Ry     beta= 0.70
     Davidson diagonalization with overlap
     ethr =  1.00E-13,  avg # of iterations =  3.2

     negative rho (up, down):  6.445E-05 0.000E+00

     total cpu time spent up to now is     1367.1 secs

     End of self-consistent calculation

          k = 0.0000 0.0000 0.0000 ( 56929 PWs)   bands (ev):

   -68.2899 -68.2423 -35.3157 -34.7120 -34.4038 -34.3989 -34.3389 -34.3325
   -19.9457 -19.9320 -19.9067 -19.9062 -19.9008 -19.9004 -19.8742 -19.8735
   -19.8663 -19.8663 -19.8592 -19.8537 -19.7926 -19.7911 -13.2783  -7.6691
    -4.3939  -4.3506  -1.9291  -0.8991  -0.7264

          k =-0.0000 0.0927 0.0000 ( 56877 PWs)   bands (ev):

   -68.2861 -68.2399 -35.3030 -34.7172 -34.4509 -34.4152 -34.3828 -34.3387
   -19.9442 -19.9310 -19.9082 -19.9067 -19.9011 -19.8993 -19.8757 -19.8732
   -19.8667 -19.8656 -19.8563 -19.8511 -19.7954 -19.7940 -13.1644  -7.4490
    -4.7173  -4.3163  -1.8342  -1.0828  -0.5373

          k =-0.0000 0.1855 0.0000 ( 56869 PWs)   bands (ev):

   -68.2755 -68.2334 -35.2687 -34.7450 -34.5653 -34.4998 -34.4564 -34.3578
   -19.9402 -19.9286 -19.9119 -19.9077 -19.9021 -19.8969 -19.8794 -19.8722
   -19.8676 -19.8637 -19.8485 -19.8438 -19.8029 -19.8018 -12.8640  -6.8675
    -5.3777  -4.2535  -1.8296  -1.4637  -0.9835

          k =-0.0001 0.2782 0.0000 ( 56834 PWs)   bands (ev):

   -68.2606 -68.2249 -35.2252 -34.8486 -34.6621 -34.6415 -34.5093 -34.3869
   -19.9357 -19.9252 -19.9162 -19.9091 -19.9039 -19.8946 -19.8832 -19.8703
   -19.8686 -19.8608 -19.8379 -19.8338 -19.8127 -19.8115 -12.4840  -6.4528
    -5.6910  -4.2423  -2.4626  -1.5266  -1.0281

          k =-0.0001 0.3709 0.0000 ( 56855 PWs)   bands (ev):

   -68.2450 -68.2172 -35.1950 -35.0052 -34.7788 -34.6874 -34.5597 -34.4178
   -19.9335 -19.9210 -19.9193 -19.9106 -19.9065 -19.8937 -19.8853 -19.8695
   -19.8677 -19.8575 -19.8270 -19.8238 -19.8224 -19.8202 -12.1483  -6.8398
    -5.2232  -4.3018  -3.0994  -1.1908  -0.6681

          k =-0.0001 0.4636 0.0000 ( 56899 PWs)   bands (ev):

   -68.2325 -68.2124 -35.1992 -35.1237 -34.8376 -34.7119 -34.5956 -34.4410
   -19.9335 -19.9204 -19.9178 -19.9119 -19.9089 -19.8940 -19.8857 -19.8700
   -19.8654 -19.8549 -19.8293 -19.8259 -19.8187 -19.8165 -11.9369  -7.1607
    -5.0002  -4.3780  -3.4989  -0.4171  -0.1610

          k = 0.0001-0.5564 0.0000 ( 56940 PWs)   bands (ev):

   -68.2275 -68.2111 -35.2128 -35.1637 -34.8469 -34.7231 -34.6085 -34.4496
   -19.9338 -19.9203 -19.9173 -19.9124 -19.9095 -19.8943 -19.8856 -19.8701
   -19.8645 -19.8538 -19.8318 -19.8278 -19.8156 -19.8139 -11.8677  -7.2707
    -4.9677  -4.4109  -3.6322   0.0686   0.0980

          k = 0.0806 0.0463 0.0000 ( 56894 PWs)   bands (ev):

   -68.2861 -68.2398 -35.3029 -34.7171 -34.4487 -34.4181 -34.3795 -34.3423
   -19.9442 -19.9310 -19.9080 -19.9068 -19.9010 -19.8994 -19.8754 -19.8736
   -19.8667 -19.8656 -19.8562 -19.8511 -19.7955 -19.7941 -13.1638  -7.4481
    -4.6956  -4.3414  -1.8326  -1.0812  -0.5378

          k = 0.0806 0.1390 0.0000 ( 56855 PWs)   bands (ev):

   -68.2789 -68.2354 -35.2794 -34.7322 -34.5208 -34.4921 -34.4176 -34.3619
   -19.9414 -19.9293 -19.9104 -19.9081 -19.9013 -19.8978 -19.8781 -19.8728
   -19.8671 -19.8645 -19.8509 -19.8461 -19.8006 -19.7994 -12.9567  -7.0388
    -5.1725  -4.3246  -1.7347  -1.2931  -0.9134

          k = 0.0805 0.2317 0.0000 ( 56854 PWs)   bands (ev):

   -68.2661 -68.2279 -35.2399 -34.7906 -34.6304 -34.6058 -34.4758 -34.3941
   -19.9368 -19.9267 -19.9140 -19.9101 -19.9020 -19.8956 -19.8818 -19.8717
   -19.8673 -19.8625 -19.8418 -19.8375 -19.8092 -19.8083 -12.6161  -6.3883
    -5.7337  -4.4046  -1.9815  -1.4634  -1.1260

          k = 0.0805 0.3245 0.0000 ( 56851 PWs)   bands (ev):

   -68.2508 -68.2199 -35.2011 -34.9239 -34.7431 -34.6735 -34.5416 -34.4287
   -19.9328 -19.9232 -19.9176 -19.9117 -19.9039 -19.8943 -19.8848 -19.8705
   -19.8668 -19.8597 -19.8311 -19.8275 -19.8190 -19.8177 -12.2584  -6.5047
    -5.4354  -4.5288  -2.6321  -1.1753  -1.0477

          k = 0.0805 0.4172 0.0000 ( 56868 PWs)   bands (ev):

   -68.2366 -68.2138 -35.1857 -35.0616 -34.8188 -34.7117 -34.5925 -34.4592
   -19.9317 -19.9198 -19.9191 -19.9125 -19.9068 -19.8943 -19.8861 -19.8699
   -19.8657 -19.8568 -19.8276 -19.8251 -19.8213 -19.8188 -11.9874  -6.9064
    -5.0199  -4.6231  -3.0767  -0.7190  -0.5735

          k = 0.0805 0.5099 0.0000 ( 56911 PWs)   bands (ev):

   -68.2275 -68.2111 -35.1950 -35.1413 -34.8388 -34.7390 -34.6189 -34.4772
   -19.9321 -19.9201 -19.9171 -19.9124 -19.9090 -19.8947 -19.8862 -19.8696
   -19.8649 -19.8549 -19.8324 -19.8290 -19.8156 -19.8139 -11.8503  -7.1218
    -4.9157  -4.6866  -3.2857  -0.1421  -0.0719

          k = 0.0807-0.5101 0.0000 ( 56926 PWs)   bands (ev):

   -68.2274 -68.2111 -35.1952 -35.1415 -34.8390 -34.7388 -34.6189 -34.4772
   -19.9321 -19.9202 -19.9170 -19.9124 -19.9091 -19.8948 -19.8862 -19.8697
   -19.8649 -19.8549 -19.8324 -19.8290 -19.8156 -19.8139 -11.8501  -7.1222
    -4.9163  -4.6857  -3.2869  -0.1419  -0.0725

          k = 0.0807-0.4173 0.0000 ( 56876 PWs)   bands (ev):

   -68.2365 -68.2137 -35.1860 -35.0622 -34.8196 -34.7115 -34.5923 -34.4591
   -19.9317 -19.9198 -19.9191 -19.9125 -19.9068 -19.8943 -19.8861 -19.8699
   -19.8656 -19.8568 -19.8276 -19.8252 -19.8213 -19.8188 -11.9869  -6.9075
    -5.0199  -4.6226  -3.0798  -0.7168  -0.5756

          k = 0.0806-0.3246 0.0000 ( 56857 PWs)   bands (ev):

   -68.2507 -68.2198 -35.2011 -34.9247 -34.7439 -34.6736 -34.5416 -34.4287
   -19.9328 -19.9232 -19.9176 -19.9117 -19.9040 -19.8944 -19.8848 -19.8706
   -19.8667 -19.8597 -19.8311 -19.8275 -19.8191 -19.8177 -12.2575  -6.5057
    -5.4347  -4.5289  -2.6353  -1.1746  -1.0473

          k = 0.0806-0.2319 0.0000 ( 56853 PWs)   bands (ev):

   -68.2660 -68.2279 -35.2398 -34.7908 -34.6306 -34.6062 -34.4764 -34.3944
   -19.9368 -19.9267 -19.9140 -19.9101 -19.9020 -19.8957 -19.8818 -19.8717
   -19.8673 -19.8625 -19.8418 -19.8374 -19.8092 -19.8084 -12.6151  -6.3870
    -5.7333  -4.4061  -1.9830  -1.4621  -1.1258

          k = 0.0806-0.1392 0.0000 ( 56856 PWs)   bands (ev):

   -68.2788 -68.2353 -35.2792 -34.7321 -34.5204 -34.4919 -34.4185 -34.3631
   -19.9414 -19.9294 -19.9102 -19.9082 -19.9011 -19.8979 -19.8781 -19.8728
   -19.8671 -19.8646 -19.8509 -19.8461 -19.8006 -19.7995 -12.9560  -7.0375
    -5.1673  -4.3315  -1.7335  -1.2914  -0.9089

          k = 0.0806-0.0464 0.0000 ( 56891 PWs)   bands (ev):

   -68.2860 -68.2398 -35.3028 -34.7170 -34.4472 -34.4199 -34.3780 -34.3442
   -19.9442 -19.9310 -19.9078 -19.9071 -19.9007 -19.8997 -19.8753 -19.8737
   -19.8667 -19.8657 -19.8562 -19.8511 -19.7955 -19.7941 -13.1635  -7.4476
    -4.6861  -4.3522  -1.8318  -1.0802  -0.5354

          k = 0.1612 0.0926 0.0000 ( 56881 PWs)   bands (ev):

   -68.2753 -68.2333 -35.2683 -34.7446 -34.5644 -34.4974 -34.4602 -34.3620
   -19.9402 -19.9286 -19.9118 -19.9079 -19.9019 -19.8970 -19.8791 -19.8725
   -19.8677 -19.8637 -19.8484 -19.8437 -19.8030 -19.8019 -12.8619  -6.8642
    -5.3612  -4.2800  -1.8197  -1.4632  -0.9779

          k = 0.1611 0.1853 0.0000 ( 56852 PWs)   bands (ev):

   -68.2660 -68.2278 -35.2396 -34.7899 -34.6309 -34.6048 -34.4773 -34.3969
   -19.9367 -19.9267 -19.9139 -19.9102 -19.9020 -19.8957 -19.8817 -19.8717
   -19.8673 -19.8625 -19.8418 -19.8374 -19.8093 -19.8084 -12.6146  -6.3855
    -5.7263  -4.4193  -1.9700  -1.4670  -1.1311

          k = 0.1611 0.2780 0.0000 ( 56862 PWs)   bands (ev):

   -68.2528 -68.2208 -35.2034 -34.8735 -34.7494 -34.6591 -34.5233 -34.4579
   -19.9318 -19.9246 -19.9156 -19.9138 -19.9023 -19.8951 -19.8846 -19.8714
   -19.8652 -19.8615 -19.8325 -19.8288 -19.8177 -19.8174 -12.2959  -6.1395
    -5.6822  -4.7640  -2.1268  -1.6197  -0.5745

          k = 0.1611 0.3708 0.0000 ( 56800 PWs)   bands (ev):

   -68.2387 -68.2145 -35.1754 -34.9811 -34.8305 -34.7010 -34.5911 -34.5098
   -19.9280 -19.9222 -19.9175 -19.9147 -19.9041 -19.8952 -19.8865 -19.8705
   -19.8637 -19.8600 -19.8268 -19.8260 -19.8226 -19.8200 -12.0055  -6.4834
    -5.1403  -4.9846  -2.3888  -1.2981  -0.6044

          k = 0.1611 0.4635 0.0000 ( 56863 PWs)   bands (ev):

   -68.2273 -68.2110 -35.1628 -35.0754 -34.8455 -34.7584 -34.6352 -34.5445
   -19.9279 -19.9201 -19.9172 -19.9132 -19.9071 -19.8960 -19.8874 -19.8691
   -19.8645 -19.8578 -19.8333 -19.8314 -19.8157 -19.8139 -11.8148  -6.7417
    -5.1821  -4.7888  -2.5618  -0.6832  -0.4808

          k = 0.1611 0.5562 0.0000 ( 56918 PWs)   bands (ev):

   -68.2225 -68.2104 -35.1556 -35.1178 -34.8186 -34.8107 -34.6469 -34.5575
   -19.9284 -19.9198 -19.9158 -19.9122 -19.9089 -19.8964 -19.8875 -19.8681
   -19.8655 -19.8568 -19.8357 -19.8333 -19.8129 -19.8117 -11.7500  -6.8368
    -5.2109  -4.7414  -2.6300  -0.3326  -0.2769

          k = 0.1613-0.4638 0.0000 ( 56864 PWs)   bands (ev):

   -68.2272 -68.2110 -35.1634 -35.0762 -34.8463 -34.7580 -34.6351 -34.5444
   -19.9279 -19.9201 -19.9172 -19.9132 -19.9071 -19.8960 -19.8874 -19.8692
   -19.8644 -19.8578 -19.8333 -19.8314 -19.8156 -19.8139 -11.8142  -6.7433
    -5.1824  -4.7890  -2.5640  -0.6873  -0.4802

          k = 0.1612-0.3711 0.0000 ( 56808 PWs)   bands (ev):

   -68.2386 -68.2144 -35.1756 -34.9825 -34.8314 -34.7012 -34.5910 -34.5098
   -19.9280 -19.9222 -19.9175 -19.9147 -19.9042 -19.8954 -19.8865 -19.8706
   -19.8636 -19.8600 -19.8269 -19.8261 -19.8225 -19.8199 -12.0042  -6.4857
    -5.1397  -4.9852  -2.3929  -1.3010  -0.6028

          k = 0.1612-0.2783 0.0000 ( 56858 PWs)   bands (ev):

   -68.2526 -68.2207 -35.2032 -34.8742 -34.7503 -34.6595 -34.5239 -34.4586
   -19.9318 -19.9246 -19.9155 -19.9139 -19.9022 -19.8952 -19.8845 -19.8714
   -19.8652 -19.8615 -19.8324 -19.8287 -19.8178 -19.8175 -12.2942  -6.1400
    -5.6802  -4.7667  -2.1298  -1.6198  -0.5743

          k = 0.1612-0.1856 0.0000 ( 56856 PWs)   bands (ev):

   -68.2658 -68.2277 -35.2393 -34.7896 -34.6311 -34.6049 -34.4787 -34.3986
   -19.9367 -19.9267 -19.9138 -19.9104 -19.9018 -19.8959 -19.8816 -19.8718
   -19.8673 -19.8625 -19.8417 -19.8373 -19.8094 -19.8085 -12.6130  -6.3829
    -5.7224  -4.4267  -1.9665  -1.4676  -1.1324

          k = 0.1612-0.0929 0.0000 ( 56860 PWs)   bands (ev):

   -68.2752 -68.2332 -35.2681 -34.7442 -34.5636 -34.4963 -34.4623 -34.3640
   -19.9402 -19.9286 -19.9116 -19.9081 -19.9017 -19.8972 -19.8790 -19.8725
   -19.8676 -19.8637 -19.8484 -19.8437 -19.8031 -19.8020 -12.8609  -6.8624
    -5.3542  -4.2903  -1.8152  -1.4627  -0.9753

          k = 0.1612-0.0002 0.0000 ( 56883 PWs)   bands (ev):

   -68.2787 -68.2352 -35.2789 -34.7320 -34.5201 -34.4911 -34.4196 -34.3660
   -19.9413 -19.9294 -19.9101 -19.9084 -19.9011 -19.8980 -19.8777 -19.8731
   -19.8671 -19.8645 -19.8508 -19.8460 -19.8007 -19.7995 -12.9544  -7.0353
    -5.1537  -4.3509  -1.7315  -1.2878  -0.8974

          k = 0.2417 0.1389 0.0000 ( 56837 PWs)   bands (ev):

   -68.2602 -68.2247 -35.2244 -34.8479 -34.6632 -34.6396 -34.5140 -34.3917
   -19.9356 -19.9252 -19.9161 -19.9093 -19.9037 -19.8948 -19.8829 -19.8704
   -19.8687 -19.8607 -19.8378 -19.8337 -19.8130 -19.8118 -12.4802  -6.4454
    -5.6827  -4.2707  -2.4517  -1.5292  -1.0277

          k = 0.2417 0.2316 0.0000 ( 56842 PWs)   bands (ev):

   -68.2504 -68.2197 -35.2005 -34.9229 -34.7434 -34.6730 -34.5457 -34.4328
   -19.9328 -19.9232 -19.9175 -19.9118 -19.9038 -19.8945 -19.8847 -19.8705
   -19.8669 -19.8596 -19.8309 -19.8274 -19.8192 -19.8179 -12.2554  -6.4972
    -5.4331  -4.5500  -2.6227  -1.1763  -1.0527

          k = 0.2417 0.3243 0.0000 ( 56793 PWs)   bands (ev):

   -68.2385 -68.2144 -35.1752 -34.9803 -34.8312 -34.7004 -34.5935 -34.5118
   -19.9280 -19.9222 -19.9173 -19.9148 -19.9041 -19.8953 -19.8865 -19.8705
   -19.8638 -19.8599 -19.8270 -19.8261 -19.8226 -19.8199 -12.0039  -6.4790
    -5.1498  -4.9868  -2.3859  -1.2951  -0.6099

          k = 0.2417 0.4170 0.0000 ( 56847 PWs)   bands (ev):

   -68.2271 -68.2110 -35.1483 -35.0135 -34.8960 -34.7330 -34.6489 -34.5903
   -19.9235 -19.9226 -19.9160 -19.9148 -19.9056 -19.8969 -19.8880 -19.8693
   -19.8622 -19.8610 -19.8335 -19.8330 -19.8157 -19.8138 -11.7961  -6.4453
    -5.5092  -4.7228  -1.8244  -1.3888  -0.6820

          k = 0.2417 0.5098 0.0000 ( 56886 PWs)   bands (ev):

   -68.2190 -68.2104 -35.1099 -35.0539 -34.9150 -34.7808 -34.6698 -34.6382
   -19.9247 -19.9192 -19.9155 -19.9119 -19.9079 -19.8982 -19.8890 -19.8672
   -19.8646 -19.8599 -19.8377 -19.8368 -19.8114 -19.8105 -11.6808  -6.4524
    -5.6947  -4.5636  -1.7425  -0.8861  -0.6466

          k = 0.2416 0.6025 0.0000 ( 56892 PWs)   bands (ev):

   -68.2189 -68.2103 -35.1103 -35.0545 -34.9150 -34.7809 -34.6696 -34.6383
   -19.9247 -19.9191 -19.9156 -19.9119 -19.9079 -19.8983 -19.8890 -19.8672
   -19.8646 -19.8598 -19.8378 -19.8368 -19.8114 -19.8104 -11.6804  -6.4536
    -5.6950  -4.5643  -1.7426  -0.8927  -0.6430

          k = 0.2418-0.4175 0.0000 ( 56840 PWs)   bands (ev):

   -68.2269 -68.2108 -35.1489 -35.0149 -34.8964 -34.7333 -34.6490 -34.5905
   -19.9235 -19.9226 -19.9161 -19.9147 -19.9056 -19.8970 -19.8880 -19.8693
   -19.8621 -19.8608 -19.8336 -19.8331 -19.8156 -19.8137 -11.7948  -6.4475
    -5.5111  -4.7236  -1.8277  -1.3930  -0.6803

          k = 0.2418-0.3248 0.0000 ( 56806 PWs)   bands (ev):

   -68.2383 -68.2143 -35.1752 -34.9812 -34.8325 -34.7004 -34.5944 -34.5129
   -19.9280 -19.9221 -19.9173 -19.9149 -19.9040 -19.8955 -19.8865 -19.8705
   -19.8637 -19.8599 -19.8271 -19.8262 -19.8224 -19.8198 -12.0020  -6.4796
    -5.1522  -4.9880  -2.3895  -1.2962  -0.6102

          k = 0.2418-0.2320 0.0000 ( 56842 PWs)   bands (ev):

   -68.2502 -68.2195 -35.2002 -34.9229 -34.7441 -34.6729 -34.5476 -34.4348
   -19.9328 -19.9232 -19.9174 -19.9120 -19.9037 -19.8947 -19.8847 -19.8705
   -19.8669 -19.8596 -19.8308 -19.8272 -19.8194 -19.8181 -12.2532  -6.4951
    -5.4297  -4.5585  -2.6226  -1.1758  -1.0536

          k = 0.2418-0.1393 0.0000 ( 56841 PWs)   bands (ev):

   -68.2601 -68.2245 -35.2241 -34.8473 -34.6634 -34.6389 -34.5165 -34.3940
   -19.9356 -19.9252 -19.9160 -19.9095 -19.9035 -19.8950 -19.8829 -19.8704
   -19.8687 -19.8607 -19.8377 -19.8336 -19.8131 -19.8119 -12.4784  -6.4422
    -5.6779  -4.2815  -2.4475  -1.5301  -1.0274

          k = 0.2418-0.0466 0.0000 ( 56867 PWs)   bands (ev):

   -68.2656 -68.2276 -35.2390 -34.7907 -34.6311 -34.6059 -34.4795 -34.3995
   -19.9367 -19.9267 -19.9138 -19.9104 -19.9018 -19.8959 -19.8815 -19.8719
   -19.8673 -19.8624 -19.8416 -19.8373 -19.8095 -19.8086 -12.6109  -6.3809
    -5.7211  -4.4329  -1.9695  -1.4655  -1.1314

          k = 0.2417 0.0461 0.0000 ( 56856 PWs)   bands (ev):

   -68.2657 -68.2277 -35.2391 -34.7911 -34.6312 -34.6061 -34.4787 -34.3982
   -19.9367 -19.9267 -19.9139 -19.9102 -19.9019 -19.8958 -19.8815 -19.8719
   -19.8674 -19.8624 -19.8416 -19.8373 -19.8094 -19.8086 -12.6115  -6.3822
    -5.7246  -4.4271  -1.9745  -1.4637  -1.1299

          k = 0.3223 0.1851 0.0000 ( 56833 PWs)   bands (ev):

   -68.2443 -68.2168 -35.1945 -35.0051 -34.7783 -34.6881 -34.5653 -34.4232
   -19.9334 -19.9209 -19.9193 -19.9109 -19.9063 -19.8940 -19.8852 -19.8696
   -19.8677 -19.8574 -19.8268 -19.8236 -19.8228 -19.8205 -12.1432  -6.8340
    -5.2219  -4.3327  -3.0919  -1.1882  -0.6645

          k = 0.3223 0.2779 0.0000 ( 56858 PWs)   bands (ev):

   -68.2360 -68.2135 -35.1855 -35.0612 -34.8177 -34.7128 -34.5977 -34.4641
   -19.9318 -19.9197 -19.9190 -19.9127 -19.9067 -19.8945 -19.8860 -19.8699
   -19.8658 -19.8567 -19.8279 -19.8254 -19.8211 -19.8186 -11.9832  -6.9014
    -5.0225  -4.6487  -3.0710  -0.7157  -0.5664

          k = 0.3223 0.3706 0.0000 ( 56879 PWs)   bands (ev):

   -68.2268 -68.2109 -35.1631 -35.0751 -34.8457 -34.7585 -34.6389 -34.5476
   -19.9280 -19.9200 -19.9170 -19.9134 -19.9071 -19.8962 -19.8873 -19.8691
   -19.8646 -19.8577 -19.8335 -19.8315 -19.8155 -19.8137 -11.8119  -6.7389
    -5.1968  -4.7946  -2.5655  -0.6708  -0.4724

          k = 0.3222 0.4633 0.0000 ( 56909 PWs)   bands (ev):

   -68.2186 -68.2104 -35.1105 -35.0537 -34.9161 -34.7797 -34.6723 -34.6386
   -19.9248 -19.9192 -19.9154 -19.9120 -19.9079 -19.8983 -19.8890 -19.8672
   -19.8647 -19.8597 -19.8379 -19.8368 -19.8113 -19.8104 -11.6793  -6.4518
    -5.7013  -4.5676  -1.7580  -0.8673  -0.6398

          k = 0.3222 0.5561 0.0000 ( 56926 PWs)   bands (ev):

   -68.2131 -68.2126 -35.0387 -35.0366 -35.0018 -34.7807 -34.6845 -34.6820
   -19.9242 -19.9165 -19.9164 -19.9095 -19.9094 -19.8996 -19.8899 -19.8655
   -19.8652 -19.8611 -19.8394 -19.8391 -19.8096 -19.8093 -11.6289  -6.1116
    -6.1104  -4.4608  -1.0917  -0.9609  -0.9494

          k = 0.3222 0.6488 0.0000 ( 56919 PWs)   bands (ev):

   -68.2185 -68.2103 -35.1109 -35.0542 -34.9169 -34.7797 -34.6728 -34.6390
   -19.9247 -19.9193 -19.9154 -19.9120 -19.9078 -19.8985 -19.8889 -19.8672
   -19.8647 -19.8596 -19.8379 -19.8370 -19.8112 -19.8103 -11.6783  -6.4523
    -5.7046  -4.5693  -1.7653  -0.8651  -0.6337

          k = 0.3224-0.3712 0.0000 ( 56885 PWs)   bands (ev):

   -68.2265 -68.2107 -35.1635 -35.0756 -34.8468 -34.7584 -34.6402 -34.5491
   -19.9280 -19.9200 -19.9170 -19.9135 -19.9070 -19.8964 -19.8872 -19.8692
   -19.8645 -19.8576 -19.8337 -19.8317 -19.8154 -19.8136 -11.8101  -6.7391
    -5.2032  -4.7954  -2.5700  -0.6685  -0.4685

          k = 0.3224-0.2785 0.0000 ( 56851 PWs)   bands (ev):

   -68.2357 -68.2133 -35.1855 -35.0615 -34.8182 -34.7129 -34.6001 -34.4665
   -19.9318 -19.9196 -19.9190 -19.9128 -19.9066 -19.8947 -19.8859 -19.8699
   -19.8657 -19.8566 -19.8281 -19.8256 -19.8209 -19.8184 -11.9809  -6.9001
    -5.0213  -4.6581  -3.0727  -0.7122  -0.5647

          k = 0.3224-0.1858 0.0000 ( 56834 PWs)   bands (ev):

   -68.2441 -68.2166 -35.1941 -35.0049 -34.7782 -34.6882 -34.5682 -34.4259
   -19.9334 -19.9209 -19.9191 -19.9111 -19.9061 -19.8942 -19.8851 -19.8695
   -19.8676 -19.8574 -19.8266 -19.8234 -19.8229 -19.8207 -12.1410  -6.8313
    -5.2190  -4.3446  -3.0897  -1.1872  -0.6623

          k = 0.3224-0.0930 0.0000 ( 56832 PWs)   bands (ev):

   -68.2500 -68.2194 -35.2001 -34.9250 -34.7455 -34.6732 -34.5471 -34.4350
   -19.9328 -19.9232 -19.9175 -19.9120 -19.9037 -19.8947 -19.8846 -19.8707
   -19.8667 -19.8595 -19.8307 -19.8272 -19.8195 -19.8182 -12.2511  -6.4985
    -5.4283  -4.5605  -2.6301  -1.1752  -1.0508

          k = 0.3223-0.0003 0.0000 ( 56834 PWs)   bands (ev):

   -68.2522 -68.2204 -35.2028 -34.8770 -34.7515 -34.6602 -34.5247 -34.4603
   -19.9317 -19.9246 -19.9155 -19.9140 -19.9022 -19.8953 -19.8843 -19.8715
   -19.8652 -19.8613 -19.8323 -19.8286 -19.8180 -19.8177 -12.2902  -6.1422
    -5.6766  -4.7767  -2.1348  -1.6222  -0.5772

          k = 0.3223 0.0924 0.0000 ( 56833 PWs)   bands (ev):

   -68.2501 -68.2195 -35.2004 -34.9256 -34.7454 -34.6734 -34.5451 -34.4329
   -19.9327 -19.9232 -19.9176 -19.9118 -19.9038 -19.8946 -19.8846 -19.8707
   -19.8667 -19.8595 -19.8308 -19.8273 -19.8194 -19.8180 -12.2524  -6.5015
    -5.4311  -4.5521  -2.6334  -1.1750  -1.0494

          k = 0.4029 0.2314 0.0000 ( 56882 PWs)   bands (ev):

   -68.2317 -68.2121 -35.1999 -35.1240 -34.8356 -34.7137 -34.6018 -34.4469
   -19.9335 -19.9203 -19.9176 -19.9122 -19.9088 -19.8943 -19.8856 -19.8701
   -19.8653 -19.8547 -19.8298 -19.8263 -19.8184 -19.8162 -11.9312  -7.1577
    -5.0062  -4.4108  -3.4925  -0.4061  -0.1510

          k = 0.4029 0.3242 0.0000 ( 56871 PWs)   bands (ev):

   -68.2266 -68.2108 -35.1961 -35.1414 -34.8362 -34.7416 -34.6244 -34.4825
   -19.9322 -19.9200 -19.9168 -19.9126 -19.9090 -19.8950 -19.8861 -19.8697
   -19.8648 -19.8548 -19.8328 -19.8293 -19.8153 -19.8136 -11.8452  -7.1197
    -4.9228  -4.7130  -3.2852  -0.1287  -0.0586

          k = 0.4028 0.4169 0.0000 ( 56884 PWs)   bands (ev):

   -68.2217 -68.2102 -35.1574 -35.1178 -34.8167 -34.8131 -34.6504 -34.5609
   -19.9285 -19.9198 -19.9156 -19.9123 -19.9089 -19.8966 -19.8874 -19.8683
   -19.8653 -19.8567 -19.8360 -19.8336 -19.8127 -19.8115 -11.7459  -6.8373
    -5.2269  -4.7497  -2.6389  -0.3204  -0.2601

          k = 0.4028 0.5096 0.0000 ( 56868 PWs)   bands (ev):

   -68.2183 -68.2103 -35.1119 -35.0561 -34.9158 -34.7800 -34.6710 -34.6395
   -19.9248 -19.9191 -19.9155 -19.9120 -19.9079 -19.8984 -19.8889 -19.8674
   -19.8645 -19.8596 -19.8380 -19.8369 -19.8112 -19.8103 -11.6775  -6.4576
    -5.7015  -4.5708  -1.7589  -0.8888  -0.6275

          k = 0.4028 0.6023 0.0000 ( 56883 PWs)   bands (ev):

   -68.2182 -68.2103 -35.1120 -35.0560 -34.9164 -34.7799 -34.6717 -34.6399
   -19.9248 -19.9193 -19.9155 -19.9120 -19.9078 -19.8985 -19.8889 -19.8674
   -19.8645 -19.8595 -19.8380 -19.8370 -19.8111 -19.8103 -11.6770  -6.4569
    -5.7045  -4.5717  -1.7661  -0.8800  -0.6250

          k = 0.4028 0.6951 0.0000 ( 56881 PWs)   bands (ev):

   -68.2214 -68.2101 -35.1578 -35.1178 -34.8163 -34.8144 -34.6518 -34.5626
   -19.9285 -19.9198 -19.9156 -19.9125 -19.9087 -19.8968 -19.8873 -19.8683
   -19.8652 -19.8566 -19.8361 -19.8337 -19.8125 -19.8114 -11.7444  -6.8366
    -5.2335  -4.7514  -2.6434  -0.3138  -0.2536

          k = 0.4030-0.3249 0.0000 ( 56856 PWs)   bands (ev):

   -68.2263 -68.2106 -35.1966 -35.1415 -34.8359 -34.7422 -34.6269 -34.4851
   -19.9322 -19.9200 -19.9168 -19.9128 -19.9089 -19.8952 -19.8860 -19.8697
   -19.8647 -19.8547 -19.8329 -19.8296 -19.8151 -19.8134 -11.8430  -7.1185
    -4.9239  -4.7226  -3.2872  -0.1225  -0.0526

          k = 0.4030-0.2322 0.0000 ( 56874 PWs)   bands (ev):

   -68.2313 -68.2118 -35.1999 -35.1240 -34.8353 -34.7139 -34.6050 -34.4498
   -19.9336 -19.9202 -19.9176 -19.9124 -19.9086 -19.8945 -19.8855 -19.8701
   -19.8652 -19.8547 -19.8299 -19.8265 -19.8182 -19.8160 -11.9289  -7.1557
    -5.0059  -4.4236  -3.4912  -0.4014  -0.1458

          k = 0.4029-0.1395 0.0000 ( 56859 PWs)   bands (ev):

   -68.2355 -68.2132 -35.1861 -35.0630 -34.8195 -34.7125 -34.5995 -34.4664
   -19.9318 -19.9197 -19.9190 -19.9129 -19.9066 -19.8948 -19.8858 -19.8701
   -19.8655 -19.8566 -19.8281 -19.8257 -19.8209 -19.8183 -11.9793  -6.9036
    -5.0224  -4.6561  -3.0803  -0.7074  -0.5691

          k = 0.4029-0.0467 0.0000 ( 56826 PWs)   bands (ev):

   -68.2379 -68.2141 -35.1758 -34.9850 -34.8336 -34.7009 -34.5938 -34.5134
   -19.9280 -19.9222 -19.9174 -19.9150 -19.9040 -19.8956 -19.8864 -19.8707
   -19.8635 -19.8598 -19.8272 -19.8264 -19.8223 -19.8197 -11.9985  -6.4873
    -5.1475  -4.9949  -2.3993  -1.3035  -0.6016

          k = 0.4029 0.0460 0.0000 ( 56824 PWs)   bands (ev):

   -68.2380 -68.2141 -35.1760 -34.9854 -34.8332 -34.7010 -34.5928 -34.5123
   -19.9280 -19.9222 -19.9175 -19.9149 -19.9041 -19.8955 -19.8864 -19.8707
   -19.8635 -19.8598 -19.8272 -19.8263 -19.8223 -19.8197 -11.9992  -6.4891
    -5.1445  -4.9943  -2.3998  -1.3054  -0.5997

          k = 0.4029 0.1387 0.0000 ( 56880 PWs)   bands (ev):

   -68.2357 -68.2134 -35.1864 -35.0633 -34.8198 -34.7122 -34.5970 -34.4640
   -19.9318 -19.9197 -19.9190 -19.9127 -19.9067 -19.8946 -19.8859 -19.8701
   -19.8654 -19.8567 -19.8280 -19.8255 -19.8210 -19.8185 -11.9811  -6.9060
    -5.0235  -4.6461  -3.0817  -0.7088  -0.5729

          k =-0.4835-0.2777 0.0000 ( 56920 PWs)   bands (ev):

   -68.2265 -68.2108 -35.2144 -35.1639 -34.8439 -34.7255 -34.6150 -34.4557
   -19.9339 -19.9202 -19.9170 -19.9127 -19.9095 -19.8946 -19.8855 -19.8703
   -19.8643 -19.8537 -19.8323 -19.8282 -19.8152 -19.8136 -11.8619  -7.2687
    -4.9766  -4.4444  -3.6261   0.0848   0.1109

          k =-0.4835-0.1850 0.0000 ( 56888 PWs)   bands (ev):

   -68.2265 -68.2108 -35.1969 -35.1420 -34.8369 -34.7411 -34.6241 -34.4824
   -19.9322 -19.9201 -19.9168 -19.9127 -19.9090 -19.8951 -19.8861 -19.8698
   -19.8647 -19.8547 -19.8328 -19.8293 -19.8152 -19.8136 -11.8445  -7.1215
    -4.9263  -4.7085  -3.2894  -0.1293  -0.0596

          k =-0.4835-0.0923 0.0000 ( 56902 PWs)   bands (ev):

   -68.2265 -68.2108 -35.1649 -35.0780 -34.8476 -34.7574 -34.6382 -34.5475
   -19.9280 -19.9200 -19.9171 -19.9134 -19.9071 -19.8962 -19.8873 -19.8694
   -19.8642 -19.8576 -19.8336 -19.8317 -19.8154 -19.8136 -11.8092  -6.7461
    -5.1980  -4.7952  -2.5733  -0.6848  -0.4679

          k =-0.4835 0.0005 0.0000 ( 56828 PWs)   bands (ev):

   -68.2264 -68.2107 -35.1503 -35.0192 -34.8961 -34.7336 -34.6487 -34.5916
   -19.9236 -19.9225 -19.9162 -19.9148 -19.9056 -19.8971 -19.8879 -19.8695
   -19.8619 -19.8607 -19.8337 -19.8332 -19.8154 -19.8136 -11.7912  -6.4559
    -5.5143  -4.7282  -1.8359  -1.4026  -0.6725

          k =-0.4835 0.0932 0.0000 ( 56855 PWs)   bands (ev):

   -68.2263 -68.2106 -35.1648 -35.0777 -34.8479 -34.7577 -34.6396 -34.5491
   -19.9280 -19.9200 -19.9171 -19.9135 -19.9070 -19.8964 -19.8872 -19.8694
   -19.8642 -19.8575 -19.8337 -19.8318 -19.8153 -19.8135 -11.8081  -6.7446
    -5.2040  -4.7959  -2.5757  -0.6785  -0.4646

          k =-0.4835 0.1859 0.0000 ( 56886 PWs)   bands (ev):

   -68.2262 -68.2106 -35.1971 -35.1419 -34.8364 -34.7418 -34.6267 -34.4851
   -19.9322 -19.9200 -19.9168 -19.9129 -19.9089 -19.8952 -19.8859 -19.8698
   -19.8646 -19.8547 -19.8329 -19.8296 -19.8151 -19.8134 -11.8425  -7.1199
    -4.9270  -4.7189  -3.2902  -0.1232  -0.0531

          k =-0.4833-0.8341 0.0000 ( 56904 PWs)   bands (ev):

   -68.2262 -68.2106 -35.2148 -35.1639 -34.8434 -34.7259 -34.6183 -34.4587
   -19.9339 -19.9201 -19.9169 -19.9129 -19.9093 -19.8948 -19.8854 -19.8702
   -19.8643 -19.8536 -19.8325 -19.8285 -19.8150 -19.8134 -11.8596  -7.2670
    -4.9775  -4.4576  -3.6250   0.0921   0.1176

     highest occupied level (ev):     0.1176

!    total energy              =   -1373.25150543 Ry
     estimated scf accuracy    <          6.2E-13 Ry

     The total energy is the sum of the following terms:
     one-electron contribution =  -10891.88892414 Ry
     hartree contribution      =    5474.28028591 Ry
     xc contribution           =    -138.78158692 Ry
     ewald contribution        =    4183.13871972 Ry

     convergence has been achieved in  27 iterations

     negative rho (up, down):  6.445E-05 0.000E+00

     Forces acting on atoms (cartesian axes, Ry/au):

     atom    1 type  2   force =     0.00031074    0.00028324   -0.00017231
     atom    2 type  1   force =    -0.00026849   -0.00046458    0.00155398
     atom    3 type  1   force =    -0.00004225    0.00018134   -0.00138168

     Total force =     0.002156     Total SCF correction =     0.000011


     Computing stress (Cartesian axis) and pressure


     negative rho (up, down):  6.445E-05 0.000E+00
          total   stress  (Ry/bohr**3)                   (kbar)     P=        5.62
   0.00006709  -0.00000261   0.00000033            9.87       -0.38        0.05
  -0.00000261   0.00005206   0.00000093           -0.38        7.66        0.14
   0.00000033   0.00000093  -0.00000460            0.05        0.14       -0.68


     Writing output data file /scratch/as3359/Ta2C-CT-ecutoff/Ta2C.save/
 
     init_run     :     53.74s CPU     29.57s WALL (       1 calls)
     electrons    :   2611.45s CPU   1337.39s WALL (       1 calls)
     forces       :     17.20s CPU      8.96s WALL (       1 calls)
     stress       :     71.66s CPU     36.98s WALL (       1 calls)

     Called by init_run:
     wfcinit      :     40.00s CPU     20.48s WALL (       1 calls)
     potinit      :      3.59s CPU      1.83s WALL (       1 calls)
     hinit0       :      7.32s CPU      5.35s WALL (       1 calls)

     Called by electrons:
     c_bands      :   2101.62s CPU   1062.54s WALL (      27 calls)
     sum_band     :    425.90s CPU    223.50s WALL (      27 calls)
     v_of_rho     :     12.42s CPU      6.98s WALL (      28 calls)
     newd         :     68.35s CPU     42.75s WALL (      28 calls)
     mix_rho      :      4.36s CPU      2.43s WALL (      27 calls)

     Called by c_bands:
     init_us_2    :     56.06s CPU     28.07s WALL (    4218 calls)
     cegterg      :   1923.15s CPU    972.84s WALL (    1998 calls)

     Called by *egterg:
     cdiaghg      :     17.20s CPU      8.82s WALL (   12081 calls)
     h_psi        :   1530.54s CPU    776.05s WALL (   12155 calls)
     s_psi        :     94.04s CPU     47.06s WALL (   12155 calls)
     g_psi        :      9.62s CPU      4.83s WALL (   10083 calls)

     Called by h_psi:
     h_psi:calbec :     70.02s CPU     35.10s WALL (   12155 calls)
     vloc_psi     :   1350.11s CPU    685.59s WALL (   12155 calls)
     add_vuspsi   :     99.49s CPU     49.81s WALL (   12155 calls)

     General routines
     calbec       :     91.89s CPU     46.07s WALL (   14523 calls)
     fft          :      9.67s CPU      5.16s WALL (     387 calls)
     ffts         :      0.68s CPU      0.38s WALL (      55 calls)
     fftw         :   1356.39s CPU    689.96s WALL (  352112 calls)
     interpolate  :      1.17s CPU      0.65s WALL (      28 calls)
 
     Parallel routines
 
     PWSCF        :  45m58.93s CPU  23m37.16s WALL

 
   This run was terminated on:   1:53: 2   7Apr2022            

=------------------------------------------------------------------------------=
   JOB DONE.
=------------------------------------------------------------------------------=
