
     Program PWSCF v.6.8 starts on  7Apr2022 at  0:57:21 

     This program is part of the open-source Quantum ESPRESSO suite
     for quantum simulation of materials; please cite
         "P. Giannozzi et al., J. Phys.:Condens. Matter 21 395502 (2009);
         "P. Giannozzi et al., J. Phys.:Condens. Matter 29 465901 (2017);
         "P. Giannozzi et al., J. Chem. Phys. 152 154105 (2020);
          URL http://www.quantum-espresso.org", 
     in publications or presentations arising from this work. More details at
     http://www.quantum-espresso.org/quote

     Parallel version (MPI & OpenMP), running on       4 processor cores
     Number of MPI processes:                 2
     Threads/MPI process:                     2

     MPI processes distributed on     1 nodes
     R & G space division:  proc/nbgrp/npool/nimage =       2
     124966 MiB available memory on the printing compute node when the environment starts
 
     Reading input from Ta2C.scf.160.in

     Current dimensions of program PWSCF are:
     Max number of different atomic species (ntypx) = 10
     Max number of k-points (npk) =  40000
     Max angular momentum in pseudopotentials (lmaxx) =  4
     file Ta.pbesol-spfn-rrkjus_psl.1.0.0.UPF: wavefunction(s)  5S 5P renormalized

     Subspace diagonalization in iterative solution of the eigenvalue problem:
     a serial algorithm will be used

 
     Parallelization info
     --------------------
     sticks:   dense  smooth     PW     G-vecs:    dense   smooth      PW
     Min         906     732    216               303462   217062   34892
     Max         907     733    217               303485   217073   34899
     Sum        1813    1465    433               606947   434135   69791
 
     Using Slab Decomposition
 


     bravais-lattice index     =            0
     lattice parameter (alat)  =       5.5500  a.u.
     unit-cell volume          =    1588.7844 (a.u.)^3
     number of atoms/cell      =            3
     number of atomic types    =            2
     number of electrons       =        58.00
     number of Kohn-Sham states=           29
     kinetic-energy cutoff     =     160.0000  Ry
     charge density cutoff     =     800.0000  Ry
     scf convergence threshold =      1.0E-12
     mixing beta               =       0.7000
     number of iterations used =            8  plain     mixing
     Exchange-correlation= PBESOL
                           (   1   4  10   8   0   0   0)

     celldm(1)=   5.550000  celldm(2)=   0.000000  celldm(3)=   0.000000
     celldm(4)=   0.000000  celldm(5)=   0.000000  celldm(6)=   0.000000

     crystal axes: (cart. coord. in units of alat)
               a(1) = (   1.034114   0.000203   0.000000 )  
               a(2) = (  -0.516207   0.898604   0.000000 )  
               a(3) = (   0.000000   0.000000  10.000000 )  

     reciprocal axes: (cart. coord. in units 2 pi/alat)
               b(1) = (  0.966902  0.555441  0.000000 )  
               b(2) = ( -0.000219  1.112711  0.000000 )  
               b(3) = (  0.000000  0.000000  0.100000 )  


     PseudoPot. # 1 for Ta read from file:
     /shared/home/as3359/pseudo/Ta.pbesol-spfn-rrkjus_psl.1.0.0.UPF
     MD5 check sum: f099565ffaca9b150a52e9412a28e20b
     Pseudo is Ultrasoft + core correction, Zval = 27.0
     Generated using &quot;atomic&quot; code by A. Dal Corso  v.6.3
     Using radial grid of 1273 points,  8 beta functions with: 
                l(1) =   0
                l(2) =   0
                l(3) =   1
                l(4) =   1
                l(5) =   2
                l(6) =   2
                l(7) =   3
                l(8) =   3
     Q(r) pseudized with 0 coefficients 


     PseudoPot. # 2 for C  read from file:
     /shared/home/as3359/pseudo/C.pbesol-n-rrkjus_psl.1.0.0.UPF
     MD5 check sum: 05995be603a8a7c99da3dc4413f31573
     Pseudo is Ultrasoft + core correction, Zval =  4.0
     Generated using &quot;atomic&quot; code by A. Dal Corso  v.6.3MaX
     Using radial grid of 1073 points,  4 beta functions with: 
                l(1) =   0
                l(2) =   0
                l(3) =   1
                l(4) =   1
     Q(r) pseudized with 0 coefficients 


     atomic species   valence    mass     pseudopotential
        Ta            27.00   180.94788     Ta( 1.00)
        C              4.00    12.01070     C ( 1.00)

     No symmetry found



   Cartesian axes

     site n.     atom                  positions (alat units)
         1           C   tau(   1) = (   0.0000000   0.0000000   0.0000000  )
         2           Ta  tau(   2) = (   0.5174615   0.3004190  -0.4127129  )
         3           Ta  tau(   3) = (   0.0007158   0.5986355   0.4125272  )

     number of k points=    74
                       cart. coord. in units 2pi/alat
        k(    1) = (   0.0000000   0.0000000   0.0000000), wk =   0.0138889
        k(    2) = (  -0.0000182   0.0927259   0.0000000), wk =   0.0277778
        k(    3) = (  -0.0000364   0.1854519   0.0000000), wk =   0.0277778
        k(    4) = (  -0.0000547   0.2781778   0.0000000), wk =   0.0277778
        k(    5) = (  -0.0000729   0.3709037   0.0000000), wk =   0.0277778
        k(    6) = (  -0.0000911   0.4636296   0.0000000), wk =   0.0277778
        k(    7) = (   0.0001093  -0.5563556   0.0000000), wk =   0.0138889
        k(    8) = (   0.0805752   0.0462867   0.0000000), wk =   0.0277778
        k(    9) = (   0.0805570   0.1390127   0.0000000), wk =   0.0277778
        k(   10) = (   0.0805388   0.2317386   0.0000000), wk =   0.0277778
        k(   11) = (   0.0805205   0.3244645   0.0000000), wk =   0.0277778
        k(   12) = (   0.0805023   0.4171904   0.0000000), wk =   0.0277778
        k(   13) = (   0.0804841   0.5099164   0.0000000), wk =   0.0277778
        k(   14) = (   0.0806845  -0.5100688   0.0000000), wk =   0.0277778
        k(   15) = (   0.0806663  -0.4173429   0.0000000), wk =   0.0277778
        k(   16) = (   0.0806481  -0.3246170   0.0000000), wk =   0.0277778
        k(   17) = (   0.0806298  -0.2318910   0.0000000), wk =   0.0277778
        k(   18) = (   0.0806116  -0.1391651   0.0000000), wk =   0.0277778
        k(   19) = (   0.0805934  -0.0464392   0.0000000), wk =   0.0277778
        k(   20) = (   0.1611504   0.0925735   0.0000000), wk =   0.0277778
        k(   21) = (   0.1611322   0.1852994   0.0000000), wk =   0.0277778
        k(   22) = (   0.1611139   0.2780253   0.0000000), wk =   0.0277778
        k(   23) = (   0.1610957   0.3707513   0.0000000), wk =   0.0277778
        k(   24) = (   0.1610775   0.4634772   0.0000000), wk =   0.0277778
        k(   25) = (   0.1610593   0.5562031   0.0000000), wk =   0.0277778
        k(   26) = (   0.1612597  -0.4637821   0.0000000), wk =   0.0277778
        k(   27) = (   0.1612415  -0.3710561   0.0000000), wk =   0.0277778
        k(   28) = (   0.1612232  -0.2783302   0.0000000), wk =   0.0277778
        k(   29) = (   0.1612050  -0.1856043   0.0000000), wk =   0.0277778
        k(   30) = (   0.1611868  -0.0928784   0.0000000), wk =   0.0277778
        k(   31) = (   0.1611686  -0.0001524   0.0000000), wk =   0.0277778
        k(   32) = (   0.2417256   0.1388602   0.0000000), wk =   0.0277778
        k(   33) = (   0.2417073   0.2315862   0.0000000), wk =   0.0277778
        k(   34) = (   0.2416891   0.3243121   0.0000000), wk =   0.0277778
        k(   35) = (   0.2416709   0.4170380   0.0000000), wk =   0.0277778
        k(   36) = (   0.2416527   0.5097639   0.0000000), wk =   0.0277778
        k(   37) = (   0.2416345   0.6024899   0.0000000), wk =   0.0277778
        k(   38) = (   0.2418349  -0.4174953   0.0000000), wk =   0.0277778
        k(   39) = (   0.2418166  -0.3247694   0.0000000), wk =   0.0277778
        k(   40) = (   0.2417984  -0.2320435   0.0000000), wk =   0.0277778
        k(   41) = (   0.2417802  -0.1393175   0.0000000), wk =   0.0277778
        k(   42) = (   0.2417620  -0.0465916   0.0000000), wk =   0.0277778
        k(   43) = (   0.2417438   0.0461343   0.0000000), wk =   0.0277778
        k(   44) = (   0.3223007   0.1851470   0.0000000), wk =   0.0277778
        k(   45) = (   0.3222825   0.2778729   0.0000000), wk =   0.0277778
        k(   46) = (   0.3222643   0.3705988   0.0000000), wk =   0.0277778
        k(   47) = (   0.3222461   0.4633248   0.0000000), wk =   0.0277778
        k(   48) = (   0.3222279   0.5560507   0.0000000), wk =   0.0277778
        k(   49) = (   0.3222097   0.6487766   0.0000000), wk =   0.0277778
        k(   50) = (   0.3224100  -0.3712086   0.0000000), wk =   0.0277778
        k(   51) = (   0.3223918  -0.2784827   0.0000000), wk =   0.0277778
        k(   52) = (   0.3223736  -0.1857567   0.0000000), wk =   0.0277778
        k(   53) = (   0.3223554  -0.0930308   0.0000000), wk =   0.0277778
        k(   54) = (   0.3223372  -0.0003049   0.0000000), wk =   0.0277778
        k(   55) = (   0.3223190   0.0924210   0.0000000), wk =   0.0277778
        k(   56) = (   0.4028759   0.2314337   0.0000000), wk =   0.0277778
        k(   57) = (   0.4028577   0.3241596   0.0000000), wk =   0.0277778
        k(   58) = (   0.4028395   0.4168856   0.0000000), wk =   0.0277778
        k(   59) = (   0.4028213   0.5096115   0.0000000), wk =   0.0277778
        k(   60) = (   0.4028031   0.6023374   0.0000000), wk =   0.0277778
        k(   61) = (   0.4027848   0.6950633   0.0000000), wk =   0.0277778
        k(   62) = (   0.4029852  -0.3249218   0.0000000), wk =   0.0277778
        k(   63) = (   0.4029670  -0.2321959   0.0000000), wk =   0.0277778
        k(   64) = (   0.4029488  -0.1394700   0.0000000), wk =   0.0277778
        k(   65) = (   0.4029306  -0.0467441   0.0000000), wk =   0.0277778
        k(   66) = (   0.4029124   0.0459819   0.0000000), wk =   0.0277778
        k(   67) = (   0.4028941   0.1387078   0.0000000), wk =   0.0277778
        k(   68) = (  -0.4834511  -0.2777205   0.0000000), wk =   0.0138889
        k(   69) = (  -0.4834693  -0.1849945   0.0000000), wk =   0.0277778
        k(   70) = (  -0.4834875  -0.0922686   0.0000000), wk =   0.0277778
        k(   71) = (  -0.4835058   0.0004573   0.0000000), wk =   0.0277778
        k(   72) = (  -0.4835240   0.0931832   0.0000000), wk =   0.0277778
        k(   73) = (  -0.4835422   0.1859092   0.0000000), wk =   0.0277778
        k(   74) = (  -0.4833418  -0.8340760   0.0000000), wk =   0.0138889

     Dense  grid:   606947 G-vectors     FFT dimensions: (  54,  54, 500)

     Smooth grid:   434135 G-vectors     FFT dimensions: (  48,  48, 450)

     Estimated max dynamical RAM per process >       3.73 GB

     Estimated total dynamical RAM >       7.46 GB

     Initial potential from superposition of free atoms

     starting charge   57.99842, renormalised to   58.00000

     negative rho (up, down):  6.574E-05 0.000E+00
     Starting wfcs are   38 randomized atomic wfcs

     total cpu time spent up to now is       26.8 secs

     Self-consistent Calculation

     iteration #  1     ecut=   160.00 Ry     beta= 0.70
     Davidson diagonalization with overlap
     ethr =  1.00E-02,  avg # of iterations =  2.1

     negative rho (up, down):  4.091E-07 0.000E+00

     total cpu time spent up to now is       65.7 secs

     total energy              =   -1372.42500667 Ry
     estimated scf accuracy    <       1.29583208 Ry

     iteration #  2     ecut=   160.00 Ry     beta= 0.70
     Davidson diagonalization with overlap
     ethr =  2.23E-03,  avg # of iterations =  6.6

     negative rho (up, down):  2.699E-06 0.000E+00

     total cpu time spent up to now is      121.5 secs

     total energy              =   -1371.95912728 Ry
     estimated scf accuracy    <       8.12507695 Ry

     iteration #  3     ecut=   160.00 Ry     beta= 0.70
     Davidson diagonalization with overlap
     ethr =  2.23E-03,  avg # of iterations =  5.7

     negative rho (up, down):  5.697E-06 0.000E+00

     total cpu time spent up to now is      173.1 secs

     total energy              =   -1373.21641179 Ry
     estimated scf accuracy    <       0.11377496 Ry

     iteration #  4     ecut=   160.00 Ry     beta= 0.70
     Davidson diagonalization with overlap
     ethr =  1.96E-04,  avg # of iterations =  5.7

     negative rho (up, down):  6.487E-06 0.000E+00

     total cpu time spent up to now is      219.5 secs

     total energy              =   -1373.24815277 Ry
     estimated scf accuracy    <       0.03741198 Ry

     iteration #  5     ecut=   160.00 Ry     beta= 0.70
     Davidson diagonalization with overlap
     ethr =  6.45E-05,  avg # of iterations =  6.7

     negative rho (up, down):  1.241E-05 0.000E+00

     total cpu time spent up to now is      267.9 secs

     total energy              =   -1373.24240195 Ry
     estimated scf accuracy    <       0.14720868 Ry

     iteration #  6     ecut=   160.00 Ry     beta= 0.70
     Davidson diagonalization with overlap
     ethr =  6.45E-05,  avg # of iterations =  6.0

     negative rho (up, down):  4.131E-05 0.000E+00

     total cpu time spent up to now is      314.3 secs

     total energy              =   -1373.25055889 Ry
     estimated scf accuracy    <       0.00574877 Ry

     iteration #  7     ecut=   160.00 Ry     beta= 0.70
     Davidson diagonalization with overlap
     ethr =  9.91E-06,  avg # of iterations =  5.6

     negative rho (up, down):  3.005E-05 0.000E+00

     total cpu time spent up to now is      365.3 secs

     total energy              =   -1373.25071431 Ry
     estimated scf accuracy    <       0.00398370 Ry

     iteration #  8     ecut=   160.00 Ry     beta= 0.70
     Davidson diagonalization with overlap
     ethr =  6.87E-06,  avg # of iterations =  4.8

     negative rho (up, down):  6.067E-05 0.000E+00

     total cpu time spent up to now is      409.1 secs

     total energy              =   -1373.25140862 Ry
     estimated scf accuracy    <       0.00040322 Ry

     iteration #  9     ecut=   160.00 Ry     beta= 0.70
     Davidson diagonalization with overlap
     ethr =  6.95E-07,  avg # of iterations =  6.5

     negative rho (up, down):  7.674E-05 0.000E+00

     total cpu time spent up to now is      455.3 secs

     total energy              =   -1373.25145810 Ry
     estimated scf accuracy    <       0.00031223 Ry

     iteration # 10     ecut=   160.00 Ry     beta= 0.70
     Davidson diagonalization with overlap
     ethr =  5.38E-07,  avg # of iterations =  2.5

     negative rho (up, down):  7.430E-05 0.000E+00

     total cpu time spent up to now is      494.1 secs

     total energy              =   -1373.25146525 Ry
     estimated scf accuracy    <       0.00011809 Ry

     iteration # 11     ecut=   160.00 Ry     beta= 0.70
     Davidson diagonalization with overlap
     ethr =  2.04E-07,  avg # of iterations =  3.9

     negative rho (up, down):  7.890E-05 0.000E+00

     total cpu time spent up to now is      535.1 secs

     total energy              =   -1373.25147250 Ry
     estimated scf accuracy    <       0.00000663 Ry

     iteration # 12     ecut=   160.00 Ry     beta= 0.70
     Davidson diagonalization with overlap
     ethr =  1.14E-08,  avg # of iterations =  7.4

     negative rho (up, down):  7.935E-05 0.000E+00

     total cpu time spent up to now is      586.7 secs

     total energy              =   -1373.25147520 Ry
     estimated scf accuracy    <       0.00002364 Ry

     iteration # 13     ecut=   160.00 Ry     beta= 0.70
     Davidson diagonalization with overlap
     ethr =  1.14E-08,  avg # of iterations =  2.8

     negative rho (up, down):  7.941E-05 0.000E+00

     total cpu time spent up to now is      625.8 secs

     total energy              =   -1373.25147511 Ry
     estimated scf accuracy    <       0.00001215 Ry

     iteration # 14     ecut=   160.00 Ry     beta= 0.70
     Davidson diagonalization with overlap
     ethr =  1.14E-08,  avg # of iterations =  2.5

     negative rho (up, down):  7.977E-05 0.000E+00

     total cpu time spent up to now is      663.5 secs

     total energy              =   -1373.25147505 Ry
     estimated scf accuracy    <       0.00000527 Ry

     iteration # 15     ecut=   160.00 Ry     beta= 0.70
     Davidson diagonalization with overlap
     ethr =  9.09E-09,  avg # of iterations =  3.8

     negative rho (up, down):  8.007E-05 0.000E+00

     total cpu time spent up to now is      704.1 secs

     total energy              =   -1373.25147522 Ry
     estimated scf accuracy    <       0.00000075 Ry

     iteration # 16     ecut=   160.00 Ry     beta= 0.70
     Davidson diagonalization with overlap
     ethr =  1.29E-09,  avg # of iterations =  7.6

     negative rho (up, down):  8.004E-05 0.000E+00

     total cpu time spent up to now is      755.1 secs

     total energy              =   -1373.25147551 Ry
     estimated scf accuracy    <       0.00000281 Ry

     iteration # 17     ecut=   160.00 Ry     beta= 0.70
     Davidson diagonalization with overlap
     ethr =  1.29E-09,  avg # of iterations =  1.1

     negative rho (up, down):  7.994E-05 0.000E+00

     total cpu time spent up to now is      790.6 secs

     total energy              =   -1373.25147533 Ry
     estimated scf accuracy    <       0.00000234 Ry

     iteration # 18     ecut=   160.00 Ry     beta= 0.70
     Davidson diagonalization with overlap
     ethr =  1.29E-09,  avg # of iterations =  5.6

     negative rho (up, down):  7.988E-05 0.000E+00

     total cpu time spent up to now is      835.2 secs

     total energy              =   -1373.25147543 Ry
     estimated scf accuracy    <       0.00000001 Ry

     iteration # 19     ecut=   160.00 Ry     beta= 0.70
     Davidson diagonalization with overlap
     c_bands:  1 eigenvalues not converged
     c_bands:  1 eigenvalues not converged
     c_bands:  1 eigenvalues not converged
     ethr =  2.56E-11,  avg # of iterations =  9.1

     negative rho (up, down):  7.991E-05 0.000E+00

     total cpu time spent up to now is      893.5 secs

     total energy              =   -1373.25147543 Ry
     estimated scf accuracy    <       0.00000079 Ry

     iteration # 20     ecut=   160.00 Ry     beta= 0.70
     Davidson diagonalization with overlap
     c_bands:  1 eigenvalues not converged
     c_bands:  1 eigenvalues not converged
     ethr =  2.56E-11,  avg # of iterations =  8.4

     negative rho (up, down):  7.993E-05 0.000E+00

     total cpu time spent up to now is      948.4 secs

     total energy              =   -1373.25147545 Ry
     estimated scf accuracy    <       0.00000003 Ry

     iteration # 21     ecut=   160.00 Ry     beta= 0.70
     Davidson diagonalization with overlap
     ethr =  2.56E-11,  avg # of iterations =  1.1

     negative rho (up, down):  7.993E-05 0.000E+00

     total cpu time spent up to now is      983.6 secs

     total energy              =   -1373.25147545 Ry
     estimated scf accuracy    <       0.00000002 Ry

     iteration # 22     ecut=   160.00 Ry     beta= 0.70
     Davidson diagonalization with overlap
     ethr =  2.56E-11,  avg # of iterations =  4.3

     negative rho (up, down):  7.993E-05 0.000E+00

     total cpu time spent up to now is     1025.0 secs

     total energy              =   -1373.25147545 Ry
     estimated scf accuracy    <          9.0E-10 Ry

     iteration # 23     ecut=   160.00 Ry     beta= 0.70
     Davidson diagonalization with overlap
     ethr =  1.54E-12,  avg # of iterations =  6.7

     negative rho (up, down):  7.993E-05 0.000E+00

     total cpu time spent up to now is     1073.6 secs

     total energy              =   -1373.25147545 Ry
     estimated scf accuracy    <          6.0E-10 Ry

     iteration # 24     ecut=   160.00 Ry     beta= 0.70
     Davidson diagonalization with overlap
     ethr =  1.03E-12,  avg # of iterations =  1.1

     negative rho (up, down):  7.993E-05 0.000E+00

     total cpu time spent up to now is     1109.1 secs

     total energy              =   -1373.25147545 Ry
     estimated scf accuracy    <          4.0E-10 Ry

     iteration # 25     ecut=   160.00 Ry     beta= 0.70
     Davidson diagonalization with overlap
     ethr =  6.84E-13,  avg # of iterations =  3.9

     negative rho (up, down):  7.993E-05 0.000E+00

     total cpu time spent up to now is     1151.0 secs

     total energy              =   -1373.25147545 Ry
     estimated scf accuracy    <          1.0E-11 Ry

     iteration # 26     ecut=   160.00 Ry     beta= 0.70
     Davidson diagonalization with overlap
     ethr =  1.00E-13,  avg # of iterations =  8.0

     negative rho (up, down):  7.993E-05 0.000E+00

     total cpu time spent up to now is     1204.7 secs

     total energy              =   -1373.25147545 Ry
     estimated scf accuracy    <          4.1E-10 Ry

     iteration # 27     ecut=   160.00 Ry     beta= 0.70
     Davidson diagonalization with overlap
     ethr =  1.00E-13,  avg # of iterations =  3.7

     negative rho (up, down):  7.993E-05 0.000E+00

     total cpu time spent up to now is     1246.1 secs

     total energy              =   -1373.25147545 Ry
     estimated scf accuracy    <          1.9E-10 Ry

     iteration # 28     ecut=   160.00 Ry     beta= 0.70
     Davidson diagonalization with overlap
     ethr =  1.00E-13,  avg # of iterations =  2.2

     negative rho (up, down):  7.993E-05 0.000E+00

     total cpu time spent up to now is     1284.4 secs

     total energy              =   -1373.25147545 Ry
     estimated scf accuracy    <          1.2E-10 Ry

     iteration # 29     ecut=   160.00 Ry     beta= 0.70
     Davidson diagonalization with overlap
     ethr =  1.00E-13,  avg # of iterations =  2.1

     negative rho (up, down):  7.993E-05 0.000E+00

     total cpu time spent up to now is     1323.3 secs

     total energy              =   -1373.25147545 Ry
     estimated scf accuracy    <          8.9E-11 Ry

     iteration # 30     ecut=   160.00 Ry     beta= 0.70
     Davidson diagonalization with overlap
     ethr =  1.00E-13,  avg # of iterations =  1.5

     negative rho (up, down):  7.993E-05 0.000E+00

     total cpu time spent up to now is     1360.3 secs

     total energy              =   -1373.25147545 Ry
     estimated scf accuracy    <          6.4E-11 Ry

     iteration # 31     ecut=   160.00 Ry     beta= 0.70
     Davidson diagonalization with overlap
     ethr =  1.00E-13,  avg # of iterations =  4.9

     negative rho (up, down):  7.993E-05 0.000E+00

     total cpu time spent up to now is     1403.9 secs

     total energy              =   -1373.25147545 Ry
     estimated scf accuracy    <          1.1E-12 Ry

     iteration # 32     ecut=   160.00 Ry     beta= 0.70
     Davidson diagonalization with overlap
     ethr =  1.00E-13,  avg # of iterations =  2.0

     negative rho (up, down):  7.993E-05 0.000E+00

     total cpu time spent up to now is     1442.5 secs

     total energy              =   -1373.25147545 Ry
     estimated scf accuracy    <          1.9E-12 Ry

     iteration # 33     ecut=   160.00 Ry     beta= 0.70
     Davidson diagonalization with overlap
     ethr =  1.00E-13,  avg # of iterations =  1.0

     negative rho (up, down):  7.993E-05 0.000E+00

     total cpu time spent up to now is     1478.6 secs

     total energy              =   -1373.25147545 Ry
     estimated scf accuracy    <          3.5E-12 Ry

     iteration # 34     ecut=   160.00 Ry     beta= 0.70
     Davidson diagonalization with overlap
     ethr =  1.00E-13,  avg # of iterations =  1.0

     negative rho (up, down):  7.993E-05 0.000E+00

     total cpu time spent up to now is     1514.3 secs

     total energy              =   -1373.25147545 Ry
     estimated scf accuracy    <          5.8E-12 Ry

     iteration # 35     ecut=   160.00 Ry     beta= 0.70
     Davidson diagonalization with overlap
     ethr =  1.00E-13,  avg # of iterations =  1.0

     negative rho (up, down):  7.993E-05 0.000E+00

     total cpu time spent up to now is     1550.0 secs

     total energy              =   -1373.25147545 Ry
     estimated scf accuracy    <          7.4E-12 Ry

     iteration # 36     ecut=   160.00 Ry     beta= 0.70
     Davidson diagonalization with overlap
     ethr =  1.00E-13,  avg # of iterations =  1.0

     negative rho (up, down):  7.993E-05 0.000E+00

     total cpu time spent up to now is     1585.6 secs

     total energy              =   -1373.25147545 Ry
     estimated scf accuracy    <          1.0E-11 Ry

     iteration # 37     ecut=   160.00 Ry     beta= 0.70
     Davidson diagonalization with overlap
     ethr =  1.00E-13,  avg # of iterations =  1.0

     negative rho (up, down):  7.993E-05 0.000E+00

     total cpu time spent up to now is     1621.3 secs

     total energy              =   -1373.25147545 Ry
     estimated scf accuracy    <          1.4E-11 Ry

     iteration # 38     ecut=   160.00 Ry     beta= 0.70
     Davidson diagonalization with overlap
     ethr =  1.00E-13,  avg # of iterations =  1.0

     negative rho (up, down):  7.993E-05 0.000E+00

     total cpu time spent up to now is     1657.0 secs

     total energy              =   -1373.25147545 Ry
     estimated scf accuracy    <          1.6E-11 Ry

     iteration # 39     ecut=   160.00 Ry     beta= 0.70
     Davidson diagonalization with overlap
     ethr =  1.00E-13,  avg # of iterations =  1.0

     negative rho (up, down):  7.993E-05 0.000E+00

     total cpu time spent up to now is     1692.6 secs

     total energy              =   -1373.25147545 Ry
     estimated scf accuracy    <          1.8E-11 Ry

     iteration # 40     ecut=   160.00 Ry     beta= 0.70
     Davidson diagonalization with overlap
     ethr =  1.00E-13,  avg # of iterations =  1.7

     negative rho (up, down):  7.993E-05 0.000E+00

     total cpu time spent up to now is     1729.8 secs

     total energy              =   -1373.25147545 Ry
     estimated scf accuracy    <          2.9E-12 Ry

     iteration # 41     ecut=   160.00 Ry     beta= 0.70
     Davidson diagonalization with overlap
     ethr =  1.00E-13,  avg # of iterations =  1.0

     negative rho (up, down):  7.993E-05 0.000E+00

     total cpu time spent up to now is     1766.3 secs

     total energy              =   -1373.25147545 Ry
     estimated scf accuracy    <          2.3E-12 Ry

     iteration # 42     ecut=   160.00 Ry     beta= 0.70
     Davidson diagonalization with overlap
     ethr =  1.00E-13,  avg # of iterations =  1.0

     negative rho (up, down):  7.993E-05 0.000E+00

     total cpu time spent up to now is     1802.7 secs

     total energy              =   -1373.25147545 Ry
     estimated scf accuracy    <          1.5E-12 Ry

     iteration # 43     ecut=   160.00 Ry     beta= 0.70
     Davidson diagonalization with overlap
     ethr =  1.00E-13,  avg # of iterations =  1.0

     negative rho (up, down):  7.993E-05 0.000E+00

     total cpu time spent up to now is     1839.1 secs

     total energy              =   -1373.25147545 Ry
     estimated scf accuracy    <          1.0E-12 Ry

     iteration # 44     ecut=   160.00 Ry     beta= 0.70
     Davidson diagonalization with overlap
     ethr =  1.00E-13,  avg # of iterations =  1.0

     negative rho (up, down):  7.993E-05 0.000E+00

     total cpu time spent up to now is     1874.7 secs

     End of self-consistent calculation

          k = 0.0000 0.0000 0.0000 ( 54401 PWs)   bands (ev):

   -68.2900 -68.2423 -35.3157 -34.7120 -34.4039 -34.3989 -34.3389 -34.3325
   -19.9458 -19.9320 -19.9067 -19.9062 -19.9008 -19.9005 -19.8742 -19.8736
   -19.8664 -19.8663 -19.8592 -19.8538 -19.7927 -19.7912 -13.2783  -7.6691
    -4.3939  -4.3506  -1.9292  -0.8992  -0.7265

          k =-0.0000 0.0927 0.0000 ( 54382 PWs)   bands (ev):

   -68.2862 -68.2399 -35.3030 -34.7172 -34.4509 -34.4152 -34.3828 -34.3387
   -19.9442 -19.9311 -19.9082 -19.9067 -19.9011 -19.8994 -19.8757 -19.8733
   -19.8667 -19.8657 -19.8563 -19.8511 -19.7955 -19.7941 -13.1645  -7.4491
    -4.7174  -4.3163  -1.8343  -1.0828  -0.5374

          k =-0.0000 0.1855 0.0000 ( 54422 PWs)   bands (ev):

   -68.2756 -68.2334 -35.2688 -34.7450 -34.5653 -34.4999 -34.4565 -34.3579
   -19.9402 -19.9286 -19.9120 -19.9077 -19.9021 -19.8969 -19.8794 -19.8722
   -19.8676 -19.8637 -19.8486 -19.8438 -19.8029 -19.8018 -12.8640  -6.8675
    -5.3778  -4.2536  -1.8297  -1.4637  -0.9836

          k =-0.0001 0.2782 0.0000 ( 54357 PWs)   bands (ev):

   -68.2607 -68.2250 -35.2252 -34.8487 -34.6621 -34.6416 -34.5093 -34.3870
   -19.9358 -19.9252 -19.9162 -19.9091 -19.9039 -19.8946 -19.8832 -19.8703
   -19.8687 -19.8608 -19.8380 -19.8339 -19.8128 -19.8115 -12.4841  -6.4528
    -5.6910  -4.2423  -2.4626  -1.5266  -1.0281

          k =-0.0001 0.3709 0.0000 ( 54334 PWs)   bands (ev):

   -68.2450 -68.2172 -35.1951 -35.0052 -34.7789 -34.6874 -34.5598 -34.4178
   -19.9335 -19.9210 -19.9193 -19.9106 -19.9065 -19.8938 -19.8853 -19.8695
   -19.8677 -19.8575 -19.8270 -19.8238 -19.8225 -19.8202 -12.1484  -6.8398
    -5.2233  -4.3018  -3.0995  -1.1908  -0.6682

          k =-0.0001 0.4636 0.0000 ( 54233 PWs)   bands (ev):

   -68.2326 -68.2125 -35.1992 -35.1237 -34.8376 -34.7120 -34.5956 -34.4411
   -19.9335 -19.9204 -19.9179 -19.9119 -19.9089 -19.8940 -19.8858 -19.8700
   -19.8654 -19.8549 -19.8294 -19.8259 -19.8187 -19.8165 -11.9369  -7.1607
    -5.0002  -4.3780  -3.4989  -0.4171  -0.1610

          k = 0.0001-0.5564 0.0000 ( 54260 PWs)   bands (ev):

   -68.2276 -68.2112 -35.2128 -35.1638 -34.8470 -34.7232 -34.6086 -34.4497
   -19.9338 -19.9203 -19.9173 -19.9124 -19.9095 -19.8943 -19.8857 -19.8702
   -19.8645 -19.8538 -19.8319 -19.8279 -19.8156 -19.8139 -11.8678  -7.2707
    -4.9677  -4.4110  -3.6323   0.0686   0.0979

          k = 0.0806 0.0463 0.0000 ( 54420 PWs)   bands (ev):

   -68.2861 -68.2399 -35.3029 -34.7171 -34.4488 -34.4181 -34.3796 -34.3424
   -19.9442 -19.9311 -19.9081 -19.9069 -19.9010 -19.8995 -19.8754 -19.8736
   -19.8668 -19.8656 -19.8563 -19.8511 -19.7955 -19.7941 -13.1639  -7.4481
    -4.6957  -4.3414  -1.8327  -1.0813  -0.5378

          k = 0.0806 0.1390 0.0000 ( 54409 PWs)   bands (ev):

   -68.2789 -68.2354 -35.2794 -34.7322 -34.5208 -34.4922 -34.4176 -34.3619
   -19.9414 -19.9294 -19.9104 -19.9081 -19.9013 -19.8978 -19.8782 -19.8728
   -19.8671 -19.8646 -19.8510 -19.8461 -19.8006 -19.7994 -12.9568  -7.0389
    -5.1726  -4.3247  -1.7347  -1.2931  -0.9134

          k = 0.0805 0.2317 0.0000 ( 54390 PWs)   bands (ev):

   -68.2662 -68.2280 -35.2400 -34.7907 -34.6304 -34.6059 -34.4758 -34.3941
   -19.9368 -19.9267 -19.9140 -19.9101 -19.9021 -19.8957 -19.8819 -19.8717
   -19.8673 -19.8625 -19.8419 -19.8375 -19.8092 -19.8084 -12.6161  -6.3883
    -5.7338  -4.4047  -1.9816  -1.4634  -1.1260

          k = 0.0805 0.3245 0.0000 ( 54353 PWs)   bands (ev):

   -68.2509 -68.2199 -35.2011 -34.9240 -34.7432 -34.6735 -34.5417 -34.4287
   -19.9328 -19.9232 -19.9177 -19.9117 -19.9040 -19.8944 -19.8849 -19.8706
   -19.8668 -19.8597 -19.8311 -19.8275 -19.8191 -19.8177 -12.2584  -6.5048
    -5.4354  -4.5288  -2.6321  -1.1754  -1.0478

          k = 0.0805 0.4172 0.0000 ( 54301 PWs)   bands (ev):

   -68.2366 -68.2138 -35.1858 -35.0616 -34.8189 -34.7118 -34.5925 -34.4593
   -19.9318 -19.9198 -19.9192 -19.9125 -19.9068 -19.8943 -19.8861 -19.8699
   -19.8658 -19.8568 -19.8276 -19.8252 -19.8214 -19.8188 -11.9875  -6.9064
    -5.0200  -4.6232  -3.0768  -0.7191  -0.5735

          k = 0.0805 0.5099 0.0000 ( 54218 PWs)   bands (ev):

   -68.2275 -68.2112 -35.1951 -35.1414 -34.8388 -34.7390 -34.6190 -34.4772
   -19.9322 -19.9202 -19.9171 -19.9124 -19.9091 -19.8948 -19.8862 -19.8697
   -19.8650 -19.8549 -19.8324 -19.8290 -19.8156 -19.8139 -11.8503  -7.1219
    -4.9158  -4.6866  -3.2858  -0.1421  -0.0720

          k = 0.0807-0.5101 0.0000 ( 54216 PWs)   bands (ev):

   -68.2275 -68.2111 -35.1953 -35.1415 -34.8391 -34.7389 -34.6189 -34.4772
   -19.9322 -19.9202 -19.9171 -19.9124 -19.9091 -19.8948 -19.8862 -19.8697
   -19.8649 -19.8549 -19.8324 -19.8290 -19.8156 -19.8139 -11.8501  -7.1223
    -4.9164  -4.6858  -3.2870  -0.1420  -0.0726

          k = 0.0807-0.4173 0.0000 ( 54286 PWs)   bands (ev):

   -68.2366 -68.2138 -35.1860 -35.0622 -34.8196 -34.7116 -34.5923 -34.4592
   -19.9318 -19.9198 -19.9192 -19.9125 -19.9069 -19.8944 -19.8861 -19.8700
   -19.8656 -19.8568 -19.8276 -19.8252 -19.8213 -19.8188 -11.9869  -6.9075
    -5.0200  -4.6226  -3.0799  -0.7169  -0.5757

          k = 0.0806-0.3246 0.0000 ( 54352 PWs)   bands (ev):

   -68.2508 -68.2199 -35.2011 -34.9247 -34.7439 -34.6737 -34.5416 -34.4287
   -19.9328 -19.9232 -19.9177 -19.9117 -19.9040 -19.8944 -19.8848 -19.8706
   -19.8668 -19.8597 -19.8311 -19.8275 -19.8191 -19.8178 -12.2576  -6.5058
    -5.4348  -4.5289  -2.6354  -1.1747  -1.0473

          k = 0.0806-0.2319 0.0000 ( 54371 PWs)   bands (ev):

   -68.2661 -68.2279 -35.2398 -34.7909 -34.6307 -34.6062 -34.4764 -34.3945
   -19.9368 -19.9267 -19.9140 -19.9101 -19.9021 -19.8958 -19.8818 -19.8717
   -19.8673 -19.8625 -19.8418 -19.8375 -19.8093 -19.8084 -12.6152  -6.3870
    -5.7334  -4.4062  -1.9830  -1.4622  -1.1258

          k = 0.0806-0.1392 0.0000 ( 54410 PWs)   bands (ev):

   -68.2789 -68.2354 -35.2793 -34.7321 -34.5205 -34.4919 -34.4185 -34.3632
   -19.9414 -19.9294 -19.9103 -19.9082 -19.9012 -19.8980 -19.8781 -19.8729
   -19.8671 -19.8646 -19.8509 -19.8461 -19.8006 -19.7995 -12.9560  -7.0376
    -5.1674  -4.3316  -1.7336  -1.2914  -0.9090

          k = 0.0806-0.0464 0.0000 ( 54402 PWs)   bands (ev):

   -68.2861 -68.2399 -35.3029 -34.7171 -34.4473 -34.4199 -34.3780 -34.3442
   -19.9442 -19.9311 -19.9078 -19.9071 -19.9008 -19.8997 -19.8753 -19.8737
   -19.8667 -19.8657 -19.8562 -19.8511 -19.7955 -19.7941 -13.1636  -7.4476
    -4.6861  -4.3522  -1.8319  -1.0802  -0.5354

          k = 0.1612 0.0926 0.0000 ( 54376 PWs)   bands (ev):

   -68.2754 -68.2333 -35.2683 -34.7446 -34.5644 -34.4975 -34.4602 -34.3620
   -19.9402 -19.9286 -19.9118 -19.9079 -19.9020 -19.8970 -19.8791 -19.8725
   -19.8677 -19.8637 -19.8485 -19.8438 -19.8030 -19.8019 -12.8619  -6.8643
    -5.3613  -4.2800  -1.8198  -1.4633  -0.9779

          k = 0.1611 0.1853 0.0000 ( 54413 PWs)   bands (ev):

   -68.2660 -68.2279 -35.2396 -34.7899 -34.6310 -34.6048 -34.4773 -34.3969
   -19.9367 -19.9267 -19.9140 -19.9102 -19.9020 -19.8958 -19.8818 -19.8718
   -19.8674 -19.8625 -19.8418 -19.8375 -19.8093 -19.8085 -12.6147  -6.3855
    -5.7264  -4.4194  -1.9701  -1.4671  -1.1312

          k = 0.1611 0.2780 0.0000 ( 54349 PWs)   bands (ev):

   -68.2528 -68.2209 -35.2034 -34.8735 -34.7494 -34.6592 -34.5233 -34.4579
   -19.9318 -19.9246 -19.9156 -19.9138 -19.9023 -19.8951 -19.8846 -19.8714
   -19.8653 -19.8615 -19.8326 -19.8288 -19.8177 -19.8174 -12.2959  -6.1395
    -5.6823  -4.7640  -2.1269  -1.6197  -0.5745

          k = 0.1611 0.3708 0.0000 ( 54309 PWs)   bands (ev):

   -68.2388 -68.2146 -35.1754 -34.9812 -34.8306 -34.7010 -34.5911 -34.5098
   -19.9280 -19.9223 -19.9175 -19.9147 -19.9042 -19.8953 -19.8866 -19.8705
   -19.8638 -19.8601 -19.8268 -19.8260 -19.8226 -19.8200 -12.0056  -6.4834
    -5.1403  -4.9846  -2.3888  -1.2981  -0.6044

          k = 0.1611 0.4635 0.0000 ( 54269 PWs)   bands (ev):

   -68.2274 -68.2111 -35.1629 -35.0755 -34.8456 -34.7584 -34.6353 -34.5446
   -19.9279 -19.9201 -19.9172 -19.9133 -19.9071 -19.8960 -19.8874 -19.8691
   -19.8646 -19.8578 -19.8333 -19.8314 -19.8157 -19.8139 -11.8149  -6.7417
    -5.1821  -4.7888  -2.5618  -0.6832  -0.4809

          k = 0.1611 0.5562 0.0000 ( 54216 PWs)   bands (ev):

   -68.2225 -68.2104 -35.1556 -35.1178 -34.8187 -34.8107 -34.6469 -34.5576
   -19.9284 -19.9199 -19.9159 -19.9122 -19.9089 -19.8964 -19.8876 -19.8681
   -19.8655 -19.8569 -19.8358 -19.8334 -19.8130 -19.8118 -11.7501  -6.8369
    -5.2110  -4.7414  -2.6300  -0.3327  -0.2769

          k = 0.1613-0.4638 0.0000 ( 54261 PWs)   bands (ev):

   -68.2273 -68.2110 -35.1634 -35.0763 -34.8464 -34.7581 -34.6351 -34.5445
   -19.9279 -19.9201 -19.9173 -19.9133 -19.9072 -19.8961 -19.8874 -19.8692
   -19.8644 -19.8578 -19.8334 -19.8314 -19.8157 -19.8139 -11.8142  -6.7434
    -5.1824  -4.7890  -2.5640  -0.6873  -0.4802

          k = 0.1612-0.3711 0.0000 ( 54300 PWs)   bands (ev):

   -68.2386 -68.2145 -35.1757 -34.9825 -34.8315 -34.7013 -34.5911 -34.5098
   -19.9280 -19.9222 -19.9176 -19.9147 -19.9042 -19.8954 -19.8865 -19.8706
   -19.8636 -19.8600 -19.8269 -19.8261 -19.8226 -19.8199 -12.0043  -6.4858
    -5.1398  -4.9852  -2.3930  -1.3011  -0.6029

          k = 0.1612-0.2783 0.0000 ( 54359 PWs)   bands (ev):

   -68.2526 -68.2207 -35.2033 -34.8743 -34.7503 -34.6595 -34.5240 -34.4586
   -19.9318 -19.9246 -19.9155 -19.9139 -19.9023 -19.8952 -19.8845 -19.8714
   -19.8652 -19.8615 -19.8325 -19.8287 -19.8179 -19.8175 -12.2942  -6.1400
    -5.6802  -4.7668  -2.1298  -1.6199  -0.5744

          k = 0.1612-0.1856 0.0000 ( 54405 PWs)   bands (ev):

   -68.2659 -68.2278 -35.2394 -34.7897 -34.6311 -34.6049 -34.4787 -34.3986
   -19.9368 -19.9267 -19.9138 -19.9104 -19.9018 -19.8960 -19.8817 -19.8718
   -19.8673 -19.8625 -19.8417 -19.8374 -19.8094 -19.8086 -12.6130  -6.3830
    -5.7224  -4.4268  -1.9666  -1.4676  -1.1324

          k = 0.1612-0.0929 0.0000 ( 54367 PWs)   bands (ev):

   -68.2753 -68.2332 -35.2681 -34.7443 -34.5637 -34.4963 -34.4623 -34.3640
   -19.9402 -19.9286 -19.9117 -19.9081 -19.9018 -19.8972 -19.8790 -19.8726
   -19.8676 -19.8637 -19.8484 -19.8437 -19.8031 -19.8020 -12.8609  -6.8624
    -5.3542  -4.2904  -1.8152  -1.4627  -0.9754

          k = 0.1612-0.0002 0.0000 ( 54402 PWs)   bands (ev):

   -68.2787 -68.2353 -35.2790 -34.7321 -34.5202 -34.4912 -34.4197 -34.3661
   -19.9414 -19.9294 -19.9101 -19.9084 -19.9011 -19.8980 -19.8778 -19.8732
   -19.8672 -19.8645 -19.8509 -19.8461 -19.8007 -19.7996 -12.9544  -7.0354
    -5.1538  -4.3509  -1.7315  -1.2878  -0.8975

          k = 0.2417 0.1389 0.0000 ( 54363 PWs)   bands (ev):

   -68.2603 -68.2247 -35.2244 -34.8480 -34.6632 -34.6397 -34.5140 -34.3917
   -19.9357 -19.9252 -19.9162 -19.9093 -19.9037 -19.8948 -19.8830 -19.8704
   -19.8687 -19.8607 -19.8378 -19.8337 -19.8130 -19.8118 -12.4802  -6.4455
    -5.6828  -4.2707  -2.4518  -1.5293  -1.0278

          k = 0.2417 0.2316 0.0000 ( 54342 PWs)   bands (ev):

   -68.2505 -68.2197 -35.2005 -34.9229 -34.7434 -34.6730 -34.5457 -34.4328
   -19.9328 -19.9232 -19.9176 -19.9119 -19.9038 -19.8945 -19.8848 -19.8705
   -19.8670 -19.8597 -19.8310 -19.8274 -19.8193 -19.8179 -12.2554  -6.4972
    -5.4332  -4.5501  -2.6228  -1.1763  -1.0527

          k = 0.2417 0.3243 0.0000 ( 54285 PWs)   bands (ev):

   -68.2386 -68.2145 -35.1752 -34.9803 -34.8313 -34.7004 -34.5935 -34.5119
   -19.9281 -19.9222 -19.9174 -19.9149 -19.9041 -19.8954 -19.8865 -19.8705
   -19.8639 -19.8600 -19.8270 -19.8261 -19.8226 -19.8199 -12.0040  -6.4791
    -5.1498  -4.9868  -2.3859  -1.2951  -0.6099

          k = 0.2417 0.4170 0.0000 ( 54245 PWs)   bands (ev):

   -68.2271 -68.2110 -35.1484 -35.0136 -34.8960 -34.7330 -34.6489 -34.5903
   -19.9236 -19.9226 -19.9160 -19.9148 -19.9056 -19.8969 -19.8880 -19.8693
   -19.8622 -19.8610 -19.8335 -19.8330 -19.8157 -19.8139 -11.7961  -6.4453
    -5.5092  -4.7229  -1.8245  -1.3888  -0.6820

          k = 0.2417 0.5098 0.0000 ( 54192 PWs)   bands (ev):

   -68.2190 -68.2104 -35.1099 -35.0539 -34.9150 -34.7808 -34.6698 -34.6383
   -19.9248 -19.9192 -19.9155 -19.9119 -19.9080 -19.8983 -19.8890 -19.8672
   -19.8647 -19.8599 -19.8378 -19.8368 -19.8114 -19.8105 -11.6809  -6.4525
    -5.6948  -4.5636  -1.7425  -0.8861  -0.6467

          k = 0.2416 0.6025 0.0000 ( 54184 PWs)   bands (ev):

   -68.2189 -68.2104 -35.1103 -35.0545 -34.9151 -34.7809 -34.6697 -34.6383
   -19.9247 -19.9192 -19.9156 -19.9119 -19.9080 -19.8983 -19.8890 -19.8673
   -19.8646 -19.8598 -19.8378 -19.8368 -19.8114 -19.8105 -11.6804  -6.4537
    -5.6951  -4.5644  -1.7426  -0.8928  -0.6431

          k = 0.2418-0.4175 0.0000 ( 54250 PWs)   bands (ev):

   -68.2269 -68.2109 -35.1489 -35.0150 -34.8965 -34.7334 -34.6490 -34.5905
   -19.9235 -19.9226 -19.9162 -19.9148 -19.9056 -19.8971 -19.8880 -19.8693
   -19.8622 -19.8609 -19.8336 -19.8331 -19.8156 -19.8138 -11.7948  -6.4475
    -5.5111  -4.7237  -1.8277  -1.3931  -0.6803

          k = 0.2418-0.3248 0.0000 ( 54276 PWs)   bands (ev):

   -68.2383 -68.2143 -35.1753 -34.9812 -34.8325 -34.7005 -34.5945 -34.5130
   -19.9281 -19.9222 -19.9174 -19.9150 -19.9041 -19.8956 -19.8865 -19.8706
   -19.8638 -19.8599 -19.8271 -19.8262 -19.8225 -19.8198 -12.0020  -6.4796
    -5.1522  -4.9880  -2.3896  -1.2962  -0.6102

          k = 0.2418-0.2320 0.0000 ( 54345 PWs)   bands (ev):

   -68.2503 -68.2195 -35.2002 -34.9230 -34.7442 -34.6730 -34.5476 -34.4349
   -19.9328 -19.9232 -19.9175 -19.9120 -19.9037 -19.8947 -19.8847 -19.8706
   -19.8669 -19.8596 -19.8309 -19.8273 -19.8194 -19.8181 -12.2532  -6.4952
    -5.4297  -4.5586  -2.6227  -1.1759  -1.0537

          k = 0.2418-0.1393 0.0000 ( 54363 PWs)   bands (ev):

   -68.2601 -68.2246 -35.2241 -34.8473 -34.6634 -34.6390 -34.5165 -34.3941
   -19.9357 -19.9252 -19.9160 -19.9096 -19.9035 -19.8950 -19.8829 -19.8705
   -19.8687 -19.8607 -19.8377 -19.8336 -19.8131 -19.8119 -12.4785  -6.4423
    -5.6779  -4.2816  -2.4476  -1.5301  -1.0274

          k = 0.2418-0.0466 0.0000 ( 54383 PWs)   bands (ev):

   -68.2657 -68.2277 -35.2390 -34.7907 -34.6312 -34.6059 -34.4795 -34.3996
   -19.9367 -19.9267 -19.9138 -19.9104 -19.9019 -19.8960 -19.8815 -19.8720
   -19.8674 -19.8624 -19.8416 -19.8373 -19.8095 -19.8087 -12.6109  -6.3810
    -5.7211  -4.4330  -1.9696  -1.4656  -1.1314

          k = 0.2417 0.0461 0.0000 ( 54367 PWs)   bands (ev):

   -68.2657 -68.2277 -35.2392 -34.7912 -34.6313 -34.6062 -34.4787 -34.3982
   -19.9367 -19.9267 -19.9139 -19.9103 -19.9020 -19.8959 -19.8815 -19.8719
   -19.8674 -19.8624 -19.8417 -19.8373 -19.8095 -19.8086 -12.6116  -6.3823
    -5.7247  -4.4271  -1.9745  -1.4638  -1.1299

          k = 0.3223 0.1851 0.0000 ( 54330 PWs)   bands (ev):

   -68.2444 -68.2169 -35.1945 -35.0052 -34.7783 -34.6881 -34.5654 -34.4232
   -19.9334 -19.9210 -19.9193 -19.9109 -19.9063 -19.8940 -19.8852 -19.8696
   -19.8677 -19.8575 -19.8268 -19.8236 -19.8228 -19.8205 -12.1433  -6.8341
    -5.2219  -4.3328  -3.0919  -1.1883  -0.6645

          k = 0.3223 0.2779 0.0000 ( 54316 PWs)   bands (ev):

   -68.2360 -68.2135 -35.1856 -35.0613 -34.8178 -34.7129 -34.5978 -34.4642
   -19.9318 -19.9197 -19.9190 -19.9127 -19.9068 -19.8946 -19.8860 -19.8699
   -19.8658 -19.8567 -19.8279 -19.8254 -19.8211 -19.8186 -11.9833  -6.9015
    -5.0225  -4.6487  -3.0710  -0.7158  -0.5664

          k = 0.3223 0.3706 0.0000 ( 54255 PWs)   bands (ev):

   -68.2269 -68.2109 -35.1631 -35.0751 -34.8458 -34.7585 -34.6389 -34.5476
   -19.9280 -19.9200 -19.9170 -19.9134 -19.9071 -19.8962 -19.8873 -19.8691
   -19.8646 -19.8577 -19.8336 -19.8316 -19.8155 -19.8138 -11.8120  -6.7390
    -5.1969  -4.7946  -2.5656  -0.6708  -0.4725

          k = 0.3222 0.4633 0.0000 ( 54184 PWs)   bands (ev):

   -68.2187 -68.2104 -35.1105 -35.0538 -34.9162 -34.7797 -34.6723 -34.6386
   -19.9248 -19.9192 -19.9154 -19.9120 -19.9079 -19.8984 -19.8890 -19.8672
   -19.8648 -19.8598 -19.8379 -19.8369 -19.8113 -19.8104 -11.6794  -6.4519
    -5.7014  -4.5677  -1.7581  -0.8673  -0.6399

          k = 0.3222 0.5561 0.0000 ( 54118 PWs)   bands (ev):

   -68.2131 -68.2127 -35.0387 -35.0367 -35.0018 -34.7808 -34.6846 -34.6821
   -19.9242 -19.9166 -19.9164 -19.9096 -19.9094 -19.8996 -19.8899 -19.8655
   -19.8652 -19.8612 -19.8394 -19.8392 -19.8096 -19.8094 -11.6289  -6.1117
    -6.1104  -4.4609  -1.0918  -0.9610  -0.9495

          k = 0.3222 0.6488 0.0000 ( 54179 PWs)   bands (ev):

   -68.2185 -68.2103 -35.1110 -35.0542 -34.9169 -34.7798 -34.6729 -34.6391
   -19.9248 -19.9193 -19.9154 -19.9121 -19.9079 -19.8985 -19.8889 -19.8672
   -19.8647 -19.8596 -19.8380 -19.8370 -19.8112 -19.8103 -11.6784  -6.4523
    -5.7046  -4.5694  -1.7654  -0.8652  -0.6338

          k = 0.3224-0.3712 0.0000 ( 54253 PWs)   bands (ev):

   -68.2266 -68.2108 -35.1636 -35.0756 -34.8469 -34.7584 -34.6402 -34.5491
   -19.9280 -19.9200 -19.9170 -19.9135 -19.9070 -19.8964 -19.8872 -19.8692
   -19.8645 -19.8576 -19.8337 -19.8318 -19.8154 -19.8136 -11.8101  -6.7391
    -5.2032  -4.7954  -2.5701  -0.6686  -0.4686

          k = 0.3224-0.2785 0.0000 ( 54297 PWs)   bands (ev):

   -68.2357 -68.2133 -35.1856 -35.0615 -34.8182 -34.7130 -34.6001 -34.4666
   -19.9318 -19.9197 -19.9190 -19.9129 -19.9067 -19.8948 -19.8859 -19.8699
   -19.8657 -19.8567 -19.8281 -19.8257 -19.8210 -19.8184 -11.9809  -6.9002
    -5.0213  -4.6582  -3.0727  -0.7122  -0.5647

          k = 0.3224-0.1858 0.0000 ( 54333 PWs)   bands (ev):

   -68.2441 -68.2167 -35.1942 -35.0049 -34.7782 -34.6882 -34.5683 -34.4259
   -19.9335 -19.9209 -19.9192 -19.9111 -19.9061 -19.8942 -19.8851 -19.8696
   -19.8677 -19.8574 -19.8266 -19.8235 -19.8229 -19.8208 -12.1410  -6.8314
    -5.2190  -4.3447  -3.0898  -1.1872  -0.6624

          k = 0.3224-0.0930 0.0000 ( 54358 PWs)   bands (ev):

   -68.2501 -68.2194 -35.2002 -34.9250 -34.7455 -34.6733 -34.5472 -34.4350
   -19.9328 -19.9232 -19.9175 -19.9121 -19.9037 -19.8948 -19.8846 -19.8708
   -19.8668 -19.8596 -19.8308 -19.8272 -19.8195 -19.8182 -12.2511  -6.4985
    -5.4283  -4.5606  -2.6302  -1.1753  -1.0509

          k = 0.3223-0.0003 0.0000 ( 54367 PWs)   bands (ev):

   -68.2522 -68.2205 -35.2029 -34.8770 -34.7515 -34.6602 -34.5248 -34.4604
   -19.9317 -19.9247 -19.9156 -19.9140 -19.9022 -19.8953 -19.8844 -19.8716
   -19.8652 -19.8613 -19.8323 -19.8286 -19.8181 -19.8177 -12.2902  -6.1423
    -5.6766  -4.7767  -2.1348  -1.6222  -0.5773

          k = 0.3223 0.0924 0.0000 ( 54356 PWs)   bands (ev):

   -68.2502 -68.2195 -35.2004 -34.9257 -34.7454 -34.6735 -34.5452 -34.4330
   -19.9328 -19.9233 -19.9176 -19.9119 -19.9039 -19.8946 -19.8847 -19.8708
   -19.8668 -19.8596 -19.8308 -19.8273 -19.8194 -19.8181 -12.2525  -6.5015
    -5.4311  -4.5521  -2.6335  -1.1750  -1.0495

          k = 0.4029 0.2314 0.0000 ( 54247 PWs)   bands (ev):

   -68.2317 -68.2121 -35.1999 -35.1240 -34.8357 -34.7137 -34.6018 -34.4469
   -19.9336 -19.9203 -19.9176 -19.9122 -19.9088 -19.8943 -19.8857 -19.8701
   -19.8653 -19.8548 -19.8298 -19.8263 -19.8184 -19.8162 -11.9312  -7.1577
    -5.0062  -4.4108  -3.4925  -0.4062  -0.1511

          k = 0.4029 0.3242 0.0000 ( 54228 PWs)   bands (ev):

   -68.2267 -68.2109 -35.1962 -35.1414 -34.8362 -34.7416 -34.6244 -34.4826
   -19.9323 -19.9201 -19.9168 -19.9127 -19.9091 -19.8951 -19.8861 -19.8697
   -19.8649 -19.8548 -19.8328 -19.8293 -19.8153 -19.8137 -11.8453  -7.1198
    -4.9228  -4.7130  -3.2852  -0.1287  -0.0587

          k = 0.4028 0.4169 0.0000 ( 54200 PWs)   bands (ev):

   -68.2217 -68.2103 -35.1574 -35.1179 -34.8167 -34.8132 -34.6505 -34.5609
   -19.9285 -19.9198 -19.9156 -19.9124 -19.9089 -19.8967 -19.8875 -19.8683
   -19.8654 -19.8567 -19.8361 -19.8336 -19.8127 -19.8115 -11.7460  -6.8373
    -5.2270  -4.7498  -2.6390  -0.3205  -0.2602

          k = 0.4028 0.5096 0.0000 ( 54199 PWs)   bands (ev):

   -68.2184 -68.2104 -35.1120 -35.0561 -34.9158 -34.7800 -34.6710 -34.6396
   -19.9249 -19.9192 -19.9155 -19.9120 -19.9080 -19.8984 -19.8890 -19.8674
   -19.8645 -19.8596 -19.8380 -19.8370 -19.8112 -19.8103 -11.6776  -6.4577
    -5.7016  -4.5708  -1.7590  -0.8889  -0.6276

          k = 0.4028 0.6023 0.0000 ( 54197 PWs)   bands (ev):

   -68.2183 -68.2103 -35.1121 -35.0560 -34.9164 -34.7800 -34.6717 -34.6400
   -19.9248 -19.9193 -19.9155 -19.9120 -19.9079 -19.8985 -19.8889 -19.8674
   -19.8645 -19.8596 -19.8380 -19.8370 -19.8112 -19.8103 -11.6770  -6.4569
    -5.7045  -4.5718  -1.7661  -0.8801  -0.6250

          k = 0.4028 0.6951 0.0000 ( 54200 PWs)   bands (ev):

   -68.2215 -68.2101 -35.1578 -35.1179 -34.8164 -34.8145 -34.6518 -34.5626
   -19.9285 -19.9199 -19.9156 -19.9125 -19.9088 -19.8968 -19.8874 -19.8683
   -19.8653 -19.8566 -19.8362 -19.8338 -19.8126 -19.8114 -11.7445  -6.8367
    -5.2336  -4.7514  -2.6434  -0.3139  -0.2537

          k = 0.4030-0.3249 0.0000 ( 54216 PWs)   bands (ev):

   -68.2263 -68.2107 -35.1966 -35.1415 -34.8359 -34.7422 -34.6270 -34.4852
   -19.9323 -19.9201 -19.9168 -19.9129 -19.9089 -19.8953 -19.8860 -19.8698
   -19.8648 -19.8547 -19.8330 -19.8296 -19.8151 -19.8135 -11.8431  -7.1186
    -4.9240  -4.7227  -3.2872  -0.1225  -0.0527

          k = 0.4030-0.2322 0.0000 ( 54244 PWs)   bands (ev):

   -68.2314 -68.2119 -35.2000 -35.1240 -34.8353 -34.7140 -34.6050 -34.4499
   -19.9336 -19.9203 -19.9176 -19.9125 -19.9087 -19.8945 -19.8855 -19.8701
   -19.8652 -19.8547 -19.8300 -19.8266 -19.8182 -19.8161 -11.9289  -7.1558
    -5.0060  -4.4237  -3.4912  -0.4014  -0.1459

          k = 0.4029-0.1395 0.0000 ( 54302 PWs)   bands (ev):

   -68.2356 -68.2132 -35.1862 -35.0630 -34.8196 -34.7125 -34.5995 -34.4665
   -19.9318 -19.9197 -19.9190 -19.9129 -19.9066 -19.8948 -19.8859 -19.8701
   -19.8655 -19.8566 -19.8281 -19.8257 -19.8209 -19.8184 -11.9794  -6.9037
    -5.0224  -4.6561  -3.0803  -0.7074  -0.5691

          k = 0.4029-0.0467 0.0000 ( 54293 PWs)   bands (ev):

   -68.2379 -68.2141 -35.1759 -34.9850 -34.8336 -34.7009 -34.5938 -34.5134
   -19.9280 -19.9222 -19.9175 -19.9150 -19.9041 -19.8956 -19.8864 -19.8708
   -19.8636 -19.8598 -19.8272 -19.8264 -19.8223 -19.8197 -11.9986  -6.4874
    -5.1476  -4.9949  -2.3994  -1.3036  -0.6017

          k = 0.4029 0.0460 0.0000 ( 54308 PWs)   bands (ev):

   -68.2380 -68.2142 -35.1760 -34.9855 -34.8333 -34.7011 -34.5928 -34.5123
   -19.9280 -19.9223 -19.9175 -19.9149 -19.9041 -19.8955 -19.8864 -19.8708
   -19.8635 -19.8598 -19.8272 -19.8263 -19.8224 -19.8197 -11.9993  -6.4892
    -5.1446  -4.9943  -2.3999  -1.3055  -0.5997

          k = 0.4029 0.1387 0.0000 ( 54285 PWs)   bands (ev):

   -68.2358 -68.2134 -35.1864 -35.0634 -34.8198 -34.7122 -34.5970 -34.4640
   -19.9318 -19.9198 -19.9190 -19.9128 -19.9068 -19.8946 -19.8860 -19.8702
   -19.8655 -19.8567 -19.8280 -19.8255 -19.8210 -19.8185 -11.9812  -6.9061
    -5.0236  -4.6462  -3.0818  -0.7088  -0.5730

          k =-0.4835-0.2777 0.0000 ( 54242 PWs)   bands (ev):

   -68.2266 -68.2109 -35.2144 -35.1640 -34.8440 -34.7256 -34.6150 -34.4557
   -19.9339 -19.9202 -19.9170 -19.9127 -19.9095 -19.8946 -19.8856 -19.8703
   -19.8643 -19.8537 -19.8323 -19.8283 -19.8152 -19.8136 -11.8620  -7.2688
    -4.9767  -4.4444  -3.6262   0.0848   0.1109

          k =-0.4835-0.1850 0.0000 ( 54192 PWs)   bands (ev):

   -68.2266 -68.2109 -35.1969 -35.1420 -34.8369 -34.7411 -34.6242 -34.4824
   -19.9323 -19.9201 -19.9168 -19.9127 -19.9091 -19.8951 -19.8861 -19.8699
   -19.8647 -19.8548 -19.8328 -19.8294 -19.8153 -19.8136 -11.8445  -7.1216
    -4.9264  -4.7085  -3.2894  -0.1293  -0.0596

          k =-0.4835-0.0923 0.0000 ( 54250 PWs)   bands (ev):

   -68.2265 -68.2108 -35.1649 -35.0780 -34.8477 -34.7574 -34.6382 -34.5475
   -19.9280 -19.9200 -19.9172 -19.9134 -19.9071 -19.8963 -19.8873 -19.8694
   -19.8642 -19.8576 -19.8337 -19.8317 -19.8154 -19.8136 -11.8093  -6.7461
    -5.1980  -4.7953  -2.5734  -0.6848  -0.4679

          k =-0.4835 0.0005 0.0000 ( 54244 PWs)   bands (ev):

   -68.2264 -68.2107 -35.1504 -35.0192 -34.8961 -34.7337 -34.6487 -34.5917
   -19.9236 -19.9226 -19.9162 -19.9148 -19.9056 -19.8972 -19.8879 -19.8695
   -19.8620 -19.8607 -19.8338 -19.8333 -19.8154 -19.8136 -11.7912  -6.4559
    -5.5144  -4.7282  -1.8360  -1.4026  -0.6725

          k =-0.4835 0.0932 0.0000 ( 54248 PWs)   bands (ev):

   -68.2263 -68.2107 -35.1648 -35.0777 -34.8480 -34.7577 -34.6396 -34.5491
   -19.9280 -19.9201 -19.9171 -19.9135 -19.9070 -19.8964 -19.8872 -19.8694
   -19.8642 -19.8576 -19.8338 -19.8318 -19.8153 -19.8135 -11.8081  -6.7446
    -5.2041  -4.7959  -2.5757  -0.6785  -0.4647

          k =-0.4835 0.1859 0.0000 ( 54189 PWs)   bands (ev):

   -68.2262 -68.2107 -35.1971 -35.1419 -34.8364 -34.7419 -34.6268 -34.4851
   -19.9323 -19.9201 -19.9168 -19.9129 -19.9089 -19.8953 -19.8860 -19.8698
   -19.8647 -19.8547 -19.8330 -19.8296 -19.8151 -19.8135 -11.8425  -7.1199
    -4.9270  -4.7190  -3.2902  -0.1233  -0.0531

          k =-0.4833-0.8341 0.0000 ( 54236 PWs)   bands (ev):

   -68.2262 -68.2106 -35.2148 -35.1639 -34.8434 -34.7260 -34.6183 -34.4587
   -19.9339 -19.9202 -19.9170 -19.9130 -19.9094 -19.8948 -19.8854 -19.8703
   -19.8643 -19.8536 -19.8325 -19.8285 -19.8150 -19.8134 -11.8597  -7.2671
    -4.9776  -4.4577  -3.6251   0.0920   0.1175

     highest occupied level (ev):     0.1175

!    total energy              =   -1373.25147545 Ry
     estimated scf accuracy    <          7.5E-13 Ry

     The total energy is the sum of the following terms:
     one-electron contribution =  -10891.88872750 Ry
     hartree contribution      =    5474.28012954 Ry
     xc contribution           =    -138.78159721 Ry
     ewald contribution        =    4183.13871972 Ry

     convergence has been achieved in  44 iterations

     negative rho (up, down):  7.993E-05 0.000E+00

     Forces acting on atoms (cartesian axes, Ry/au):

     atom    1 type  2   force =     0.00031069    0.00028321   -0.00017630
     atom    2 type  1   force =    -0.00026859   -0.00046441    0.00155259
     atom    3 type  1   force =    -0.00004210    0.00018120   -0.00137629

     Total force =     0.002151     Total SCF correction =     0.000010


     Computing stress (Cartesian axis) and pressure


     negative rho (up, down):  7.993E-05 0.000E+00
          total   stress  (Ry/bohr**3)                   (kbar)     P=        5.61
   0.00006701  -0.00000261   0.00000033            9.86       -0.38        0.05
  -0.00000261   0.00005198   0.00000093           -0.38        7.65        0.14
   0.00000033   0.00000093  -0.00000468            0.05        0.14       -0.69


     Writing output data file /scratch/as3359/Ta2C-CT-ecutoff/Ta2C.save/
 
     init_run     :     48.14s CPU     26.58s WALL (       1 calls)
     electrons    :   3602.58s CPU   1847.98s WALL (       1 calls)
     forces       :     16.82s CPU      8.74s WALL (       1 calls)
     stress       :     68.46s CPU     35.50s WALL (       1 calls)

     Called by init_run:
     wfcinit      :     35.30s CPU     18.07s WALL (       1 calls)
     potinit      :      3.35s CPU      1.71s WALL (       1 calls)
     hinit0       :      6.88s CPU      5.04s WALL (       1 calls)

     Called by electrons:
     c_bands      :   2837.18s CPU   1434.60s WALL (      44 calls)
     sum_band     :    635.30s CPU    333.84s WALL (      44 calls)
     v_of_rho     :     19.39s CPU     10.88s WALL (      45 calls)
     newd         :    103.84s CPU     65.15s WALL (      45 calls)
     mix_rho      :      6.89s CPU      3.75s WALL (      44 calls)

     Called by c_bands:
     init_us_2    :     84.85s CPU     42.49s WALL (    6734 calls)
     cegterg      :   2562.04s CPU   1296.36s WALL (    3256 calls)

     Called by *egterg:
     cdiaghg      :     20.86s CPU     10.69s WALL (   14997 calls)
     h_psi        :   2064.80s CPU   1046.83s WALL (   15071 calls)
     s_psi        :    118.35s CPU     59.23s WALL (   15071 calls)
     g_psi        :     12.79s CPU      6.42s WALL (   11741 calls)

     Called by h_psi:
     h_psi:calbec :     90.58s CPU     45.41s WALL (   15071 calls)
     vloc_psi     :   1833.20s CPU    930.69s WALL (   15071 calls)
     add_vuspsi   :    125.71s CPU     62.92s WALL (   15071 calls)

     General routines
     calbec       :    123.28s CPU     61.79s WALL (   18697 calls)
     fft          :     14.01s CPU      7.45s WALL (     608 calls)
     ffts         :      1.05s CPU      0.54s WALL (      89 calls)
     fftw         :   1877.16s CPU    954.60s WALL (  534798 calls)
     interpolate  :      1.78s CPU      0.91s WALL (      45 calls)
 
     Parallel routines
 
     PWSCF        :      1h 2m CPU  32m 2.89s WALL

 
   This run was terminated on:   1:29:24   7Apr2022            

=------------------------------------------------------------------------------=
   JOB DONE.
=------------------------------------------------------------------------------=
