
     Program PWSCF v.6.8 starts on  6Apr2022 at 19:55: 9 

     This program is part of the open-source Quantum ESPRESSO suite
     for quantum simulation of materials; please cite
         "P. Giannozzi et al., J. Phys.:Condens. Matter 21 395502 (2009);
         "P. Giannozzi et al., J. Phys.:Condens. Matter 29 465901 (2017);
         "P. Giannozzi et al., J. Chem. Phys. 152 154105 (2020);
          URL http://www.quantum-espresso.org", 
     in publications or presentations arising from this work. More details at
     http://www.quantum-espresso.org/quote

     Parallel version (MPI & OpenMP), running on       4 processor cores
     Number of MPI processes:                 2
     Threads/MPI process:                     2

     MPI processes distributed on     1 nodes
     R & G space division:  proc/nbgrp/npool/nimage =       2
     125231 MiB available memory on the printing compute node when the environment starts
 
     Reading input from Ta2C.scf.60.in

     Current dimensions of program PWSCF are:
     Max number of different atomic species (ntypx) = 10
     Max number of k-points (npk) =  40000
     Max angular momentum in pseudopotentials (lmaxx) =  4
     file Ta.pbesol-spfn-rrkjus_psl.1.0.0.UPF: wavefunction(s)  5S 5P renormalized

     Subspace diagonalization in iterative solution of the eigenvalue problem:
     a serial algorithm will be used

 
     Parallelization info
     --------------------
     sticks:   dense  smooth     PW     G-vecs:    dense   smooth      PW
     Min         337     274     89                69622    49839    9176
     Max         338     275     92                69657    49846    9177
     Sum         675     549    181               139279    99685   18353
 
     Using Slab Decomposition
 


     bravais-lattice index     =            0
     lattice parameter (alat)  =       5.5500  a.u.
     unit-cell volume          =    1588.7844 (a.u.)^3
     number of atoms/cell      =            3
     number of atomic types    =            2
     number of electrons       =        58.00
     number of Kohn-Sham states=           29
     kinetic-energy cutoff     =      60.0000  Ry
     charge density cutoff     =     300.0000  Ry
     scf convergence threshold =      1.0E-12
     mixing beta               =       0.7000
     number of iterations used =            8  plain     mixing
     Exchange-correlation= PBESOL
                           (   1   4  10   8   0   0   0)

     celldm(1)=   5.550000  celldm(2)=   0.000000  celldm(3)=   0.000000
     celldm(4)=   0.000000  celldm(5)=   0.000000  celldm(6)=   0.000000

     crystal axes: (cart. coord. in units of alat)
               a(1) = (   1.034114   0.000203   0.000000 )  
               a(2) = (  -0.516207   0.898604   0.000000 )  
               a(3) = (   0.000000   0.000000  10.000000 )  

     reciprocal axes: (cart. coord. in units 2 pi/alat)
               b(1) = (  0.966902  0.555441  0.000000 )  
               b(2) = ( -0.000219  1.112711  0.000000 )  
               b(3) = (  0.000000  0.000000  0.100000 )  


     PseudoPot. # 1 for Ta read from file:
     /shared/home/as3359/pseudo/Ta.pbesol-spfn-rrkjus_psl.1.0.0.UPF
     MD5 check sum: f099565ffaca9b150a52e9412a28e20b
     Pseudo is Ultrasoft + core correction, Zval = 27.0
     Generated using &quot;atomic&quot; code by A. Dal Corso  v.6.3
     Using radial grid of 1273 points,  8 beta functions with: 
                l(1) =   0
                l(2) =   0
                l(3) =   1
                l(4) =   1
                l(5) =   2
                l(6) =   2
                l(7) =   3
                l(8) =   3
     Q(r) pseudized with 0 coefficients 


     PseudoPot. # 2 for C  read from file:
     /shared/home/as3359/pseudo/C.pbesol-n-rrkjus_psl.1.0.0.UPF
     MD5 check sum: 05995be603a8a7c99da3dc4413f31573
     Pseudo is Ultrasoft + core correction, Zval =  4.0
     Generated using &quot;atomic&quot; code by A. Dal Corso  v.6.3MaX
     Using radial grid of 1073 points,  4 beta functions with: 
                l(1) =   0
                l(2) =   0
                l(3) =   1
                l(4) =   1
     Q(r) pseudized with 0 coefficients 


     atomic species   valence    mass     pseudopotential
        Ta            27.00   180.94788     Ta( 1.00)
        C              4.00    12.01070     C ( 1.00)

     No symmetry found



   Cartesian axes

     site n.     atom                  positions (alat units)
         1           C   tau(   1) = (   0.0000000   0.0000000   0.0000000  )
         2           Ta  tau(   2) = (   0.5174615   0.3004190  -0.4127129  )
         3           Ta  tau(   3) = (   0.0007158   0.5986355   0.4125272  )

     number of k points=    74
                       cart. coord. in units 2pi/alat
        k(    1) = (   0.0000000   0.0000000   0.0000000), wk =   0.0138889
        k(    2) = (  -0.0000182   0.0927259   0.0000000), wk =   0.0277778
        k(    3) = (  -0.0000364   0.1854519   0.0000000), wk =   0.0277778
        k(    4) = (  -0.0000547   0.2781778   0.0000000), wk =   0.0277778
        k(    5) = (  -0.0000729   0.3709037   0.0000000), wk =   0.0277778
        k(    6) = (  -0.0000911   0.4636296   0.0000000), wk =   0.0277778
        k(    7) = (   0.0001093  -0.5563556   0.0000000), wk =   0.0138889
        k(    8) = (   0.0805752   0.0462867   0.0000000), wk =   0.0277778
        k(    9) = (   0.0805570   0.1390127   0.0000000), wk =   0.0277778
        k(   10) = (   0.0805388   0.2317386   0.0000000), wk =   0.0277778
        k(   11) = (   0.0805205   0.3244645   0.0000000), wk =   0.0277778
        k(   12) = (   0.0805023   0.4171904   0.0000000), wk =   0.0277778
        k(   13) = (   0.0804841   0.5099164   0.0000000), wk =   0.0277778
        k(   14) = (   0.0806845  -0.5100688   0.0000000), wk =   0.0277778
        k(   15) = (   0.0806663  -0.4173429   0.0000000), wk =   0.0277778
        k(   16) = (   0.0806481  -0.3246170   0.0000000), wk =   0.0277778
        k(   17) = (   0.0806298  -0.2318910   0.0000000), wk =   0.0277778
        k(   18) = (   0.0806116  -0.1391651   0.0000000), wk =   0.0277778
        k(   19) = (   0.0805934  -0.0464392   0.0000000), wk =   0.0277778
        k(   20) = (   0.1611504   0.0925735   0.0000000), wk =   0.0277778
        k(   21) = (   0.1611322   0.1852994   0.0000000), wk =   0.0277778
        k(   22) = (   0.1611139   0.2780253   0.0000000), wk =   0.0277778
        k(   23) = (   0.1610957   0.3707513   0.0000000), wk =   0.0277778
        k(   24) = (   0.1610775   0.4634772   0.0000000), wk =   0.0277778
        k(   25) = (   0.1610593   0.5562031   0.0000000), wk =   0.0277778
        k(   26) = (   0.1612597  -0.4637821   0.0000000), wk =   0.0277778
        k(   27) = (   0.1612415  -0.3710561   0.0000000), wk =   0.0277778
        k(   28) = (   0.1612232  -0.2783302   0.0000000), wk =   0.0277778
        k(   29) = (   0.1612050  -0.1856043   0.0000000), wk =   0.0277778
        k(   30) = (   0.1611868  -0.0928784   0.0000000), wk =   0.0277778
        k(   31) = (   0.1611686  -0.0001524   0.0000000), wk =   0.0277778
        k(   32) = (   0.2417256   0.1388602   0.0000000), wk =   0.0277778
        k(   33) = (   0.2417073   0.2315862   0.0000000), wk =   0.0277778
        k(   34) = (   0.2416891   0.3243121   0.0000000), wk =   0.0277778
        k(   35) = (   0.2416709   0.4170380   0.0000000), wk =   0.0277778
        k(   36) = (   0.2416527   0.5097639   0.0000000), wk =   0.0277778
        k(   37) = (   0.2416345   0.6024899   0.0000000), wk =   0.0277778
        k(   38) = (   0.2418349  -0.4174953   0.0000000), wk =   0.0277778
        k(   39) = (   0.2418166  -0.3247694   0.0000000), wk =   0.0277778
        k(   40) = (   0.2417984  -0.2320435   0.0000000), wk =   0.0277778
        k(   41) = (   0.2417802  -0.1393175   0.0000000), wk =   0.0277778
        k(   42) = (   0.2417620  -0.0465916   0.0000000), wk =   0.0277778
        k(   43) = (   0.2417438   0.0461343   0.0000000), wk =   0.0277778
        k(   44) = (   0.3223007   0.1851470   0.0000000), wk =   0.0277778
        k(   45) = (   0.3222825   0.2778729   0.0000000), wk =   0.0277778
        k(   46) = (   0.3222643   0.3705988   0.0000000), wk =   0.0277778
        k(   47) = (   0.3222461   0.4633248   0.0000000), wk =   0.0277778
        k(   48) = (   0.3222279   0.5560507   0.0000000), wk =   0.0277778
        k(   49) = (   0.3222097   0.6487766   0.0000000), wk =   0.0277778
        k(   50) = (   0.3224100  -0.3712086   0.0000000), wk =   0.0277778
        k(   51) = (   0.3223918  -0.2784827   0.0000000), wk =   0.0277778
        k(   52) = (   0.3223736  -0.1857567   0.0000000), wk =   0.0277778
        k(   53) = (   0.3223554  -0.0930308   0.0000000), wk =   0.0277778
        k(   54) = (   0.3223372  -0.0003049   0.0000000), wk =   0.0277778
        k(   55) = (   0.3223190   0.0924210   0.0000000), wk =   0.0277778
        k(   56) = (   0.4028759   0.2314337   0.0000000), wk =   0.0277778
        k(   57) = (   0.4028577   0.3241596   0.0000000), wk =   0.0277778
        k(   58) = (   0.4028395   0.4168856   0.0000000), wk =   0.0277778
        k(   59) = (   0.4028213   0.5096115   0.0000000), wk =   0.0277778
        k(   60) = (   0.4028031   0.6023374   0.0000000), wk =   0.0277778
        k(   61) = (   0.4027848   0.6950633   0.0000000), wk =   0.0277778
        k(   62) = (   0.4029852  -0.3249218   0.0000000), wk =   0.0277778
        k(   63) = (   0.4029670  -0.2321959   0.0000000), wk =   0.0277778
        k(   64) = (   0.4029488  -0.1394700   0.0000000), wk =   0.0277778
        k(   65) = (   0.4029306  -0.0467441   0.0000000), wk =   0.0277778
        k(   66) = (   0.4029124   0.0459819   0.0000000), wk =   0.0277778
        k(   67) = (   0.4028941   0.1387078   0.0000000), wk =   0.0277778
        k(   68) = (  -0.4834511  -0.2777205   0.0000000), wk =   0.0138889
        k(   69) = (  -0.4834693  -0.1849945   0.0000000), wk =   0.0277778
        k(   70) = (  -0.4834875  -0.0922686   0.0000000), wk =   0.0277778
        k(   71) = (  -0.4835058   0.0004573   0.0000000), wk =   0.0277778
        k(   72) = (  -0.4835240   0.0931832   0.0000000), wk =   0.0277778
        k(   73) = (  -0.4835422   0.1859092   0.0000000), wk =   0.0277778
        k(   74) = (  -0.4833418  -0.8340760   0.0000000), wk =   0.0138889

     Dense  grid:   139279 G-vectors     FFT dimensions: (  32,  32, 320)

     Smooth grid:    99685 G-vectors     FFT dimensions: (  30,  30, 288)

     Estimated max dynamical RAM per process >     881.20 MB

     Estimated total dynamical RAM >       1.72 GB

     Check: negative core charge=   -0.000001

     Initial potential from superposition of free atoms

     starting charge   57.99842, renormalised to   58.00000

     negative rho (up, down):  8.408E-04 0.000E+00
     Starting wfcs are   38 randomized atomic wfcs

     total cpu time spent up to now is        7.3 secs

     Self-consistent Calculation

     iteration #  1     ecut=    60.00 Ry     beta= 0.70
     Davidson diagonalization with overlap
     ethr =  1.00E-02,  avg # of iterations =  2.1

     negative rho (up, down):  7.519E-04 0.000E+00

     total cpu time spent up to now is       17.6 secs

     total energy              =   -1372.41325626 Ry
     estimated scf accuracy    <       1.30634197 Ry

     iteration #  2     ecut=    60.00 Ry     beta= 0.70
     Davidson diagonalization with overlap
     ethr =  2.25E-03,  avg # of iterations =  7.9

     total cpu time spent up to now is       32.9 secs

     total energy              =   -1371.56296324 Ry
     estimated scf accuracy    <      10.27927526 Ry

     iteration #  3     ecut=    60.00 Ry     beta= 0.70
     Davidson diagonalization with overlap
     ethr =  2.25E-03,  avg # of iterations =  6.6

     total cpu time spent up to now is       47.4 secs

     total energy              =   -1373.20185226 Ry
     estimated scf accuracy    <       0.21696532 Ry

     iteration #  4     ecut=    60.00 Ry     beta= 0.70
     Davidson diagonalization with overlap
     ethr =  3.74E-04,  avg # of iterations =  7.1

     total cpu time spent up to now is       60.8 secs

     total energy              =   -1373.20774128 Ry
     estimated scf accuracy    <       0.84664005 Ry

     iteration #  5     ecut=    60.00 Ry     beta= 0.70
     Davidson diagonalization with overlap
     ethr =  3.74E-04,  avg # of iterations =  6.4

     total cpu time spent up to now is       73.3 secs

     total energy              =   -1373.24246453 Ry
     estimated scf accuracy    <       0.03936520 Ry

     iteration #  6     ecut=    60.00 Ry     beta= 0.70
     Davidson diagonalization with overlap
     ethr =  6.79E-05,  avg # of iterations =  3.5

     total cpu time spent up to now is       84.0 secs

     total energy              =   -1373.24114132 Ry
     estimated scf accuracy    <       0.01848177 Ry

     iteration #  7     ecut=    60.00 Ry     beta= 0.70
     Davidson diagonalization with overlap
     ethr =  3.19E-05,  avg # of iterations =  4.2

     negative rho (up, down):  3.935E-06 0.000E+00

     total cpu time spent up to now is       95.3 secs

     total energy              =   -1373.24266907 Ry
     estimated scf accuracy    <       0.00191600 Ry

     iteration #  8     ecut=    60.00 Ry     beta= 0.70
     Davidson diagonalization with overlap
     c_bands:  1 eigenvalues not converged
     c_bands:  1 eigenvalues not converged
     c_bands:  1 eigenvalues not converged
     ethr =  3.30E-06,  avg # of iterations =  6.6

     negative rho (up, down):  4.711E-04 0.000E+00

     total cpu time spent up to now is      109.0 secs

     total energy              =   -1373.24271326 Ry
     estimated scf accuracy    <       0.00423143 Ry

     iteration #  9     ecut=    60.00 Ry     beta= 0.70
     Davidson diagonalization with overlap
     ethr =  3.30E-06,  avg # of iterations =  2.8

     negative rho (up, down):  7.221E-04 0.000E+00

     total cpu time spent up to now is      119.5 secs

     total energy              =   -1373.24264984 Ry
     estimated scf accuracy    <       0.00209422 Ry

     iteration # 10     ecut=    60.00 Ry     beta= 0.70
     Davidson diagonalization with overlap
     ethr =  3.30E-06,  avg # of iterations =  5.2

     negative rho (up, down):  1.050E-03 0.000E+00

     total cpu time spent up to now is      131.0 secs

     total energy              =   -1373.24281649 Ry
     estimated scf accuracy    <       0.00004375 Ry

     iteration # 11     ecut=    60.00 Ry     beta= 0.70
     Davidson diagonalization with overlap
     ethr =  7.54E-08,  avg # of iterations =  7.3

     negative rho (up, down):  8.270E-04 0.000E+00

     total cpu time spent up to now is      144.6 secs

     total energy              =   -1373.24283636 Ry
     estimated scf accuracy    <       0.00018191 Ry

     iteration # 12     ecut=    60.00 Ry     beta= 0.70
     Davidson diagonalization with overlap
     ethr =  7.54E-08,  avg # of iterations =  3.0

     negative rho (up, down):  8.486E-04 0.000E+00

     total cpu time spent up to now is      155.0 secs

     total energy              =   -1373.24282862 Ry
     estimated scf accuracy    <       0.00009090 Ry

     iteration # 13     ecut=    60.00 Ry     beta= 0.70
     Davidson diagonalization with overlap
     ethr =  7.54E-08,  avg # of iterations =  5.8

     negative rho (up, down):  8.466E-04 0.000E+00

     total cpu time spent up to now is      167.3 secs

     total energy              =   -1373.24283750 Ry
     estimated scf accuracy    <       0.00000893 Ry

     iteration # 14     ecut=    60.00 Ry     beta= 0.70
     Davidson diagonalization with overlap
     ethr =  1.54E-08,  avg # of iterations =  3.5

     negative rho (up, down):  8.464E-04 0.000E+00

     total cpu time spent up to now is      177.8 secs

     total energy              =   -1373.24283671 Ry
     estimated scf accuracy    <       0.00001541 Ry

     iteration # 15     ecut=    60.00 Ry     beta= 0.70
     Davidson diagonalization with overlap
     ethr =  1.54E-08,  avg # of iterations =  2.4

     negative rho (up, down):  8.474E-04 0.000E+00

     total cpu time spent up to now is      188.0 secs

     total energy              =   -1373.24283673 Ry
     estimated scf accuracy    <       0.00000697 Ry

     iteration # 16     ecut=    60.00 Ry     beta= 0.70
     Davidson diagonalization with overlap
     ethr =  1.20E-08,  avg # of iterations =  1.9

     negative rho (up, down):  8.482E-04 0.000E+00

     total cpu time spent up to now is      197.7 secs

     total energy              =   -1373.24283650 Ry
     estimated scf accuracy    <       0.00000363 Ry

     iteration # 17     ecut=    60.00 Ry     beta= 0.70
     Davidson diagonalization with overlap
     ethr =  6.26E-09,  avg # of iterations =  6.2

     negative rho (up, down):  8.475E-04 0.000E+00

     total cpu time spent up to now is      209.8 secs

     total energy              =   -1373.24283711 Ry
     estimated scf accuracy    <       0.00000159 Ry

     iteration # 18     ecut=    60.00 Ry     beta= 0.70
     Davidson diagonalization with overlap
     ethr =  2.74E-09,  avg # of iterations =  1.6

     negative rho (up, down):  8.470E-04 0.000E+00

     total cpu time spent up to now is      219.4 secs

     total energy              =   -1373.24283706 Ry
     estimated scf accuracy    <       0.00000180 Ry

     iteration # 19     ecut=    60.00 Ry     beta= 0.70
     Davidson diagonalization with overlap
     ethr =  2.74E-09,  avg # of iterations =  1.1

     negative rho (up, down):  8.470E-04 0.000E+00

     total cpu time spent up to now is      228.8 secs

     total energy              =   -1373.24283698 Ry
     estimated scf accuracy    <       0.00000139 Ry

     iteration # 20     ecut=    60.00 Ry     beta= 0.70
     Davidson diagonalization with overlap
     ethr =  2.40E-09,  avg # of iterations =  2.4

     negative rho (up, down):  8.470E-04 0.000E+00

     total cpu time spent up to now is      238.9 secs

     total energy              =   -1373.24283701 Ry
     estimated scf accuracy    <       0.00000040 Ry

     iteration # 21     ecut=    60.00 Ry     beta= 0.70
     Davidson diagonalization with overlap
     ethr =  6.94E-10,  avg # of iterations =  4.7

     negative rho (up, down):  8.472E-04 0.000E+00

     total cpu time spent up to now is      249.9 secs

     total energy              =   -1373.24283704 Ry
     estimated scf accuracy    <          9.3E-09 Ry

     iteration # 22     ecut=    60.00 Ry     beta= 0.70
     Davidson diagonalization with overlap
     ethr =  1.60E-11,  avg # of iterations =  7.8

     negative rho (up, down):  8.473E-04 0.000E+00

     total cpu time spent up to now is      263.2 secs

     total energy              =   -1373.24283704 Ry
     estimated scf accuracy    <       0.00000002 Ry

     iteration # 23     ecut=    60.00 Ry     beta= 0.70
     Davidson diagonalization with overlap
     ethr =  1.60E-11,  avg # of iterations =  6.1

     negative rho (up, down):  8.473E-04 0.000E+00

     total cpu time spent up to now is      275.4 secs

     total energy              =   -1373.24283704 Ry
     estimated scf accuracy    <       0.00000013 Ry

     iteration # 24     ecut=    60.00 Ry     beta= 0.70
     Davidson diagonalization with overlap
     ethr =  1.60E-11,  avg # of iterations =  5.9

     negative rho (up, down):  8.473E-04 0.000E+00

     total cpu time spent up to now is      287.5 secs

     total energy              =   -1373.24283704 Ry
     estimated scf accuracy    <       0.00000003 Ry

     iteration # 25     ecut=    60.00 Ry     beta= 0.70
     Davidson diagonalization with overlap
     ethr =  1.60E-11,  avg # of iterations =  2.2

     negative rho (up, down):  8.473E-04 0.000E+00

     total cpu time spent up to now is      297.6 secs

     total energy              =   -1373.24283704 Ry
     estimated scf accuracy    <       0.00000002 Ry

     iteration # 26     ecut=    60.00 Ry     beta= 0.70
     Davidson diagonalization with overlap
     ethr =  1.60E-11,  avg # of iterations =  3.3

     negative rho (up, down):  8.473E-04 0.000E+00

     total cpu time spent up to now is      308.0 secs

     total energy              =   -1373.24283704 Ry
     estimated scf accuracy    <          4.3E-09 Ry

     iteration # 27     ecut=    60.00 Ry     beta= 0.70
     Davidson diagonalization with overlap
     ethr =  7.35E-12,  avg # of iterations =  1.9

     negative rho (up, down):  8.473E-04 0.000E+00

     total cpu time spent up to now is      317.8 secs

     total energy              =   -1373.24283704 Ry
     estimated scf accuracy    <          3.4E-09 Ry

     iteration # 28     ecut=    60.00 Ry     beta= 0.70
     Davidson diagonalization with overlap
     ethr =  5.93E-12,  avg # of iterations =  2.6

     negative rho (up, down):  8.473E-04 0.000E+00

     total cpu time spent up to now is      327.9 secs

     total energy              =   -1373.24283704 Ry
     estimated scf accuracy    <          1.7E-09 Ry

     iteration # 29     ecut=    60.00 Ry     beta= 0.70
     Davidson diagonalization with overlap
     ethr =  2.95E-12,  avg # of iterations =  1.5

     negative rho (up, down):  8.473E-04 0.000E+00

     total cpu time spent up to now is      337.4 secs

     total energy              =   -1373.24283704 Ry
     estimated scf accuracy    <          1.4E-09 Ry

     iteration # 30     ecut=    60.00 Ry     beta= 0.70
     Davidson diagonalization with overlap
     ethr =  2.34E-12,  avg # of iterations =  3.9

     negative rho (up, down):  8.473E-04 0.000E+00

     total cpu time spent up to now is      348.1 secs

     total energy              =   -1373.24283704 Ry
     estimated scf accuracy    <          1.8E-10 Ry

     iteration # 31     ecut=    60.00 Ry     beta= 0.70
     Davidson diagonalization with overlap
     ethr =  3.09E-13,  avg # of iterations =  6.4

     negative rho (up, down):  8.473E-04 0.000E+00

     total cpu time spent up to now is      360.0 secs

     total energy              =   -1373.24283704 Ry
     estimated scf accuracy    <          7.0E-12 Ry

     iteration # 32     ecut=    60.00 Ry     beta= 0.70
     Davidson diagonalization with overlap
     ethr =  1.00E-13,  avg # of iterations =  5.3

     negative rho (up, down):  8.473E-04 0.000E+00

     total cpu time spent up to now is      371.7 secs

     total energy              =   -1373.24283704 Ry
     estimated scf accuracy    <          1.4E-10 Ry

     iteration # 33     ecut=    60.00 Ry     beta= 0.70
     Davidson diagonalization with overlap
     ethr =  1.00E-13,  avg # of iterations =  1.9

     negative rho (up, down):  8.473E-04 0.000E+00

     total cpu time spent up to now is      381.5 secs

     total energy              =   -1373.24283704 Ry
     estimated scf accuracy    <          1.9E-10 Ry

     iteration # 34     ecut=    60.00 Ry     beta= 0.70
     Davidson diagonalization with overlap
     ethr =  1.00E-13,  avg # of iterations =  1.0

     negative rho (up, down):  8.473E-04 0.000E+00

     total cpu time spent up to now is      390.8 secs

     total energy              =   -1373.24283704 Ry
     estimated scf accuracy    <          1.8E-10 Ry

     iteration # 35     ecut=    60.00 Ry     beta= 0.70
     Davidson diagonalization with overlap
     ethr =  1.00E-13,  avg # of iterations =  3.0

     negative rho (up, down):  8.473E-04 0.000E+00

     total cpu time spent up to now is      401.1 secs

     total energy              =   -1373.24283704 Ry
     estimated scf accuracy    <          5.6E-11 Ry

     iteration # 36     ecut=    60.00 Ry     beta= 0.70
     Davidson diagonalization with overlap
     ethr =  1.00E-13,  avg # of iterations =  7.1

     negative rho (up, down):  8.473E-04 0.000E+00

     total cpu time spent up to now is      414.0 secs

     total energy              =   -1373.24283704 Ry
     estimated scf accuracy    <          3.1E-10 Ry

     iteration # 37     ecut=    60.00 Ry     beta= 0.70
     Davidson diagonalization with overlap
     ethr =  1.00E-13,  avg # of iterations =  3.6

     negative rho (up, down):  8.473E-04 0.000E+00

     total cpu time spent up to now is      424.4 secs

     total energy              =   -1373.24283704 Ry
     estimated scf accuracy    <          1.3E-10 Ry

     iteration # 38     ecut=    60.00 Ry     beta= 0.70
     Davidson diagonalization with overlap
     ethr =  1.00E-13,  avg # of iterations =  5.9

     negative rho (up, down):  8.473E-04 0.000E+00

     total cpu time spent up to now is      436.3 secs

     total energy              =   -1373.24283704 Ry
     estimated scf accuracy    <          2.0E-12 Ry

     iteration # 39     ecut=    60.00 Ry     beta= 0.70
     Davidson diagonalization with overlap
     ethr =  1.00E-13,  avg # of iterations =  1.0

     negative rho (up, down):  8.473E-04 0.000E+00

     total cpu time spent up to now is      445.6 secs

     End of self-consistent calculation

          k = 0.0000 0.0000 0.0000 ( 12407 PWs)   bands (ev):

   -68.2942 -68.2466 -35.3183 -34.7145 -34.4060 -34.4010 -34.3410 -34.3346
   -20.0054 -19.9918 -19.9666 -19.9661 -19.9603 -19.9599 -19.9339 -19.9333
   -19.9264 -19.9263 -19.9182 -19.9129 -19.8522 -19.8505 -13.2825  -7.6722
    -4.3955  -4.3522  -1.9322  -0.9015  -0.7279

          k =-0.0000 0.0927 0.0000 ( 12367 PWs)   bands (ev):

   -68.2904 -68.2441 -35.3056 -34.7197 -34.4530 -34.4173 -34.3849 -34.3408
   -20.0039 -19.9909 -19.9681 -19.9665 -19.9606 -19.9588 -19.9354 -19.9329
   -19.9267 -19.9257 -19.9154 -19.9101 -19.8547 -19.8533 -13.1686  -7.4521
    -4.7191  -4.3179  -1.8371  -1.0847  -0.5388

          k =-0.0000 0.1855 0.0000 ( 12418 PWs)   bands (ev):

   -68.2798 -68.2377 -35.2713 -34.7475 -34.5675 -34.5020 -34.4586 -34.3600
   -20.0000 -19.9885 -19.9718 -19.9676 -19.9617 -19.9565 -19.9391 -19.9319
   -19.9276 -19.9238 -19.9078 -19.9029 -19.8623 -19.8612 -12.8682  -6.8705
    -5.3799  -4.2553  -1.8318  -1.4655  -0.9853

          k =-0.0001 0.2782 0.0000 ( 12442 PWs)   bands (ev):

   -68.2649 -68.2292 -35.2278 -34.8510 -34.6644 -34.6438 -34.5114 -34.3891
   -19.9956 -19.9851 -19.9761 -19.9689 -19.9637 -19.9543 -19.9429 -19.9301
   -19.9285 -19.9209 -19.8972 -19.8932 -19.8723 -19.8711 -12.4881  -6.4554
    -5.6938  -4.2441  -2.4642  -1.5286  -1.0302

          k =-0.0001 0.3709 0.0000 ( 12458 PWs)   bands (ev):

   -68.2492 -68.2214 -35.1975 -35.0074 -34.7811 -34.6899 -34.5618 -34.4199
   -19.9932 -19.9810 -19.9792 -19.9704 -19.9664 -19.9535 -19.9451 -19.9293
   -19.9276 -19.9177 -19.8864 -19.8833 -19.8819 -19.8798 -12.1522  -6.8426
    -5.2258  -4.3037  -3.1011  -1.1930  -0.6704

          k =-0.0001 0.4636 0.0000 ( 12456 PWs)   bands (ev):

   -68.2368 -68.2167 -35.2015 -35.1259 -34.8399 -34.7145 -34.5977 -34.4432
   -19.9931 -19.9803 -19.9778 -19.9718 -19.9689 -19.9538 -19.9456 -19.9298
   -19.9254 -19.9150 -19.8888 -19.8853 -19.8783 -19.8761 -11.9406  -7.1638
    -5.0025  -4.3799  -3.5007  -0.4194  -0.1634

          k = 0.0001-0.5564 0.0000 ( 12480 PWs)   bands (ev):

   -68.2318 -68.2154 -35.2150 -35.1661 -34.8493 -34.7257 -34.6106 -34.4518
   -19.9935 -19.9803 -19.9772 -19.9723 -19.9696 -19.9541 -19.9455 -19.9299
   -19.9245 -19.9140 -19.8912 -19.8873 -19.8753 -19.8737 -11.8714  -7.2739
    -4.9698  -4.4129  -3.6341   0.0663   0.0955

          k = 0.0806 0.0463 0.0000 ( 12367 PWs)   bands (ev):

   -68.2903 -68.2441 -35.3055 -34.7197 -34.4509 -34.4202 -34.3816 -34.3445
   -20.0039 -19.9909 -19.9679 -19.9667 -19.9604 -19.9590 -19.9351 -19.9333
   -19.9268 -19.9257 -19.9154 -19.9101 -19.8547 -19.8533 -13.1680  -7.4512
    -4.6975  -4.3430  -1.8355  -1.0832  -0.5393

          k = 0.0806 0.1390 0.0000 ( 12377 PWs)   bands (ev):

   -68.2831 -68.2397 -35.2820 -34.7347 -34.5230 -34.4943 -34.4197 -34.3640
   -20.0011 -19.9892 -19.9703 -19.9679 -19.9609 -19.9573 -19.9378 -19.9325
   -19.9271 -19.9246 -19.9101 -19.9052 -19.8598 -19.8587 -12.9609  -7.0419
    -5.1746  -4.3264  -1.7373  -1.2945  -0.9150

          k = 0.0805 0.2317 0.0000 ( 12411 PWs)   bands (ev):

   -68.2704 -68.2322 -35.2425 -34.7930 -34.6326 -34.6081 -34.4779 -34.3962
   -19.9966 -19.9865 -19.9739 -19.9699 -19.9618 -19.9553 -19.9415 -19.9315
   -19.9272 -19.9226 -19.9011 -19.8967 -19.8686 -19.8678 -12.6202  -6.3912
    -5.7362  -4.4065  -1.9831  -1.4654  -1.1279

          k = 0.0805 0.3245 0.0000 ( 12464 PWs)   bands (ev):

   -68.2551 -68.2242 -35.2036 -34.9262 -34.7454 -34.6759 -34.5438 -34.4308
   -19.9926 -19.9831 -19.9775 -19.9716 -19.9638 -19.9541 -19.9446 -19.9304
   -19.9267 -19.9198 -19.8905 -19.8871 -19.8786 -19.8772 -12.2623  -6.5075
    -5.4381  -4.5307  -2.6337  -1.1774  -1.0497

          k = 0.0805 0.4172 0.0000 ( 12467 PWs)   bands (ev):

   -68.2409 -68.2181 -35.1882 -35.0639 -34.8211 -34.7142 -34.5946 -34.4614
   -19.9915 -19.9798 -19.9791 -19.9724 -19.9668 -19.9541 -19.9459 -19.9297
   -19.9257 -19.9169 -19.8872 -19.8847 -19.8808 -19.8784 -11.9912  -6.9094
    -5.0223  -4.6252  -3.0784  -0.7212  -0.5756

          k = 0.0805 0.5099 0.0000 ( 12505 PWs)   bands (ev):

   -68.2318 -68.2154 -35.1973 -35.1437 -34.8411 -34.7415 -34.6211 -34.4794
   -19.9918 -19.9802 -19.9770 -19.9724 -19.9691 -19.9546 -19.9461 -19.9295
   -19.9249 -19.9150 -19.8920 -19.8885 -19.8753 -19.8737 -11.8540  -7.1250
    -4.9179  -4.6887  -3.2874  -0.1443  -0.0743

          k = 0.0807-0.5101 0.0000 ( 12513 PWs)   bands (ev):

   -68.2317 -68.2154 -35.1975 -35.1438 -34.8414 -34.7413 -34.6210 -34.4793
   -19.9918 -19.9802 -19.9770 -19.9724 -19.9692 -19.9546 -19.9461 -19.9295
   -19.9249 -19.9150 -19.8920 -19.8885 -19.8753 -19.8737 -11.8538  -7.1254
    -4.9185  -4.6878  -3.2886  -0.1441  -0.0749

          k = 0.0807-0.4173 0.0000 ( 12470 PWs)   bands (ev):

   -68.2408 -68.2180 -35.1884 -35.0645 -34.8218 -34.7140 -34.5945 -34.4613
   -19.9915 -19.9798 -19.9791 -19.9724 -19.9668 -19.9541 -19.9459 -19.9298
   -19.9256 -19.9169 -19.8872 -19.8847 -19.8808 -19.8784 -11.9907  -6.9105
    -5.0223  -4.6247  -3.0815  -0.7190  -0.5778

          k = 0.0806-0.3246 0.0000 ( 12460 PWs)   bands (ev):

   -68.2550 -68.2241 -35.2036 -34.9269 -34.7461 -34.6761 -34.5437 -34.4308
   -19.9926 -19.9831 -19.9776 -19.9716 -19.9639 -19.9542 -19.9446 -19.9304
   -19.9266 -19.9198 -19.8905 -19.8870 -19.8787 -19.8772 -12.2615  -6.5084
    -5.4375  -4.5308  -2.6369  -1.1767  -1.0492

          k = 0.0806-0.2319 0.0000 ( 12406 PWs)   bands (ev):

   -68.2703 -68.2322 -35.2424 -34.7932 -34.6329 -34.6084 -34.4785 -34.3965
   -19.9966 -19.9865 -19.9739 -19.9699 -19.9618 -19.9553 -19.9415 -19.9315
   -19.9272 -19.9226 -19.9011 -19.8967 -19.8687 -19.8678 -12.6192  -6.3899
    -5.7358  -4.4080  -1.9846  -1.4642  -1.1277

          k = 0.0806-0.1392 0.0000 ( 12378 PWs)   bands (ev):

   -68.2831 -68.2396 -35.2818 -34.7346 -34.5226 -34.4940 -34.4206 -34.3652
   -20.0011 -19.9892 -19.9701 -19.9680 -19.9608 -19.9575 -19.9377 -19.9325
   -19.9271 -19.9246 -19.9101 -19.9052 -19.8599 -19.8588 -12.9602  -7.0406
    -5.1694  -4.3332  -1.7362  -1.2928  -0.9106

          k = 0.0806-0.0464 0.0000 ( 12371 PWs)   bands (ev):

   -68.2903 -68.2441 -35.3054 -34.7196 -34.4493 -34.4220 -34.3801 -34.3463
   -20.0039 -19.9909 -19.9676 -19.9670 -19.9602 -19.9592 -19.9349 -19.9334
   -19.9267 -19.9257 -19.9154 -19.9101 -19.8548 -19.8534 -13.1677  -7.4507
    -4.6879  -4.3538  -1.8347  -1.0821  -0.5369

          k = 0.1612 0.0926 0.0000 ( 12424 PWs)   bands (ev):

   -68.2796 -68.2375 -35.2709 -34.7471 -34.5665 -34.4996 -34.4623 -34.3641
   -20.0000 -19.9885 -19.9717 -19.9678 -19.9616 -19.9566 -19.9388 -19.9322
   -19.9276 -19.9237 -19.9077 -19.9029 -19.8625 -19.8614 -12.8660  -6.8673
    -5.3634  -4.2817  -1.8219  -1.4650  -0.9796

          k = 0.1611 0.1853 0.0000 ( 12425 PWs)   bands (ev):

   -68.2702 -68.2321 -35.2422 -34.7923 -34.6332 -34.6070 -34.4794 -34.3990
   -19.9966 -19.9866 -19.9738 -19.9700 -19.9617 -19.9554 -19.9414 -19.9316
   -19.9272 -19.9226 -19.9011 -19.8967 -19.8687 -19.8679 -12.6187  -6.3884
    -5.7288  -4.4212  -1.9716  -1.4691  -1.1330

          k = 0.1611 0.2780 0.0000 ( 12465 PWs)   bands (ev):

   -68.2570 -68.2251 -35.2060 -34.8758 -34.7516 -34.6615 -34.5254 -34.4600
   -19.9917 -19.9844 -19.9755 -19.9737 -19.9622 -19.9548 -19.9443 -19.9312
   -19.9251 -19.9216 -19.8919 -19.8884 -19.8773 -19.8769 -12.2999  -6.1422
    -5.6850  -4.7661  -2.1283  -1.6217  -0.5764

          k = 0.1611 0.3708 0.0000 ( 12486 PWs)   bands (ev):

   -68.2430 -68.2188 -35.1779 -34.9834 -34.8328 -34.7034 -34.5932 -34.5119
   -19.9879 -19.9821 -19.9774 -19.9747 -19.9641 -19.9551 -19.9463 -19.9304
   -19.9237 -19.9201 -19.8864 -19.8856 -19.8822 -19.8797 -12.0094  -6.4863
    -5.1426  -4.9869  -2.3905  -1.2999  -0.6060

          k = 0.1611 0.4635 0.0000 ( 12503 PWs)   bands (ev):

   -68.2316 -68.2153 -35.1652 -35.0777 -34.8478 -34.7608 -34.6375 -34.5467
   -19.9877 -19.9801 -19.9772 -19.9732 -19.9671 -19.9558 -19.9472 -19.9290
   -19.9245 -19.9179 -19.8930 -19.8910 -19.8754 -19.8736 -11.8186  -6.7448
    -5.1844  -4.7910  -2.5634  -0.6851  -0.4827

          k = 0.1611 0.5562 0.0000 ( 12515 PWs)   bands (ev):

   -68.2268 -68.2146 -35.1578 -35.1201 -34.8210 -34.8130 -34.6492 -34.5597
   -19.9881 -19.9799 -19.9758 -19.9721 -19.9690 -19.9562 -19.9474 -19.9280
   -19.9255 -19.9169 -19.8954 -19.8930 -19.8726 -19.8715 -11.7537  -6.8400
    -5.2133  -4.7436  -2.6316  -0.3346  -0.2789

          k = 0.1613-0.4638 0.0000 ( 12497 PWs)   bands (ev):

   -68.2315 -68.2153 -35.1657 -35.0785 -34.8486 -34.7604 -34.6374 -34.5466
   -19.9877 -19.9800 -19.9772 -19.9732 -19.9671 -19.9558 -19.9472 -19.9291
   -19.9244 -19.9178 -19.8930 -19.8910 -19.8753 -19.8735 -11.8179  -6.7464
    -5.1847  -4.7912  -2.5656  -0.6892  -0.4820

          k = 0.1612-0.3711 0.0000 ( 12484 PWs)   bands (ev):

   -68.2429 -68.2187 -35.1781 -34.9847 -34.8337 -34.7037 -34.5932 -34.5120
   -19.9879 -19.9821 -19.9775 -19.9747 -19.9641 -19.9552 -19.9463 -19.9304
   -19.9235 -19.9200 -19.8865 -19.8857 -19.8821 -19.8796 -12.0081  -6.4887
    -5.1421  -4.9875  -2.3946  -1.3028  -0.6044

          k = 0.1612-0.2783 0.0000 ( 12457 PWs)   bands (ev):

   -68.2569 -68.2250 -35.2058 -34.8765 -34.7525 -34.6619 -34.5261 -34.4607
   -19.9917 -19.9844 -19.9754 -19.9738 -19.9622 -19.9549 -19.9443 -19.9312
   -19.9251 -19.9215 -19.8918 -19.8883 -19.8774 -19.8770 -12.2982  -6.1427
    -5.6830  -4.7688  -2.1313  -1.6219  -0.5763

          k = 0.1612-0.1856 0.0000 ( 12438 PWs)   bands (ev):

   -68.2701 -68.2320 -35.2419 -34.7920 -34.6333 -34.6071 -34.4808 -34.4007
   -19.9966 -19.9866 -19.9737 -19.9702 -19.9616 -19.9556 -19.9414 -19.9316
   -19.9272 -19.9226 -19.9010 -19.8966 -19.8689 -19.8681 -12.6171  -6.3859
    -5.7249  -4.4286  -1.9681  -1.4696  -1.1343

          k = 0.1612-0.0929 0.0000 ( 12434 PWs)   bands (ev):

   -68.2795 -68.2375 -35.2707 -34.7467 -34.5658 -34.4984 -34.4644 -34.3661
   -20.0000 -19.9885 -19.9715 -19.9680 -19.9614 -19.9568 -19.9387 -19.9323
   -19.9276 -19.9238 -19.9077 -19.9028 -19.8626 -19.8615 -12.8650  -6.8655
    -5.3564  -4.2921  -1.8173  -1.4645  -0.9771

          k = 0.1612-0.0002 0.0000 ( 12366 PWs)   bands (ev):

   -68.2829 -68.2395 -35.2815 -34.7346 -34.5223 -34.4932 -34.4218 -34.3681
   -20.0011 -19.9892 -19.9700 -19.9682 -19.9607 -19.9575 -19.9374 -19.9328
   -19.9271 -19.9245 -19.9099 -19.9051 -19.8599 -19.8589 -12.9586  -7.0384
    -5.1558  -4.3526  -1.7341  -1.2892  -0.8990

          k = 0.2417 0.1389 0.0000 ( 12450 PWs)   bands (ev):

   -68.2645 -68.2290 -35.2270 -34.8503 -34.6655 -34.6419 -34.5161 -34.3938
   -19.9954 -19.9851 -19.9760 -19.9692 -19.9635 -19.9545 -19.9427 -19.9302
   -19.9286 -19.9208 -19.8971 -19.8930 -19.8726 -19.8713 -12.4842  -6.4481
    -5.6855  -4.2725  -2.4533  -1.5313  -1.0299

          k = 0.2417 0.2316 0.0000 ( 12459 PWs)   bands (ev):

   -68.2547 -68.2240 -35.2030 -34.9251 -34.7456 -34.6754 -34.5478 -34.4349
   -19.9926 -19.9831 -19.9774 -19.9718 -19.9637 -19.9542 -19.9445 -19.9304
   -19.9268 -19.9197 -19.8904 -19.8869 -19.8788 -19.8774 -12.2593  -6.4999
    -5.4359  -4.5520  -2.6243  -1.1784  -1.0547

          k = 0.2417 0.3243 0.0000 ( 12482 PWs)   bands (ev):

   -68.2428 -68.2187 -35.1777 -34.9826 -34.8335 -34.7028 -34.5957 -34.5140
   -19.9879 -19.9820 -19.9773 -19.9748 -19.9640 -19.9552 -19.9463 -19.9304
   -19.9238 -19.9200 -19.8866 -19.8857 -19.8821 -19.8796 -12.0078  -6.4820
    -5.1521  -4.9891  -2.3876  -1.2969  -0.6115

          k = 0.2417 0.4170 0.0000 ( 12477 PWs)   bands (ev):

   -68.2314 -68.2152 -35.1507 -35.0158 -34.8983 -34.7354 -34.6511 -34.5925
   -19.9833 -19.9826 -19.9761 -19.9747 -19.9655 -19.9567 -19.9478 -19.9291
   -19.9222 -19.9208 -19.8931 -19.8926 -19.8753 -19.8735 -11.7998  -6.4484
    -5.5116  -4.7251  -1.8263  -1.3902  -0.6835

          k = 0.2417 0.5098 0.0000 ( 12529 PWs)   bands (ev):

   -68.2233 -68.2147 -35.1122 -35.0562 -34.9172 -34.7831 -34.6721 -34.6405
   -19.9846 -19.9792 -19.9756 -19.9719 -19.9680 -19.9581 -19.9488 -19.9271
   -19.9246 -19.9198 -19.8974 -19.8965 -19.8712 -19.8703 -11.6845  -6.4555
    -5.6974  -4.5658  -1.7440  -0.8877  -0.6483

          k = 0.2416 0.6025 0.0000 ( 12531 PWs)   bands (ev):

   -68.2232 -68.2146 -35.1126 -35.0568 -34.9173 -34.7832 -34.6720 -34.6405
   -19.9846 -19.9792 -19.9756 -19.9719 -19.9680 -19.9581 -19.9488 -19.9271
   -19.9245 -19.9198 -19.8975 -19.8965 -19.8712 -19.8703 -11.6840  -6.4567
    -5.6977  -4.5666  -1.7441  -0.8944  -0.6447

          k = 0.2418-0.4175 0.0000 ( 12490 PWs)   bands (ev):

   -68.2312 -68.2151 -35.1513 -35.0172 -34.8987 -34.7357 -34.6512 -34.5927
   -19.9833 -19.9826 -19.9762 -19.9747 -19.9655 -19.9569 -19.9478 -19.9292
   -19.9222 -19.9207 -19.8932 -19.8927 -19.8752 -19.8734 -11.7985  -6.4506
    -5.5135  -4.7259  -1.8296  -1.3944  -0.6818

          k = 0.2418-0.3248 0.0000 ( 12482 PWs)   bands (ev):

   -68.2426 -68.2186 -35.1777 -34.9834 -34.8347 -34.7029 -34.5966 -34.5151
   -19.9879 -19.9820 -19.9773 -19.9749 -19.9640 -19.9554 -19.9462 -19.9304
   -19.9237 -19.9199 -19.8867 -19.8858 -19.8820 -19.8795 -12.0058  -6.4825
    -5.1546  -4.9903  -2.3912  -1.2980  -0.6118

          k = 0.2418-0.2320 0.0000 ( 12465 PWs)   bands (ev):

   -68.2545 -68.2238 -35.2027 -34.9252 -34.7464 -34.6754 -34.5497 -34.4370
   -19.9926 -19.9831 -19.9773 -19.9719 -19.9636 -19.9545 -19.9444 -19.9304
   -19.9268 -19.9197 -19.8903 -19.8868 -19.8790 -19.8776 -12.2571  -6.4979
    -5.4324  -4.5605  -2.6242  -1.1779  -1.0556

          k = 0.2418-0.1393 0.0000 ( 12454 PWs)   bands (ev):

   -68.2643 -68.2288 -35.2266 -34.8496 -34.6657 -34.6412 -34.5186 -34.3961
   -19.9954 -19.9851 -19.9759 -19.9694 -19.9633 -19.9547 -19.9426 -19.9302
   -19.9286 -19.9208 -19.8970 -19.8930 -19.8727 -19.8715 -12.4825  -6.4449
    -5.6807  -4.2834  -2.4491  -1.5321  -1.0295

          k = 0.2418-0.0466 0.0000 ( 12426 PWs)   bands (ev):

   -68.2699 -68.2319 -35.2416 -34.7931 -34.6334 -34.6081 -34.4816 -34.4017
   -19.9965 -19.9866 -19.9737 -19.9702 -19.9616 -19.9556 -19.9412 -19.9318
   -19.9272 -19.9225 -19.9009 -19.8966 -19.8689 -19.8681 -12.6150  -6.3839
    -5.7236  -4.4348  -1.9711  -1.4676  -1.1333

          k = 0.2417 0.0461 0.0000 ( 12421 PWs)   bands (ev):

   -68.2700 -68.2319 -35.2417 -34.7935 -34.6334 -34.6083 -34.4808 -34.4003
   -19.9965 -19.9866 -19.9738 -19.9700 -19.9617 -19.9555 -19.9413 -19.9317
   -19.9273 -19.9224 -19.9009 -19.8966 -19.8689 -19.8680 -12.6156  -6.3851
    -5.7271  -4.4289  -1.9761  -1.4658  -1.1318

          k = 0.3223 0.1851 0.0000 ( 12466 PWs)   bands (ev):

   -68.2486 -68.2211 -35.1970 -35.0074 -34.7805 -34.6906 -34.5674 -34.4253
   -19.9932 -19.9809 -19.9792 -19.9707 -19.9662 -19.9538 -19.9450 -19.9294
   -19.9276 -19.9175 -19.8862 -19.8831 -19.8823 -19.8801 -12.1471  -6.8369
    -5.2245  -4.3346  -3.0936  -1.1905  -0.6667

          k = 0.3223 0.2779 0.0000 ( 12476 PWs)   bands (ev):

   -68.2402 -68.2178 -35.1880 -35.0635 -34.8200 -34.7153 -34.5999 -34.4663
   -19.9915 -19.9797 -19.9789 -19.9726 -19.9667 -19.9543 -19.9458 -19.9297
   -19.9258 -19.9168 -19.8876 -19.8850 -19.8806 -19.8781 -11.9870  -6.9044
    -5.0249  -4.6508  -3.0727  -0.7179  -0.5685

          k = 0.3223 0.3706 0.0000 ( 12495 PWs)   bands (ev):

   -68.2311 -68.2152 -35.1654 -35.0774 -34.8480 -34.7609 -34.6412 -34.5497
   -19.9878 -19.9800 -19.9770 -19.9734 -19.9671 -19.9560 -19.9471 -19.9290
   -19.9246 -19.9177 -19.8932 -19.8912 -19.8752 -19.8734 -11.8156  -6.7420
    -5.1992  -4.7968  -2.5671  -0.6727  -0.4743

          k = 0.3222 0.4633 0.0000 ( 12514 PWs)   bands (ev):

   -68.2229 -68.2147 -35.1128 -35.0560 -34.9184 -34.7820 -34.6746 -34.6408
   -19.9846 -19.9792 -19.9754 -19.9720 -19.9679 -19.9582 -19.9487 -19.9271
   -19.9247 -19.9196 -19.8975 -19.8965 -19.8711 -19.8702 -11.6830  -6.4549
    -5.7040  -4.5699  -1.7595  -0.8689  -0.6415

          k = 0.3222 0.5561 0.0000 ( 12563 PWs)   bands (ev):

   -68.2174 -68.2169 -35.0411 -35.0390 -35.0039 -34.7829 -34.6869 -34.6844
   -19.9841 -19.9766 -19.9765 -19.9696 -19.9694 -19.9595 -19.9496 -19.9255
   -19.9252 -19.9210 -19.8991 -19.8988 -19.8695 -19.8692 -11.6325  -6.1145
    -6.1133  -4.4631  -1.0930  -0.9626  -0.9510

          k = 0.3222 0.6488 0.0000 ( 12514 PWs)   bands (ev):

   -68.2227 -68.2146 -35.1133 -35.0565 -34.9192 -34.7820 -34.6751 -34.6413
   -19.9846 -19.9793 -19.9755 -19.9720 -19.9679 -19.9583 -19.9487 -19.9271
   -19.9246 -19.9195 -19.8976 -19.8966 -19.8710 -19.8701 -11.6820  -6.4553
    -5.7072  -4.5716  -1.7668  -0.8667  -0.6354

          k = 0.3224-0.3712 0.0000 ( 12493 PWs)   bands (ev):

   -68.2308 -68.2150 -35.1659 -35.0779 -34.8491 -34.7608 -34.6424 -34.5512
   -19.9877 -19.9800 -19.9770 -19.9735 -19.9670 -19.9562 -19.9470 -19.9290
   -19.9244 -19.9176 -19.8933 -19.8914 -19.8750 -19.8733 -11.8138  -6.7422
    -5.2055  -4.7976  -2.5717  -0.6704  -0.4704

          k = 0.3224-0.2785 0.0000 ( 12484 PWs)   bands (ev):

   -68.2400 -68.2176 -35.1880 -35.0637 -34.8205 -34.7154 -34.6022 -34.4687
   -19.9915 -19.9796 -19.9789 -19.9728 -19.9666 -19.9545 -19.9457 -19.9297
   -19.9256 -19.9167 -19.8877 -19.8852 -19.8805 -19.8780 -11.9847  -6.9031
    -5.0237  -4.6602  -3.0744  -0.7144  -0.5669

          k = 0.3224-0.1858 0.0000 ( 12466 PWs)   bands (ev):

   -68.2484 -68.2209 -35.1966 -35.0071 -34.7804 -34.6907 -34.5703 -34.4280
   -19.9932 -19.9809 -19.9791 -19.9710 -19.9660 -19.9540 -19.9449 -19.9294
   -19.9275 -19.9175 -19.8860 -19.8830 -19.8825 -19.8803 -12.1449  -6.8341
    -5.2216  -4.3465  -3.0914  -1.1894  -0.6645

          k = 0.3224-0.0930 0.0000 ( 12469 PWs)   bands (ev):

   -68.2543 -68.2237 -35.2027 -34.9272 -34.7477 -34.6757 -34.5493 -34.4371
   -19.9926 -19.9831 -19.9774 -19.9720 -19.9636 -19.9545 -19.9443 -19.9306
   -19.9266 -19.9196 -19.8902 -19.8867 -19.8791 -19.8777 -12.2550  -6.5012
    -5.4310  -4.5625  -2.6317  -1.1773  -1.0528

          k = 0.3223-0.0003 0.0000 ( 12457 PWs)   bands (ev):

   -68.2565 -68.2247 -35.2054 -34.8793 -34.7537 -34.6626 -34.5269 -34.4625
   -19.9916 -19.9845 -19.9754 -19.9739 -19.9621 -19.9550 -19.9441 -19.9314
   -19.9251 -19.9213 -19.8917 -19.8881 -19.8776 -19.8772 -12.2942  -6.1450
    -5.6794  -4.7788  -2.1363  -1.6242  -0.5792

          k = 0.3223 0.0924 0.0000 ( 12465 PWs)   bands (ev):

   -68.2544 -68.2238 -35.2029 -34.9279 -34.7476 -34.6759 -34.5473 -34.4351
   -19.9925 -19.9831 -19.9775 -19.9718 -19.9638 -19.9543 -19.9444 -19.9306
   -19.9266 -19.9196 -19.8903 -19.8868 -19.8790 -19.8776 -12.2564  -6.5042
    -5.4338  -4.5541  -2.6350  -1.1771  -1.0514

          k = 0.4029 0.2314 0.0000 ( 12466 PWs)   bands (ev):

   -68.2359 -68.2164 -35.2022 -35.1263 -34.8380 -34.7162 -34.6039 -34.4490
   -19.9932 -19.9802 -19.9776 -19.9721 -19.9688 -19.9541 -19.9455 -19.9299
   -19.9252 -19.9148 -19.8892 -19.8858 -19.8779 -19.8758 -11.9349  -7.1608
    -5.0084  -4.4127  -3.4943  -0.4085  -0.1534

          k = 0.4029 0.3242 0.0000 ( 12504 PWs)   bands (ev):

   -68.2309 -68.2151 -35.1984 -35.1437 -34.8385 -34.7441 -34.6266 -34.4847
   -19.9919 -19.9801 -19.9768 -19.9726 -19.9691 -19.9549 -19.9460 -19.9296
   -19.9248 -19.9148 -19.8924 -19.8888 -19.8749 -19.8734 -11.8489  -7.1229
    -4.9249  -4.7151  -3.2869  -0.1309  -0.0610

          k = 0.4028 0.4169 0.0000 ( 12516 PWs)   bands (ev):

   -68.2260 -68.2145 -35.1596 -35.1202 -34.8190 -34.8155 -34.6528 -34.5630
   -19.9883 -19.9798 -19.9756 -19.9723 -19.9690 -19.9565 -19.9473 -19.9282
   -19.9253 -19.9167 -19.8957 -19.8932 -19.8723 -19.8713 -11.7496  -6.8404
    -5.2293  -4.7519  -2.6405  -0.3224  -0.2621

          k = 0.4028 0.5096 0.0000 ( 12525 PWs)   bands (ev):

   -68.2226 -68.2146 -35.1143 -35.0584 -34.9180 -34.7823 -34.6733 -34.6418
   -19.9846 -19.9792 -19.9756 -19.9720 -19.9680 -19.9583 -19.9487 -19.9273
   -19.9244 -19.9196 -19.8976 -19.8966 -19.8710 -19.8701 -11.6812  -6.4607
    -5.7042  -4.5730  -1.7605  -0.8904  -0.6292

          k = 0.4028 0.6023 0.0000 ( 12522 PWs)   bands (ev):

   -68.2225 -68.2146 -35.1143 -35.0583 -34.9187 -34.7822 -34.6740 -34.6422
   -19.9846 -19.9793 -19.9755 -19.9720 -19.9679 -19.9583 -19.9487 -19.9273
   -19.9245 -19.9195 -19.8976 -19.8967 -19.8709 -19.8701 -11.6806  -6.4600
    -5.7071  -4.5740  -1.7676  -0.8816  -0.6267

          k = 0.4028 0.6951 0.0000 ( 12510 PWs)   bands (ev):

   -68.2257 -68.2144 -35.1600 -35.1202 -34.8187 -34.8168 -34.6541 -34.5648
   -19.9882 -19.9799 -19.9756 -19.9724 -19.9688 -19.9566 -19.9472 -19.9282
   -19.9252 -19.9166 -19.8958 -19.8934 -19.8722 -19.8712 -11.7481  -6.8398
    -5.2359  -4.7535  -2.6450  -0.3158  -0.2557

          k = 0.4030-0.3249 0.0000 ( 12494 PWs)   bands (ev):

   -68.2305 -68.2149 -35.1988 -35.1438 -34.8383 -34.7447 -34.6291 -34.4873
   -19.9919 -19.9800 -19.9767 -19.9728 -19.9690 -19.9551 -19.9458 -19.9295
   -19.9247 -19.9148 -19.8926 -19.8891 -19.8748 -19.8732 -11.8467  -7.1217
    -4.9261  -4.7248  -3.2889  -0.1247  -0.0550

          k = 0.4030-0.2322 0.0000 ( 12474 PWs)   bands (ev):

   -68.2356 -68.2161 -35.2023 -35.1262 -34.8376 -34.7165 -34.6071 -34.4520
   -19.9932 -19.9801 -19.9775 -19.9724 -19.9686 -19.9543 -19.9454 -19.9299
   -19.9252 -19.9148 -19.8895 -19.8861 -19.8777 -19.8756 -11.9326  -7.1588
    -5.0082  -4.4256  -3.4930  -0.4037  -0.1482

          k = 0.4029-0.1395 0.0000 ( 12477 PWs)   bands (ev):

   -68.2398 -68.2175 -35.1886 -35.0652 -34.8218 -34.7149 -34.6017 -34.4686
   -19.9915 -19.9796 -19.9790 -19.9729 -19.9666 -19.9546 -19.9457 -19.9299
   -19.9254 -19.9167 -19.8878 -19.8853 -19.8804 -19.8780 -11.9831  -6.9066
    -5.0248  -4.6582  -3.0820  -0.7096  -0.5713

          k = 0.4029-0.0467 0.0000 ( 12494 PWs)   bands (ev):

   -68.2422 -68.2184 -35.1783 -34.9872 -34.8358 -34.7033 -34.5960 -34.5155
   -19.9879 -19.9821 -19.9774 -19.9749 -19.9640 -19.9554 -19.9461 -19.9306
   -19.9235 -19.9198 -19.8868 -19.8860 -19.8819 -19.8794 -12.0024  -6.4903
    -5.1499  -4.9972  -2.4010  -1.3053  -0.6032

          k = 0.4029 0.0460 0.0000 ( 12496 PWs)   bands (ev):

   -68.2423 -68.2184 -35.1784 -34.9877 -34.8355 -34.7035 -34.5950 -34.5144
   -19.9879 -19.9821 -19.9775 -19.9748 -19.9641 -19.9553 -19.9462 -19.9306
   -19.9235 -19.9199 -19.8868 -19.8859 -19.8820 -19.8794 -12.0031  -6.4921
    -5.1469  -4.9966  -2.4016  -1.3072  -0.6013

          k = 0.4029 0.1387 0.0000 ( 12469 PWs)   bands (ev):

   -68.2400 -68.2177 -35.1888 -35.0656 -34.8221 -34.7146 -34.5991 -34.4661
   -19.9915 -19.9797 -19.9790 -19.9727 -19.9667 -19.9544 -19.9457 -19.9300
   -19.9254 -19.9167 -19.8876 -19.8850 -19.8805 -19.8781 -11.9849  -6.9090
    -5.0259  -4.6482  -3.0834  -0.7109  -0.5751

          k =-0.4835-0.2777 0.0000 ( 12472 PWs)   bands (ev):

   -68.2308 -68.2151 -35.2166 -35.1663 -34.8463 -34.7281 -34.6171 -34.4578
   -19.9935 -19.9802 -19.9769 -19.9725 -19.9695 -19.9545 -19.9455 -19.9301
   -19.9243 -19.9138 -19.8917 -19.8877 -19.8748 -19.8734 -11.8656  -7.2719
    -4.9788  -4.4463  -3.6279   0.0825   0.1085

          k =-0.4835-0.1850 0.0000 ( 12508 PWs)   bands (ev):

   -68.2308 -68.2151 -35.1992 -35.1443 -34.8393 -34.7436 -34.6263 -34.4846
   -19.9919 -19.9801 -19.9768 -19.9727 -19.9691 -19.9549 -19.9460 -19.9297
   -19.9247 -19.9149 -19.8925 -19.8889 -19.8749 -19.8734 -11.8481  -7.1246
    -4.9285  -4.7106  -3.2911  -0.1315  -0.0619

          k =-0.4835-0.0923 0.0000 ( 12517 PWs)   bands (ev):

   -68.2307 -68.2150 -35.1672 -35.0803 -34.8500 -34.7598 -34.6404 -34.5496
   -19.9878 -19.9800 -19.9771 -19.9734 -19.9671 -19.9561 -19.9471 -19.9293
   -19.9242 -19.9177 -19.8933 -19.8913 -19.8751 -19.8733 -11.8130  -6.7492
    -5.2003  -4.7975  -2.5750  -0.6867  -0.4697

          k =-0.4835 0.0005 0.0000 ( 12499 PWs)   bands (ev):

   -68.2307 -68.2150 -35.1527 -35.0214 -34.8984 -34.7360 -34.6509 -34.5939
   -19.9834 -19.9826 -19.9763 -19.9747 -19.9655 -19.9570 -19.9477 -19.9293
   -19.9220 -19.9206 -19.8934 -19.8929 -19.8750 -19.8733 -11.7949  -6.4590
    -5.5167  -4.7305  -1.8378  -1.4040  -0.6740

          k =-0.4835 0.0932 0.0000 ( 12507 PWs)   bands (ev):

   -68.2306 -68.2149 -35.1671 -35.0800 -34.8502 -34.7600 -34.6418 -34.5513
   -19.9878 -19.9800 -19.9771 -19.9735 -19.9670 -19.9562 -19.9470 -19.9293
   -19.9242 -19.9176 -19.8934 -19.8915 -19.8750 -19.8732 -11.8118  -6.7477
    -5.2064  -4.7981  -2.5773  -0.6804  -0.4665

          k =-0.4835 0.1859 0.0000 ( 12502 PWs)   bands (ev):

   -68.2305 -68.2149 -35.1993 -35.1442 -34.8387 -34.7443 -34.6289 -34.4872
   -19.9919 -19.9800 -19.9767 -19.9728 -19.9689 -19.9551 -19.9458 -19.9296
   -19.9246 -19.9148 -19.8926 -19.8891 -19.8747 -19.8732 -11.8461  -7.1230
    -4.9291  -4.7211  -3.2919  -0.1254  -0.0554

          k =-0.4833-0.8341 0.0000 ( 12498 PWs)   bands (ev):

   -68.2304 -68.2149 -35.2170 -35.1662 -34.8458 -34.7285 -34.6204 -34.4608
   -19.9936 -19.9802 -19.9768 -19.9729 -19.9694 -19.9547 -19.9454 -19.9301
   -19.9243 -19.9137 -19.8919 -19.8881 -19.8746 -19.8732 -11.8633  -7.2702
    -4.9797  -4.4596  -3.6269   0.0898   0.1151

     highest occupied level (ev):     0.1151

!    total energy              =   -1373.24283704 Ry
     estimated scf accuracy    <          4.6E-13 Ry

     The total energy is the sum of the following terms:
     one-electron contribution =  -10891.75318531 Ry
     hartree contribution      =    5474.13909318 Ry
     xc contribution           =    -138.76746464 Ry
     ewald contribution        =    4183.13871972 Ry

     convergence has been achieved in  39 iterations

     negative rho (up, down):  8.473E-04 0.000E+00

     Forces acting on atoms (cartesian axes, Ry/au):

     atom    1 type  2   force =     0.00031057    0.00028303   -0.00017608
     atom    2 type  1   force =    -0.00026769   -0.00046553    0.00116104
     atom    3 type  1   force =    -0.00004289    0.00018251   -0.00098496

     Total force =     0.001625     Total SCF correction =     0.000009


     Computing stress (Cartesian axis) and pressure


     negative rho (up, down):  8.473E-04 0.000E+00
          total   stress  (Ry/bohr**3)                   (kbar)     P=        2.20
   0.00004377  -0.00000260   0.00000033            6.44       -0.38        0.05
  -0.00000260   0.00002876   0.00000093           -0.38        4.23        0.14
   0.00000033   0.00000093  -0.00002764            0.05        0.14       -4.07


     Writing output data file /scratch/as3359/Ta2C-CT-ecutoff/Ta2C.save/
 
     init_run     :     12.82s CPU      7.09s WALL (       1 calls)
     electrons    :    853.43s CPU    438.29s WALL (       1 calls)
     forces       :      3.92s CPU      2.03s WALL (       1 calls)
     stress       :     13.50s CPU      6.99s WALL (       1 calls)

     Called by init_run:
     wfcinit      :      9.37s CPU      4.82s WALL (       1 calls)
     potinit      :      0.77s CPU      0.39s WALL (       1 calls)
     hinit0       :      2.11s CPU      1.47s WALL (       1 calls)

     Called by electrons:
     c_bands      :    685.58s CPU    347.37s WALL (      39 calls)
     sum_band     :    142.57s CPU     75.55s WALL (      39 calls)
     v_of_rho     :      3.53s CPU      1.82s WALL (      40 calls)
     newd         :     20.65s CPU     13.02s WALL (      40 calls)
     mix_rho      :      1.17s CPU      0.60s WALL (      39 calls)

     Called by c_bands:
     init_us_2    :     17.49s CPU      8.79s WALL (    5994 calls)
     cegterg      :    627.30s CPU    317.97s WALL (    2886 calls)

     Called by *egterg:
     cdiaghg      :     20.77s CPU     10.65s WALL (   14930 calls)
     h_psi        :    511.88s CPU    259.85s WALL (   15004 calls)
     s_psi        :     19.00s CPU      9.54s WALL (   15004 calls)
     g_psi        :      2.80s CPU      1.41s WALL (   12044 calls)

     Called by h_psi:
     h_psi:calbec :     19.98s CPU     10.09s WALL (   15004 calls)
     vloc_psi     :    463.90s CPU    235.70s WALL (   15004 calls)
     add_vuspsi   :     24.26s CPU     12.18s WALL (   15004 calls)

     General routines
     calbec       :     26.67s CPU     13.47s WALL (   18260 calls)
     fft          :      1.88s CPU      0.98s WALL (     543 calls)
     ffts         :      0.20s CPU      0.11s WALL (      79 calls)
     fftw         :    491.06s CPU    249.63s WALL (  478406 calls)
     interpolate  :      0.31s CPU      0.17s WALL (      40 calls)
 
     Parallel routines
 
     PWSCF        :  14m45.36s CPU   7m35.97s WALL

 
   This run was terminated on:  20: 2:45   6Apr2022            

=------------------------------------------------------------------------------=
   JOB DONE.
=------------------------------------------------------------------------------=
