
     Program PWSCF v.6.8 starts on  6Apr2022 at 21: 0:34 

     This program is part of the open-source Quantum ESPRESSO suite
     for quantum simulation of materials; please cite
         "P. Giannozzi et al., J. Phys.:Condens. Matter 21 395502 (2009);
         "P. Giannozzi et al., J. Phys.:Condens. Matter 29 465901 (2017);
         "P. Giannozzi et al., J. Chem. Phys. 152 154105 (2020);
          URL http://www.quantum-espresso.org", 
     in publications or presentations arising from this work. More details at
     http://www.quantum-espresso.org/quote

     Parallel version (MPI & OpenMP), running on       4 processor cores
     Number of MPI processes:                 2
     Threads/MPI process:                     2

     MPI processes distributed on     1 nodes
     R & G space division:  proc/nbgrp/npool/nimage =       2
     124994 MiB available memory on the printing compute node when the environment starts
 
     Reading input from Ta2C.scf.95.in

     Current dimensions of program PWSCF are:
     Max number of different atomic species (ntypx) = 10
     Max number of k-points (npk) =  40000
     Max angular momentum in pseudopotentials (lmaxx) =  4
     file Ta.pbesol-spfn-rrkjus_psl.1.0.0.UPF: wavefunction(s)  5S 5P renormalized

     Subspace diagonalization in iterative solution of the eigenvalue problem:
     a serial algorithm will be used

 
     Parallelization info
     --------------------
     sticks:   dense  smooth     PW     G-vecs:    dense   smooth      PW
     Min         534     429    132               138744    99285   16997
     Max         535     430    133               138793    99290   17002
     Sum        1069     859    265               277537   198575   33999
 
     Using Slab Decomposition
 


     bravais-lattice index     =            0
     lattice parameter (alat)  =       5.5500  a.u.
     unit-cell volume          =    1588.7844 (a.u.)^3
     number of atoms/cell      =            3
     number of atomic types    =            2
     number of electrons       =        58.00
     number of Kohn-Sham states=           29
     kinetic-energy cutoff     =      95.0000  Ry
     charge density cutoff     =     475.0000  Ry
     scf convergence threshold =      1.0E-12
     mixing beta               =       0.7000
     number of iterations used =            8  plain     mixing
     Exchange-correlation= PBESOL
                           (   1   4  10   8   0   0   0)

     celldm(1)=   5.550000  celldm(2)=   0.000000  celldm(3)=   0.000000
     celldm(4)=   0.000000  celldm(5)=   0.000000  celldm(6)=   0.000000

     crystal axes: (cart. coord. in units of alat)
               a(1) = (   1.034114   0.000203   0.000000 )  
               a(2) = (  -0.516207   0.898604   0.000000 )  
               a(3) = (   0.000000   0.000000  10.000000 )  

     reciprocal axes: (cart. coord. in units 2 pi/alat)
               b(1) = (  0.966902  0.555441  0.000000 )  
               b(2) = ( -0.000219  1.112711  0.000000 )  
               b(3) = (  0.000000  0.000000  0.100000 )  


     PseudoPot. # 1 for Ta read from file:
     /shared/home/as3359/pseudo/Ta.pbesol-spfn-rrkjus_psl.1.0.0.UPF
     MD5 check sum: f099565ffaca9b150a52e9412a28e20b
     Pseudo is Ultrasoft + core correction, Zval = 27.0
     Generated using &quot;atomic&quot; code by A. Dal Corso  v.6.3
     Using radial grid of 1273 points,  8 beta functions with: 
                l(1) =   0
                l(2) =   0
                l(3) =   1
                l(4) =   1
                l(5) =   2
                l(6) =   2
                l(7) =   3
                l(8) =   3
     Q(r) pseudized with 0 coefficients 


     PseudoPot. # 2 for C  read from file:
     /shared/home/as3359/pseudo/C.pbesol-n-rrkjus_psl.1.0.0.UPF
     MD5 check sum: 05995be603a8a7c99da3dc4413f31573
     Pseudo is Ultrasoft + core correction, Zval =  4.0
     Generated using &quot;atomic&quot; code by A. Dal Corso  v.6.3MaX
     Using radial grid of 1073 points,  4 beta functions with: 
                l(1) =   0
                l(2) =   0
                l(3) =   1
                l(4) =   1
     Q(r) pseudized with 0 coefficients 


     atomic species   valence    mass     pseudopotential
        Ta            27.00   180.94788     Ta( 1.00)
        C              4.00    12.01070     C ( 1.00)

     No symmetry found



   Cartesian axes

     site n.     atom                  positions (alat units)
         1           C   tau(   1) = (   0.0000000   0.0000000   0.0000000  )
         2           Ta  tau(   2) = (   0.5174615   0.3004190  -0.4127129  )
         3           Ta  tau(   3) = (   0.0007158   0.5986355   0.4125272  )

     number of k points=    74
                       cart. coord. in units 2pi/alat
        k(    1) = (   0.0000000   0.0000000   0.0000000), wk =   0.0138889
        k(    2) = (  -0.0000182   0.0927259   0.0000000), wk =   0.0277778
        k(    3) = (  -0.0000364   0.1854519   0.0000000), wk =   0.0277778
        k(    4) = (  -0.0000547   0.2781778   0.0000000), wk =   0.0277778
        k(    5) = (  -0.0000729   0.3709037   0.0000000), wk =   0.0277778
        k(    6) = (  -0.0000911   0.4636296   0.0000000), wk =   0.0277778
        k(    7) = (   0.0001093  -0.5563556   0.0000000), wk =   0.0138889
        k(    8) = (   0.0805752   0.0462867   0.0000000), wk =   0.0277778
        k(    9) = (   0.0805570   0.1390127   0.0000000), wk =   0.0277778
        k(   10) = (   0.0805388   0.2317386   0.0000000), wk =   0.0277778
        k(   11) = (   0.0805205   0.3244645   0.0000000), wk =   0.0277778
        k(   12) = (   0.0805023   0.4171904   0.0000000), wk =   0.0277778
        k(   13) = (   0.0804841   0.5099164   0.0000000), wk =   0.0277778
        k(   14) = (   0.0806845  -0.5100688   0.0000000), wk =   0.0277778
        k(   15) = (   0.0806663  -0.4173429   0.0000000), wk =   0.0277778
        k(   16) = (   0.0806481  -0.3246170   0.0000000), wk =   0.0277778
        k(   17) = (   0.0806298  -0.2318910   0.0000000), wk =   0.0277778
        k(   18) = (   0.0806116  -0.1391651   0.0000000), wk =   0.0277778
        k(   19) = (   0.0805934  -0.0464392   0.0000000), wk =   0.0277778
        k(   20) = (   0.1611504   0.0925735   0.0000000), wk =   0.0277778
        k(   21) = (   0.1611322   0.1852994   0.0000000), wk =   0.0277778
        k(   22) = (   0.1611139   0.2780253   0.0000000), wk =   0.0277778
        k(   23) = (   0.1610957   0.3707513   0.0000000), wk =   0.0277778
        k(   24) = (   0.1610775   0.4634772   0.0000000), wk =   0.0277778
        k(   25) = (   0.1610593   0.5562031   0.0000000), wk =   0.0277778
        k(   26) = (   0.1612597  -0.4637821   0.0000000), wk =   0.0277778
        k(   27) = (   0.1612415  -0.3710561   0.0000000), wk =   0.0277778
        k(   28) = (   0.1612232  -0.2783302   0.0000000), wk =   0.0277778
        k(   29) = (   0.1612050  -0.1856043   0.0000000), wk =   0.0277778
        k(   30) = (   0.1611868  -0.0928784   0.0000000), wk =   0.0277778
        k(   31) = (   0.1611686  -0.0001524   0.0000000), wk =   0.0277778
        k(   32) = (   0.2417256   0.1388602   0.0000000), wk =   0.0277778
        k(   33) = (   0.2417073   0.2315862   0.0000000), wk =   0.0277778
        k(   34) = (   0.2416891   0.3243121   0.0000000), wk =   0.0277778
        k(   35) = (   0.2416709   0.4170380   0.0000000), wk =   0.0277778
        k(   36) = (   0.2416527   0.5097639   0.0000000), wk =   0.0277778
        k(   37) = (   0.2416345   0.6024899   0.0000000), wk =   0.0277778
        k(   38) = (   0.2418349  -0.4174953   0.0000000), wk =   0.0277778
        k(   39) = (   0.2418166  -0.3247694   0.0000000), wk =   0.0277778
        k(   40) = (   0.2417984  -0.2320435   0.0000000), wk =   0.0277778
        k(   41) = (   0.2417802  -0.1393175   0.0000000), wk =   0.0277778
        k(   42) = (   0.2417620  -0.0465916   0.0000000), wk =   0.0277778
        k(   43) = (   0.2417438   0.0461343   0.0000000), wk =   0.0277778
        k(   44) = (   0.3223007   0.1851470   0.0000000), wk =   0.0277778
        k(   45) = (   0.3222825   0.2778729   0.0000000), wk =   0.0277778
        k(   46) = (   0.3222643   0.3705988   0.0000000), wk =   0.0277778
        k(   47) = (   0.3222461   0.4633248   0.0000000), wk =   0.0277778
        k(   48) = (   0.3222279   0.5560507   0.0000000), wk =   0.0277778
        k(   49) = (   0.3222097   0.6487766   0.0000000), wk =   0.0277778
        k(   50) = (   0.3224100  -0.3712086   0.0000000), wk =   0.0277778
        k(   51) = (   0.3223918  -0.2784827   0.0000000), wk =   0.0277778
        k(   52) = (   0.3223736  -0.1857567   0.0000000), wk =   0.0277778
        k(   53) = (   0.3223554  -0.0930308   0.0000000), wk =   0.0277778
        k(   54) = (   0.3223372  -0.0003049   0.0000000), wk =   0.0277778
        k(   55) = (   0.3223190   0.0924210   0.0000000), wk =   0.0277778
        k(   56) = (   0.4028759   0.2314337   0.0000000), wk =   0.0277778
        k(   57) = (   0.4028577   0.3241596   0.0000000), wk =   0.0277778
        k(   58) = (   0.4028395   0.4168856   0.0000000), wk =   0.0277778
        k(   59) = (   0.4028213   0.5096115   0.0000000), wk =   0.0277778
        k(   60) = (   0.4028031   0.6023374   0.0000000), wk =   0.0277778
        k(   61) = (   0.4027848   0.6950633   0.0000000), wk =   0.0277778
        k(   62) = (   0.4029852  -0.3249218   0.0000000), wk =   0.0277778
        k(   63) = (   0.4029670  -0.2321959   0.0000000), wk =   0.0277778
        k(   64) = (   0.4029488  -0.1394700   0.0000000), wk =   0.0277778
        k(   65) = (   0.4029306  -0.0467441   0.0000000), wk =   0.0277778
        k(   66) = (   0.4029124   0.0459819   0.0000000), wk =   0.0277778
        k(   67) = (   0.4028941   0.1387078   0.0000000), wk =   0.0277778
        k(   68) = (  -0.4834511  -0.2777205   0.0000000), wk =   0.0138889
        k(   69) = (  -0.4834693  -0.1849945   0.0000000), wk =   0.0277778
        k(   70) = (  -0.4834875  -0.0922686   0.0000000), wk =   0.0277778
        k(   71) = (  -0.4835058   0.0004573   0.0000000), wk =   0.0277778
        k(   72) = (  -0.4835240   0.0931832   0.0000000), wk =   0.0277778
        k(   73) = (  -0.4835422   0.1859092   0.0000000), wk =   0.0277778
        k(   74) = (  -0.4833418  -0.8340760   0.0000000), wk =   0.0138889

     Dense  grid:   277537 G-vectors     FFT dimensions: (  40,  40, 400)

     Smooth grid:   198575 G-vectors     FFT dimensions: (  36,  36, 360)

     Estimated max dynamical RAM per process >       1.71 GB

     Estimated total dynamical RAM >       3.42 GB

     Initial potential from superposition of free atoms

     starting charge   57.99842, renormalised to   58.00000

     negative rho (up, down):  3.447E-04 0.000E+00
     Starting wfcs are   38 randomized atomic wfcs

     total cpu time spent up to now is       12.3 secs

     Self-consistent Calculation

     iteration #  1     ecut=    95.00 Ry     beta= 0.70
     Davidson diagonalization with overlap
     ethr =  1.00E-02,  avg # of iterations =  2.1

     negative rho (up, down):  1.372E-04 0.000E+00

     total cpu time spent up to now is       29.4 secs

     total energy              =   -1372.42602706 Ry
     estimated scf accuracy    <       1.29367554 Ry

     iteration #  2     ecut=    95.00 Ry     beta= 0.70
     Davidson diagonalization with overlap
     c_bands:  1 eigenvalues not converged
     ethr =  2.23E-03,  avg # of iterations =  7.1

     total cpu time spent up to now is       54.3 secs

     total energy              =   -1371.84489963 Ry
     estimated scf accuracy    <       8.68184156 Ry

     iteration #  3     ecut=    95.00 Ry     beta= 0.70
     Davidson diagonalization with overlap
     ethr =  2.23E-03,  avg # of iterations =  5.9

     total cpu time spent up to now is       77.6 secs

     total energy              =   -1373.20874461 Ry
     estimated scf accuracy    <       0.15709074 Ry

     iteration #  4     ecut=    95.00 Ry     beta= 0.70
     Davidson diagonalization with overlap
     ethr =  2.71E-04,  avg # of iterations =  7.5

     total cpu time spent up to now is      100.2 secs

     total energy              =   -1373.22524658 Ry
     estimated scf accuracy    <       0.57176659 Ry

     iteration #  5     ecut=    95.00 Ry     beta= 0.70
     Davidson diagonalization with overlap
     ethr =  2.71E-04,  avg # of iterations =  6.4

     total cpu time spent up to now is      120.6 secs

     total energy              =   -1373.24733087 Ry
     estimated scf accuracy    <       0.03346505 Ry

     iteration #  6     ecut=    95.00 Ry     beta= 0.70
     Davidson diagonalization with overlap
     ethr =  5.77E-05,  avg # of iterations =  4.1

     total cpu time spent up to now is      138.7 secs

     total energy              =   -1373.24827116 Ry
     estimated scf accuracy    <       0.00997035 Ry

     iteration #  7     ecut=    95.00 Ry     beta= 0.70
     Davidson diagonalization with overlap
     ethr =  1.72E-05,  avg # of iterations =  5.8

     negative rho (up, down):  9.895E-08 0.000E+00

     total cpu time spent up to now is      158.4 secs

     total energy              =   -1373.24970641 Ry
     estimated scf accuracy    <       0.00131433 Ry

     iteration #  8     ecut=    95.00 Ry     beta= 0.70
     Davidson diagonalization with overlap
     c_bands:  1 eigenvalues not converged
     c_bands:  1 eigenvalues not converged
     ethr =  2.27E-06,  avg # of iterations =  6.6

     negative rho (up, down):  1.266E-04 0.000E+00

     total cpu time spent up to now is      179.6 secs

     total energy              =   -1373.25006167 Ry
     estimated scf accuracy    <       0.00084088 Ry

     iteration #  9     ecut=    95.00 Ry     beta= 0.70
     Davidson diagonalization with overlap
     ethr =  1.45E-06,  avg # of iterations =  3.0

     negative rho (up, down):  2.466E-04 0.000E+00

     total cpu time spent up to now is      197.0 secs

     total energy              =   -1373.25008046 Ry
     estimated scf accuracy    <       0.00019420 Ry

     iteration # 10     ecut=    95.00 Ry     beta= 0.70
     Davidson diagonalization with overlap
     ethr =  3.35E-07,  avg # of iterations =  6.2

     negative rho (up, down):  2.739E-04 0.000E+00

     total cpu time spent up to now is      217.3 secs

     total energy              =   -1373.25012063 Ry
     estimated scf accuracy    <       0.00006825 Ry

     iteration # 11     ecut=    95.00 Ry     beta= 0.70
     Davidson diagonalization with overlap
     ethr =  1.18E-07,  avg # of iterations =  2.2

     negative rho (up, down):  2.466E-04 0.000E+00

     total cpu time spent up to now is      233.7 secs

     total energy              =   -1373.25011354 Ry
     estimated scf accuracy    <       0.00004898 Ry

     iteration # 12     ecut=    95.00 Ry     beta= 0.70
     Davidson diagonalization with overlap
     ethr =  8.44E-08,  avg # of iterations =  6.1

     negative rho (up, down):  2.410E-04 0.000E+00

     total cpu time spent up to now is      254.0 secs

     total energy              =   -1373.25012083 Ry
     estimated scf accuracy    <       0.00001954 Ry

     iteration # 13     ecut=    95.00 Ry     beta= 0.70
     Davidson diagonalization with overlap
     ethr =  3.37E-08,  avg # of iterations =  3.0

     negative rho (up, down):  2.415E-04 0.000E+00

     total cpu time spent up to now is      271.2 secs

     total energy              =   -1373.25012117 Ry
     estimated scf accuracy    <       0.00000718 Ry

     iteration # 14     ecut=    95.00 Ry     beta= 0.70
     Davidson diagonalization with overlap
     ethr =  1.24E-08,  avg # of iterations =  5.8

     negative rho (up, down):  2.439E-04 0.000E+00

     total cpu time spent up to now is      290.5 secs

     total energy              =   -1373.25012207 Ry
     estimated scf accuracy    <       0.00000029 Ry

     iteration # 15     ecut=    95.00 Ry     beta= 0.70
     Davidson diagonalization with overlap
     ethr =  5.04E-10,  avg # of iterations =  6.5

     negative rho (up, down):  2.435E-04 0.000E+00

     total cpu time spent up to now is      312.2 secs

     total energy              =   -1373.25012215 Ry
     estimated scf accuracy    <       0.00000015 Ry

     iteration # 16     ecut=    95.00 Ry     beta= 0.70
     Davidson diagonalization with overlap
     ethr =  2.55E-10,  avg # of iterations =  3.8

     negative rho (up, down):  2.433E-04 0.000E+00

     total cpu time spent up to now is      329.7 secs

     total energy              =   -1373.25012216 Ry
     estimated scf accuracy    <       0.00000002 Ry

     iteration # 17     ecut=    95.00 Ry     beta= 0.70
     Davidson diagonalization with overlap
     c_bands:  1 eigenvalues not converged
     ethr =  3.80E-11,  avg # of iterations =  7.2

     negative rho (up, down):  2.432E-04 0.000E+00

     total cpu time spent up to now is      351.9 secs

     total energy              =   -1373.25012217 Ry
     estimated scf accuracy    <       0.00000004 Ry

     iteration # 18     ecut=    95.00 Ry     beta= 0.70
     Davidson diagonalization with overlap
     ethr =  3.80E-11,  avg # of iterations =  1.0

     negative rho (up, down):  2.432E-04 0.000E+00

     total cpu time spent up to now is      367.2 secs

     total energy              =   -1373.25012217 Ry
     estimated scf accuracy    <       0.00000004 Ry

     iteration # 19     ecut=    95.00 Ry     beta= 0.70
     Davidson diagonalization with overlap
     ethr =  3.80E-11,  avg # of iterations =  1.1

     negative rho (up, down):  2.432E-04 0.000E+00

     total cpu time spent up to now is      382.8 secs

     total energy              =   -1373.25012216 Ry
     estimated scf accuracy    <       0.00000003 Ry

     iteration # 20     ecut=    95.00 Ry     beta= 0.70
     Davidson diagonalization with overlap
     ethr =  3.80E-11,  avg # of iterations =  1.5

     negative rho (up, down):  2.431E-04 0.000E+00

     total cpu time spent up to now is      399.1 secs

     total energy              =   -1373.25012216 Ry
     estimated scf accuracy    <       0.00000002 Ry

     iteration # 21     ecut=    95.00 Ry     beta= 0.70
     Davidson diagonalization with overlap
     ethr =  3.46E-11,  avg # of iterations =  5.1

     negative rho (up, down):  2.431E-04 0.000E+00

     total cpu time spent up to now is      418.4 secs

     total energy              =   -1373.25012217 Ry
     estimated scf accuracy    <          1.4E-09 Ry

     iteration # 22     ecut=    95.00 Ry     beta= 0.70
     Davidson diagonalization with overlap
     ethr =  2.35E-12,  avg # of iterations =  5.9

     negative rho (up, down):  2.431E-04 0.000E+00

     total cpu time spent up to now is      438.9 secs

     total energy              =   -1373.25012217 Ry
     estimated scf accuracy    <          4.3E-09 Ry

     iteration # 23     ecut=    95.00 Ry     beta= 0.70
     Davidson diagonalization with overlap
     ethr =  2.35E-12,  avg # of iterations =  5.1

     negative rho (up, down):  2.430E-04 0.000E+00

     total cpu time spent up to now is      458.0 secs

     total energy              =   -1373.25012217 Ry
     estimated scf accuracy    <          9.3E-11 Ry

     iteration # 24     ecut=    95.00 Ry     beta= 0.70
     Davidson diagonalization with overlap
     ethr =  1.60E-13,  avg # of iterations =  7.0

     negative rho (up, down):  2.430E-04 0.000E+00

     total cpu time spent up to now is      481.2 secs

     total energy              =   -1373.25012217 Ry
     estimated scf accuracy    <          2.1E-10 Ry

     iteration # 25     ecut=    95.00 Ry     beta= 0.70
     Davidson diagonalization with overlap
     ethr =  1.60E-13,  avg # of iterations =  2.9

     negative rho (up, down):  2.430E-04 0.000E+00

     total cpu time spent up to now is      499.5 secs

     total energy              =   -1373.25012217 Ry
     estimated scf accuracy    <          3.8E-10 Ry

     iteration # 26     ecut=    95.00 Ry     beta= 0.70
     Davidson diagonalization with overlap
     ethr =  1.60E-13,  avg # of iterations =  4.2

     negative rho (up, down):  2.430E-04 0.000E+00

     total cpu time spent up to now is      519.0 secs

     total energy              =   -1373.25012217 Ry
     estimated scf accuracy    <          8.3E-10 Ry

     iteration # 27     ecut=    95.00 Ry     beta= 0.70
     Davidson diagonalization with overlap
     ethr =  1.60E-13,  avg # of iterations =  1.9

     negative rho (up, down):  2.430E-04 0.000E+00

     total cpu time spent up to now is      535.8 secs

     total energy              =   -1373.25012217 Ry
     estimated scf accuracy    <          6.1E-10 Ry

     iteration # 28     ecut=    95.00 Ry     beta= 0.70
     Davidson diagonalization with overlap
     ethr =  1.60E-13,  avg # of iterations =  4.7

     negative rho (up, down):  2.430E-04 0.000E+00

     total cpu time spent up to now is      555.0 secs

     total energy              =   -1373.25012217 Ry
     estimated scf accuracy    <          1.7E-10 Ry

     iteration # 29     ecut=    95.00 Ry     beta= 0.70
     Davidson diagonalization with overlap
     ethr =  1.60E-13,  avg # of iterations =  1.5

     negative rho (up, down):  2.430E-04 0.000E+00

     total cpu time spent up to now is      571.1 secs

     total energy              =   -1373.25012217 Ry
     estimated scf accuracy    <          1.3E-10 Ry

     iteration # 30     ecut=    95.00 Ry     beta= 0.70
     Davidson diagonalization with overlap
     ethr =  1.60E-13,  avg # of iterations =  1.0

     negative rho (up, down):  2.430E-04 0.000E+00

     total cpu time spent up to now is      586.8 secs

     total energy              =   -1373.25012217 Ry
     estimated scf accuracy    <          1.2E-10 Ry

     iteration # 31     ecut=    95.00 Ry     beta= 0.70
     Davidson diagonalization with overlap
     ethr =  1.60E-13,  avg # of iterations =  4.5

     negative rho (up, down):  2.430E-04 0.000E+00

     total cpu time spent up to now is      605.8 secs

     total energy              =   -1373.25012217 Ry
     estimated scf accuracy    <          2.5E-12 Ry

     iteration # 32     ecut=    95.00 Ry     beta= 0.70
     Davidson diagonalization with overlap
     ethr =  1.00E-13,  avg # of iterations =  2.2

     negative rho (up, down):  2.430E-04 0.000E+00

     total cpu time spent up to now is      622.6 secs

     End of self-consistent calculation

          k = 0.0000 0.0000 0.0000 ( 24763 PWs)   bands (ev):

   -68.2907 -68.2431 -35.3159 -34.7122 -34.4040 -34.3991 -34.3390 -34.3327
   -19.9482 -19.9344 -19.9092 -19.9087 -19.9033 -19.9029 -19.8766 -19.8760
   -19.8688 -19.8687 -19.8616 -19.8562 -19.7951 -19.7936 -13.2791  -7.6699
    -4.3946  -4.3513  -1.9299  -0.8999  -0.7271

          k =-0.0000 0.0927 0.0000 ( 24745 PWs)   bands (ev):

   -68.2869 -68.2407 -35.3032 -34.7174 -34.4511 -34.4153 -34.3830 -34.3389
   -19.9466 -19.9335 -19.9107 -19.9091 -19.9035 -19.9018 -19.8782 -19.8757
   -19.8691 -19.8681 -19.8587 -19.8535 -19.7979 -19.7965 -13.1652  -7.4498
    -4.7180  -4.3170  -1.8350  -1.0835  -0.5380

          k =-0.0000 0.1855 0.0000 ( 24799 PWs)   bands (ev):

   -68.2763 -68.2342 -35.2690 -34.7452 -34.5655 -34.5000 -34.4566 -34.3580
   -19.9427 -19.9310 -19.9144 -19.9101 -19.9046 -19.8993 -19.8818 -19.8746
   -19.8700 -19.8662 -19.8510 -19.8463 -19.8053 -19.8042 -12.8647  -6.8683
    -5.3784  -4.2542  -1.8303  -1.4644  -0.9842

          k =-0.0001 0.2782 0.0000 ( 24789 PWs)   bands (ev):

   -68.2614 -68.2257 -35.2254 -34.8489 -34.6623 -34.6417 -34.5095 -34.3871
   -19.9382 -19.9276 -19.9187 -19.9115 -19.9063 -19.8971 -19.8856 -19.8727
   -19.8711 -19.8632 -19.8404 -19.8363 -19.8152 -19.8140 -12.4848  -6.4535
    -5.6917  -4.2429  -2.4633  -1.5273  -1.0288

          k =-0.0001 0.3709 0.0000 ( 24842 PWs)   bands (ev):

   -68.2458 -68.2180 -35.1953 -35.0054 -34.7791 -34.6876 -34.5599 -34.4180
   -19.9359 -19.9234 -19.9218 -19.9131 -19.9090 -19.8962 -19.8878 -19.8719
   -19.8701 -19.8600 -19.8295 -19.8263 -19.8249 -19.8227 -12.1490  -6.8406
    -5.2239  -4.3025  -3.1001  -1.1915  -0.6688

          k =-0.0001 0.4636 0.0000 ( 24852 PWs)   bands (ev):

   -68.2333 -68.2132 -35.1994 -35.1239 -34.8378 -34.7121 -34.5958 -34.4412
   -19.9359 -19.9229 -19.9203 -19.9144 -19.9113 -19.8965 -19.8882 -19.8724
   -19.8678 -19.8573 -19.8318 -19.8284 -19.8212 -19.8190 -11.9376  -7.1615
    -5.0009  -4.3787  -3.4996  -0.4178  -0.1617

          k = 0.0001-0.5564 0.0000 ( 24872 PWs)   bands (ev):

   -68.2283 -68.2119 -35.2130 -35.1640 -34.8471 -34.7234 -34.6087 -34.4498
   -19.9362 -19.9228 -19.9197 -19.9149 -19.9120 -19.8968 -19.8881 -19.8726
   -19.8669 -19.8563 -19.8343 -19.8303 -19.8180 -19.8164 -11.8684  -7.2715
    -4.9684  -4.4116  -3.6329   0.0679   0.0973

          k = 0.0806 0.0463 0.0000 ( 24749 PWs)   bands (ev):

   -68.2868 -68.2406 -35.3031 -34.7173 -34.4489 -34.4182 -34.3797 -34.3425
   -19.9466 -19.9335 -19.9105 -19.9093 -19.9034 -19.9019 -19.8779 -19.8760
   -19.8692 -19.8680 -19.8587 -19.8535 -19.7979 -19.7965 -13.1646  -7.4489
    -4.6963  -4.3421  -1.8333  -1.0819  -0.5385

          k = 0.0806 0.1390 0.0000 ( 24777 PWs)   bands (ev):

   -68.2797 -68.2362 -35.2796 -34.7324 -34.5210 -34.4923 -34.4178 -34.3621
   -19.9438 -19.9318 -19.9128 -19.9106 -19.9037 -19.9002 -19.8806 -19.8752
   -19.8695 -19.8670 -19.8534 -19.8486 -19.8030 -19.8019 -12.9575  -7.0396
    -5.1732  -4.3253  -1.7354  -1.2937  -0.9141

          k = 0.0805 0.2317 0.0000 ( 24775 PWs)   bands (ev):

   -68.2669 -68.2287 -35.2402 -34.7908 -34.6306 -34.6060 -34.4760 -34.3943
   -19.9392 -19.9291 -19.9165 -19.9125 -19.9045 -19.8981 -19.8843 -19.8741
   -19.8697 -19.8649 -19.8443 -19.8399 -19.8116 -19.8108 -12.6168  -6.3890
    -5.7345  -4.4053  -1.9822  -1.4641  -1.1267

          k = 0.0805 0.3245 0.0000 ( 24815 PWs)   bands (ev):

   -68.2516 -68.2207 -35.2013 -34.9242 -34.7433 -34.6737 -34.5418 -34.4288
   -19.9352 -19.9256 -19.9201 -19.9142 -19.9064 -19.8968 -19.8873 -19.8730
   -19.8693 -19.8621 -19.8336 -19.8300 -19.8215 -19.8202 -12.2591  -6.5055
    -5.4361  -4.5295  -2.6328  -1.1760  -1.0484

          k = 0.0805 0.4172 0.0000 ( 24849 PWs)   bands (ev):

   -68.2374 -68.2146 -35.1860 -35.0618 -34.8191 -34.7119 -34.5927 -34.4594
   -19.9342 -19.9223 -19.9216 -19.9150 -19.9093 -19.8968 -19.8885 -19.8723
   -19.8682 -19.8593 -19.8301 -19.8276 -19.8238 -19.8212 -11.9881  -6.9072
    -5.0206  -4.6238  -3.0774  -0.7197  -0.5742

          k = 0.0805 0.5099 0.0000 ( 24865 PWs)   bands (ev):

   -68.2283 -68.2119 -35.1953 -35.1416 -34.8390 -34.7392 -34.6191 -34.4774
   -19.9346 -19.9226 -19.9195 -19.9149 -19.9115 -19.8972 -19.8886 -19.8721
   -19.8674 -19.8573 -19.8348 -19.8314 -19.8181 -19.8164 -11.8510  -7.1226
    -4.9164  -4.6873  -3.2864  -0.1428  -0.0727

          k = 0.0807-0.5101 0.0000 ( 24856 PWs)   bands (ev):

   -68.2282 -68.2119 -35.1955 -35.1417 -34.8393 -34.7391 -34.6191 -34.4773
   -19.9346 -19.9226 -19.9195 -19.9149 -19.9115 -19.8972 -19.8886 -19.8721
   -19.8673 -19.8573 -19.8349 -19.8314 -19.8181 -19.8164 -11.8508  -7.1230
    -4.9170  -4.6864  -3.2876  -0.1426  -0.0732

          k = 0.0807-0.4173 0.0000 ( 24852 PWs)   bands (ev):

   -68.2373 -68.2145 -35.1862 -35.0624 -34.8198 -34.7117 -34.5925 -34.4593
   -19.9342 -19.9223 -19.9216 -19.9150 -19.9093 -19.8968 -19.8885 -19.8724
   -19.8681 -19.8592 -19.8301 -19.8277 -19.8238 -19.8212 -11.9876  -6.9082
    -5.0206  -4.6233  -3.0805  -0.7175  -0.5763

          k = 0.0806-0.3246 0.0000 ( 24827 PWs)   bands (ev):

   -68.2515 -68.2206 -35.2013 -34.9249 -34.7441 -34.6739 -34.5418 -34.4289
   -19.9352 -19.9256 -19.9201 -19.9141 -19.9064 -19.8969 -19.8873 -19.8730
   -19.8692 -19.8621 -19.8335 -19.8299 -19.8216 -19.8202 -12.2583  -6.5065
    -5.4355  -4.5296  -2.6360  -1.1753  -1.0479

          k = 0.0806-0.2319 0.0000 ( 24769 PWs)   bands (ev):

   -68.2668 -68.2287 -35.2400 -34.7910 -34.6308 -34.6064 -34.4766 -34.3946
   -19.9392 -19.9291 -19.9165 -19.9125 -19.9045 -19.8982 -19.8842 -19.8741
   -19.8697 -19.8649 -19.8442 -19.8399 -19.8117 -19.8109 -12.6159  -6.3878
    -5.7341  -4.4068  -1.9837  -1.4628  -1.1264

          k = 0.0806-0.1392 0.0000 ( 24774 PWs)   bands (ev):

   -68.2796 -68.2361 -35.2795 -34.7323 -34.5206 -34.4921 -34.4187 -34.3633
   -19.9438 -19.9318 -19.9127 -19.9107 -19.9036 -19.9004 -19.8805 -19.8753
   -19.8695 -19.8670 -19.8534 -19.8485 -19.8031 -19.8019 -12.9568  -7.0383
    -5.1681  -4.3322  -1.7342  -1.2921  -0.9096

          k = 0.0806-0.0464 0.0000 ( 24747 PWs)   bands (ev):

   -68.2868 -68.2406 -35.3031 -34.7173 -34.4474 -34.4201 -34.3782 -34.3444
   -19.9466 -19.9335 -19.9103 -19.9095 -19.9032 -19.9021 -19.8777 -19.8761
   -19.8691 -19.8681 -19.8587 -19.8535 -19.7980 -19.7966 -13.1643  -7.4484
    -4.6868  -4.3529  -1.8326  -1.0809  -0.5361

          k = 0.1612 0.0926 0.0000 ( 24785 PWs)   bands (ev):

   -68.2761 -68.2340 -35.2685 -34.7448 -34.5646 -34.4976 -34.4604 -34.3622
   -19.9426 -19.9310 -19.9143 -19.9104 -19.9044 -19.8994 -19.8815 -19.8749
   -19.8701 -19.8661 -19.8509 -19.8462 -19.8055 -19.8044 -12.8626  -6.8650
    -5.3619  -4.2807  -1.8204  -1.4639  -0.9785

          k = 0.1611 0.1853 0.0000 ( 24764 PWs)   bands (ev):

   -68.2668 -68.2286 -35.2398 -34.7901 -34.6311 -34.6050 -34.4775 -34.3970
   -19.9392 -19.9291 -19.9164 -19.9127 -19.9044 -19.8982 -19.8842 -19.8742
   -19.8698 -19.8649 -19.8442 -19.8399 -19.8117 -19.8109 -12.6154  -6.3863
    -5.7270  -4.4200  -1.9707  -1.4677  -1.1318

          k = 0.1611 0.2780 0.0000 ( 24821 PWs)   bands (ev):

   -68.2536 -68.2216 -35.2036 -34.8737 -34.7496 -34.6594 -34.5234 -34.4581
   -19.9342 -19.9270 -19.9181 -19.9163 -19.9048 -19.8975 -19.8870 -19.8738
   -19.8677 -19.8640 -19.8350 -19.8313 -19.8202 -19.8198 -12.2966  -6.1402
    -5.6830  -4.7647  -2.1275  -1.6204  -0.5751

          k = 0.1611 0.3708 0.0000 ( 24876 PWs)   bands (ev):

   -68.2395 -68.2153 -35.1756 -34.9814 -34.8308 -34.7012 -34.5913 -34.5100
   -19.9304 -19.9247 -19.9199 -19.9172 -19.9066 -19.8977 -19.8890 -19.8730
   -19.8662 -19.8625 -19.8293 -19.8285 -19.8251 -19.8225 -12.0062  -6.4841
    -5.1410  -4.9853  -2.3895  -1.2988  -0.6051

          k = 0.1611 0.4635 0.0000 ( 24892 PWs)   bands (ev):

   -68.2281 -68.2118 -35.1631 -35.0757 -34.8457 -34.7586 -34.6354 -34.5447
   -19.9304 -19.9225 -19.9197 -19.9157 -19.9096 -19.8985 -19.8898 -19.8716
   -19.8670 -19.8603 -19.8358 -19.8338 -19.8182 -19.8164 -11.8155  -6.7425
    -5.1828  -4.7895  -2.5625  -0.6839  -0.4815

          k = 0.1611 0.5562 0.0000 ( 24871 PWs)   bands (ev):

   -68.2233 -68.2112 -35.1558 -35.1180 -34.8189 -34.8109 -34.6471 -34.5577
   -19.9308 -19.9223 -19.9183 -19.9147 -19.9114 -19.8989 -19.8900 -19.8705
   -19.8679 -19.8593 -19.8382 -19.8358 -19.8154 -19.8142 -11.7507  -6.8376
    -5.2117  -4.7421  -2.6307  -0.3333  -0.2776

          k = 0.1613-0.4638 0.0000 ( 24893 PWs)   bands (ev):

   -68.2280 -68.2118 -35.1636 -35.0765 -34.8466 -34.7582 -34.6353 -34.5446
   -19.9304 -19.9225 -19.9197 -19.9157 -19.9096 -19.8985 -19.8898 -19.8716
   -19.8668 -19.8602 -19.8358 -19.8339 -19.8181 -19.8163 -11.8149  -6.7441
    -5.1831  -4.7897  -2.5647  -0.6880  -0.4808

          k = 0.1612-0.3711 0.0000 ( 24876 PWs)   bands (ev):

   -68.2394 -68.2152 -35.1759 -34.9827 -34.8316 -34.7015 -34.5912 -34.5100
   -19.9304 -19.9247 -19.9200 -19.9172 -19.9066 -19.8978 -19.8890 -19.8730
   -19.8661 -19.8624 -19.8294 -19.8285 -19.8250 -19.8224 -12.0049  -6.4865
    -5.1405  -4.9859  -2.3936  -1.3017  -0.6035

          k = 0.1612-0.2783 0.0000 ( 24825 PWs)   bands (ev):

   -68.2534 -68.2215 -35.2035 -34.8744 -34.7505 -34.6597 -34.5241 -34.4588
   -19.9342 -19.9270 -19.9180 -19.9163 -19.9047 -19.8977 -19.8870 -19.8738
   -19.8676 -19.8639 -19.8349 -19.8312 -19.8203 -19.8199 -12.2949  -6.1407
    -5.6809  -4.7674  -2.1305  -1.6205  -0.5750

          k = 0.1612-0.1856 0.0000 ( 24765 PWs)   bands (ev):

   -68.2666 -68.2285 -35.2396 -34.7898 -34.6313 -34.6051 -34.4789 -34.3988
   -19.9392 -19.9291 -19.9162 -19.9128 -19.9043 -19.8984 -19.8841 -19.8742
   -19.8698 -19.8649 -19.8441 -19.8398 -19.8118 -19.8110 -12.6137  -6.3837
    -5.7231  -4.4274  -1.9672  -1.4683  -1.1330

          k = 0.1612-0.0929 0.0000 ( 24772 PWs)   bands (ev):

   -68.2760 -68.2340 -35.2683 -34.7444 -34.5638 -34.4965 -34.4625 -34.3642
   -19.9426 -19.9310 -19.9141 -19.9106 -19.9042 -19.8996 -19.8814 -19.8750
   -19.8701 -19.8661 -19.8508 -19.8461 -19.8055 -19.8044 -12.8616  -6.8632
    -5.3549  -4.2910  -1.8159  -1.4634  -0.9760

          k = 0.1612-0.0002 0.0000 ( 24778 PWs)   bands (ev):

   -68.2795 -68.2360 -35.2792 -34.7323 -34.5203 -34.4913 -34.4198 -34.3662
   -19.9438 -19.9318 -19.9126 -19.9108 -19.9036 -19.9005 -19.8802 -19.8756
   -19.8696 -19.8669 -19.8533 -19.8485 -19.8032 -19.8020 -12.9552  -7.0361
    -5.1544  -4.3516  -1.7322  -1.2885  -0.8981

          k = 0.2417 0.1389 0.0000 ( 24775 PWs)   bands (ev):

   -68.2610 -68.2255 -35.2246 -34.8481 -34.6634 -34.6398 -34.5142 -34.3919
   -19.9381 -19.9276 -19.9186 -19.9118 -19.9061 -19.8973 -19.8854 -19.8729
   -19.8711 -19.8632 -19.8402 -19.8361 -19.8154 -19.8142 -12.4809  -6.4462
    -5.6835  -4.2714  -2.4524  -1.5299  -1.0284

          k = 0.2417 0.2316 0.0000 ( 24807 PWs)   bands (ev):

   -68.2512 -68.2205 -35.2007 -34.9231 -34.7436 -34.6732 -34.5458 -34.4329
   -19.9352 -19.9256 -19.9200 -19.9143 -19.9063 -19.8970 -19.8872 -19.8730
   -19.8694 -19.8621 -19.8334 -19.8298 -19.8217 -19.8204 -12.2561  -6.4980
    -5.4338  -4.5507  -2.6234  -1.1769  -1.0534

          k = 0.2417 0.3243 0.0000 ( 24890 PWs)   bands (ev):

   -68.2393 -68.2152 -35.1754 -34.9805 -34.8315 -34.7006 -34.5937 -34.5120
   -19.9305 -19.9246 -19.9198 -19.9173 -19.9066 -19.8978 -19.8889 -19.8729
   -19.8663 -19.8624 -19.8294 -19.8285 -19.8250 -19.8224 -12.0046  -6.4798
    -5.1505  -4.9875  -2.3866  -1.2958  -0.6106

          k = 0.2417 0.4170 0.0000 ( 24921 PWs)   bands (ev):

   -68.2279 -68.2118 -35.1486 -35.0138 -34.8962 -34.7332 -34.6491 -34.5905
   -19.9260 -19.9250 -19.9185 -19.9172 -19.9081 -19.8994 -19.8904 -19.8717
   -19.8646 -19.8634 -19.8360 -19.8354 -19.8182 -19.8163 -11.7968  -6.4461
    -5.5099  -4.7235  -1.8251  -1.3895  -0.6826

          k = 0.2417 0.5098 0.0000 ( 24929 PWs)   bands (ev):

   -68.2198 -68.2112 -35.1101 -35.0541 -34.9152 -34.7810 -34.6700 -34.6384
   -19.9272 -19.9216 -19.9180 -19.9144 -19.9104 -19.9007 -19.8914 -19.8696
   -19.8671 -19.8623 -19.8402 -19.8393 -19.8139 -19.8129 -11.6815  -6.4532
    -5.6955  -4.5643  -1.7432  -0.8867  -0.6473

          k = 0.2416 0.6025 0.0000 ( 24916 PWs)   bands (ev):

   -68.2197 -68.2111 -35.1105 -35.0547 -34.9153 -34.7811 -34.6699 -34.6385
   -19.9272 -19.9216 -19.9180 -19.9144 -19.9104 -19.9008 -19.8914 -19.8697
   -19.8670 -19.8623 -19.8403 -19.8393 -19.8138 -19.8129 -11.6811  -6.4544
    -5.6958  -4.5650  -1.7433  -0.8934  -0.6437

          k = 0.2418-0.4175 0.0000 ( 24921 PWs)   bands (ev):

   -68.2277 -68.2116 -35.1491 -35.0152 -34.8967 -34.7336 -34.6492 -34.5907
   -19.9260 -19.9250 -19.9186 -19.9172 -19.9081 -19.8995 -19.8904 -19.8718
   -19.8646 -19.8633 -19.8361 -19.8355 -19.8181 -19.8162 -11.7955  -6.4483
    -5.5118  -4.7243  -1.8284  -1.3937  -0.6809

          k = 0.2418-0.3248 0.0000 ( 24882 PWs)   bands (ev):

   -68.2391 -68.2151 -35.1755 -34.9814 -34.8327 -34.7007 -34.5946 -34.5132
   -19.9305 -19.9246 -19.9198 -19.9174 -19.9065 -19.8980 -19.8889 -19.8730
   -19.8662 -19.8623 -19.8295 -19.8287 -19.8249 -19.8223 -12.0027  -6.4804
    -5.1529  -4.9887  -2.3902  -1.2969  -0.6109

          k = 0.2418-0.2320 0.0000 ( 24819 PWs)   bands (ev):

   -68.2510 -68.2203 -35.2004 -34.9231 -34.7444 -34.6732 -34.5478 -34.4350
   -19.9352 -19.9256 -19.9199 -19.9145 -19.9062 -19.8972 -19.8871 -19.8730
   -19.8693 -19.8620 -19.8333 -19.8297 -19.8218 -19.8206 -12.2539  -6.4959
    -5.4304  -4.5592  -2.6233  -1.1765  -1.0543

          k = 0.2418-0.1393 0.0000 ( 24779 PWs)   bands (ev):

   -68.2609 -68.2253 -35.2243 -34.8475 -34.6636 -34.6391 -34.5167 -34.3942
   -19.9381 -19.9276 -19.9185 -19.9120 -19.9059 -19.8974 -19.8853 -19.8729
   -19.8711 -19.8631 -19.8401 -19.8360 -19.8156 -19.8144 -12.4792  -6.4430
    -5.6786  -4.2822  -2.4482  -1.5308  -1.0281

          k = 0.2418-0.0466 0.0000 ( 24743 PWs)   bands (ev):

   -68.2664 -68.2284 -35.2392 -34.7909 -34.6314 -34.6061 -34.4796 -34.3997
   -19.9391 -19.9291 -19.9162 -19.9129 -19.9043 -19.8984 -19.8839 -19.8744
   -19.8698 -19.8648 -19.8441 -19.8397 -19.8120 -19.8111 -12.6116  -6.3817
    -5.7218  -4.4336  -1.9702  -1.4662  -1.1320

          k = 0.2417 0.0461 0.0000 ( 24746 PWs)   bands (ev):

   -68.2665 -68.2284 -35.2393 -34.7913 -34.6314 -34.6063 -34.4789 -34.3984
   -19.9391 -19.9291 -19.9164 -19.9127 -19.9044 -19.8983 -19.8840 -19.8744
   -19.8698 -19.8648 -19.8441 -19.8398 -19.8119 -19.8110 -12.6123  -6.3830
    -5.7254  -4.4278  -1.9752  -1.4644  -1.1305

          k = 0.3223 0.1851 0.0000 ( 24848 PWs)   bands (ev):

   -68.2451 -68.2176 -35.1947 -35.0054 -34.7785 -34.6883 -34.5655 -34.4234
   -19.9359 -19.9234 -19.9217 -19.9133 -19.9088 -19.8965 -19.8876 -19.8720
   -19.8701 -19.8599 -19.8292 -19.8260 -19.8252 -19.8230 -12.1439  -6.8348
    -5.2226  -4.3334  -3.0926  -1.1889  -0.6652

          k = 0.3223 0.2779 0.0000 ( 24830 PWs)   bands (ev):

   -68.2368 -68.2143 -35.1858 -35.0615 -34.8179 -34.7130 -34.5979 -34.4643
   -19.9342 -19.9222 -19.9214 -19.9151 -19.9092 -19.8970 -19.8884 -19.8723
   -19.8682 -19.8592 -19.8304 -19.8279 -19.8236 -19.8210 -11.9839  -6.9022
    -5.0232  -4.6494  -3.0717  -0.7164  -0.5671

          k = 0.3223 0.3706 0.0000 ( 24899 PWs)   bands (ev):

   -68.2276 -68.2117 -35.1633 -35.0753 -34.8460 -34.7587 -34.6391 -34.5478
   -19.9305 -19.9225 -19.9195 -19.9158 -19.9095 -19.8987 -19.8897 -19.8715
   -19.8670 -19.8601 -19.8360 -19.8340 -19.8180 -19.8162 -11.8126  -6.7397
    -5.1976  -4.7952  -2.5662  -0.6715  -0.4731

          k = 0.3222 0.4633 0.0000 ( 24945 PWs)   bands (ev):

   -68.2194 -68.2112 -35.1107 -35.0540 -34.9164 -34.7799 -34.6725 -34.6388
   -19.9273 -19.9216 -19.9178 -19.9145 -19.9104 -19.9008 -19.8914 -19.8696
   -19.8672 -19.8622 -19.8404 -19.8393 -19.8138 -19.8129 -11.6800  -6.4526
    -5.7021  -4.5683  -1.7587  -0.8680  -0.6405

          k = 0.3222 0.5561 0.0000 ( 24947 PWs)   bands (ev):

   -68.2139 -68.2134 -35.0389 -35.0369 -35.0020 -34.7809 -34.6847 -34.6822
   -19.9267 -19.9190 -19.9188 -19.9120 -19.9118 -19.9021 -19.8923 -19.8680
   -19.8677 -19.8636 -19.8418 -19.8416 -19.8121 -19.8118 -11.6295  -6.1124
    -6.1111  -4.4615  -1.0924  -0.9616  -0.9501

          k = 0.3222 0.6488 0.0000 ( 24929 PWs)   bands (ev):

   -68.2193 -68.2111 -35.1112 -35.0544 -34.9171 -34.7800 -34.6730 -34.6392
   -19.9272 -19.9217 -19.9179 -19.9145 -19.9103 -19.9010 -19.8913 -19.8697
   -19.8671 -19.8620 -19.8404 -19.8394 -19.8137 -19.8128 -11.6790  -6.4530
    -5.7053  -4.5700  -1.7660  -0.8658  -0.6344

          k = 0.3224-0.3712 0.0000 ( 24913 PWs)   bands (ev):

   -68.2273 -68.2115 -35.1637 -35.0759 -34.8470 -34.7586 -34.6404 -34.5493
   -19.9304 -19.9225 -19.9195 -19.9159 -19.9095 -19.8988 -19.8896 -19.8716
   -19.8669 -19.8600 -19.8361 -19.8342 -19.8178 -19.8161 -11.8108  -6.7398
    -5.2039  -4.7961  -2.5707  -0.6692  -0.4692

          k = 0.3224-0.2785 0.0000 ( 24822 PWs)   bands (ev):

   -68.2365 -68.2141 -35.1858 -35.0617 -34.8184 -34.7132 -34.6002 -34.4667
   -19.9342 -19.9221 -19.9214 -19.9153 -19.9091 -19.8972 -19.8883 -19.8723
   -19.8681 -19.8591 -19.8305 -19.8281 -19.8234 -19.8209 -11.9816  -6.9009
    -5.0220  -4.6588  -3.0734  -0.7129  -0.5654

          k = 0.3224-0.1858 0.0000 ( 24838 PWs)   bands (ev):

   -68.2449 -68.2174 -35.1944 -35.0051 -34.7784 -34.6884 -34.5684 -34.4260
   -19.9359 -19.9233 -19.9216 -19.9136 -19.9086 -19.8967 -19.8875 -19.8720
   -19.8701 -19.8598 -19.8291 -19.8259 -19.8254 -19.8232 -12.1417  -6.8321
    -5.2197  -4.3453  -3.0904  -1.1879  -0.6630

          k = 0.3224-0.0930 0.0000 ( 24820 PWs)   bands (ev):

   -68.2508 -68.2202 -35.2004 -34.9252 -34.7457 -34.6735 -34.5473 -34.4352
   -19.9352 -19.9256 -19.9200 -19.9145 -19.9062 -19.8972 -19.8870 -19.8732
   -19.8692 -19.8620 -19.8332 -19.8296 -19.8219 -19.8207 -12.2518  -6.4992
    -5.4290  -4.5612  -2.6308  -1.1759  -1.0515

          k = 0.3223-0.0003 0.0000 ( 24815 PWs)   bands (ev):

   -68.2530 -68.2212 -35.2031 -34.8772 -34.7517 -34.6604 -34.5249 -34.4605
   -19.9341 -19.9271 -19.9180 -19.9164 -19.9047 -19.8978 -19.8868 -19.8740
   -19.8677 -19.8637 -19.8347 -19.8310 -19.8205 -19.8201 -12.2909  -6.1430
    -5.6773  -4.7774  -2.1355  -1.6229  -0.5779

          k = 0.3223 0.0924 0.0000 ( 24816 PWs)   bands (ev):

   -68.2509 -68.2203 -35.2006 -34.9259 -34.7456 -34.6737 -34.5453 -34.4331
   -19.9352 -19.9257 -19.9201 -19.9143 -19.9063 -19.8971 -19.8871 -19.8732
   -19.8692 -19.8620 -19.8333 -19.8297 -19.8219 -19.8205 -12.2532  -6.5022
    -5.4318  -4.5528  -2.6341  -1.1757  -1.0501

          k = 0.4029 0.2314 0.0000 ( 24837 PWs)   bands (ev):

   -68.2325 -68.2129 -35.2001 -35.1242 -34.8359 -34.7139 -34.6020 -34.4471
   -19.9360 -19.9228 -19.9201 -19.9146 -19.9113 -19.8968 -19.8881 -19.8725
   -19.8677 -19.8572 -19.8322 -19.8287 -19.8208 -19.8187 -11.9319  -7.1585
    -5.0069  -4.4115  -3.4932  -0.4068  -0.1517

          k = 0.4029 0.3242 0.0000 ( 24850 PWs)   bands (ev):

   -68.2274 -68.2116 -35.1964 -35.1416 -34.8364 -34.7418 -34.6246 -34.4827
   -19.9347 -19.9225 -19.9193 -19.9151 -19.9115 -19.8975 -19.8885 -19.8722
   -19.8673 -19.8572 -19.8352 -19.8318 -19.8177 -19.8161 -11.8459  -7.1205
    -4.9235  -4.7137  -3.2859  -0.1293  -0.0593

          k = 0.4028 0.4169 0.0000 ( 24871 PWs)   bands (ev):

   -68.2225 -68.2110 -35.1576 -35.1181 -34.8169 -34.8134 -34.6507 -34.5611
   -19.9309 -19.9222 -19.9181 -19.9148 -19.9114 -19.8991 -19.8899 -19.8707
   -19.8678 -19.8591 -19.8385 -19.8360 -19.8151 -19.8140 -11.7466  -6.8381
    -5.2276  -4.7504  -2.6396  -0.3211  -0.2608

          k = 0.4028 0.5096 0.0000 ( 24922 PWs)   bands (ev):

   -68.2191 -68.2111 -35.1122 -35.0563 -34.9160 -34.7802 -34.6712 -34.6397
   -19.9273 -19.9216 -19.9180 -19.9144 -19.9104 -19.9009 -19.8913 -19.8698
   -19.8669 -19.8621 -19.8404 -19.8394 -19.8137 -19.8128 -11.6782  -6.4584
    -5.7023  -4.5714  -1.7596  -0.8895  -0.6282

          k = 0.4028 0.6023 0.0000 ( 24918 PWs)   bands (ev):

   -68.2190 -68.2111 -35.1122 -35.0562 -34.9166 -34.7802 -34.6719 -34.6401
   -19.9272 -19.9217 -19.9179 -19.9145 -19.9103 -19.9010 -19.8913 -19.8698
   -19.8669 -19.8620 -19.8405 -19.8395 -19.8136 -19.8127 -11.6777  -6.4576
    -5.7052  -4.5724  -1.7668  -0.8807  -0.6256

          k = 0.4028 0.6951 0.0000 ( 24883 PWs)   bands (ev):

   -68.2222 -68.2109 -35.1580 -35.1181 -34.8165 -34.8146 -34.6520 -34.5628
   -19.9309 -19.9223 -19.9180 -19.9150 -19.9112 -19.8993 -19.8898 -19.8707
   -19.8677 -19.8590 -19.8386 -19.8362 -19.8150 -19.8138 -11.7451  -6.8374
    -5.2343  -4.7520  -2.6441  -0.3145  -0.2543

          k = 0.4030-0.3249 0.0000 ( 24847 PWs)   bands (ev):

   -68.2271 -68.2114 -35.1968 -35.1417 -34.8361 -34.7424 -34.6271 -34.4853
   -19.9347 -19.9225 -19.9192 -19.9153 -19.9114 -19.8977 -19.8884 -19.8722
   -19.8672 -19.8571 -19.8354 -19.8320 -19.8176 -19.8159 -11.8437  -7.1193
    -4.9246  -4.7233  -3.2879  -0.1232  -0.0534

          k = 0.4030-0.2322 0.0000 ( 24841 PWs)   bands (ev):

   -68.2321 -68.2126 -35.2002 -35.1242 -34.8355 -34.7141 -34.6052 -34.4500
   -19.9360 -19.9227 -19.9200 -19.9149 -19.9111 -19.8970 -19.8879 -19.8725
   -19.8677 -19.8571 -19.8324 -19.8290 -19.8206 -19.8185 -11.9296  -7.1565
    -5.0066  -4.4243  -3.4919  -0.4021  -0.1465

          k = 0.4029-0.1395 0.0000 ( 24845 PWs)   bands (ev):

   -68.2363 -68.2140 -35.1864 -35.0632 -34.8198 -34.7127 -34.5997 -34.4666
   -19.9342 -19.9221 -19.9215 -19.9154 -19.9091 -19.8972 -19.8883 -19.8725
   -19.8679 -19.8591 -19.8306 -19.8282 -19.8233 -19.8208 -11.9800  -6.9044
    -5.0231  -4.6568  -3.0810  -0.7081  -0.5698

          k = 0.4029-0.0467 0.0000 ( 24886 PWs)   bands (ev):

   -68.2387 -68.2149 -35.1761 -34.9852 -34.8338 -34.7011 -34.5940 -34.5136
   -19.9305 -19.9247 -19.9199 -19.9174 -19.9065 -19.8981 -19.8888 -19.8732
   -19.8660 -19.8622 -19.8297 -19.8288 -19.8248 -19.8221 -11.9992  -6.4881
    -5.1482  -4.9956  -2.4000  -1.3042  -0.6023

          k = 0.4029 0.0460 0.0000 ( 24890 PWs)   bands (ev):

   -68.2388 -68.2149 -35.1762 -34.9857 -34.8334 -34.7013 -34.5930 -34.5125
   -19.9304 -19.9247 -19.9200 -19.9173 -19.9066 -19.8980 -19.8888 -19.8732
   -19.8660 -19.8622 -19.8296 -19.8288 -19.8248 -19.8222 -11.9999  -6.4899
    -5.1453  -4.9950  -2.4005  -1.3061  -0.6003

          k = 0.4029 0.1387 0.0000 ( 24857 PWs)   bands (ev):

   -68.2365 -68.2142 -35.1866 -35.0636 -34.8200 -34.7124 -34.5972 -34.4642
   -19.9342 -19.9222 -19.9215 -19.9152 -19.9092 -19.8971 -19.8884 -19.8726
   -19.8679 -19.8591 -19.8304 -19.8280 -19.8234 -19.8209 -11.9818  -6.9068
    -5.0242  -4.6468  -3.0824  -0.7095  -0.5736

          k =-0.4835-0.2777 0.0000 ( 24844 PWs)   bands (ev):

   -68.2273 -68.2116 -35.2146 -35.1642 -34.8442 -34.7258 -34.6152 -34.4559
   -19.9363 -19.9226 -19.9194 -19.9152 -19.9120 -19.8971 -19.8880 -19.8727
   -19.8668 -19.8561 -19.8347 -19.8307 -19.8176 -19.8160 -11.8626  -7.2695
    -4.9773  -4.4451  -3.6268   0.0841   0.1102

          k =-0.4835-0.1850 0.0000 ( 24848 PWs)   bands (ev):

   -68.2273 -68.2116 -35.1971 -35.1422 -34.8371 -34.7413 -34.6243 -34.4826
   -19.9347 -19.9225 -19.9193 -19.9151 -19.9115 -19.8975 -19.8885 -19.8723
   -19.8671 -19.8572 -19.8352 -19.8318 -19.8177 -19.8161 -11.8451  -7.1223
    -4.9270  -4.7092  -3.2901  -0.1300  -0.0603

          k =-0.4835-0.0923 0.0000 ( 24905 PWs)   bands (ev):

   -68.2273 -68.2115 -35.1651 -35.0782 -34.8479 -34.7576 -34.6384 -34.5477
   -19.9305 -19.9225 -19.9196 -19.9159 -19.9095 -19.8987 -19.8897 -19.8718
   -19.8666 -19.8601 -19.8361 -19.8341 -19.8178 -19.8161 -11.8099  -6.7469
    -5.1987  -4.7959  -2.5740  -0.6855  -0.4685

          k =-0.4835 0.0005 0.0000 ( 24931 PWs)   bands (ev):

   -68.2272 -68.2115 -35.1506 -35.0194 -34.8963 -34.7339 -34.6489 -34.5918
   -19.9261 -19.9250 -19.9187 -19.9172 -19.9080 -19.8996 -19.8903 -19.8720
   -19.8644 -19.8631 -19.8362 -19.8357 -19.8179 -19.8161 -11.7918  -6.4567
    -5.5150  -4.7289  -1.8366  -1.4033  -0.6731

          k =-0.4835 0.0932 0.0000 ( 24910 PWs)   bands (ev):

   -68.2271 -68.2114 -35.1650 -35.0779 -34.8482 -34.7579 -34.6398 -34.5493
   -19.9305 -19.9225 -19.9196 -19.9160 -19.9094 -19.8989 -19.8896 -19.8718
   -19.8666 -19.8600 -19.8362 -19.8343 -19.8177 -19.8160 -11.8088  -6.7453
    -5.2048  -4.7966  -2.5764  -0.6792  -0.4653

          k =-0.4835 0.1859 0.0000 ( 24851 PWs)   bands (ev):

   -68.2270 -68.2114 -35.1973 -35.1421 -34.8366 -34.7420 -34.6269 -34.4853
   -19.9347 -19.9225 -19.9192 -19.9154 -19.9114 -19.8977 -19.8884 -19.8723
   -19.8671 -19.8571 -19.8354 -19.8320 -19.8175 -19.8159 -11.8431  -7.1207
    -4.9276  -4.7196  -3.2909  -0.1239  -0.0538

          k =-0.4833-0.8341 0.0000 ( 24816 PWs)   bands (ev):

   -68.2270 -68.2114 -35.2150 -35.1641 -34.8436 -34.7261 -34.6184 -34.4589
   -19.9363 -19.9226 -19.9194 -19.9154 -19.9118 -19.8973 -19.8878 -19.8727
   -19.8667 -19.8560 -19.8349 -19.8310 -19.8174 -19.8159 -11.8603  -7.2678
    -4.9782  -4.4583  -3.6257   0.0914   0.1169

     highest occupied level (ev):     0.1169

!    total energy              =   -1373.25012217 Ry
     estimated scf accuracy    <          3.6E-13 Ry

     The total energy is the sum of the following terms:
     one-electron contribution =  -10891.88031518 Ry
     hartree contribution      =    5474.27273133 Ry
     xc contribution           =    -138.78125804 Ry
     ewald contribution        =    4183.13871972 Ry

     convergence has been achieved in  32 iterations

     negative rho (up, down):  2.430E-04 0.000E+00

     Forces acting on atoms (cartesian axes, Ry/au):

     atom    1 type  2   force =     0.00031083    0.00028328   -0.00017452
     atom    2 type  1   force =    -0.00026876   -0.00046194    0.00153012
     atom    3 type  1   force =    -0.00004207    0.00017866   -0.00135560

     Total force =     0.002121     Total SCF correction =     0.000000


     Computing stress (Cartesian axis) and pressure


     negative rho (up, down):  2.430E-04 0.000E+00
          total   stress  (Ry/bohr**3)                   (kbar)     P=        5.14
   0.00006384  -0.00000261   0.00000033            9.39       -0.38        0.05
  -0.00000261   0.00004881   0.00000093           -0.38        7.18        0.14
   0.00000033   0.00000093  -0.00000779            0.05        0.14       -1.15


     Writing output data file /scratch/as3359/Ta2C-CT-ecutoff/Ta2C.save/
 
     init_run     :     21.76s CPU     12.11s WALL (       1 calls)
     electrons    :   1186.60s CPU    610.35s WALL (       1 calls)
     forces       :      7.63s CPU      3.96s WALL (       1 calls)
     stress       :     27.36s CPU     14.19s WALL (       1 calls)

     Called by init_run:
     wfcinit      :     15.43s CPU      7.91s WALL (       1 calls)
     potinit      :      1.54s CPU      0.79s WALL (       1 calls)
     hinit0       :      3.65s CPU      2.62s WALL (       1 calls)

     Called by electrons:
     c_bands      :    948.74s CPU    480.30s WALL (      32 calls)
     sum_band     :    196.62s CPU    104.67s WALL (      32 calls)
     v_of_rho     :      6.01s CPU      3.32s WALL (      33 calls)
     newd         :     33.50s CPU     21.27s WALL (      33 calls)
     mix_rho      :      2.11s CPU      1.10s WALL (      32 calls)

     Called by c_bands:
     init_us_2    :     28.74s CPU     14.40s WALL (    4958 calls)
     cegterg      :    855.55s CPU    433.44s WALL (    2368 calls)

     Called by *egterg:
     cdiaghg      :     17.70s CPU      9.05s WALL (   12642 calls)
     h_psi        :    674.35s CPU    342.33s WALL (   12716 calls)
     s_psi        :     38.19s CPU     19.12s WALL (   12716 calls)
     g_psi        :      4.54s CPU      2.28s WALL (   10274 calls)

     Called by h_psi:
     h_psi:calbec :     31.60s CPU     15.88s WALL (   12716 calls)
     vloc_psi     :    593.58s CPU    301.76s WALL (   12716 calls)
     add_vuspsi   :     43.80s CPU     21.95s WALL (   12716 calls)

     General routines
     calbec       :     42.53s CPU     21.37s WALL (   15454 calls)
     fft          :      6.37s CPU      3.28s WALL (     452 calls)
     ffts         :      0.30s CPU      0.16s WALL (      65 calls)
     fftw         :    606.66s CPU    308.67s WALL (  398612 calls)
     interpolate  :      0.51s CPU      0.27s WALL (      33 calls)
 
     Parallel routines
 
     PWSCF        :  20m45.66s CPU  10m42.69s WALL

 
   This run was terminated on:  21:11:16   6Apr2022            

=------------------------------------------------------------------------------=
   JOB DONE.
=------------------------------------------------------------------------------=
