
     Program PWSCF v.6.8 starts on  6Apr2022 at 20:47:52 

     This program is part of the open-source Quantum ESPRESSO suite
     for quantum simulation of materials; please cite
         "P. Giannozzi et al., J. Phys.:Condens. Matter 21 395502 (2009);
         "P. Giannozzi et al., J. Phys.:Condens. Matter 29 465901 (2017);
         "P. Giannozzi et al., J. Chem. Phys. 152 154105 (2020);
          URL http://www.quantum-espresso.org", 
     in publications or presentations arising from this work. More details at
     http://www.quantum-espresso.org/quote

     Parallel version (MPI & OpenMP), running on       4 processor cores
     Number of MPI processes:                 2
     Threads/MPI process:                     2

     MPI processes distributed on     1 nodes
     R & G space division:  proc/nbgrp/npool/nimage =       2
     124999 MiB available memory on the printing compute node when the environment starts
 
     Reading input from Ta2C.scf.90.in

     Current dimensions of program PWSCF are:
     Max number of different atomic species (ntypx) = 10
     Max number of k-points (npk) =  40000
     Max angular momentum in pseudopotentials (lmaxx) =  4
     file Ta.pbesol-spfn-rrkjus_psl.1.0.0.UPF: wavefunction(s)  5S 5P renormalized

     Subspace diagonalization in iterative solution of the eigenvalue problem:
     a serial algorithm will be used

 
     Parallelization info
     --------------------
     sticks:   dense  smooth     PW     G-vecs:    dense   smooth      PW
     Min         516     411    126               128215    91667   15918
     Max         517     412    127               128216    91678   15945
     Sum        1033     823    253               256431   183345   31863
 
     Using Slab Decomposition
 


     bravais-lattice index     =            0
     lattice parameter (alat)  =       5.5500  a.u.
     unit-cell volume          =    1588.7844 (a.u.)^3
     number of atoms/cell      =            3
     number of atomic types    =            2
     number of electrons       =        58.00
     number of Kohn-Sham states=           29
     kinetic-energy cutoff     =      90.0000  Ry
     charge density cutoff     =     450.0000  Ry
     scf convergence threshold =      1.0E-12
     mixing beta               =       0.7000
     number of iterations used =            8  plain     mixing
     Exchange-correlation= PBESOL
                           (   1   4  10   8   0   0   0)

     celldm(1)=   5.550000  celldm(2)=   0.000000  celldm(3)=   0.000000
     celldm(4)=   0.000000  celldm(5)=   0.000000  celldm(6)=   0.000000

     crystal axes: (cart. coord. in units of alat)
               a(1) = (   1.034114   0.000203   0.000000 )  
               a(2) = (  -0.516207   0.898604   0.000000 )  
               a(3) = (   0.000000   0.000000  10.000000 )  

     reciprocal axes: (cart. coord. in units 2 pi/alat)
               b(1) = (  0.966902  0.555441  0.000000 )  
               b(2) = ( -0.000219  1.112711  0.000000 )  
               b(3) = (  0.000000  0.000000  0.100000 )  


     PseudoPot. # 1 for Ta read from file:
     /shared/home/as3359/pseudo/Ta.pbesol-spfn-rrkjus_psl.1.0.0.UPF
     MD5 check sum: f099565ffaca9b150a52e9412a28e20b
     Pseudo is Ultrasoft + core correction, Zval = 27.0
     Generated using &quot;atomic&quot; code by A. Dal Corso  v.6.3
     Using radial grid of 1273 points,  8 beta functions with: 
                l(1) =   0
                l(2) =   0
                l(3) =   1
                l(4) =   1
                l(5) =   2
                l(6) =   2
                l(7) =   3
                l(8) =   3
     Q(r) pseudized with 0 coefficients 


     PseudoPot. # 2 for C  read from file:
     /shared/home/as3359/pseudo/C.pbesol-n-rrkjus_psl.1.0.0.UPF
     MD5 check sum: 05995be603a8a7c99da3dc4413f31573
     Pseudo is Ultrasoft + core correction, Zval =  4.0
     Generated using &quot;atomic&quot; code by A. Dal Corso  v.6.3MaX
     Using radial grid of 1073 points,  4 beta functions with: 
                l(1) =   0
                l(2) =   0
                l(3) =   1
                l(4) =   1
     Q(r) pseudized with 0 coefficients 


     atomic species   valence    mass     pseudopotential
        Ta            27.00   180.94788     Ta( 1.00)
        C              4.00    12.01070     C ( 1.00)

     No symmetry found



   Cartesian axes

     site n.     atom                  positions (alat units)
         1           C   tau(   1) = (   0.0000000   0.0000000   0.0000000  )
         2           Ta  tau(   2) = (   0.5174615   0.3004190  -0.4127129  )
         3           Ta  tau(   3) = (   0.0007158   0.5986355   0.4125272  )

     number of k points=    74
                       cart. coord. in units 2pi/alat
        k(    1) = (   0.0000000   0.0000000   0.0000000), wk =   0.0138889
        k(    2) = (  -0.0000182   0.0927259   0.0000000), wk =   0.0277778
        k(    3) = (  -0.0000364   0.1854519   0.0000000), wk =   0.0277778
        k(    4) = (  -0.0000547   0.2781778   0.0000000), wk =   0.0277778
        k(    5) = (  -0.0000729   0.3709037   0.0000000), wk =   0.0277778
        k(    6) = (  -0.0000911   0.4636296   0.0000000), wk =   0.0277778
        k(    7) = (   0.0001093  -0.5563556   0.0000000), wk =   0.0138889
        k(    8) = (   0.0805752   0.0462867   0.0000000), wk =   0.0277778
        k(    9) = (   0.0805570   0.1390127   0.0000000), wk =   0.0277778
        k(   10) = (   0.0805388   0.2317386   0.0000000), wk =   0.0277778
        k(   11) = (   0.0805205   0.3244645   0.0000000), wk =   0.0277778
        k(   12) = (   0.0805023   0.4171904   0.0000000), wk =   0.0277778
        k(   13) = (   0.0804841   0.5099164   0.0000000), wk =   0.0277778
        k(   14) = (   0.0806845  -0.5100688   0.0000000), wk =   0.0277778
        k(   15) = (   0.0806663  -0.4173429   0.0000000), wk =   0.0277778
        k(   16) = (   0.0806481  -0.3246170   0.0000000), wk =   0.0277778
        k(   17) = (   0.0806298  -0.2318910   0.0000000), wk =   0.0277778
        k(   18) = (   0.0806116  -0.1391651   0.0000000), wk =   0.0277778
        k(   19) = (   0.0805934  -0.0464392   0.0000000), wk =   0.0277778
        k(   20) = (   0.1611504   0.0925735   0.0000000), wk =   0.0277778
        k(   21) = (   0.1611322   0.1852994   0.0000000), wk =   0.0277778
        k(   22) = (   0.1611139   0.2780253   0.0000000), wk =   0.0277778
        k(   23) = (   0.1610957   0.3707513   0.0000000), wk =   0.0277778
        k(   24) = (   0.1610775   0.4634772   0.0000000), wk =   0.0277778
        k(   25) = (   0.1610593   0.5562031   0.0000000), wk =   0.0277778
        k(   26) = (   0.1612597  -0.4637821   0.0000000), wk =   0.0277778
        k(   27) = (   0.1612415  -0.3710561   0.0000000), wk =   0.0277778
        k(   28) = (   0.1612232  -0.2783302   0.0000000), wk =   0.0277778
        k(   29) = (   0.1612050  -0.1856043   0.0000000), wk =   0.0277778
        k(   30) = (   0.1611868  -0.0928784   0.0000000), wk =   0.0277778
        k(   31) = (   0.1611686  -0.0001524   0.0000000), wk =   0.0277778
        k(   32) = (   0.2417256   0.1388602   0.0000000), wk =   0.0277778
        k(   33) = (   0.2417073   0.2315862   0.0000000), wk =   0.0277778
        k(   34) = (   0.2416891   0.3243121   0.0000000), wk =   0.0277778
        k(   35) = (   0.2416709   0.4170380   0.0000000), wk =   0.0277778
        k(   36) = (   0.2416527   0.5097639   0.0000000), wk =   0.0277778
        k(   37) = (   0.2416345   0.6024899   0.0000000), wk =   0.0277778
        k(   38) = (   0.2418349  -0.4174953   0.0000000), wk =   0.0277778
        k(   39) = (   0.2418166  -0.3247694   0.0000000), wk =   0.0277778
        k(   40) = (   0.2417984  -0.2320435   0.0000000), wk =   0.0277778
        k(   41) = (   0.2417802  -0.1393175   0.0000000), wk =   0.0277778
        k(   42) = (   0.2417620  -0.0465916   0.0000000), wk =   0.0277778
        k(   43) = (   0.2417438   0.0461343   0.0000000), wk =   0.0277778
        k(   44) = (   0.3223007   0.1851470   0.0000000), wk =   0.0277778
        k(   45) = (   0.3222825   0.2778729   0.0000000), wk =   0.0277778
        k(   46) = (   0.3222643   0.3705988   0.0000000), wk =   0.0277778
        k(   47) = (   0.3222461   0.4633248   0.0000000), wk =   0.0277778
        k(   48) = (   0.3222279   0.5560507   0.0000000), wk =   0.0277778
        k(   49) = (   0.3222097   0.6487766   0.0000000), wk =   0.0277778
        k(   50) = (   0.3224100  -0.3712086   0.0000000), wk =   0.0277778
        k(   51) = (   0.3223918  -0.2784827   0.0000000), wk =   0.0277778
        k(   52) = (   0.3223736  -0.1857567   0.0000000), wk =   0.0277778
        k(   53) = (   0.3223554  -0.0930308   0.0000000), wk =   0.0277778
        k(   54) = (   0.3223372  -0.0003049   0.0000000), wk =   0.0277778
        k(   55) = (   0.3223190   0.0924210   0.0000000), wk =   0.0277778
        k(   56) = (   0.4028759   0.2314337   0.0000000), wk =   0.0277778
        k(   57) = (   0.4028577   0.3241596   0.0000000), wk =   0.0277778
        k(   58) = (   0.4028395   0.4168856   0.0000000), wk =   0.0277778
        k(   59) = (   0.4028213   0.5096115   0.0000000), wk =   0.0277778
        k(   60) = (   0.4028031   0.6023374   0.0000000), wk =   0.0277778
        k(   61) = (   0.4027848   0.6950633   0.0000000), wk =   0.0277778
        k(   62) = (   0.4029852  -0.3249218   0.0000000), wk =   0.0277778
        k(   63) = (   0.4029670  -0.2321959   0.0000000), wk =   0.0277778
        k(   64) = (   0.4029488  -0.1394700   0.0000000), wk =   0.0277778
        k(   65) = (   0.4029306  -0.0467441   0.0000000), wk =   0.0277778
        k(   66) = (   0.4029124   0.0459819   0.0000000), wk =   0.0277778
        k(   67) = (   0.4028941   0.1387078   0.0000000), wk =   0.0277778
        k(   68) = (  -0.4834511  -0.2777205   0.0000000), wk =   0.0138889
        k(   69) = (  -0.4834693  -0.1849945   0.0000000), wk =   0.0277778
        k(   70) = (  -0.4834875  -0.0922686   0.0000000), wk =   0.0277778
        k(   71) = (  -0.4835058   0.0004573   0.0000000), wk =   0.0277778
        k(   72) = (  -0.4835240   0.0931832   0.0000000), wk =   0.0277778
        k(   73) = (  -0.4835422   0.1859092   0.0000000), wk =   0.0277778
        k(   74) = (  -0.4833418  -0.8340760   0.0000000), wk =   0.0138889

     Dense  grid:   256431 G-vectors     FFT dimensions: (  40,  40, 375)

     Smooth grid:   183345 G-vectors     FFT dimensions: (  36,  36, 360)

     Estimated max dynamical RAM per process >       1.58 GB

     Estimated total dynamical RAM >       3.16 GB

     Initial potential from superposition of free atoms

     starting charge   57.99842, renormalised to   58.00000

     negative rho (up, down):  4.467E-04 0.000E+00
     Starting wfcs are   38 randomized atomic wfcs

     total cpu time spent up to now is       12.0 secs

     Self-consistent Calculation

     iteration #  1     ecut=    90.00 Ry     beta= 0.70
     Davidson diagonalization with overlap
     ethr =  1.00E-02,  avg # of iterations =  2.1

     negative rho (up, down):  1.081E-04 0.000E+00

     total cpu time spent up to now is       28.6 secs

     total energy              =   -1372.42326617 Ry
     estimated scf accuracy    <       1.29642348 Ry

     iteration #  2     ecut=    90.00 Ry     beta= 0.70
     Davidson diagonalization with overlap
     c_bands:  1 eigenvalues not converged
     ethr =  2.24E-03,  avg # of iterations =  7.1

     total cpu time spent up to now is       53.2 secs

     total energy              =   -1371.82356820 Ry
     estimated scf accuracy    <       8.80856228 Ry

     iteration #  3     ecut=    90.00 Ry     beta= 0.70
     Davidson diagonalization with overlap
     ethr =  2.24E-03,  avg # of iterations =  6.3

     total cpu time spent up to now is       75.9 secs

     total energy              =   -1373.21688225 Ry
     estimated scf accuracy    <       0.15610967 Ry

     iteration #  4     ecut=    90.00 Ry     beta= 0.70
     Davidson diagonalization with overlap
     ethr =  2.69E-04,  avg # of iterations =  4.3

     total cpu time spent up to now is       94.4 secs

     total energy              =   -1373.24529433 Ry
     estimated scf accuracy    <       0.02888565 Ry

     iteration #  5     ecut=    90.00 Ry     beta= 0.70
     Davidson diagonalization with overlap
     ethr =  4.98E-05,  avg # of iterations =  6.9

     total cpu time spent up to now is      115.5 secs

     total energy              =   -1373.24137856 Ry
     estimated scf accuracy    <       0.10952324 Ry

     iteration #  6     ecut=    90.00 Ry     beta= 0.70
     Davidson diagonalization with overlap
     ethr =  4.98E-05,  avg # of iterations =  7.0

     total cpu time spent up to now is      136.2 secs

     total energy              =   -1373.24724360 Ry
     estimated scf accuracy    <       0.03643722 Ry

     iteration #  7     ecut=    90.00 Ry     beta= 0.70
     Davidson diagonalization with overlap
     ethr =  4.98E-05,  avg # of iterations =  3.4

     total cpu time spent up to now is      153.1 secs

     total energy              =   -1373.24872566 Ry
     estimated scf accuracy    <       0.00415845 Ry

     iteration #  8     ecut=    90.00 Ry     beta= 0.70
     Davidson diagonalization with overlap
     ethr =  7.17E-06,  avg # of iterations =  6.4

     negative rho (up, down):  2.094E-06 0.000E+00

     total cpu time spent up to now is      173.5 secs

     total energy              =   -1373.24954901 Ry
     estimated scf accuracy    <       0.00479355 Ry

     iteration #  9     ecut=    90.00 Ry     beta= 0.70
     Davidson diagonalization with overlap
     ethr =  7.17E-06,  avg # of iterations =  1.9

     negative rho (up, down):  7.375E-05 0.000E+00

     total cpu time spent up to now is      189.4 secs

     total energy              =   -1373.24927488 Ry
     estimated scf accuracy    <       0.00325925 Ry

     iteration # 10     ecut=    90.00 Ry     beta= 0.70
     Davidson diagonalization with overlap
     ethr =  5.62E-06,  avg # of iterations =  3.5

     negative rho (up, down):  2.069E-04 0.000E+00

     total cpu time spent up to now is      206.6 secs

     total energy              =   -1373.24950238 Ry
     estimated scf accuracy    <       0.00029581 Ry

     iteration # 11     ecut=    90.00 Ry     beta= 0.70
     Davidson diagonalization with overlap
     ethr =  5.10E-07,  avg # of iterations =  6.8

     negative rho (up, down):  1.402E-04 0.000E+00

     total cpu time spent up to now is      227.4 secs

     total energy              =   -1373.24961569 Ry
     estimated scf accuracy    <       0.00064289 Ry

     iteration # 12     ecut=    90.00 Ry     beta= 0.70
     Davidson diagonalization with overlap
     ethr =  5.10E-07,  avg # of iterations =  1.0

     negative rho (up, down):  1.149E-04 0.000E+00

     total cpu time spent up to now is      242.3 secs

     total energy              =   -1373.24947374 Ry
     estimated scf accuracy    <       0.00066686 Ry

     iteration # 13     ecut=    90.00 Ry     beta= 0.70
     Davidson diagonalization with overlap
     ethr =  5.10E-07,  avg # of iterations =  6.9

     negative rho (up, down):  1.810E-04 0.000E+00

     total cpu time spent up to now is      263.3 secs

     total energy              =   -1373.24958283 Ry
     estimated scf accuracy    <       0.00051031 Ry

     iteration # 14     ecut=    90.00 Ry     beta= 0.70
     Davidson diagonalization with overlap
     ethr =  5.10E-07,  avg # of iterations =  1.3

     negative rho (up, down):  1.842E-04 0.000E+00

     total cpu time spent up to now is      278.5 secs

     total energy              =   -1373.24955087 Ry
     estimated scf accuracy    <       0.00042990 Ry

     iteration # 15     ecut=    90.00 Ry     beta= 0.70
     Davidson diagonalization with overlap
     ethr =  5.10E-07,  avg # of iterations =  3.0

     negative rho (up, down):  1.782E-04 0.000E+00

     total cpu time spent up to now is      295.2 secs

     total energy              =   -1373.24956014 Ry
     estimated scf accuracy    <       0.00009994 Ry

     iteration # 16     ecut=    90.00 Ry     beta= 0.70
     Davidson diagonalization with overlap
     ethr =  1.72E-07,  avg # of iterations =  4.5

     negative rho (up, down):  1.831E-04 0.000E+00

     total cpu time spent up to now is      312.9 secs

     total energy              =   -1373.24956563 Ry
     estimated scf accuracy    <       0.00000485 Ry

     iteration # 17     ecut=    90.00 Ry     beta= 0.70
     Davidson diagonalization with overlap
     ethr =  8.37E-09,  avg # of iterations =  7.1

     negative rho (up, down):  1.834E-04 0.000E+00

     total cpu time spent up to now is      335.2 secs

     total energy              =   -1373.24956965 Ry
     estimated scf accuracy    <       0.00003080 Ry

     iteration # 18     ecut=    90.00 Ry     beta= 0.70
     Davidson diagonalization with overlap
     ethr =  8.37E-09,  avg # of iterations =  1.0

     negative rho (up, down):  1.845E-04 0.000E+00

     total cpu time spent up to now is      350.0 secs

     total energy              =   -1373.24956930 Ry
     estimated scf accuracy    <       0.00002799 Ry

     iteration # 19     ecut=    90.00 Ry     beta= 0.70
     Davidson diagonalization with overlap
     ethr =  8.37E-09,  avg # of iterations =  1.1

     negative rho (up, down):  1.840E-04 0.000E+00

     total cpu time spent up to now is      365.1 secs

     total energy              =   -1373.24956712 Ry
     estimated scf accuracy    <       0.00002393 Ry

     iteration # 20     ecut=    90.00 Ry     beta= 0.70
     Davidson diagonalization with overlap
     ethr =  8.37E-09,  avg # of iterations =  6.6

     negative rho (up, down):  1.846E-04 0.000E+00

     total cpu time spent up to now is      385.6 secs

     total energy              =   -1373.24956868 Ry
     estimated scf accuracy    <       0.00000073 Ry

     iteration # 21     ecut=    90.00 Ry     beta= 0.70
     Davidson diagonalization with overlap
     ethr =  1.26E-09,  avg # of iterations =  4.0

     negative rho (up, down):  1.844E-04 0.000E+00

     total cpu time spent up to now is      402.7 secs

     total energy              =   -1373.24956857 Ry
     estimated scf accuracy    <       0.00000080 Ry

     iteration # 22     ecut=    90.00 Ry     beta= 0.70
     Davidson diagonalization with overlap
     ethr =  1.26E-09,  avg # of iterations =  4.6

     negative rho (up, down):  1.842E-04 0.000E+00

     total cpu time spent up to now is      420.7 secs

     total energy              =   -1373.24956864 Ry
     estimated scf accuracy    <       0.00000003 Ry

     iteration # 23     ecut=    90.00 Ry     beta= 0.70
     Davidson diagonalization with overlap
     c_bands:  1 eigenvalues not converged
     c_bands:  1 eigenvalues not converged
     c_bands:  1 eigenvalues not converged
     ethr =  4.65E-11,  avg # of iterations =  7.9

     negative rho (up, down):  1.842E-04 0.000E+00

     total cpu time spent up to now is      443.1 secs

     total energy              =   -1373.24956865 Ry
     estimated scf accuracy    <       0.00000015 Ry

     iteration # 24     ecut=    90.00 Ry     beta= 0.70
     Davidson diagonalization with overlap
     c_bands:  1 eigenvalues not converged
     ethr =  4.65E-11,  avg # of iterations =  3.6

     negative rho (up, down):  1.840E-04 0.000E+00

     total cpu time spent up to now is      460.1 secs

     total energy              =   -1373.24956865 Ry
     estimated scf accuracy    <       0.00000008 Ry

     iteration # 25     ecut=    90.00 Ry     beta= 0.70
     Davidson diagonalization with overlap
     ethr =  4.65E-11,  avg # of iterations =  7.0

     negative rho (up, down):  1.840E-04 0.000E+00

     total cpu time spent up to now is      481.1 secs

     total energy              =   -1373.24956865 Ry
     estimated scf accuracy    <       0.00000002 Ry

     iteration # 26     ecut=    90.00 Ry     beta= 0.70
     Davidson diagonalization with overlap
     ethr =  4.14E-11,  avg # of iterations =  2.1

     negative rho (up, down):  1.840E-04 0.000E+00

     total cpu time spent up to now is      496.9 secs

     total energy              =   -1373.24956865 Ry
     estimated scf accuracy    <       0.00000001 Ry

     iteration # 27     ecut=    90.00 Ry     beta= 0.70
     Davidson diagonalization with overlap
     ethr =  1.83E-11,  avg # of iterations =  5.5

     negative rho (up, down):  1.840E-04 0.000E+00

     total cpu time spent up to now is      515.5 secs

     total energy              =   -1373.24956865 Ry
     estimated scf accuracy    <          1.0E-09 Ry

     iteration # 28     ecut=    90.00 Ry     beta= 0.70
     Davidson diagonalization with overlap
     ethr =  1.78E-12,  avg # of iterations =  5.9

     negative rho (up, down):  1.840E-04 0.000E+00

     total cpu time spent up to now is      534.3 secs

     total energy              =   -1373.24956865 Ry
     estimated scf accuracy    <          3.4E-09 Ry

     iteration # 29     ecut=    90.00 Ry     beta= 0.70
     Davidson diagonalization with overlap
     ethr =  1.78E-12,  avg # of iterations =  3.9

     negative rho (up, down):  1.840E-04 0.000E+00

     total cpu time spent up to now is      551.5 secs

     total energy              =   -1373.24956865 Ry
     estimated scf accuracy    <          1.1E-09 Ry

     iteration # 30     ecut=    90.00 Ry     beta= 0.70
     Davidson diagonalization with overlap
     ethr =  1.78E-12,  avg # of iterations =  1.0

     negative rho (up, down):  1.840E-04 0.000E+00

     total cpu time spent up to now is      566.2 secs

     total energy              =   -1373.24956865 Ry
     estimated scf accuracy    <          9.0E-10 Ry

     iteration # 31     ecut=    90.00 Ry     beta= 0.70
     Davidson diagonalization with overlap
     ethr =  1.55E-12,  avg # of iterations =  2.3

     negative rho (up, down):  1.840E-04 0.000E+00

     total cpu time spent up to now is      582.1 secs

     total energy              =   -1373.24956865 Ry
     estimated scf accuracy    <          4.4E-10 Ry

     iteration # 32     ecut=    90.00 Ry     beta= 0.70
     Davidson diagonalization with overlap
     ethr =  7.57E-13,  avg # of iterations =  6.3

     negative rho (up, down):  1.840E-04 0.000E+00

     total cpu time spent up to now is      601.4 secs

     total energy              =   -1373.24956865 Ry
     estimated scf accuracy    <          9.7E-11 Ry

     iteration # 33     ecut=    90.00 Ry     beta= 0.70
     Davidson diagonalization with overlap
     ethr =  1.68E-13,  avg # of iterations =  3.7

     negative rho (up, down):  1.840E-04 0.000E+00

     total cpu time spent up to now is      618.2 secs

     total energy              =   -1373.24956865 Ry
     estimated scf accuracy    <          1.8E-10 Ry

     iteration # 34     ecut=    90.00 Ry     beta= 0.70
     Davidson diagonalization with overlap
     ethr =  1.68E-13,  avg # of iterations =  1.1

     negative rho (up, down):  1.840E-04 0.000E+00

     total cpu time spent up to now is      633.2 secs

     total energy              =   -1373.24956865 Ry
     estimated scf accuracy    <          1.9E-10 Ry

     iteration # 35     ecut=    90.00 Ry     beta= 0.70
     Davidson diagonalization with overlap
     ethr =  1.68E-13,  avg # of iterations =  1.0

     negative rho (up, down):  1.840E-04 0.000E+00

     total cpu time spent up to now is      648.2 secs

     total energy              =   -1373.24956865 Ry
     estimated scf accuracy    <          1.7E-10 Ry

     iteration # 36     ecut=    90.00 Ry     beta= 0.70
     Davidson diagonalization with overlap
     ethr =  1.68E-13,  avg # of iterations =  1.0

     negative rho (up, down):  1.840E-04 0.000E+00

     total cpu time spent up to now is      663.1 secs

     total energy              =   -1373.24956865 Ry
     estimated scf accuracy    <          1.4E-10 Ry

     iteration # 37     ecut=    90.00 Ry     beta= 0.70
     Davidson diagonalization with overlap
     ethr =  1.68E-13,  avg # of iterations =  1.5

     negative rho (up, down):  1.840E-04 0.000E+00

     total cpu time spent up to now is      678.5 secs

     total energy              =   -1373.24956865 Ry
     estimated scf accuracy    <          8.1E-11 Ry

     iteration # 38     ecut=    90.00 Ry     beta= 0.70
     Davidson diagonalization with overlap
     ethr =  1.39E-13,  avg # of iterations =  5.3

     negative rho (up, down):  1.840E-04 0.000E+00

     total cpu time spent up to now is      697.0 secs

     total energy              =   -1373.24956865 Ry
     estimated scf accuracy    <          5.6E-12 Ry

     iteration # 39     ecut=    90.00 Ry     beta= 0.70
     Davidson diagonalization with overlap
     ethr =  1.00E-13,  avg # of iterations =  1.0

     negative rho (up, down):  1.840E-04 0.000E+00

     total cpu time spent up to now is      711.9 secs

     total energy              =   -1373.24956865 Ry
     estimated scf accuracy    <          5.2E-12 Ry

     iteration # 40     ecut=    90.00 Ry     beta= 0.70
     Davidson diagonalization with overlap
     ethr =  1.00E-13,  avg # of iterations =  1.0

     negative rho (up, down):  1.840E-04 0.000E+00

     total cpu time spent up to now is      726.9 secs

     total energy              =   -1373.24956865 Ry
     estimated scf accuracy    <          3.2E-12 Ry

     iteration # 41     ecut=    90.00 Ry     beta= 0.70
     Davidson diagonalization with overlap
     ethr =  1.00E-13,  avg # of iterations =  1.9

     negative rho (up, down):  1.840E-04 0.000E+00

     total cpu time spent up to now is      742.5 secs

     End of self-consistent calculation

          k = 0.0000 0.0000 0.0000 ( 22873 PWs)   bands (ev):

   -68.2909 -68.2433 -35.3157 -34.7120 -34.4038 -34.3989 -34.3388 -34.3325
   -19.9494 -19.9357 -19.9104 -19.9099 -19.9045 -19.9042 -19.8779 -19.8773
   -19.8701 -19.8700 -19.8629 -19.8574 -19.7964 -19.7949 -13.2791  -7.6699
    -4.3946  -4.3513  -1.9299  -0.8999  -0.7271

          k =-0.0000 0.0927 0.0000 ( 22907 PWs)   bands (ev):

   -68.2871 -68.2409 -35.3030 -34.7172 -34.4509 -34.4152 -34.3828 -34.3387
   -19.9479 -19.9348 -19.9119 -19.9104 -19.9048 -19.9031 -19.8795 -19.8770
   -19.8704 -19.8694 -19.8600 -19.8548 -19.7992 -19.7978 -13.1652  -7.4499
    -4.7180  -4.3170  -1.8350  -1.0835  -0.5381

          k =-0.0000 0.1855 0.0000 ( 22973 PWs)   bands (ev):

   -68.2765 -68.2344 -35.2688 -34.7450 -34.5653 -34.4999 -34.4565 -34.3578
   -19.9439 -19.9323 -19.9157 -19.9114 -19.9059 -19.9006 -19.8831 -19.8760
   -19.8714 -19.8675 -19.8523 -19.8475 -19.8066 -19.8056 -12.8648  -6.8683
    -5.3784  -4.2542  -1.8304  -1.4644  -0.9842

          k =-0.0001 0.2782 0.0000 ( 22971 PWs)   bands (ev):

   -68.2616 -68.2259 -35.2252 -34.8487 -34.6621 -34.6415 -34.5093 -34.3870
   -19.9395 -19.9289 -19.9200 -19.9128 -19.9076 -19.8984 -19.8869 -19.8740
   -19.8724 -19.8645 -19.8417 -19.8376 -19.8165 -19.8153 -12.4848  -6.4536
    -5.6918  -4.2430  -2.4633  -1.5273  -1.0288

          k =-0.0001 0.3709 0.0000 ( 22917 PWs)   bands (ev):

   -68.2460 -68.2182 -35.1951 -35.0052 -34.7788 -34.6874 -34.5597 -34.4178
   -19.9372 -19.9247 -19.9230 -19.9144 -19.9102 -19.8975 -19.8891 -19.8732
   -19.8714 -19.8613 -19.8308 -19.8276 -19.8262 -19.8239 -12.1490  -6.8406
    -5.2240  -4.3025  -3.1001  -1.1915  -0.6689

          k =-0.0001 0.4636 0.0000 ( 22927 PWs)   bands (ev):

   -68.2335 -68.2134 -35.1992 -35.1237 -34.8376 -34.7120 -34.5956 -34.4410
   -19.9372 -19.9241 -19.9216 -19.9156 -19.9126 -19.8978 -19.8895 -19.8737
   -19.8691 -19.8586 -19.8331 -19.8296 -19.8225 -19.8203 -11.9376  -7.1615
    -5.0009  -4.3787  -3.4996  -0.4178  -0.1617

          k = 0.0001-0.5564 0.0000 ( 22952 PWs)   bands (ev):

   -68.2285 -68.2122 -35.2128 -35.1637 -34.8469 -34.7232 -34.6086 -34.4496
   -19.9375 -19.9240 -19.9210 -19.9161 -19.9132 -19.8981 -19.8894 -19.8739
   -19.8682 -19.8576 -19.8356 -19.8316 -19.8193 -19.8177 -11.8684  -7.2715
    -4.9684  -4.4116  -3.6330   0.0679   0.0972

          k = 0.0806 0.0463 0.0000 ( 22930 PWs)   bands (ev):

   -68.2871 -68.2408 -35.3029 -34.7171 -34.4488 -34.4181 -34.3796 -34.3423
   -19.9479 -19.9348 -19.9118 -19.9106 -19.9047 -19.9032 -19.8792 -19.8773
   -19.8705 -19.8694 -19.8599 -19.8548 -19.7993 -19.7979 -13.1646  -7.4489
    -4.6964  -4.3421  -1.8334  -1.0819  -0.5385

          k = 0.0806 0.1390 0.0000 ( 22947 PWs)   bands (ev):

   -68.2799 -68.2364 -35.2794 -34.7322 -34.5208 -34.4922 -34.4176 -34.3619
   -19.9451 -19.9331 -19.9141 -19.9118 -19.9050 -19.9015 -19.8819 -19.8765
   -19.8708 -19.8683 -19.8547 -19.8498 -19.8043 -19.8032 -12.9575  -7.0396
    -5.1732  -4.3253  -1.7354  -1.2937  -0.9141

          k = 0.0805 0.2317 0.0000 ( 22946 PWs)   bands (ev):

   -68.2671 -68.2290 -35.2400 -34.7906 -34.6304 -34.6059 -34.4758 -34.3941
   -19.9405 -19.9304 -19.9177 -19.9138 -19.9058 -19.8994 -19.8856 -19.8754
   -19.8710 -19.8662 -19.8456 -19.8412 -19.8129 -19.8121 -12.6168  -6.3891
    -5.7345  -4.4053  -1.9822  -1.4641  -1.1267

          k = 0.0805 0.3245 0.0000 ( 22929 PWs)   bands (ev):

   -68.2518 -68.2209 -35.2011 -34.9239 -34.7432 -34.6735 -34.5416 -34.4287
   -19.9365 -19.9269 -19.9214 -19.9154 -19.9077 -19.8981 -19.8886 -19.8743
   -19.8706 -19.8635 -19.8349 -19.8313 -19.8228 -19.8215 -12.2591  -6.5055
    -5.4361  -4.5295  -2.6328  -1.1760  -1.0484

          k = 0.0805 0.4172 0.0000 ( 22895 PWs)   bands (ev):

   -68.2376 -68.2148 -35.1858 -35.0616 -34.8188 -34.7117 -34.5925 -34.4592
   -19.9355 -19.9235 -19.9229 -19.9162 -19.9106 -19.8981 -19.8898 -19.8736
   -19.8695 -19.8606 -19.8313 -19.8289 -19.8251 -19.8225 -11.9881  -6.9072
    -5.0207  -4.6238  -3.0774  -0.7198  -0.5742

          k = 0.0805 0.5099 0.0000 ( 22935 PWs)   bands (ev):

   -68.2285 -68.2121 -35.1950 -35.1413 -34.8388 -34.7390 -34.6189 -34.4772
   -19.9359 -19.9239 -19.9208 -19.9161 -19.9128 -19.8985 -19.8899 -19.8734
   -19.8687 -19.8587 -19.8361 -19.8327 -19.8194 -19.8177 -11.8510  -7.1226
    -4.9164  -4.6873  -3.2864  -0.1428  -0.0727

          k = 0.0807-0.5101 0.0000 ( 22939 PWs)   bands (ev):

   -68.2285 -68.2121 -35.1952 -35.1415 -34.8391 -34.7389 -34.6189 -34.4772
   -19.9359 -19.9239 -19.9208 -19.9162 -19.9128 -19.8985 -19.8899 -19.8734
   -19.8686 -19.8587 -19.8361 -19.8327 -19.8193 -19.8177 -11.8508  -7.1231
    -4.9170  -4.6864  -3.2876  -0.1426  -0.0733

          k = 0.0807-0.4173 0.0000 ( 22907 PWs)   bands (ev):

   -68.2375 -68.2147 -35.1860 -35.0622 -34.8196 -34.7115 -34.5923 -34.4592
   -19.9355 -19.9235 -19.9229 -19.9162 -19.9106 -19.8981 -19.8898 -19.8737
   -19.8694 -19.8606 -19.8314 -19.8289 -19.8250 -19.8225 -11.9876  -6.9083
    -5.0206  -4.6233  -3.0806  -0.7175  -0.5764

          k = 0.0806-0.3246 0.0000 ( 22926 PWs)   bands (ev):

   -68.2517 -68.2208 -35.2011 -34.9247 -34.7439 -34.6736 -34.5416 -34.4287
   -19.9365 -19.9269 -19.9214 -19.9154 -19.9077 -19.8982 -19.8886 -19.8743
   -19.8705 -19.8634 -19.8348 -19.8312 -19.8228 -19.8215 -12.2583  -6.5065
    -5.4355  -4.5296  -2.6360  -1.1753  -1.0480

          k = 0.0806-0.2319 0.0000 ( 22936 PWs)   bands (ev):

   -68.2671 -68.2289 -35.2398 -34.7909 -34.6307 -34.6062 -34.4764 -34.3945
   -19.9405 -19.9304 -19.9177 -19.9138 -19.9058 -19.8995 -19.8856 -19.8754
   -19.8710 -19.8662 -19.8455 -19.8412 -19.8130 -19.8122 -12.6159  -6.3878
    -5.7341  -4.4068  -1.9837  -1.4628  -1.1265

          k = 0.0806-0.1392 0.0000 ( 22957 PWs)   bands (ev):

   -68.2798 -68.2364 -35.2793 -34.7321 -34.5204 -34.4919 -34.4185 -34.3631
   -19.9451 -19.9331 -19.9140 -19.9119 -19.9049 -19.9017 -19.8818 -19.8766
   -19.8708 -19.8683 -19.8546 -19.8498 -19.8044 -19.8033 -12.9568  -7.0384
    -5.1681  -4.3322  -1.7343  -1.2921  -0.9096

          k = 0.0806-0.0464 0.0000 ( 22939 PWs)   bands (ev):

   -68.2870 -68.2408 -35.3028 -34.7171 -34.4472 -34.4199 -34.3780 -34.3442
   -19.9479 -19.9348 -19.9116 -19.9108 -19.9045 -19.9034 -19.8790 -19.8774
   -19.8704 -19.8694 -19.8599 -19.8548 -19.7993 -19.7979 -13.1643  -7.4484
    -4.6868  -4.3529  -1.8326  -1.0809  -0.5361

          k = 0.1612 0.0926 0.0000 ( 22973 PWs)   bands (ev):

   -68.2763 -68.2343 -35.2683 -34.7446 -34.5644 -34.4974 -34.4602 -34.3620
   -19.9439 -19.9323 -19.9155 -19.9116 -19.9057 -19.9007 -19.8828 -19.8762
   -19.8714 -19.8674 -19.8522 -19.8475 -19.8068 -19.8057 -12.8626  -6.8650
    -5.3619  -4.2807  -1.8204  -1.4639  -0.9786

          k = 0.1611 0.1853 0.0000 ( 22944 PWs)   bands (ev):

   -68.2670 -68.2289 -35.2396 -34.7899 -34.6309 -34.6048 -34.4773 -34.3969
   -19.9404 -19.9304 -19.9177 -19.9139 -19.9057 -19.8995 -19.8855 -19.8755
   -19.8711 -19.8662 -19.8455 -19.8412 -19.8130 -19.8122 -12.6154  -6.3863
    -5.7271  -4.4200  -1.9707  -1.4678  -1.1318

          k = 0.1611 0.2780 0.0000 ( 22897 PWs)   bands (ev):

   -68.2538 -68.2218 -35.2034 -34.8735 -34.7494 -34.6592 -34.5233 -34.4579
   -19.9355 -19.9283 -19.9193 -19.9175 -19.9060 -19.8988 -19.8883 -19.8751
   -19.8690 -19.8653 -19.8363 -19.8326 -19.8215 -19.8211 -12.2966  -6.1402
    -5.6830  -4.7647  -2.1275  -1.6204  -0.5751

          k = 0.1611 0.3708 0.0000 ( 22892 PWs)   bands (ev):

   -68.2397 -68.2156 -35.1754 -34.9811 -34.8306 -34.7010 -34.5911 -34.5098
   -19.9317 -19.9260 -19.9212 -19.9184 -19.9079 -19.8990 -19.8903 -19.8743
   -19.8675 -19.8638 -19.8306 -19.8298 -19.8264 -19.8238 -12.0062  -6.4842
    -5.1410  -4.9853  -2.3895  -1.2988  -0.6051

          k = 0.1611 0.4635 0.0000 ( 22899 PWs)   bands (ev):

   -68.2283 -68.2121 -35.1629 -35.0754 -34.8455 -34.7584 -34.6352 -34.5446
   -19.9316 -19.9238 -19.9209 -19.9170 -19.9108 -19.8997 -19.8911 -19.8729
   -19.8683 -19.8616 -19.8370 -19.8351 -19.8194 -19.8177 -11.8155  -6.7425
    -5.1828  -4.7895  -2.5625  -0.6839  -0.4815

          k = 0.1611 0.5562 0.0000 ( 22930 PWs)   bands (ev):

   -68.2235 -68.2114 -35.1556 -35.1178 -34.8187 -34.8107 -34.6469 -34.5576
   -19.9321 -19.9236 -19.9196 -19.9159 -19.9127 -19.9002 -19.8913 -19.8718
   -19.8692 -19.8606 -19.8395 -19.8371 -19.8167 -19.8155 -11.7507  -6.8376
    -5.2117  -4.7421  -2.6307  -0.3333  -0.2776

          k = 0.1613-0.4638 0.0000 ( 22889 PWs)   bands (ev):

   -68.2282 -68.2120 -35.1634 -35.0762 -34.8463 -34.7580 -34.6351 -34.5444
   -19.9316 -19.9238 -19.9210 -19.9170 -19.9109 -19.8998 -19.8911 -19.8729
   -19.8681 -19.8615 -19.8371 -19.8352 -19.8194 -19.8176 -11.8148  -6.7441
    -5.1831  -4.7897  -2.5647  -0.6880  -0.4809

          k = 0.1612-0.3711 0.0000 ( 22904 PWs)   bands (ev):

   -68.2396 -68.2154 -35.1756 -34.9825 -34.8314 -34.7012 -34.5910 -34.5098
   -19.9317 -19.9259 -19.9213 -19.9184 -19.9079 -19.8991 -19.8903 -19.8743
   -19.8674 -19.8637 -19.8306 -19.8298 -19.8263 -19.8237 -12.0049  -6.4865
    -5.1405  -4.9859  -2.3936  -1.3017  -0.6035

          k = 0.1612-0.2783 0.0000 ( 22892 PWs)   bands (ev):

   -68.2536 -68.2217 -35.2032 -34.8742 -34.7503 -34.6595 -34.5239 -34.4586
   -19.9355 -19.9283 -19.9193 -19.9176 -19.9060 -19.8990 -19.8883 -19.8751
   -19.8690 -19.8652 -19.8362 -19.8325 -19.8216 -19.8212 -12.2949  -6.1407
    -5.6810  -4.7674  -2.1305  -1.6205  -0.5750

          k = 0.1612-0.1856 0.0000 ( 22944 PWs)   bands (ev):

   -68.2668 -68.2287 -35.2394 -34.7896 -34.6311 -34.6049 -34.4787 -34.3986
   -19.9405 -19.9304 -19.9175 -19.9141 -19.9056 -19.8997 -19.8854 -19.8755
   -19.8711 -19.8662 -19.8454 -19.8411 -19.8131 -19.8123 -12.6138  -6.3838
    -5.7231  -4.4274  -1.9672  -1.4683  -1.1331

          k = 0.1612-0.0929 0.0000 ( 22973 PWs)   bands (ev):

   -68.2763 -68.2342 -35.2681 -34.7443 -34.5636 -34.4963 -34.4623 -34.3640
   -19.9439 -19.9323 -19.9154 -19.9119 -19.9055 -19.9009 -19.8827 -19.8763
   -19.8714 -19.8674 -19.8521 -19.8474 -19.8068 -19.8057 -12.8616  -6.8632
    -5.3549  -4.2910  -1.8159  -1.4634  -0.9761

          k = 0.1612-0.0002 0.0000 ( 22935 PWs)   bands (ev):

   -68.2797 -68.2363 -35.2789 -34.7321 -34.5201 -34.4911 -34.4197 -34.3660
   -19.9451 -19.9331 -19.9139 -19.9121 -19.9048 -19.9017 -19.8815 -19.8769
   -19.8709 -19.8682 -19.8546 -19.8498 -19.8045 -19.8033 -12.9552  -7.0361
    -5.1545  -4.3516  -1.7322  -1.2885  -0.8981

          k = 0.2417 0.1389 0.0000 ( 22965 PWs)   bands (ev):

   -68.2612 -68.2257 -35.2244 -34.8480 -34.6632 -34.6396 -34.5140 -34.3917
   -19.9394 -19.9289 -19.9199 -19.9130 -19.9074 -19.8985 -19.8867 -19.8742
   -19.8725 -19.8645 -19.8415 -19.8374 -19.8168 -19.8155 -12.4809  -6.4462
    -5.6835  -4.2714  -2.4524  -1.5299  -1.0284

          k = 0.2417 0.2316 0.0000 ( 22927 PWs)   bands (ev):

   -68.2515 -68.2207 -35.2005 -34.9229 -34.7434 -34.6730 -34.5457 -34.4328
   -19.9365 -19.9269 -19.9213 -19.9156 -19.9076 -19.8983 -19.8885 -19.8743
   -19.8707 -19.8634 -19.8347 -19.8311 -19.8230 -19.8217 -12.2561  -6.4980
    -5.4339  -4.5507  -2.6234  -1.1770  -1.0534

          k = 0.2417 0.3243 0.0000 ( 22900 PWs)   bands (ev):

   -68.2395 -68.2155 -35.1752 -34.9803 -34.8313 -34.7004 -34.5935 -34.5118
   -19.9318 -19.9259 -19.9211 -19.9186 -19.9079 -19.8991 -19.8902 -19.8742
   -19.8676 -19.8637 -19.8307 -19.8298 -19.8263 -19.8237 -12.0046  -6.4798
    -5.1505  -4.9875  -2.3866  -1.2958  -0.6106

          k = 0.2417 0.4170 0.0000 ( 22833 PWs)   bands (ev):

   -68.2281 -68.2120 -35.1483 -35.0135 -34.8960 -34.7330 -34.6489 -34.5903
   -19.9273 -19.9263 -19.9197 -19.9185 -19.9094 -19.9007 -19.8917 -19.8730
   -19.8659 -19.8647 -19.8372 -19.8367 -19.8194 -19.8176 -11.7968  -6.4461
    -5.5099  -4.7235  -1.8252  -1.3895  -0.6827

          k = 0.2417 0.5098 0.0000 ( 22859 PWs)   bands (ev):

   -68.2200 -68.2114 -35.1099 -35.0539 -34.9150 -34.7808 -34.6698 -34.6382
   -19.9285 -19.9229 -19.9192 -19.9157 -19.9117 -19.9020 -19.8927 -19.8709
   -19.8684 -19.8636 -19.8415 -19.8405 -19.8152 -19.8142 -11.6815  -6.4532
    -5.6955  -4.5643  -1.7432  -0.8868  -0.6473

          k = 0.2416 0.6025 0.0000 ( 22851 PWs)   bands (ev):

   -68.2199 -68.2113 -35.1103 -35.0545 -34.9150 -34.7809 -34.6697 -34.6383
   -19.9284 -19.9229 -19.9193 -19.9156 -19.9117 -19.9020 -19.8927 -19.8710
   -19.8683 -19.8636 -19.8415 -19.8406 -19.8151 -19.8142 -11.6810  -6.4544
    -5.6958  -4.5650  -1.7433  -0.8934  -0.6437

          k = 0.2418-0.4175 0.0000 ( 22834 PWs)   bands (ev):

   -68.2279 -68.2118 -35.1489 -35.0149 -34.8964 -34.7333 -34.6490 -34.5905
   -19.9272 -19.9263 -19.9199 -19.9185 -19.9093 -19.9008 -19.8917 -19.8731
   -19.8659 -19.8646 -19.8373 -19.8368 -19.8193 -19.8175 -11.7955  -6.4483
    -5.5118  -4.7243  -1.8284  -1.3937  -0.6809

          k = 0.2418-0.3248 0.0000 ( 22892 PWs)   bands (ev):

   -68.2393 -68.2153 -35.1753 -34.9812 -34.8325 -34.7005 -34.5944 -34.5130
   -19.9318 -19.9259 -19.9211 -19.9187 -19.9078 -19.8993 -19.8902 -19.8743
   -19.8675 -19.8636 -19.8308 -19.8300 -19.8262 -19.8235 -12.0027  -6.4804
    -5.1529  -4.9887  -2.3902  -1.2969  -0.6109

          k = 0.2418-0.2320 0.0000 ( 22914 PWs)   bands (ev):

   -68.2512 -68.2205 -35.2002 -34.9229 -34.7442 -34.6729 -34.5476 -34.4349
   -19.9365 -19.9269 -19.9212 -19.9157 -19.9074 -19.8985 -19.8884 -19.8743
   -19.8706 -19.8633 -19.8346 -19.8310 -19.8231 -19.8218 -12.2539  -6.4959
    -5.4305  -4.5593  -2.6233  -1.1765  -1.0543

          k = 0.2418-0.1393 0.0000 ( 22967 PWs)   bands (ev):

   -68.2611 -68.2255 -35.2241 -34.8473 -34.6634 -34.6390 -34.5165 -34.3940
   -19.9394 -19.9289 -19.9197 -19.9133 -19.9072 -19.8987 -19.8866 -19.8742
   -19.8724 -19.8645 -19.8414 -19.8373 -19.8169 -19.8157 -12.4792  -6.4430
    -5.6787  -4.2822  -2.4482  -1.5308  -1.0281

          k = 0.2418-0.0466 0.0000 ( 22934 PWs)   bands (ev):

   -68.2666 -68.2286 -35.2390 -34.7907 -34.6312 -34.6059 -34.4795 -34.3995
   -19.9404 -19.9304 -19.9175 -19.9141 -19.9056 -19.8997 -19.8852 -19.8757
   -19.8711 -19.8661 -19.8453 -19.8410 -19.8133 -19.8124 -12.6116  -6.3818
    -5.7218  -4.4336  -1.9702  -1.4662  -1.1321

          k = 0.2417 0.0461 0.0000 ( 22940 PWs)   bands (ev):

   -68.2667 -68.2287 -35.2391 -34.7912 -34.6312 -34.6061 -34.4787 -34.3982
   -19.9404 -19.9304 -19.9176 -19.9140 -19.9057 -19.8996 -19.8853 -19.8757
   -19.8711 -19.8661 -19.8454 -19.8411 -19.8132 -19.8124 -12.6123  -6.3830
    -5.7254  -4.4278  -1.9752  -1.4645  -1.1306

          k = 0.3223 0.1851 0.0000 ( 22904 PWs)   bands (ev):

   -68.2453 -68.2178 -35.1945 -35.0051 -34.7783 -34.6881 -34.5653 -34.4232
   -19.9371 -19.9247 -19.9230 -19.9146 -19.9101 -19.8977 -19.8889 -19.8733
   -19.8714 -19.8612 -19.8305 -19.8273 -19.8265 -19.8243 -12.1439  -6.8348
    -5.2227  -4.3334  -3.0926  -1.1890  -0.6652

          k = 0.3223 0.2779 0.0000 ( 22899 PWs)   bands (ev):

   -68.2370 -68.2145 -35.1855 -35.0612 -34.8177 -34.7129 -34.5977 -34.4642
   -19.9355 -19.9234 -19.9227 -19.9164 -19.9105 -19.8983 -19.8897 -19.8736
   -19.8695 -19.8605 -19.8316 -19.8292 -19.8248 -19.8223 -11.9839  -6.9022
    -5.0232  -4.6494  -3.0717  -0.7165  -0.5671

          k = 0.3223 0.3706 0.0000 ( 22875 PWs)   bands (ev):

   -68.2278 -68.2119 -35.1631 -35.0751 -34.8457 -34.7585 -34.6389 -34.5476
   -19.9317 -19.9237 -19.9207 -19.9171 -19.9108 -19.8999 -19.8910 -19.8728
   -19.8683 -19.8614 -19.8373 -19.8353 -19.8192 -19.8175 -11.8126  -6.7397
    -5.1976  -4.7953  -2.5662  -0.6715  -0.4731

          k = 0.3222 0.4633 0.0000 ( 22842 PWs)   bands (ev):

   -68.2197 -68.2114 -35.1105 -35.0537 -34.9161 -34.7797 -34.6723 -34.6386
   -19.9285 -19.9229 -19.9191 -19.9157 -19.9117 -19.9021 -19.8927 -19.8709
   -19.8685 -19.8635 -19.8416 -19.8406 -19.8150 -19.8141 -11.6800  -6.4526
    -5.7021  -4.5683  -1.7587  -0.8680  -0.6405

          k = 0.3222 0.5561 0.0000 ( 22816 PWs)   bands (ev):

   -68.2141 -68.2136 -35.0387 -35.0366 -35.0018 -34.7807 -34.6845 -34.6820
   -19.9279 -19.9203 -19.9201 -19.9133 -19.9131 -19.9034 -19.8936 -19.8692
   -19.8690 -19.8649 -19.8431 -19.8429 -19.8133 -19.8131 -11.6295  -6.1124
    -6.1112  -4.4615  -1.0924  -0.9616  -0.9501

          k = 0.3222 0.6488 0.0000 ( 22840 PWs)   bands (ev):

   -68.2195 -68.2113 -35.1109 -35.0542 -34.9169 -34.7797 -34.6728 -34.6390
   -19.9285 -19.9230 -19.9191 -19.9158 -19.9116 -19.9022 -19.8926 -19.8710
   -19.8684 -19.8634 -19.8417 -19.8407 -19.8150 -19.8141 -11.6790  -6.4531
    -5.7054  -4.5700  -1.7660  -0.8658  -0.6344

          k = 0.3224-0.3712 0.0000 ( 22872 PWs)   bands (ev):

   -68.2275 -68.2117 -35.1635 -35.0756 -34.8468 -34.7584 -34.6402 -34.5491
   -19.9317 -19.9237 -19.9207 -19.9172 -19.9107 -19.9001 -19.8909 -19.8729
   -19.8682 -19.8613 -19.8374 -19.8355 -19.8191 -19.8173 -11.8107  -6.7399
    -5.2039  -4.7961  -2.5708  -0.6693  -0.4692

          k = 0.3224-0.2785 0.0000 ( 22887 PWs)   bands (ev):

   -68.2367 -68.2143 -35.1855 -35.0615 -34.8182 -34.7130 -34.6001 -34.4665
   -19.9355 -19.9234 -19.9227 -19.9166 -19.9104 -19.8985 -19.8896 -19.8736
   -19.8694 -19.8604 -19.8318 -19.8294 -19.8247 -19.8222 -11.9816  -6.9009
    -5.0220  -4.6588  -3.0734  -0.7129  -0.5654

          k = 0.3224-0.1858 0.0000 ( 22902 PWs)   bands (ev):

   -68.2451 -68.2176 -35.1941 -35.0049 -34.7782 -34.6882 -34.5682 -34.4259
   -19.9372 -19.9246 -19.9229 -19.9149 -19.9099 -19.8979 -19.8888 -19.8733
   -19.8714 -19.8611 -19.8304 -19.8272 -19.8267 -19.8245 -12.1417  -6.8321
    -5.2197  -4.3453  -3.0904  -1.1879  -0.6630

          k = 0.3224-0.0930 0.0000 ( 22908 PWs)   bands (ev):

   -68.2510 -68.2204 -35.2001 -34.9250 -34.7455 -34.6732 -34.5471 -34.4350
   -19.9365 -19.9269 -19.9212 -19.9158 -19.9074 -19.8985 -19.8883 -19.8745
   -19.8705 -19.8633 -19.8345 -19.8309 -19.8232 -19.8219 -12.2518  -6.4992
    -5.4290  -4.5612  -2.6308  -1.1759  -1.0516

          k = 0.3223-0.0003 0.0000 ( 22895 PWs)   bands (ev):

   -68.2532 -68.2215 -35.2028 -34.8770 -34.7515 -34.6602 -34.5247 -34.4604
   -19.9354 -19.9284 -19.9193 -19.9177 -19.9060 -19.8990 -19.8881 -19.8753
   -19.8690 -19.8650 -19.8360 -19.8323 -19.8218 -19.8214 -12.2909  -6.1430
    -5.6774  -4.7774  -2.1355  -1.6229  -0.5779

          k = 0.3223 0.0924 0.0000 ( 22908 PWs)   bands (ev):

   -68.2512 -68.2205 -35.2004 -34.9256 -34.7454 -34.6735 -34.5451 -34.4330
   -19.9365 -19.9270 -19.9213 -19.9156 -19.9076 -19.8983 -19.8884 -19.8745
   -19.8705 -19.8633 -19.8346 -19.8310 -19.8231 -19.8218 -12.2532  -6.5023
    -5.4319  -4.5528  -2.6341  -1.1757  -1.0501

          k = 0.4029 0.2314 0.0000 ( 22912 PWs)   bands (ev):

   -68.2327 -68.2131 -35.1999 -35.1240 -34.8356 -34.7137 -34.6018 -34.4469
   -19.9372 -19.9240 -19.9214 -19.9159 -19.9126 -19.8981 -19.8894 -19.8738
   -19.8690 -19.8585 -19.8335 -19.8300 -19.8221 -19.8200 -11.9319  -7.1585
    -5.0069  -4.4115  -3.4932  -0.4069  -0.1518

          k = 0.4029 0.3242 0.0000 ( 22921 PWs)   bands (ev):

   -68.2276 -68.2119 -35.1961 -35.1414 -34.8362 -34.7416 -34.6244 -34.4825
   -19.9359 -19.9238 -19.9206 -19.9164 -19.9128 -19.8988 -19.8898 -19.8735
   -19.8686 -19.8585 -19.8365 -19.8331 -19.8190 -19.8174 -11.8459  -7.1205
    -4.9235  -4.7137  -3.2859  -0.1294  -0.0594

          k = 0.4028 0.4169 0.0000 ( 22909 PWs)   bands (ev):

   -68.2227 -68.2112 -35.1574 -35.1178 -34.8167 -34.8132 -34.6505 -34.5609
   -19.9322 -19.9235 -19.9194 -19.9161 -19.9126 -19.9004 -19.8912 -19.8720
   -19.8691 -19.8604 -19.8398 -19.8373 -19.8164 -19.8153 -11.7466  -6.8381
    -5.2276  -4.7504  -2.6396  -0.3211  -0.2608

          k = 0.4028 0.5096 0.0000 ( 22825 PWs)   bands (ev):

   -68.2193 -68.2113 -35.1119 -35.0561 -34.9157 -34.7800 -34.6710 -34.6395
   -19.9286 -19.9229 -19.9192 -19.9157 -19.9117 -19.9022 -19.8926 -19.8711
   -19.8682 -19.8634 -19.8417 -19.8407 -19.8149 -19.8141 -11.6782  -6.4584
    -5.7023  -4.5715  -1.7596  -0.8895  -0.6282

          k = 0.4028 0.6023 0.0000 ( 22834 PWs)   bands (ev):

   -68.2192 -68.2113 -35.1120 -35.0559 -34.9164 -34.7799 -34.6717 -34.6399
   -19.9285 -19.9230 -19.9192 -19.9158 -19.9116 -19.9023 -19.8926 -19.8711
   -19.8682 -19.8633 -19.8417 -19.8407 -19.8149 -19.8140 -11.6776  -6.4577
    -5.7053  -4.5724  -1.7668  -0.8807  -0.6256

          k = 0.4028 0.6951 0.0000 ( 22896 PWs)   bands (ev):

   -68.2224 -68.2111 -35.1578 -35.1178 -34.8163 -34.8144 -34.6518 -34.5626
   -19.9322 -19.9236 -19.9193 -19.9162 -19.9125 -19.9006 -19.8911 -19.8720
   -19.8690 -19.8603 -19.8399 -19.8375 -19.8163 -19.8151 -11.7451  -6.8374
    -5.2343  -4.7521  -2.6441  -0.3145  -0.2544

          k = 0.4030-0.3249 0.0000 ( 22919 PWs)   bands (ev):

   -68.2273 -68.2116 -35.1966 -35.1415 -34.8359 -34.7422 -34.6269 -34.4851
   -19.9360 -19.9238 -19.9205 -19.9166 -19.9127 -19.8990 -19.8897 -19.8735
   -19.8685 -19.8584 -19.8367 -19.8333 -19.8188 -19.8172 -11.8437  -7.1193
    -4.9246  -4.7234  -3.2879  -0.1232  -0.0534

          k = 0.4030-0.2322 0.0000 ( 22919 PWs)   bands (ev):

   -68.2323 -68.2129 -35.2000 -35.1240 -34.8353 -34.7140 -34.6050 -34.4498
   -19.9373 -19.9240 -19.9213 -19.9162 -19.9124 -19.8983 -19.8892 -19.8738
   -19.8690 -19.8584 -19.8337 -19.8303 -19.8219 -19.8198 -11.9296  -7.1565
    -5.0066  -4.4243  -3.4919  -0.4021  -0.1466

          k = 0.4029-0.1395 0.0000 ( 22901 PWs)   bands (ev):

   -68.2365 -68.2142 -35.1861 -35.0630 -34.8196 -34.7125 -34.5995 -34.4665
   -19.9355 -19.9234 -19.9227 -19.9166 -19.9104 -19.8985 -19.8896 -19.8738
   -19.8692 -19.8604 -19.8319 -19.8295 -19.8246 -19.8221 -11.9800  -6.9044
    -5.0231  -4.6568  -3.0810  -0.7081  -0.5698

          k = 0.4029-0.0467 0.0000 ( 22900 PWs)   bands (ev):

   -68.2389 -68.2151 -35.1758 -34.9850 -34.8336 -34.7009 -34.5938 -34.5134
   -19.9318 -19.9259 -19.9212 -19.9187 -19.9078 -19.8994 -19.8901 -19.8745
   -19.8673 -19.8635 -19.8309 -19.8301 -19.8261 -19.8234 -11.9992  -6.4881
    -5.1483  -4.9956  -2.4000  -1.3042  -0.6023

          k = 0.4029 0.0460 0.0000 ( 22906 PWs)   bands (ev):

   -68.2390 -68.2152 -35.1760 -34.9854 -34.8332 -34.7011 -34.5928 -34.5123
   -19.9317 -19.9260 -19.9212 -19.9186 -19.9078 -19.8993 -19.8901 -19.8745
   -19.8673 -19.8635 -19.8309 -19.8300 -19.8261 -19.8235 -11.9999  -6.4899
    -5.1453  -4.9950  -2.4006  -1.3061  -0.6004

          k = 0.4029 0.1387 0.0000 ( 22901 PWs)   bands (ev):

   -68.2368 -68.2144 -35.1864 -35.0633 -34.8198 -34.7122 -34.5970 -34.4640
   -19.9355 -19.9235 -19.9228 -19.9165 -19.9105 -19.8984 -19.8897 -19.8739
   -19.8692 -19.8604 -19.8317 -19.8293 -19.8247 -19.8222 -11.9818  -6.9068
    -5.0243  -4.6468  -3.0824  -0.7095  -0.5736

          k =-0.4835-0.2777 0.0000 ( 22960 PWs)   bands (ev):

   -68.2275 -68.2118 -35.2144 -35.1639 -34.8440 -34.7256 -34.6150 -34.4557
   -19.9376 -19.9239 -19.9207 -19.9164 -19.9132 -19.8984 -19.8893 -19.8740
   -19.8681 -19.8574 -19.8360 -19.8320 -19.8189 -19.8173 -11.8626  -7.2696
    -4.9774  -4.4451  -3.6268   0.0841   0.1102

          k =-0.4835-0.1850 0.0000 ( 22931 PWs)   bands (ev):

   -68.2275 -68.2118 -35.1969 -35.1420 -34.8369 -34.7411 -34.6241 -34.4824
   -19.9360 -19.9238 -19.9206 -19.9164 -19.9128 -19.8988 -19.8898 -19.8736
   -19.8684 -19.8585 -19.8365 -19.8331 -19.8190 -19.8174 -11.8451  -7.1223
    -4.9270  -4.7092  -3.2901  -0.1300  -0.0603

          k =-0.4835-0.0923 0.0000 ( 22879 PWs)   bands (ev):

   -68.2275 -68.2118 -35.1649 -35.0780 -34.8477 -34.7574 -34.6382 -34.5475
   -19.9317 -19.9237 -19.9209 -19.9172 -19.9108 -19.9000 -19.8910 -19.8731
   -19.8679 -19.8614 -19.8374 -19.8354 -19.8191 -19.8174 -11.8099  -6.7469
    -5.1987  -4.7959  -2.5740  -0.6855  -0.4686

          k =-0.4835 0.0005 0.0000 ( 22843 PWs)   bands (ev):

   -68.2274 -68.2117 -35.1503 -35.0192 -34.8961 -34.7337 -34.6487 -34.5916
   -19.9273 -19.9263 -19.9199 -19.9185 -19.9093 -19.9009 -19.8916 -19.8732
   -19.8657 -19.8644 -19.8375 -19.8370 -19.8191 -19.8173 -11.7918  -6.4567
    -5.5151  -4.7289  -1.8366  -1.4033  -0.6731

          k =-0.4835 0.0932 0.0000 ( 22874 PWs)   bands (ev):

   -68.2273 -68.2116 -35.1648 -35.0777 -34.8479 -34.7577 -34.6396 -34.5491
   -19.9317 -19.9238 -19.9208 -19.9172 -19.9107 -19.9002 -19.8909 -19.8731
   -19.8679 -19.8613 -19.8375 -19.8356 -19.8190 -19.8173 -11.8088  -6.7454
    -5.2048  -4.7966  -2.5764  -0.6792  -0.4653

          k =-0.4835 0.1859 0.0000 ( 22923 PWs)   bands (ev):

   -68.2272 -68.2116 -35.1971 -35.1419 -34.8364 -34.7419 -34.6267 -34.4851
   -19.9360 -19.9238 -19.9205 -19.9166 -19.9126 -19.8990 -19.8897 -19.8736
   -19.8684 -19.8584 -19.8367 -19.8333 -19.8188 -19.8172 -11.8431  -7.1207
    -4.9277  -4.7196  -3.2909  -0.1239  -0.0538

          k =-0.4833-0.8341 0.0000 ( 22936 PWs)   bands (ev):

   -68.2272 -68.2116 -35.2148 -35.1639 -34.8434 -34.7260 -34.6183 -34.4587
   -19.9376 -19.9239 -19.9207 -19.9167 -19.9131 -19.8986 -19.8891 -19.8740
   -19.8680 -19.8574 -19.8362 -19.8323 -19.8187 -19.8172 -11.8603  -7.2679
    -4.9783  -4.4583  -3.6258   0.0913   0.1168

     highest occupied level (ev):     0.1168

!    total energy              =   -1373.24956865 Ry
     estimated scf accuracy    <          6.2E-13 Ry

     The total energy is the sum of the following terms:
     one-electron contribution =  -10891.87695965 Ry
     hartree contribution      =    5474.26956843 Ry
     xc contribution           =    -138.78089715 Ry
     ewald contribution        =    4183.13871972 Ry

     convergence has been achieved in  41 iterations

     negative rho (up, down):  1.840E-04 0.000E+00

     Forces acting on atoms (cartesian axes, Ry/au):

     atom    1 type  2   force =     0.00031080    0.00028328   -0.00017212
     atom    2 type  1   force =    -0.00026958   -0.00046441    0.00152144
     atom    3 type  1   force =    -0.00004122    0.00018113   -0.00134932

     Total force =     0.002111     Total SCF correction =     0.000011


     Computing stress (Cartesian axis) and pressure


     negative rho (up, down):  1.840E-04 0.000E+00
          total   stress  (Ry/bohr**3)                   (kbar)     P=        4.98
   0.00006276  -0.00000261   0.00000033            9.23       -0.38        0.05
  -0.00000261   0.00004773   0.00000093           -0.38        7.02        0.14
   0.00000033   0.00000093  -0.00000889            0.05        0.14       -1.31


     Writing output data file /scratch/as3359/Ta2C-CT-ecutoff/Ta2C.save/
 
     init_run     :     21.00s CPU     11.63s WALL (       1 calls)
     electrons    :   1419.44s CPU    730.56s WALL (       1 calls)
     forces       :      6.99s CPU      3.64s WALL (       1 calls)
     stress       :     24.62s CPU     12.79s WALL (       1 calls)

     Called by init_run:
     wfcinit      :     15.07s CPU      7.71s WALL (       1 calls)
     potinit      :      1.43s CPU      0.73s WALL (       1 calls)
     hinit0       :      3.42s CPU      2.45s WALL (       1 calls)

     Called by electrons:
     c_bands      :   1129.05s CPU    571.97s WALL (      41 calls)
     sum_band     :    241.04s CPU    128.37s WALL (      41 calls)
     v_of_rho     :      7.18s CPU      3.96s WALL (      42 calls)
     newd         :     39.80s CPU     25.09s WALL (      42 calls)
     mix_rho      :      2.50s CPU      1.33s WALL (      41 calls)

     Called by c_bands:
     init_us_2    :     33.55s CPU     16.81s WALL (    6290 calls)
     cegterg      :   1019.48s CPU    516.85s WALL (    3034 calls)

     Called by *egterg:
     cdiaghg      :     20.96s CPU     10.73s WALL (   14883 calls)
     h_psi        :    821.75s CPU    417.35s WALL (   14957 calls)
     s_psi        :     40.89s CPU     20.49s WALL (   14957 calls)
     g_psi        :      4.91s CPU      2.47s WALL (   11849 calls)

     Called by h_psi:
     h_psi:calbec :     34.88s CPU     17.52s WALL (   14957 calls)
     vloc_psi     :    732.10s CPU    372.33s WALL (   14957 calls)
     add_vuspsi   :     48.80s CPU     24.45s WALL (   14957 calls)

     General routines
     calbec       :     47.14s CPU     23.68s WALL (   18361 calls)
     fft          :      3.56s CPU      1.83s WALL (     569 calls)
     ffts         :      0.37s CPU      0.19s WALL (      83 calls)
     fftw         :    748.80s CPU    381.14s WALL (  500442 calls)
     interpolate  :      0.60s CPU      0.31s WALL (      42 calls)
 
     Parallel routines
 
     PWSCF        :  24m34.28s CPU  12m40.83s WALL

 
   This run was terminated on:  21: 0:33   6Apr2022            

=------------------------------------------------------------------------------=
   JOB DONE.
=------------------------------------------------------------------------------=
