
     Program PWSCF v.6.8 starts on  6Apr2022 at 20:11:12 

     This program is part of the open-source Quantum ESPRESSO suite
     for quantum simulation of materials; please cite
         "P. Giannozzi et al., J. Phys.:Condens. Matter 21 395502 (2009);
         "P. Giannozzi et al., J. Phys.:Condens. Matter 29 465901 (2017);
         "P. Giannozzi et al., J. Chem. Phys. 152 154105 (2020);
          URL http://www.quantum-espresso.org", 
     in publications or presentations arising from this work. More details at
     http://www.quantum-espresso.org/quote

     Parallel version (MPI & OpenMP), running on       4 processor cores
     Number of MPI processes:                 2
     Threads/MPI process:                     2

     MPI processes distributed on     1 nodes
     R & G space division:  proc/nbgrp/npool/nimage =       2
     125187 MiB available memory on the printing compute node when the environment starts
 
     Reading input from Ta2C.scf.70.in

     Current dimensions of program PWSCF are:
     Max number of different atomic species (ntypx) = 10
     Max number of k-points (npk) =  40000
     Max angular momentum in pseudopotentials (lmaxx) =  4
     file Ta.pbesol-spfn-rrkjus_psl.1.0.0.UPF: wavefunction(s)  5S 5P renormalized

     Subspace diagonalization in iterative solution of the eigenvalue problem:
     a serial algorithm will be used

 
     Parallelization info
     --------------------
     sticks:   dense  smooth     PW     G-vecs:    dense   smooth      PW
     Min         401     324     99                87816    62968   11349
     Max         402     325    100                87817    62975   11384
     Sum         803     649    199               175633   125943   22733
 
     Using Slab Decomposition
 


     bravais-lattice index     =            0
     lattice parameter (alat)  =       5.5500  a.u.
     unit-cell volume          =    1588.7844 (a.u.)^3
     number of atoms/cell      =            3
     number of atomic types    =            2
     number of electrons       =        58.00
     number of Kohn-Sham states=           29
     kinetic-energy cutoff     =      70.0000  Ry
     charge density cutoff     =     350.0000  Ry
     scf convergence threshold =      1.0E-12
     mixing beta               =       0.7000
     number of iterations used =            8  plain     mixing
     Exchange-correlation= PBESOL
                           (   1   4  10   8   0   0   0)

     celldm(1)=   5.550000  celldm(2)=   0.000000  celldm(3)=   0.000000
     celldm(4)=   0.000000  celldm(5)=   0.000000  celldm(6)=   0.000000

     crystal axes: (cart. coord. in units of alat)
               a(1) = (   1.034114   0.000203   0.000000 )  
               a(2) = (  -0.516207   0.898604   0.000000 )  
               a(3) = (   0.000000   0.000000  10.000000 )  

     reciprocal axes: (cart. coord. in units 2 pi/alat)
               b(1) = (  0.966902  0.555441  0.000000 )  
               b(2) = ( -0.000219  1.112711  0.000000 )  
               b(3) = (  0.000000  0.000000  0.100000 )  


     PseudoPot. # 1 for Ta read from file:
     /shared/home/as3359/pseudo/Ta.pbesol-spfn-rrkjus_psl.1.0.0.UPF
     MD5 check sum: f099565ffaca9b150a52e9412a28e20b
     Pseudo is Ultrasoft + core correction, Zval = 27.0
     Generated using &quot;atomic&quot; code by A. Dal Corso  v.6.3
     Using radial grid of 1273 points,  8 beta functions with: 
                l(1) =   0
                l(2) =   0
                l(3) =   1
                l(4) =   1
                l(5) =   2
                l(6) =   2
                l(7) =   3
                l(8) =   3
     Q(r) pseudized with 0 coefficients 


     PseudoPot. # 2 for C  read from file:
     /shared/home/as3359/pseudo/C.pbesol-n-rrkjus_psl.1.0.0.UPF
     MD5 check sum: 05995be603a8a7c99da3dc4413f31573
     Pseudo is Ultrasoft + core correction, Zval =  4.0
     Generated using &quot;atomic&quot; code by A. Dal Corso  v.6.3MaX
     Using radial grid of 1073 points,  4 beta functions with: 
                l(1) =   0
                l(2) =   0
                l(3) =   1
                l(4) =   1
     Q(r) pseudized with 0 coefficients 


     atomic species   valence    mass     pseudopotential
        Ta            27.00   180.94788     Ta( 1.00)
        C              4.00    12.01070     C ( 1.00)

     No symmetry found



   Cartesian axes

     site n.     atom                  positions (alat units)
         1           C   tau(   1) = (   0.0000000   0.0000000   0.0000000  )
         2           Ta  tau(   2) = (   0.5174615   0.3004190  -0.4127129  )
         3           Ta  tau(   3) = (   0.0007158   0.5986355   0.4125272  )

     number of k points=    74
                       cart. coord. in units 2pi/alat
        k(    1) = (   0.0000000   0.0000000   0.0000000), wk =   0.0138889
        k(    2) = (  -0.0000182   0.0927259   0.0000000), wk =   0.0277778
        k(    3) = (  -0.0000364   0.1854519   0.0000000), wk =   0.0277778
        k(    4) = (  -0.0000547   0.2781778   0.0000000), wk =   0.0277778
        k(    5) = (  -0.0000729   0.3709037   0.0000000), wk =   0.0277778
        k(    6) = (  -0.0000911   0.4636296   0.0000000), wk =   0.0277778
        k(    7) = (   0.0001093  -0.5563556   0.0000000), wk =   0.0138889
        k(    8) = (   0.0805752   0.0462867   0.0000000), wk =   0.0277778
        k(    9) = (   0.0805570   0.1390127   0.0000000), wk =   0.0277778
        k(   10) = (   0.0805388   0.2317386   0.0000000), wk =   0.0277778
        k(   11) = (   0.0805205   0.3244645   0.0000000), wk =   0.0277778
        k(   12) = (   0.0805023   0.4171904   0.0000000), wk =   0.0277778
        k(   13) = (   0.0804841   0.5099164   0.0000000), wk =   0.0277778
        k(   14) = (   0.0806845  -0.5100688   0.0000000), wk =   0.0277778
        k(   15) = (   0.0806663  -0.4173429   0.0000000), wk =   0.0277778
        k(   16) = (   0.0806481  -0.3246170   0.0000000), wk =   0.0277778
        k(   17) = (   0.0806298  -0.2318910   0.0000000), wk =   0.0277778
        k(   18) = (   0.0806116  -0.1391651   0.0000000), wk =   0.0277778
        k(   19) = (   0.0805934  -0.0464392   0.0000000), wk =   0.0277778
        k(   20) = (   0.1611504   0.0925735   0.0000000), wk =   0.0277778
        k(   21) = (   0.1611322   0.1852994   0.0000000), wk =   0.0277778
        k(   22) = (   0.1611139   0.2780253   0.0000000), wk =   0.0277778
        k(   23) = (   0.1610957   0.3707513   0.0000000), wk =   0.0277778
        k(   24) = (   0.1610775   0.4634772   0.0000000), wk =   0.0277778
        k(   25) = (   0.1610593   0.5562031   0.0000000), wk =   0.0277778
        k(   26) = (   0.1612597  -0.4637821   0.0000000), wk =   0.0277778
        k(   27) = (   0.1612415  -0.3710561   0.0000000), wk =   0.0277778
        k(   28) = (   0.1612232  -0.2783302   0.0000000), wk =   0.0277778
        k(   29) = (   0.1612050  -0.1856043   0.0000000), wk =   0.0277778
        k(   30) = (   0.1611868  -0.0928784   0.0000000), wk =   0.0277778
        k(   31) = (   0.1611686  -0.0001524   0.0000000), wk =   0.0277778
        k(   32) = (   0.2417256   0.1388602   0.0000000), wk =   0.0277778
        k(   33) = (   0.2417073   0.2315862   0.0000000), wk =   0.0277778
        k(   34) = (   0.2416891   0.3243121   0.0000000), wk =   0.0277778
        k(   35) = (   0.2416709   0.4170380   0.0000000), wk =   0.0277778
        k(   36) = (   0.2416527   0.5097639   0.0000000), wk =   0.0277778
        k(   37) = (   0.2416345   0.6024899   0.0000000), wk =   0.0277778
        k(   38) = (   0.2418349  -0.4174953   0.0000000), wk =   0.0277778
        k(   39) = (   0.2418166  -0.3247694   0.0000000), wk =   0.0277778
        k(   40) = (   0.2417984  -0.2320435   0.0000000), wk =   0.0277778
        k(   41) = (   0.2417802  -0.1393175   0.0000000), wk =   0.0277778
        k(   42) = (   0.2417620  -0.0465916   0.0000000), wk =   0.0277778
        k(   43) = (   0.2417438   0.0461343   0.0000000), wk =   0.0277778
        k(   44) = (   0.3223007   0.1851470   0.0000000), wk =   0.0277778
        k(   45) = (   0.3222825   0.2778729   0.0000000), wk =   0.0277778
        k(   46) = (   0.3222643   0.3705988   0.0000000), wk =   0.0277778
        k(   47) = (   0.3222461   0.4633248   0.0000000), wk =   0.0277778
        k(   48) = (   0.3222279   0.5560507   0.0000000), wk =   0.0277778
        k(   49) = (   0.3222097   0.6487766   0.0000000), wk =   0.0277778
        k(   50) = (   0.3224100  -0.3712086   0.0000000), wk =   0.0277778
        k(   51) = (   0.3223918  -0.2784827   0.0000000), wk =   0.0277778
        k(   52) = (   0.3223736  -0.1857567   0.0000000), wk =   0.0277778
        k(   53) = (   0.3223554  -0.0930308   0.0000000), wk =   0.0277778
        k(   54) = (   0.3223372  -0.0003049   0.0000000), wk =   0.0277778
        k(   55) = (   0.3223190   0.0924210   0.0000000), wk =   0.0277778
        k(   56) = (   0.4028759   0.2314337   0.0000000), wk =   0.0277778
        k(   57) = (   0.4028577   0.3241596   0.0000000), wk =   0.0277778
        k(   58) = (   0.4028395   0.4168856   0.0000000), wk =   0.0277778
        k(   59) = (   0.4028213   0.5096115   0.0000000), wk =   0.0277778
        k(   60) = (   0.4028031   0.6023374   0.0000000), wk =   0.0277778
        k(   61) = (   0.4027848   0.6950633   0.0000000), wk =   0.0277778
        k(   62) = (   0.4029852  -0.3249218   0.0000000), wk =   0.0277778
        k(   63) = (   0.4029670  -0.2321959   0.0000000), wk =   0.0277778
        k(   64) = (   0.4029488  -0.1394700   0.0000000), wk =   0.0277778
        k(   65) = (   0.4029306  -0.0467441   0.0000000), wk =   0.0277778
        k(   66) = (   0.4029124   0.0459819   0.0000000), wk =   0.0277778
        k(   67) = (   0.4028941   0.1387078   0.0000000), wk =   0.0277778
        k(   68) = (  -0.4834511  -0.2777205   0.0000000), wk =   0.0138889
        k(   69) = (  -0.4834693  -0.1849945   0.0000000), wk =   0.0277778
        k(   70) = (  -0.4834875  -0.0922686   0.0000000), wk =   0.0277778
        k(   71) = (  -0.4835058   0.0004573   0.0000000), wk =   0.0277778
        k(   72) = (  -0.4835240   0.0931832   0.0000000), wk =   0.0277778
        k(   73) = (  -0.4835422   0.1859092   0.0000000), wk =   0.0277778
        k(   74) = (  -0.4833418  -0.8340760   0.0000000), wk =   0.0138889

     Dense  grid:   175633 G-vectors     FFT dimensions: (  36,  36, 360)

     Smooth grid:   125943 G-vectors     FFT dimensions: (  32,  32, 300)

     Estimated max dynamical RAM per process >       1.09 GB

     Estimated total dynamical RAM >       2.17 GB

     Check: negative core charge=   -0.000002

     Initial potential from superposition of free atoms

     starting charge   57.99842, renormalised to   58.00000

     negative rho (up, down):  1.316E-03 0.000E+00
     Starting wfcs are   38 randomized atomic wfcs

     total cpu time spent up to now is        8.4 secs

     Self-consistent Calculation

     iteration #  1     ecut=    70.00 Ry     beta= 0.70
     Davidson diagonalization with overlap
     ethr =  1.00E-02,  avg # of iterations =  2.1

     negative rho (up, down):  8.230E-04 0.000E+00

     total cpu time spent up to now is       20.2 secs

     total energy              =   -1372.42169349 Ry
     estimated scf accuracy    <       1.29678336 Ry

     iteration #  2     ecut=    70.00 Ry     beta= 0.70
     Davidson diagonalization with overlap
     c_bands:  2 eigenvalues not converged
     ethr =  2.24E-03,  avg # of iterations =  7.8

     total cpu time spent up to now is       37.8 secs

     total energy              =   -1371.65153936 Ry
     estimated scf accuracy    <       9.75035216 Ry

     iteration #  3     ecut=    70.00 Ry     beta= 0.70
     Davidson diagonalization with overlap
     ethr =  2.24E-03,  avg # of iterations =  6.4

     total cpu time spent up to now is       54.2 secs

     total energy              =   -1373.21270689 Ry
     estimated scf accuracy    <       0.17931782 Ry

     iteration #  4     ecut=    70.00 Ry     beta= 0.70
     Davidson diagonalization with overlap
     ethr =  3.09E-04,  avg # of iterations =  4.4

     total cpu time spent up to now is       67.8 secs

     total energy              =   -1373.24611999 Ry
     estimated scf accuracy    <       0.03704191 Ry

     iteration #  5     ecut=    70.00 Ry     beta= 0.70
     Davidson diagonalization with overlap
     ethr =  6.39E-05,  avg # of iterations =  6.7

     total cpu time spent up to now is       83.0 secs

     total energy              =   -1373.23903820 Ry
     estimated scf accuracy    <       0.17764999 Ry

     iteration #  6     ecut=    70.00 Ry     beta= 0.70
     Davidson diagonalization with overlap
     ethr =  6.39E-05,  avg # of iterations =  7.1

     negative rho (up, down):  4.599E-08 0.000E+00

     total cpu time spent up to now is       98.0 secs

     total energy              =   -1373.24580581 Ry
     estimated scf accuracy    <       0.02430895 Ry

     iteration #  7     ecut=    70.00 Ry     beta= 0.70
     Davidson diagonalization with overlap
     ethr =  4.19E-05,  avg # of iterations =  2.9

     negative rho (up, down):  8.511E-07 0.000E+00

     total cpu time spent up to now is      110.3 secs

     total energy              =   -1373.24699693 Ry
     estimated scf accuracy    <       0.00415968 Ry

     iteration #  8     ecut=    70.00 Ry     beta= 0.70
     Davidson diagonalization with overlap
     ethr =  7.17E-06,  avg # of iterations =  6.1

     negative rho (up, down):  6.945E-05 0.000E+00

     total cpu time spent up to now is      124.7 secs

     total energy              =   -1373.24746112 Ry
     estimated scf accuracy    <       0.00405162 Ry

     iteration #  9     ecut=    70.00 Ry     beta= 0.70
     Davidson diagonalization with overlap
     ethr =  6.99E-06,  avg # of iterations =  2.0

     negative rho (up, down):  4.257E-04 0.000E+00

     total cpu time spent up to now is      136.5 secs

     total energy              =   -1373.24726957 Ry
     estimated scf accuracy    <       0.00248407 Ry

     iteration # 10     ecut=    70.00 Ry     beta= 0.70
     Davidson diagonalization with overlap
     ethr =  4.28E-06,  avg # of iterations =  3.6

     negative rho (up, down):  1.081E-03 0.000E+00

     total cpu time spent up to now is      149.0 secs

     total energy              =   -1373.24741771 Ry
     estimated scf accuracy    <       0.00046617 Ry

     iteration # 11     ecut=    70.00 Ry     beta= 0.70
     Davidson diagonalization with overlap
     ethr =  8.04E-07,  avg # of iterations =  6.5

     negative rho (up, down):  7.170E-04 0.000E+00

     total cpu time spent up to now is      164.2 secs

     total energy              =   -1373.24754998 Ry
     estimated scf accuracy    <       0.00050945 Ry

     iteration # 12     ecut=    70.00 Ry     beta= 0.70
     Davidson diagonalization with overlap
     ethr =  8.04E-07,  avg # of iterations =  1.0

     negative rho (up, down):  7.209E-04 0.000E+00

     total cpu time spent up to now is      175.4 secs

     total energy              =   -1373.24745589 Ry
     estimated scf accuracy    <       0.00055576 Ry

     iteration # 13     ecut=    70.00 Ry     beta= 0.70
     Davidson diagonalization with overlap
     ethr =  8.04E-07,  avg # of iterations =  2.8

     negative rho (up, down):  8.905E-04 0.000E+00

     total cpu time spent up to now is      187.8 secs

     total energy              =   -1373.24748088 Ry
     estimated scf accuracy    <       0.00013747 Ry

     iteration # 14     ecut=    70.00 Ry     beta= 0.70
     Davidson diagonalization with overlap
     ethr =  2.37E-07,  avg # of iterations =  4.3

     negative rho (up, down):  8.733E-04 0.000E+00

     total cpu time spent up to now is      200.6 secs

     total energy              =   -1373.24749235 Ry
     estimated scf accuracy    <       0.00001489 Ry

     iteration # 15     ecut=    70.00 Ry     beta= 0.70
     Davidson diagonalization with overlap
     ethr =  2.57E-08,  avg # of iterations =  4.7

     negative rho (up, down):  8.551E-04 0.000E+00

     total cpu time spent up to now is      213.8 secs

     total energy              =   -1373.24749482 Ry
     estimated scf accuracy    <       0.00001366 Ry

     iteration # 16     ecut=    70.00 Ry     beta= 0.70
     Davidson diagonalization with overlap
     ethr =  2.35E-08,  avg # of iterations =  6.3

     negative rho (up, down):  8.947E-04 0.000E+00

     total cpu time spent up to now is      228.4 secs

     total energy              =   -1373.24748883 Ry
     estimated scf accuracy    <       0.00012801 Ry

     iteration # 17     ecut=    70.00 Ry     beta= 0.70
     Davidson diagonalization with overlap
     ethr =  2.35E-08,  avg # of iterations =  6.1

     negative rho (up, down):  8.871E-04 0.000E+00

     total cpu time spent up to now is      242.8 secs

     total energy              =   -1373.24749198 Ry
     estimated scf accuracy    <       0.00001082 Ry

     iteration # 18     ecut=    70.00 Ry     beta= 0.70
     Davidson diagonalization with overlap
     ethr =  1.87E-08,  avg # of iterations =  1.6

     negative rho (up, down):  8.760E-04 0.000E+00

     total cpu time spent up to now is      253.9 secs

     total energy              =   -1373.24749100 Ry
     estimated scf accuracy    <       0.00000656 Ry

     iteration # 19     ecut=    70.00 Ry     beta= 0.70
     Davidson diagonalization with overlap
     ethr =  1.13E-08,  avg # of iterations =  7.1

     negative rho (up, down):  8.743E-04 0.000E+00

     total cpu time spent up to now is      269.4 secs

     total energy              =   -1373.24749165 Ry
     estimated scf accuracy    <       0.00001284 Ry

     iteration # 20     ecut=    70.00 Ry     beta= 0.70
     Davidson diagonalization with overlap
     ethr =  1.13E-08,  avg # of iterations =  3.8

     negative rho (up, down):  8.750E-04 0.000E+00

     total cpu time spent up to now is      282.3 secs

     total energy              =   -1373.24749206 Ry
     estimated scf accuracy    <       0.00000197 Ry

     iteration # 21     ecut=    70.00 Ry     beta= 0.70
     Davidson diagonalization with overlap
     ethr =  3.40E-09,  avg # of iterations =  5.8

     negative rho (up, down):  8.758E-04 0.000E+00

     total cpu time spent up to now is      296.2 secs

     total energy              =   -1373.24749230 Ry
     estimated scf accuracy    <       0.00000008 Ry

     iteration # 22     ecut=    70.00 Ry     beta= 0.70
     Davidson diagonalization with overlap
     ethr =  1.38E-10,  avg # of iterations =  5.7

     negative rho (up, down):  8.757E-04 0.000E+00

     total cpu time spent up to now is      310.3 secs

     total energy              =   -1373.24749231 Ry
     estimated scf accuracy    <       0.00000024 Ry

     iteration # 23     ecut=    70.00 Ry     beta= 0.70
     Davidson diagonalization with overlap
     ethr =  1.38E-10,  avg # of iterations =  2.0

     negative rho (up, down):  8.757E-04 0.000E+00

     total cpu time spent up to now is      321.7 secs

     total energy              =   -1373.24749230 Ry
     estimated scf accuracy    <       0.00000016 Ry

     iteration # 24     ecut=    70.00 Ry     beta= 0.70
     Davidson diagonalization with overlap
     ethr =  1.38E-10,  avg # of iterations =  3.8

     negative rho (up, down):  8.757E-04 0.000E+00

     total cpu time spent up to now is      334.2 secs

     total energy              =   -1373.24749230 Ry
     estimated scf accuracy    <       0.00000004 Ry

     iteration # 25     ecut=    70.00 Ry     beta= 0.70
     Davidson diagonalization with overlap
     ethr =  6.28E-11,  avg # of iterations =  3.9

     negative rho (up, down):  8.757E-04 0.000E+00

     total cpu time spent up to now is      347.1 secs

     total energy              =   -1373.24749231 Ry
     estimated scf accuracy    <          6.1E-09 Ry

     iteration # 26     ecut=    70.00 Ry     beta= 0.70
     Davidson diagonalization with overlap
     ethr =  1.05E-11,  avg # of iterations =  5.7

     negative rho (up, down):  8.757E-04 0.000E+00

     total cpu time spent up to now is      361.3 secs

     total energy              =   -1373.24749231 Ry
     estimated scf accuracy    <          3.3E-10 Ry

     iteration # 27     ecut=    70.00 Ry     beta= 0.70
     Davidson diagonalization with overlap
     ethr =  5.75E-13,  avg # of iterations =  6.3

     negative rho (up, down):  8.758E-04 0.000E+00

     total cpu time spent up to now is      376.2 secs

     total energy              =   -1373.24749231 Ry
     estimated scf accuracy    <          3.6E-10 Ry

     iteration # 28     ecut=    70.00 Ry     beta= 0.70
     Davidson diagonalization with overlap
     ethr =  5.75E-13,  avg # of iterations =  5.9

     negative rho (up, down):  8.758E-04 0.000E+00

     total cpu time spent up to now is      390.2 secs

     total energy              =   -1373.24749231 Ry
     estimated scf accuracy    <          5.2E-10 Ry

     iteration # 29     ecut=    70.00 Ry     beta= 0.70
     Davidson diagonalization with overlap
     ethr =  5.75E-13,  avg # of iterations =  1.0

     negative rho (up, down):  8.758E-04 0.000E+00

     total cpu time spent up to now is      400.8 secs

     total energy              =   -1373.24749231 Ry
     estimated scf accuracy    <          5.0E-10 Ry

     iteration # 30     ecut=    70.00 Ry     beta= 0.70
     Davidson diagonalization with overlap
     ethr =  5.75E-13,  avg # of iterations =  1.3

     negative rho (up, down):  8.758E-04 0.000E+00

     total cpu time spent up to now is      411.8 secs

     total energy              =   -1373.24749231 Ry
     estimated scf accuracy    <          3.4E-10 Ry

     iteration # 31     ecut=    70.00 Ry     beta= 0.70
     Davidson diagonalization with overlap
     ethr =  5.75E-13,  avg # of iterations =  2.0

     negative rho (up, down):  8.758E-04 0.000E+00

     total cpu time spent up to now is      423.3 secs

     total energy              =   -1373.24749231 Ry
     estimated scf accuracy    <          1.3E-10 Ry

     iteration # 32     ecut=    70.00 Ry     beta= 0.70
     Davidson diagonalization with overlap
     ethr =  2.33E-13,  avg # of iterations =  3.3

     negative rho (up, down):  8.758E-04 0.000E+00

     total cpu time spent up to now is      435.7 secs

     total energy              =   -1373.24749231 Ry
     estimated scf accuracy    <          2.9E-11 Ry

     iteration # 33     ecut=    70.00 Ry     beta= 0.70
     Davidson diagonalization with overlap
     ethr =  1.00E-13,  avg # of iterations =  1.9

     negative rho (up, down):  8.758E-04 0.000E+00

     total cpu time spent up to now is      447.3 secs

     total energy              =   -1373.24749231 Ry
     estimated scf accuracy    <          1.9E-11 Ry

     iteration # 34     ecut=    70.00 Ry     beta= 0.70
     Davidson diagonalization with overlap
     ethr =  1.00E-13,  avg # of iterations =  1.4

     negative rho (up, down):  8.758E-04 0.000E+00

     total cpu time spent up to now is      458.7 secs

     total energy              =   -1373.24749231 Ry
     estimated scf accuracy    <          1.3E-11 Ry

     iteration # 35     ecut=    70.00 Ry     beta= 0.70
     Davidson diagonalization with overlap
     ethr =  1.00E-13,  avg # of iterations =  1.0

     negative rho (up, down):  8.758E-04 0.000E+00

     total cpu time spent up to now is      469.8 secs

     total energy              =   -1373.24749231 Ry
     estimated scf accuracy    <          1.3E-11 Ry

     iteration # 36     ecut=    70.00 Ry     beta= 0.70
     Davidson diagonalization with overlap
     ethr =  1.00E-13,  avg # of iterations =  1.0

     negative rho (up, down):  8.758E-04 0.000E+00

     total cpu time spent up to now is      480.9 secs

     total energy              =   -1373.24749231 Ry
     estimated scf accuracy    <          6.9E-12 Ry

     iteration # 37     ecut=    70.00 Ry     beta= 0.70
     Davidson diagonalization with overlap
     ethr =  1.00E-13,  avg # of iterations =  1.9

     negative rho (up, down):  8.758E-04 0.000E+00

     total cpu time spent up to now is      492.6 secs

     End of self-consistent calculation

          k = 0.0000 0.0000 0.0000 ( 15817 PWs)   bands (ev):

   -68.2942 -68.2465 -35.3182 -34.7144 -34.4062 -34.4012 -34.3412 -34.3348
   -19.9546 -19.9409 -19.9157 -19.9153 -19.9098 -19.9094 -19.8832 -19.8826
   -19.8753 -19.8752 -19.8681 -19.8627 -19.8016 -19.8001 -13.2821  -7.6729
    -4.3972  -4.3539  -1.9328  -0.9028  -0.7300

          k =-0.0000 0.0927 0.0000 ( 15771 PWs)   bands (ev):

   -68.2904 -68.2441 -35.3055 -34.7196 -34.4532 -34.4175 -34.3851 -34.3410
   -19.9531 -19.9399 -19.9172 -19.9157 -19.9101 -19.9083 -19.8847 -19.8822
   -19.8756 -19.8746 -19.8652 -19.8600 -19.8044 -19.8030 -13.1682  -7.4528
    -4.7207  -4.3196  -1.8379  -1.0862  -0.5410

          k =-0.0000 0.1855 0.0000 ( 15728 PWs)   bands (ev):

   -68.2798 -68.2376 -35.2712 -34.7474 -34.5676 -34.5022 -34.4588 -34.3601
   -19.9491 -19.9375 -19.9210 -19.9167 -19.9111 -19.9059 -19.8883 -19.8812
   -19.8765 -19.8726 -19.8575 -19.8528 -19.8118 -19.8107 -12.8678  -6.8712
    -5.3812  -4.2569  -1.8332  -1.4670  -0.9870

          k =-0.0001 0.2782 0.0000 ( 15707 PWs)   bands (ev):

   -68.2649 -68.2291 -35.2277 -34.8510 -34.6645 -34.6439 -34.5116 -34.3893
   -19.9446 -19.9341 -19.9252 -19.9181 -19.9129 -19.9037 -19.8921 -19.8792
   -19.8776 -19.8697 -19.8469 -19.8428 -19.8217 -19.8204 -12.4878  -6.4564
    -5.6946  -4.2456  -2.4660  -1.5299  -1.0316

          k =-0.0001 0.3709 0.0000 ( 15695 PWs)   bands (ev):

   -68.2492 -68.2214 -35.1975 -35.0076 -34.7812 -34.6899 -34.5620 -34.4201
   -19.9423 -19.9299 -19.9283 -19.9197 -19.9155 -19.9028 -19.8942 -19.8784
   -19.8766 -19.8664 -19.8360 -19.8328 -19.8313 -19.8291 -12.1520  -6.8434
    -5.2268  -4.3052  -3.1029  -1.1942  -0.6716

          k =-0.0001 0.4636 0.0000 ( 15710 PWs)   bands (ev):

   -68.2368 -68.2167 -35.2016 -35.1261 -34.8400 -34.7144 -34.5979 -34.4433
   -19.9424 -19.9294 -19.9268 -19.9210 -19.9179 -19.9031 -19.8946 -19.8789
   -19.8743 -19.8638 -19.8382 -19.8348 -19.8278 -19.8255 -11.9405  -7.1644
    -5.0037  -4.3814  -3.5023  -0.4205  -0.1645

          k = 0.0001-0.5564 0.0000 ( 15726 PWs)   bands (ev):

   -68.2318 -68.2154 -35.2152 -35.1661 -34.8493 -34.7256 -34.6109 -34.4519
   -19.9427 -19.9293 -19.9263 -19.9215 -19.9185 -19.9033 -19.8946 -19.8791
   -19.8734 -19.8627 -19.8407 -19.8367 -19.8246 -19.8229 -11.8713  -7.2744
    -4.9712  -4.4144  -3.6357   0.0652   0.0945

          k = 0.0806 0.0463 0.0000 ( 15781 PWs)   bands (ev):

   -68.2903 -68.2441 -35.3054 -34.7196 -34.4511 -34.4204 -34.3819 -34.3447
   -19.9531 -19.9399 -19.9171 -19.9159 -19.9100 -19.9084 -19.8844 -19.8825
   -19.8757 -19.8745 -19.8652 -19.8600 -19.8044 -19.8030 -13.1676  -7.4518
    -4.6990  -4.3447  -1.8363  -1.0847  -0.5414

          k = 0.0806 0.1390 0.0000 ( 15771 PWs)   bands (ev):

   -68.2831 -68.2396 -35.2819 -34.7347 -34.5231 -34.4945 -34.4199 -34.3642
   -19.9503 -19.9382 -19.9194 -19.9171 -19.9103 -19.9068 -19.8871 -19.8817
   -19.8760 -19.8735 -19.8599 -19.8551 -19.8095 -19.8084 -12.9605  -7.0426
    -5.1759  -4.3280  -1.7383  -1.2964  -0.9168

          k = 0.0805 0.2317 0.0000 ( 15738 PWs)   bands (ev):

   -68.2704 -68.2322 -35.2424 -34.7930 -34.6328 -34.6082 -34.4781 -34.3964
   -19.9456 -19.9356 -19.9231 -19.9191 -19.9111 -19.9047 -19.8908 -19.8806
   -19.8762 -19.8714 -19.8508 -19.8465 -19.8181 -19.8173 -12.6198  -6.3920
    -5.7372  -4.4080  -1.9850  -1.4668  -1.1294

          k = 0.0805 0.3245 0.0000 ( 15706 PWs)   bands (ev):

   -68.2551 -68.2241 -35.2036 -34.9263 -34.7455 -34.6759 -34.5439 -34.4310
   -19.9417 -19.9321 -19.9267 -19.9207 -19.9130 -19.9034 -19.8937 -19.8795
   -19.8758 -19.8686 -19.8401 -19.8365 -19.8279 -19.8266 -12.2621  -6.5083
    -5.4390  -4.5322  -2.6355  -1.1787  -1.0512

          k = 0.0805 0.4172 0.0000 ( 15714 PWs)   bands (ev):

   -68.2408 -68.2180 -35.1882 -35.0640 -34.8212 -34.7142 -34.5948 -34.4615
   -19.9406 -19.9288 -19.9281 -19.9215 -19.9158 -19.9034 -19.8950 -19.8788
   -19.8747 -19.8657 -19.8365 -19.8340 -19.8304 -19.8278 -11.9911  -6.9100
    -5.0235  -4.6266  -3.0802  -0.7225  -0.5769

          k = 0.0805 0.5099 0.0000 ( 15719 PWs)   bands (ev):

   -68.2317 -68.2153 -35.1974 -35.1437 -34.8412 -34.7415 -34.6213 -34.4795
   -19.9410 -19.9291 -19.9260 -19.9215 -19.9180 -19.9038 -19.8951 -19.8786
   -19.8739 -19.8638 -19.8412 -19.8379 -19.8246 -19.8229 -11.8539  -7.1255
    -4.9192  -4.6900  -3.2892  -0.1455  -0.0754

          k = 0.0807-0.5101 0.0000 ( 15716 PWs)   bands (ev):

   -68.2317 -68.2153 -35.1977 -35.1439 -34.8414 -34.7413 -34.6212 -34.4795
   -19.9410 -19.9292 -19.9260 -19.9215 -19.9181 -19.9038 -19.8951 -19.8786
   -19.8738 -19.8638 -19.8413 -19.8379 -19.8246 -19.8229 -11.8537  -7.1259
    -4.9198  -4.6892  -3.2904  -0.1454  -0.0760

          k = 0.0807-0.4173 0.0000 ( 15706 PWs)   bands (ev):

   -68.2408 -68.2180 -35.1884 -35.0646 -34.8220 -34.7140 -34.5946 -34.4615
   -19.9406 -19.9288 -19.9281 -19.9215 -19.9159 -19.9034 -19.8950 -19.8789
   -19.8745 -19.8657 -19.8365 -19.8341 -19.8303 -19.8278 -11.9905  -6.9111
    -5.0235  -4.6260  -3.0833  -0.7202  -0.5791

          k = 0.0806-0.3246 0.0000 ( 15716 PWs)   bands (ev):

   -68.2550 -68.2240 -35.2036 -34.9271 -34.7462 -34.6761 -34.5439 -34.4310
   -19.9417 -19.9321 -19.9267 -19.9207 -19.9130 -19.9035 -19.8937 -19.8795
   -19.8757 -19.8686 -19.8401 -19.8365 -19.8280 -19.8267 -12.2612  -6.5093
    -5.4384  -4.5323  -2.6388  -1.1780  -1.0507

          k = 0.0806-0.2319 0.0000 ( 15747 PWs)   bands (ev):

   -68.2703 -68.2321 -35.2423 -34.7933 -34.6330 -34.6085 -34.4787 -34.3968
   -19.9456 -19.9356 -19.9230 -19.9191 -19.9111 -19.9048 -19.8908 -19.8806
   -19.8762 -19.8714 -19.8508 -19.8464 -19.8182 -19.8173 -12.6189  -6.3907
    -5.7368  -4.4095  -1.9864  -1.4656  -1.1291

          k = 0.0806-0.1392 0.0000 ( 15755 PWs)   bands (ev):

   -68.2831 -68.2396 -35.2818 -34.7345 -34.5228 -34.4942 -34.4208 -34.3654
   -19.9503 -19.9382 -19.9193 -19.9173 -19.9102 -19.9070 -19.8870 -19.8818
   -19.8760 -19.8735 -19.8599 -19.8551 -19.8096 -19.8084 -12.9598  -7.0413
    -5.1708  -4.3349  -1.7371  -1.2947  -0.9124

          k = 0.0806-0.0464 0.0000 ( 15789 PWs)   bands (ev):

   -68.2903 -68.2440 -35.3053 -34.7195 -34.4496 -34.4222 -34.3803 -34.3465
   -19.9531 -19.9399 -19.9169 -19.9161 -19.9097 -19.9087 -19.8843 -19.8827
   -19.8756 -19.8746 -19.8652 -19.8600 -19.8044 -19.8031 -13.1673  -7.4513
    -4.6894  -4.3555  -1.8355  -1.0836  -0.5390

          k = 0.1612 0.0926 0.0000 ( 15745 PWs)   bands (ev):

   -68.2796 -68.2375 -35.2708 -34.7470 -34.5667 -34.4997 -34.4625 -34.3643
   -19.9490 -19.9375 -19.9208 -19.9169 -19.9110 -19.9060 -19.8880 -19.8814
   -19.8766 -19.8726 -19.8574 -19.8527 -19.8119 -19.8108 -12.8657  -6.8679
    -5.3647  -4.2833  -1.8232  -1.4666  -0.9813

          k = 0.1611 0.1853 0.0000 ( 15728 PWs)   bands (ev):

   -68.2702 -68.2321 -35.2421 -34.7923 -34.6333 -34.6071 -34.4796 -34.3992
   -19.9456 -19.9356 -19.9230 -19.9192 -19.9110 -19.9048 -19.8907 -19.8807
   -19.8763 -19.8714 -19.8508 -19.8464 -19.8182 -19.8174 -12.6184  -6.3892
    -5.7298  -4.4227  -1.9735  -1.4705  -1.1345

          k = 0.1611 0.2780 0.0000 ( 15717 PWs)   bands (ev):

   -68.2570 -68.2250 -35.2059 -34.8759 -34.7518 -34.6616 -34.5256 -34.4602
   -19.9407 -19.9335 -19.9246 -19.9228 -19.9113 -19.9041 -19.8935 -19.8803
   -19.8742 -19.8704 -19.8416 -19.8378 -19.8266 -19.8263 -12.2996  -6.1430
    -5.6859  -4.7674  -2.1302  -1.6232  -0.5778

          k = 0.1611 0.3708 0.0000 ( 15702 PWs)   bands (ev):

   -68.2430 -68.2188 -35.1779 -34.9835 -34.8329 -34.7034 -34.5934 -34.5121
   -19.9369 -19.9312 -19.9265 -19.9237 -19.9132 -19.9043 -19.8954 -19.8794
   -19.8727 -19.8690 -19.8357 -19.8349 -19.8316 -19.8290 -12.0092  -6.4870
    -5.1438  -4.9881  -2.3922  -1.3015  -0.6078

          k = 0.1611 0.4635 0.0000 ( 15694 PWs)   bands (ev):

   -68.2315 -68.2153 -35.1653 -35.0778 -34.8479 -34.7608 -34.6376 -34.5469
   -19.9368 -19.9291 -19.9262 -19.9222 -19.9161 -19.9050 -19.8963 -19.8780
   -19.8734 -19.8667 -19.8422 -19.8403 -19.8247 -19.8229 -11.8185  -6.7453
    -5.1856  -4.7923  -2.5652  -0.6866  -0.4843

          k = 0.1611 0.5562 0.0000 ( 15696 PWs)   bands (ev):

   -68.2267 -68.2146 -35.1580 -35.1202 -34.8211 -34.8131 -34.6493 -34.5599
   -19.9373 -19.9288 -19.9248 -19.9212 -19.9179 -19.9055 -19.8964 -19.8770
   -19.8744 -19.8658 -19.8446 -19.8422 -19.8220 -19.8207 -11.7536  -6.8405
    -5.2144  -4.7449  -2.6334  -0.3361  -0.2804

          k = 0.1613-0.4638 0.0000 ( 15698 PWs)   bands (ev):

   -68.2315 -68.2152 -35.1658 -35.0786 -34.8487 -34.7604 -34.6375 -34.5468
   -19.9368 -19.9290 -19.9262 -19.9223 -19.9162 -19.9051 -19.8962 -19.8781
   -19.8733 -19.8667 -19.8422 -19.8403 -19.8247 -19.8229 -11.8178  -6.7470
    -5.1859  -4.7925  -2.5674  -0.6907  -0.4836

          k = 0.1612-0.3711 0.0000 ( 15707 PWs)   bands (ev):

   -68.2428 -68.2187 -35.1781 -34.9849 -34.8338 -34.7037 -34.5934 -34.5121
   -19.9369 -19.9312 -19.9265 -19.9237 -19.9132 -19.9044 -19.8954 -19.8795
   -19.8726 -19.8689 -19.8358 -19.8350 -19.8316 -19.8289 -12.0079  -6.4893
    -5.1433  -4.9887  -2.3964  -1.3045  -0.6062

          k = 0.1612-0.2783 0.0000 ( 15715 PWs)   bands (ev):

   -68.2569 -68.2249 -35.2057 -34.8766 -34.7526 -34.6619 -34.5263 -34.4609
   -19.9407 -19.9335 -19.9246 -19.9229 -19.9113 -19.9043 -19.8934 -19.8803
   -19.8741 -19.8704 -19.8415 -19.8377 -19.8267 -19.8264 -12.2979  -6.1435
    -5.6838  -4.7702  -2.1332  -1.6233  -0.5776

          k = 0.1612-0.1856 0.0000 ( 15736 PWs)   bands (ev):

   -68.2701 -68.2320 -35.2418 -34.7921 -34.6335 -34.6072 -34.4810 -34.4009
   -19.9456 -19.9356 -19.9228 -19.9194 -19.9108 -19.9050 -19.8906 -19.8807
   -19.8762 -19.8714 -19.8507 -19.8464 -19.8183 -19.8175 -12.6168  -6.3866
    -5.7259  -4.4301  -1.9700  -1.4711  -1.1357

          k = 0.1612-0.0929 0.0000 ( 15751 PWs)   bands (ev):

   -68.2795 -68.2374 -35.2706 -34.7467 -34.5660 -34.4986 -34.4646 -34.3663
   -19.9490 -19.9375 -19.9207 -19.9172 -19.9107 -19.9062 -19.8879 -19.8815
   -19.8765 -19.8726 -19.8574 -19.8527 -19.8120 -19.8109 -12.8646  -6.8661
    -5.3576  -4.2937  -1.8187  -1.4660  -0.9788

          k = 0.1612-0.0002 0.0000 ( 15759 PWs)   bands (ev):

   -68.2829 -68.2395 -35.2814 -34.7345 -34.5225 -34.4934 -34.4220 -34.3684
   -19.9502 -19.9383 -19.9192 -19.9174 -19.9101 -19.9070 -19.8867 -19.8821
   -19.8761 -19.8734 -19.8598 -19.8550 -19.8097 -19.8085 -12.9582  -7.0391
    -5.1571  -4.3542  -1.7351  -1.2911  -0.9008

          k = 0.2417 0.1389 0.0000 ( 15701 PWs)   bands (ev):

   -68.2645 -68.2289 -35.2269 -34.8503 -34.6656 -34.6420 -34.5163 -34.3940
   -19.9445 -19.9341 -19.9252 -19.9183 -19.9127 -19.9038 -19.8919 -19.8794
   -19.8776 -19.8696 -19.8468 -19.8427 -19.8219 -19.8207 -12.4839  -6.4490
    -5.6863  -4.2740  -2.4552  -1.5326  -1.0312

          k = 0.2417 0.2316 0.0000 ( 15716 PWs)   bands (ev):

   -68.2547 -68.2239 -35.2030 -34.9253 -34.7457 -34.6754 -34.5480 -34.4351
   -19.9417 -19.9321 -19.9266 -19.9209 -19.9129 -19.9036 -19.8937 -19.8795
   -19.8759 -19.8686 -19.8400 -19.8364 -19.8281 -19.8268 -12.2591  -6.5008
    -5.4367  -4.5534  -2.6261  -1.1797  -1.0561

          k = 0.2417 0.3243 0.0000 ( 15699 PWs)   bands (ev):

   -68.2428 -68.2187 -35.1776 -34.9827 -34.8336 -34.7028 -34.5958 -34.5142
   -19.9369 -19.9311 -19.9264 -19.9239 -19.9131 -19.9044 -19.8954 -19.8794
   -19.8728 -19.8689 -19.8359 -19.8350 -19.8316 -19.8289 -12.0076  -6.4826
    -5.1533  -4.9903  -2.3894  -1.2985  -0.6133

          k = 0.2417 0.4170 0.0000 ( 15671 PWs)   bands (ev):

   -68.2313 -68.2152 -35.1508 -35.0159 -34.8984 -34.7354 -34.6513 -34.5926
   -19.9325 -19.9315 -19.9250 -19.9238 -19.9146 -19.9060 -19.8969 -19.8782
   -19.8711 -19.8699 -19.8424 -19.8418 -19.8247 -19.8229 -11.7997  -6.4489
    -5.5127  -4.7263  -1.8279  -1.3922  -0.6854

          k = 0.2417 0.5098 0.0000 ( 15693 PWs)   bands (ev):

   -68.2232 -68.2146 -35.1123 -35.0563 -34.9174 -34.7832 -34.6722 -34.6406
   -19.9337 -19.9281 -19.9245 -19.9209 -19.9170 -19.9073 -19.8979 -19.8761
   -19.8735 -19.8688 -19.8466 -19.8456 -19.8204 -19.8195 -11.6844  -6.4561
    -5.6983  -4.5671  -1.7459  -0.8895  -0.6501

          k = 0.2416 0.6025 0.0000 ( 15693 PWs)   bands (ev):

   -68.2231 -68.2146 -35.1127 -35.0569 -34.9174 -34.7833 -34.6720 -34.6406
   -19.9337 -19.9281 -19.9245 -19.9209 -19.9170 -19.9074 -19.8979 -19.8761
   -19.8735 -19.8687 -19.8466 -19.8457 -19.8204 -19.8195 -11.6840  -6.4573
    -5.6986  -4.5678  -1.7460  -0.8962  -0.6465

          k = 0.2418-0.4175 0.0000 ( 15676 PWs)   bands (ev):

   -68.2311 -68.2151 -35.1513 -35.0173 -34.8988 -34.7358 -34.6513 -34.5929
   -19.9325 -19.9315 -19.9251 -19.9237 -19.9146 -19.9061 -19.8969 -19.8782
   -19.8711 -19.8698 -19.8425 -19.8420 -19.8246 -19.8228 -11.7984  -6.4511
    -5.5146  -4.7271  -1.8312  -1.3964  -0.6837

          k = 0.2418-0.3248 0.0000 ( 15699 PWs)   bands (ev):

   -68.2425 -68.2185 -35.1777 -34.9836 -34.8348 -34.7029 -34.5968 -34.5153
   -19.9370 -19.9311 -19.9263 -19.9240 -19.9131 -19.9046 -19.8954 -19.8794
   -19.8727 -19.8688 -19.8360 -19.8351 -19.8315 -19.8288 -12.0056  -6.4832
    -5.1557  -4.9915  -2.3930  -1.2996  -0.6136

          k = 0.2418-0.2320 0.0000 ( 15720 PWs)   bands (ev):

   -68.2545 -68.2237 -35.2027 -34.9253 -34.7465 -34.6754 -34.5499 -34.4372
   -19.9417 -19.9321 -19.9265 -19.9210 -19.9127 -19.9038 -19.8936 -19.8795
   -19.8758 -19.8685 -19.8398 -19.8363 -19.8283 -19.8270 -12.2569  -6.4987
    -5.4333  -4.5620  -2.6261  -1.1792  -1.0570

          k = 0.2418-0.1393 0.0000 ( 15709 PWs)   bands (ev):

   -68.2643 -68.2287 -35.2266 -34.8497 -34.6658 -34.6413 -34.5188 -34.3963
   -19.9445 -19.9341 -19.9250 -19.9186 -19.9125 -19.9040 -19.8918 -19.8794
   -19.8776 -19.8696 -19.8467 -19.8426 -19.8220 -19.8208 -12.4822  -6.4458
    -5.6815  -4.2849  -2.4510  -1.5334  -1.0309

          k = 0.2418-0.0466 0.0000 ( 15751 PWs)   bands (ev):

   -68.2699 -68.2318 -35.2415 -34.7931 -34.6335 -34.6083 -34.4818 -34.4019
   -19.9456 -19.9356 -19.9228 -19.9194 -19.9109 -19.9050 -19.8904 -19.8809
   -19.8763 -19.8713 -19.8506 -19.8463 -19.8184 -19.8176 -12.6146  -6.3846
    -5.7246  -4.4363  -1.9730  -1.4690  -1.1347

          k = 0.2417 0.0461 0.0000 ( 15751 PWs)   bands (ev):

   -68.2700 -68.2319 -35.2416 -34.7936 -34.6336 -34.6085 -34.4810 -34.4005
   -19.9456 -19.9356 -19.9230 -19.9193 -19.9110 -19.9049 -19.8905 -19.8809
   -19.8763 -19.8713 -19.8506 -19.8463 -19.8184 -19.8175 -12.6153  -6.3859
    -5.7281  -4.4304  -1.9779  -1.4672  -1.1332

          k = 0.3223 0.1851 0.0000 ( 15685 PWs)   bands (ev):

   -68.2486 -68.2210 -35.1969 -35.0075 -34.7807 -34.6905 -34.5676 -34.4255
   -19.9423 -19.9298 -19.9283 -19.9199 -19.9154 -19.9030 -19.8941 -19.8785
   -19.8766 -19.8663 -19.8358 -19.8326 -19.8316 -19.8294 -12.1469  -6.8377
    -5.2255  -4.3361  -3.0953  -1.1917  -0.6679

          k = 0.3223 0.2779 0.0000 ( 15696 PWs)   bands (ev):

   -68.2402 -68.2177 -35.1880 -35.0636 -34.8201 -34.7153 -34.6000 -34.4665
   -19.9407 -19.9287 -19.9279 -19.9217 -19.9158 -19.9036 -19.8949 -19.8788
   -19.8747 -19.8656 -19.8368 -19.8343 -19.8301 -19.8276 -11.9868  -6.9051
    -5.0260  -4.6521  -3.0744  -0.7192  -0.5698

          k = 0.3223 0.3706 0.0000 ( 15696 PWs)   bands (ev):

   -68.2310 -68.2151 -35.1655 -35.0775 -34.8481 -34.7609 -34.6413 -34.5499
   -19.9370 -19.9290 -19.9260 -19.9224 -19.9161 -19.9052 -19.8962 -19.8780
   -19.8735 -19.8666 -19.8424 -19.8404 -19.8245 -19.8228 -11.8155  -6.7426
    -5.2003  -4.7981  -2.5690  -0.6742  -0.4759

          k = 0.3222 0.4633 0.0000 ( 15692 PWs)   bands (ev):

   -68.2229 -68.2146 -35.1129 -35.0561 -34.9186 -34.7821 -34.6747 -34.6409
   -19.9338 -19.9281 -19.9243 -19.9210 -19.9169 -19.9074 -19.8979 -19.8761
   -19.8736 -19.8686 -19.8467 -19.8457 -19.8203 -19.8194 -11.6829  -6.4555
    -5.7049  -4.5711  -1.7615  -0.8707  -0.6433

          k = 0.3222 0.5561 0.0000 ( 15628 PWs)   bands (ev):

   -68.2173 -68.2168 -35.0411 -35.0391 -35.0041 -34.7831 -34.6869 -34.6844
   -19.9332 -19.9255 -19.9253 -19.9185 -19.9184 -19.9087 -19.8987 -19.8744
   -19.8741 -19.8701 -19.8482 -19.8480 -19.8186 -19.8183 -11.6324  -6.1152
    -6.1140  -4.4643  -1.0951  -0.9644  -0.9529

          k = 0.3222 0.6488 0.0000 ( 15696 PWs)   bands (ev):

   -68.2227 -68.2145 -35.1134 -35.0566 -34.9193 -34.7821 -34.6752 -34.6414
   -19.9338 -19.9282 -19.9243 -19.9210 -19.9169 -19.9076 -19.8978 -19.8761
   -19.8736 -19.8685 -19.8468 -19.8458 -19.8202 -19.8193 -11.6819  -6.4559
    -5.7082  -4.5728  -1.7687  -0.8685  -0.6372

          k = 0.3224-0.3712 0.0000 ( 15690 PWs)   bands (ev):

   -68.2308 -68.2149 -35.1659 -35.0780 -34.8492 -34.7608 -34.6425 -34.5514
   -19.9370 -19.9290 -19.9260 -19.9225 -19.9160 -19.9054 -19.8961 -19.8781
   -19.8734 -19.8665 -19.8425 -19.8406 -19.8244 -19.8226 -11.8137  -6.7427
    -5.2067  -4.7989  -2.5735  -0.6720  -0.4720

          k = 0.3224-0.2785 0.0000 ( 15679 PWs)   bands (ev):

   -68.2399 -68.2175 -35.1880 -35.0639 -34.8206 -34.7154 -34.6024 -34.4689
   -19.9407 -19.9286 -19.9279 -19.9219 -19.9157 -19.9038 -19.8948 -19.8788
   -19.8746 -19.8656 -19.8369 -19.8345 -19.8299 -19.8274 -11.9845  -6.9038
    -5.0248  -4.6616  -3.0761  -0.7156  -0.5682

          k = 0.3224-0.1858 0.0000 ( 15695 PWs)   bands (ev):

   -68.2483 -68.2208 -35.1966 -35.0073 -34.7806 -34.6906 -34.5705 -34.4282
   -19.9424 -19.9298 -19.9282 -19.9202 -19.9152 -19.9032 -19.8940 -19.8785
   -19.8766 -19.8663 -19.8356 -19.8325 -19.8318 -19.8296 -12.1447  -6.8349
    -5.2226  -4.3480  -3.0932  -1.1906  -0.6658

          k = 0.3224-0.0930 0.0000 ( 15710 PWs)   bands (ev):

   -68.2543 -68.2236 -35.2026 -34.9273 -34.7478 -34.6757 -34.5494 -34.4373
   -19.9417 -19.9321 -19.9265 -19.9211 -19.9127 -19.9038 -19.8935 -19.8797
   -19.8757 -19.8684 -19.8398 -19.8362 -19.8284 -19.8271 -12.2548  -6.5021
    -5.4319  -4.5639  -2.6336  -1.1786  -1.0543

          k = 0.3223-0.0003 0.0000 ( 15719 PWs)   bands (ev):

   -68.2564 -68.2247 -35.2053 -34.8794 -34.7539 -34.6626 -34.5271 -34.4627
   -19.9406 -19.9335 -19.9246 -19.9230 -19.9112 -19.9043 -19.8933 -19.8805
   -19.8741 -19.8702 -19.8413 -19.8376 -19.8269 -19.8266 -12.2939  -6.1458
    -5.6803  -4.7801  -2.1382  -1.6257  -0.5805

          k = 0.3223 0.0924 0.0000 ( 15708 PWs)   bands (ev):

   -68.2544 -68.2237 -35.2029 -34.9280 -34.7478 -34.6759 -34.5475 -34.4353
   -19.9416 -19.9321 -19.9266 -19.9209 -19.9129 -19.9036 -19.8936 -19.8797
   -19.8756 -19.8685 -19.8398 -19.8363 -19.8283 -19.8269 -12.2561  -6.5051
    -5.4347  -4.5555  -2.6369  -1.1784  -1.0529

          k = 0.4029 0.2314 0.0000 ( 15700 PWs)   bands (ev):

   -68.2359 -68.2163 -35.2023 -35.1264 -34.8380 -34.7161 -34.6041 -34.4492
   -19.9424 -19.9293 -19.9266 -19.9212 -19.9178 -19.9034 -19.8945 -19.8790
   -19.8742 -19.8637 -19.8386 -19.8352 -19.8274 -19.8252 -11.9348  -7.1614
    -5.0097  -4.4142  -3.4960  -0.4096  -0.1545

          k = 0.4029 0.3242 0.0000 ( 15711 PWs)   bands (ev):

   -68.2308 -68.2151 -35.1986 -35.1438 -34.8386 -34.7440 -34.6267 -34.4848
   -19.9412 -19.9290 -19.9258 -19.9217 -19.9181 -19.9041 -19.8950 -19.8786
   -19.8738 -19.8637 -19.8416 -19.8382 -19.8243 -19.8227 -11.8488  -7.1234
    -4.9263  -4.7164  -3.2886  -0.1321  -0.0621

          k = 0.4028 0.4169 0.0000 ( 15701 PWs)   bands (ev):

   -68.2259 -68.2145 -35.1598 -35.1203 -34.8191 -34.8156 -34.6528 -34.5632
   -19.9375 -19.9287 -19.9246 -19.9214 -19.9179 -19.9057 -19.8963 -19.8772
   -19.8742 -19.8656 -19.8449 -19.8424 -19.8217 -19.8205 -11.7495  -6.8410
    -5.2304  -4.7532  -2.6424  -0.3239  -0.2636

          k = 0.4028 0.5096 0.0000 ( 15676 PWs)   bands (ev):

   -68.2225 -68.2146 -35.1144 -35.0585 -34.9182 -34.7824 -34.6734 -34.6419
   -19.9338 -19.9281 -19.9245 -19.9210 -19.9170 -19.9075 -19.8978 -19.8763
   -19.8734 -19.8685 -19.8468 -19.8458 -19.8202 -19.8193 -11.6811  -6.4613
    -5.7051  -4.5743  -1.7624  -0.8922  -0.6310

          k = 0.4028 0.6023 0.0000 ( 15688 PWs)   bands (ev):

   -68.2224 -68.2145 -35.1144 -35.0584 -34.9188 -34.7823 -34.6741 -34.6423
   -19.9338 -19.9282 -19.9244 -19.9210 -19.9169 -19.9076 -19.8978 -19.8763
   -19.8734 -19.8685 -19.8468 -19.8459 -19.8202 -19.8193 -11.6806  -6.4605
    -5.7080  -4.5752  -1.7695  -0.8834  -0.6284

          k = 0.4028 0.6951 0.0000 ( 15691 PWs)   bands (ev):

   -68.2257 -68.2143 -35.1602 -35.1202 -34.8187 -34.8168 -34.6542 -34.5649
   -19.9374 -19.9288 -19.9245 -19.9216 -19.9178 -19.9059 -19.8962 -19.8772
   -19.8742 -19.8655 -19.8450 -19.8426 -19.8216 -19.8204 -11.7480  -6.8403
    -5.2370  -4.7549  -2.6468  -0.3173  -0.2571

          k = 0.4030-0.3249 0.0000 ( 15709 PWs)   bands (ev):

   -68.2305 -68.2149 -35.1990 -35.1439 -34.8383 -34.7446 -34.6293 -34.4875
   -19.9412 -19.9290 -19.9257 -19.9219 -19.9179 -19.9043 -19.8948 -19.8787
   -19.8737 -19.8636 -19.8418 -19.8384 -19.8241 -19.8225 -11.8466  -7.1222
    -4.9274  -4.7261  -3.2906  -0.1259  -0.0561

          k = 0.4030-0.2322 0.0000 ( 15702 PWs)   bands (ev):

   -68.2356 -68.2161 -35.2024 -35.1264 -34.8377 -34.7164 -34.6073 -34.4522
   -19.9425 -19.9293 -19.9265 -19.9215 -19.9177 -19.9036 -19.8944 -19.8790
   -19.8741 -19.8636 -19.8388 -19.8354 -19.8272 -19.8251 -11.9325  -7.1594
    -5.0094  -4.4270  -3.4947  -0.4048  -0.1493

          k = 0.4029-0.1395 0.0000 ( 15659 PWs)   bands (ev):

   -68.2397 -68.2174 -35.1886 -35.0654 -34.8219 -34.7149 -34.6018 -34.4688
   -19.9407 -19.9287 -19.9279 -19.9219 -19.9156 -19.9038 -19.8947 -19.8790
   -19.8744 -19.8655 -19.8370 -19.8346 -19.8299 -19.8274 -11.9830  -6.9073
    -5.0259  -4.6595  -3.0838  -0.7108  -0.5726

          k = 0.4029-0.0467 0.0000 ( 15701 PWs)   bands (ev):

   -68.2421 -68.2183 -35.1783 -34.9873 -34.8360 -34.7033 -34.5961 -34.5157
   -19.9369 -19.9312 -19.9264 -19.9240 -19.9131 -19.9047 -19.8953 -19.8797
   -19.8725 -19.8687 -19.8361 -19.8353 -19.8313 -19.8287 -12.0022  -6.4910
    -5.1510  -4.9984  -2.4028  -1.3070  -0.6050

          k = 0.4029 0.0460 0.0000 ( 15699 PWs)   bands (ev):

   -68.2422 -68.2184 -35.1784 -34.9878 -34.8356 -34.7035 -34.5951 -34.5146
   -19.9369 -19.9312 -19.9265 -19.9239 -19.9131 -19.9046 -19.8953 -19.8797
   -19.8724 -19.8687 -19.8360 -19.8352 -19.8314 -19.8287 -12.0029  -6.4927
    -5.1481  -4.9978  -2.4033  -1.3089  -0.6031

          k = 0.4029 0.1387 0.0000 ( 15678 PWs)   bands (ev):

   -68.2400 -68.2176 -35.1888 -35.0657 -34.8222 -34.7146 -34.5993 -34.4663
   -19.9407 -19.9287 -19.9280 -19.9218 -19.9158 -19.9037 -19.8949 -19.8791
   -19.8744 -19.8656 -19.8369 -19.8344 -19.8300 -19.8275 -11.9848  -6.9097
    -5.0271  -4.6496  -3.0852  -0.7122  -0.5764

          k =-0.4835-0.2777 0.0000 ( 15706 PWs)   bands (ev):

   -68.2308 -68.2151 -35.2168 -35.1664 -34.8464 -34.7280 -34.6173 -34.4580
   -19.9428 -19.9292 -19.9260 -19.9217 -19.9185 -19.9037 -19.8944 -19.8792
   -19.8732 -19.8626 -19.8411 -19.8371 -19.8242 -19.8226 -11.8655  -7.2724
    -4.9801  -4.4478  -3.6296   0.0814   0.1075

          k =-0.4835-0.1850 0.0000 ( 15706 PWs)   bands (ev):

   -68.2307 -68.2150 -35.1993 -35.1444 -34.8393 -34.7435 -34.6265 -34.4847
   -19.9412 -19.9291 -19.9258 -19.9217 -19.9180 -19.9041 -19.8950 -19.8788
   -19.8736 -19.8637 -19.8416 -19.8382 -19.8243 -19.8226 -11.8481  -7.1252
    -4.9298  -4.7119  -3.2929  -0.1327  -0.0630

          k =-0.4835-0.0923 0.0000 ( 15702 PWs)   bands (ev):

   -68.2307 -68.2150 -35.1673 -35.0804 -34.8501 -34.7598 -34.6405 -34.5498
   -19.9370 -19.9290 -19.9261 -19.9224 -19.9161 -19.9053 -19.8962 -19.8783
   -19.8731 -19.8665 -19.8425 -19.8405 -19.8244 -19.8226 -11.8129  -6.7498
    -5.2015  -4.7987  -2.5768  -0.6882  -0.4713

          k =-0.4835 0.0005 0.0000 ( 15682 PWs)   bands (ev):

   -68.2306 -68.2149 -35.1528 -35.0216 -34.8985 -34.7361 -34.6511 -34.5940
   -19.9326 -19.9315 -19.9252 -19.9238 -19.9146 -19.9062 -19.8968 -19.8784
   -19.8709 -19.8696 -19.8426 -19.8421 -19.8244 -19.8226 -11.7948  -6.4595
    -5.5178  -4.7317  -1.8394  -1.4060  -0.6759

          k =-0.4835 0.0932 0.0000 ( 15694 PWs)   bands (ev):

   -68.2305 -68.2149 -35.1672 -35.0801 -34.8503 -34.7601 -34.6419 -34.5514
   -19.9370 -19.9290 -19.9261 -19.9225 -19.9160 -19.9055 -19.8961 -19.8783
   -19.8731 -19.8665 -19.8426 -19.8407 -19.8243 -19.8225 -11.8117  -6.7482
    -5.2075  -4.7994  -2.5791  -0.6819  -0.4681

          k =-0.4835 0.1859 0.0000 ( 15708 PWs)   bands (ev):

   -68.2304 -68.2148 -35.1995 -35.1443 -34.8388 -34.7443 -34.6291 -34.4874
   -19.9412 -19.9290 -19.9258 -19.9219 -19.9179 -19.9043 -19.8948 -19.8787
   -19.8736 -19.8636 -19.8418 -19.8385 -19.8241 -19.8225 -11.8461  -7.1236
    -4.9305  -4.7224  -3.2936  -0.1266  -0.0566

          k =-0.4833-0.8341 0.0000 ( 15722 PWs)   bands (ev):

   -68.2304 -68.2148 -35.2172 -35.1663 -34.8458 -34.7284 -34.6206 -34.4610
   -19.9428 -19.9292 -19.9259 -19.9220 -19.9184 -19.9039 -19.8943 -19.8792
   -19.8732 -19.8625 -19.8413 -19.8374 -19.8240 -19.8224 -11.8632  -7.2707
    -4.9811  -4.4610  -3.6285   0.0886   0.1141

     highest occupied level (ev):     0.1141

!    total energy              =   -1373.24749231 Ry
     estimated scf accuracy    <          4.3E-14 Ry

     The total energy is the sum of the following terms:
     one-electron contribution =  -10891.85680049 Ry
     hartree contribution      =    5474.25088891 Ry
     xc contribution           =    -138.78030045 Ry
     ewald contribution        =    4183.13871972 Ry

     convergence has been achieved in  37 iterations

     negative rho (up, down):  8.758E-04 0.000E+00

     Forces acting on atoms (cartesian axes, Ry/au):

     atom    1 type  2   force =     0.00031077    0.00028331   -0.00017424
     atom    2 type  1   force =    -0.00026917   -0.00045087    0.00147317
     atom    3 type  1   force =    -0.00004160    0.00016756   -0.00129892

     Total force =     0.002040     Total SCF correction =     0.000002


     Computing stress (Cartesian axis) and pressure


     negative rho (up, down):  8.758E-04 0.000E+00
          total   stress  (Ry/bohr**3)                   (kbar)     P=        5.16
   0.00006396  -0.00000261   0.00000033            9.41       -0.38        0.05
  -0.00000261   0.00004893   0.00000093           -0.38        7.20        0.14
   0.00000033   0.00000093  -0.00000762            0.05        0.14       -1.12


     Writing output data file /scratch/as3359/Ta2C-CT-ecutoff/Ta2C.save/
 
     init_run     :     14.77s CPU      8.19s WALL (       1 calls)
     electrons    :    940.56s CPU    484.28s WALL (       1 calls)
     forces       :      5.05s CPU      2.62s WALL (       1 calls)
     stress       :     17.28s CPU      8.95s WALL (       1 calls)

     Called by init_run:
     wfcinit      :     10.49s CPU      5.39s WALL (       1 calls)
     potinit      :      0.98s CPU      0.50s WALL (       1 calls)
     hinit0       :      2.56s CPU      1.79s WALL (       1 calls)

     Called by electrons:
     c_bands      :    747.70s CPU    379.39s WALL (      37 calls)
     sum_band     :    161.38s CPU     85.87s WALL (      37 calls)
     v_of_rho     :      4.81s CPU      2.48s WALL (      38 calls)
     newd         :     25.34s CPU     15.92s WALL (      38 calls)
     mix_rho      :      1.46s CPU      0.76s WALL (      37 calls)

     Called by c_bands:
     init_us_2    :     21.56s CPU     10.81s WALL (    5698 calls)
     cegterg      :    678.36s CPU    344.46s WALL (    2738 calls)

     Called by *egterg:
     cdiaghg      :     19.67s CPU     10.07s WALL (   13625 calls)
     h_psi        :    541.67s CPU    275.71s WALL (   13699 calls)
     s_psi        :     24.67s CPU     12.39s WALL (   13699 calls)
     g_psi        :      2.77s CPU      1.39s WALL (   10887 calls)

     Called by h_psi:
     h_psi:calbec :     23.52s CPU     11.86s WALL (   13699 calls)
     vloc_psi     :    482.57s CPU    246.00s WALL (   13699 calls)
     add_vuspsi   :     31.52s CPU     15.82s WALL (   13699 calls)

     General routines
     calbec       :     31.81s CPU     16.04s WALL (   16807 calls)
     fft          :      5.25s CPU      2.68s WALL (     517 calls)
     ffts         :      0.24s CPU      0.13s WALL (      75 calls)
     fftw         :    501.32s CPU    255.87s WALL (  452544 calls)
     interpolate  :      0.40s CPU      0.21s WALL (      38 calls)
 
     Parallel routines
 
     PWSCF        :  16m19.61s CPU   8m25.80s WALL

 
   This run was terminated on:  20:19:38   6Apr2022            

=------------------------------------------------------------------------------=
   JOB DONE.
=------------------------------------------------------------------------------=
