
     Program PWSCF v.6.8 starts on  6Apr2022 at 20:19:39 

     This program is part of the open-source Quantum ESPRESSO suite
     for quantum simulation of materials; please cite
         "P. Giannozzi et al., J. Phys.:Condens. Matter 21 395502 (2009);
         "P. Giannozzi et al., J. Phys.:Condens. Matter 29 465901 (2017);
         "P. Giannozzi et al., J. Chem. Phys. 152 154105 (2020);
          URL http://www.quantum-espresso.org", 
     in publications or presentations arising from this work. More details at
     http://www.quantum-espresso.org/quote

     Parallel version (MPI & OpenMP), running on       4 processor cores
     Number of MPI processes:                 2
     Threads/MPI process:                     2

     MPI processes distributed on     1 nodes
     R & G space division:  proc/nbgrp/npool/nimage =       2
     125185 MiB available memory on the printing compute node when the environment starts
 
     Reading input from Ta2C.scf.75.in

     Current dimensions of program PWSCF are:
     Max number of different atomic species (ntypx) = 10
     Max number of k-points (npk) =  40000
     Max angular momentum in pseudopotentials (lmaxx) =  4
     file Ta.pbesol-spfn-rrkjus_psl.1.0.0.UPF: wavefunction(s)  5S 5P renormalized

     Subspace diagonalization in iterative solution of the eigenvalue problem:
     a serial algorithm will be used

 
     Parallelization info
     --------------------
     sticks:   dense  smooth     PW     G-vecs:    dense   smooth      PW
     Min         423     337    105                97439    69622   12381
     Max         424     338    106                97490    69657   12402
     Sum         847     675    211               194929   139279   24783
 
     Using Slab Decomposition
 


     bravais-lattice index     =            0
     lattice parameter (alat)  =       5.5500  a.u.
     unit-cell volume          =    1588.7844 (a.u.)^3
     number of atoms/cell      =            3
     number of atomic types    =            2
     number of electrons       =        58.00
     number of Kohn-Sham states=           29
     kinetic-energy cutoff     =      75.0000  Ry
     charge density cutoff     =     375.0000  Ry
     scf convergence threshold =      1.0E-12
     mixing beta               =       0.7000
     number of iterations used =            8  plain     mixing
     Exchange-correlation= PBESOL
                           (   1   4  10   8   0   0   0)

     celldm(1)=   5.550000  celldm(2)=   0.000000  celldm(3)=   0.000000
     celldm(4)=   0.000000  celldm(5)=   0.000000  celldm(6)=   0.000000

     crystal axes: (cart. coord. in units of alat)
               a(1) = (   1.034114   0.000203   0.000000 )  
               a(2) = (  -0.516207   0.898604   0.000000 )  
               a(3) = (   0.000000   0.000000  10.000000 )  

     reciprocal axes: (cart. coord. in units 2 pi/alat)
               b(1) = (  0.966902  0.555441  0.000000 )  
               b(2) = ( -0.000219  1.112711  0.000000 )  
               b(3) = (  0.000000  0.000000  0.100000 )  


     PseudoPot. # 1 for Ta read from file:
     /shared/home/as3359/pseudo/Ta.pbesol-spfn-rrkjus_psl.1.0.0.UPF
     MD5 check sum: f099565ffaca9b150a52e9412a28e20b
     Pseudo is Ultrasoft + core correction, Zval = 27.0
     Generated using &quot;atomic&quot; code by A. Dal Corso  v.6.3
     Using radial grid of 1273 points,  8 beta functions with: 
                l(1) =   0
                l(2) =   0
                l(3) =   1
                l(4) =   1
                l(5) =   2
                l(6) =   2
                l(7) =   3
                l(8) =   3
     Q(r) pseudized with 0 coefficients 


     PseudoPot. # 2 for C  read from file:
     /shared/home/as3359/pseudo/C.pbesol-n-rrkjus_psl.1.0.0.UPF
     MD5 check sum: 05995be603a8a7c99da3dc4413f31573
     Pseudo is Ultrasoft + core correction, Zval =  4.0
     Generated using &quot;atomic&quot; code by A. Dal Corso  v.6.3MaX
     Using radial grid of 1073 points,  4 beta functions with: 
                l(1) =   0
                l(2) =   0
                l(3) =   1
                l(4) =   1
     Q(r) pseudized with 0 coefficients 


     atomic species   valence    mass     pseudopotential
        Ta            27.00   180.94788     Ta( 1.00)
        C              4.00    12.01070     C ( 1.00)

     No symmetry found



   Cartesian axes

     site n.     atom                  positions (alat units)
         1           C   tau(   1) = (   0.0000000   0.0000000   0.0000000  )
         2           Ta  tau(   2) = (   0.5174615   0.3004190  -0.4127129  )
         3           Ta  tau(   3) = (   0.0007158   0.5986355   0.4125272  )

     number of k points=    74
                       cart. coord. in units 2pi/alat
        k(    1) = (   0.0000000   0.0000000   0.0000000), wk =   0.0138889
        k(    2) = (  -0.0000182   0.0927259   0.0000000), wk =   0.0277778
        k(    3) = (  -0.0000364   0.1854519   0.0000000), wk =   0.0277778
        k(    4) = (  -0.0000547   0.2781778   0.0000000), wk =   0.0277778
        k(    5) = (  -0.0000729   0.3709037   0.0000000), wk =   0.0277778
        k(    6) = (  -0.0000911   0.4636296   0.0000000), wk =   0.0277778
        k(    7) = (   0.0001093  -0.5563556   0.0000000), wk =   0.0138889
        k(    8) = (   0.0805752   0.0462867   0.0000000), wk =   0.0277778
        k(    9) = (   0.0805570   0.1390127   0.0000000), wk =   0.0277778
        k(   10) = (   0.0805388   0.2317386   0.0000000), wk =   0.0277778
        k(   11) = (   0.0805205   0.3244645   0.0000000), wk =   0.0277778
        k(   12) = (   0.0805023   0.4171904   0.0000000), wk =   0.0277778
        k(   13) = (   0.0804841   0.5099164   0.0000000), wk =   0.0277778
        k(   14) = (   0.0806845  -0.5100688   0.0000000), wk =   0.0277778
        k(   15) = (   0.0806663  -0.4173429   0.0000000), wk =   0.0277778
        k(   16) = (   0.0806481  -0.3246170   0.0000000), wk =   0.0277778
        k(   17) = (   0.0806298  -0.2318910   0.0000000), wk =   0.0277778
        k(   18) = (   0.0806116  -0.1391651   0.0000000), wk =   0.0277778
        k(   19) = (   0.0805934  -0.0464392   0.0000000), wk =   0.0277778
        k(   20) = (   0.1611504   0.0925735   0.0000000), wk =   0.0277778
        k(   21) = (   0.1611322   0.1852994   0.0000000), wk =   0.0277778
        k(   22) = (   0.1611139   0.2780253   0.0000000), wk =   0.0277778
        k(   23) = (   0.1610957   0.3707513   0.0000000), wk =   0.0277778
        k(   24) = (   0.1610775   0.4634772   0.0000000), wk =   0.0277778
        k(   25) = (   0.1610593   0.5562031   0.0000000), wk =   0.0277778
        k(   26) = (   0.1612597  -0.4637821   0.0000000), wk =   0.0277778
        k(   27) = (   0.1612415  -0.3710561   0.0000000), wk =   0.0277778
        k(   28) = (   0.1612232  -0.2783302   0.0000000), wk =   0.0277778
        k(   29) = (   0.1612050  -0.1856043   0.0000000), wk =   0.0277778
        k(   30) = (   0.1611868  -0.0928784   0.0000000), wk =   0.0277778
        k(   31) = (   0.1611686  -0.0001524   0.0000000), wk =   0.0277778
        k(   32) = (   0.2417256   0.1388602   0.0000000), wk =   0.0277778
        k(   33) = (   0.2417073   0.2315862   0.0000000), wk =   0.0277778
        k(   34) = (   0.2416891   0.3243121   0.0000000), wk =   0.0277778
        k(   35) = (   0.2416709   0.4170380   0.0000000), wk =   0.0277778
        k(   36) = (   0.2416527   0.5097639   0.0000000), wk =   0.0277778
        k(   37) = (   0.2416345   0.6024899   0.0000000), wk =   0.0277778
        k(   38) = (   0.2418349  -0.4174953   0.0000000), wk =   0.0277778
        k(   39) = (   0.2418166  -0.3247694   0.0000000), wk =   0.0277778
        k(   40) = (   0.2417984  -0.2320435   0.0000000), wk =   0.0277778
        k(   41) = (   0.2417802  -0.1393175   0.0000000), wk =   0.0277778
        k(   42) = (   0.2417620  -0.0465916   0.0000000), wk =   0.0277778
        k(   43) = (   0.2417438   0.0461343   0.0000000), wk =   0.0277778
        k(   44) = (   0.3223007   0.1851470   0.0000000), wk =   0.0277778
        k(   45) = (   0.3222825   0.2778729   0.0000000), wk =   0.0277778
        k(   46) = (   0.3222643   0.3705988   0.0000000), wk =   0.0277778
        k(   47) = (   0.3222461   0.4633248   0.0000000), wk =   0.0277778
        k(   48) = (   0.3222279   0.5560507   0.0000000), wk =   0.0277778
        k(   49) = (   0.3222097   0.6487766   0.0000000), wk =   0.0277778
        k(   50) = (   0.3224100  -0.3712086   0.0000000), wk =   0.0277778
        k(   51) = (   0.3223918  -0.2784827   0.0000000), wk =   0.0277778
        k(   52) = (   0.3223736  -0.1857567   0.0000000), wk =   0.0277778
        k(   53) = (   0.3223554  -0.0930308   0.0000000), wk =   0.0277778
        k(   54) = (   0.3223372  -0.0003049   0.0000000), wk =   0.0277778
        k(   55) = (   0.3223190   0.0924210   0.0000000), wk =   0.0277778
        k(   56) = (   0.4028759   0.2314337   0.0000000), wk =   0.0277778
        k(   57) = (   0.4028577   0.3241596   0.0000000), wk =   0.0277778
        k(   58) = (   0.4028395   0.4168856   0.0000000), wk =   0.0277778
        k(   59) = (   0.4028213   0.5096115   0.0000000), wk =   0.0277778
        k(   60) = (   0.4028031   0.6023374   0.0000000), wk =   0.0277778
        k(   61) = (   0.4027848   0.6950633   0.0000000), wk =   0.0277778
        k(   62) = (   0.4029852  -0.3249218   0.0000000), wk =   0.0277778
        k(   63) = (   0.4029670  -0.2321959   0.0000000), wk =   0.0277778
        k(   64) = (   0.4029488  -0.1394700   0.0000000), wk =   0.0277778
        k(   65) = (   0.4029306  -0.0467441   0.0000000), wk =   0.0277778
        k(   66) = (   0.4029124   0.0459819   0.0000000), wk =   0.0277778
        k(   67) = (   0.4028941   0.1387078   0.0000000), wk =   0.0277778
        k(   68) = (  -0.4834511  -0.2777205   0.0000000), wk =   0.0138889
        k(   69) = (  -0.4834693  -0.1849945   0.0000000), wk =   0.0277778
        k(   70) = (  -0.4834875  -0.0922686   0.0000000), wk =   0.0277778
        k(   71) = (  -0.4835058   0.0004573   0.0000000), wk =   0.0277778
        k(   72) = (  -0.4835240   0.0931832   0.0000000), wk =   0.0277778
        k(   73) = (  -0.4835422   0.1859092   0.0000000), wk =   0.0277778
        k(   74) = (  -0.4833418  -0.8340760   0.0000000), wk =   0.0138889

     Dense  grid:   194929 G-vectors     FFT dimensions: (  36,  36, 360)

     Smooth grid:   139279 G-vectors     FFT dimensions: (  32,  32, 320)

     Estimated max dynamical RAM per process >       1.20 GB

     Estimated total dynamical RAM >       2.40 GB

     Check: negative core charge=   -0.000001

     Initial potential from superposition of free atoms

     starting charge   57.99842, renormalised to   58.00000

     negative rho (up, down):  6.304E-04 0.000E+00
     Starting wfcs are   38 randomized atomic wfcs

     total cpu time spent up to now is        9.3 secs

     Self-consistent Calculation

     iteration #  1     ecut=    75.00 Ry     beta= 0.70
     Davidson diagonalization with overlap
     ethr =  1.00E-02,  avg # of iterations =  2.1

     negative rho (up, down):  3.530E-04 0.000E+00

     total cpu time spent up to now is       22.5 secs

     total energy              =   -1372.42143817 Ry
     estimated scf accuracy    <       1.29725887 Ry

     iteration #  2     ecut=    75.00 Ry     beta= 0.70
     Davidson diagonalization with overlap
     ethr =  2.24E-03,  avg # of iterations =  7.6

     total cpu time spent up to now is       42.1 secs

     total energy              =   -1371.72991488 Ry
     estimated scf accuracy    <       9.31682749 Ry

     iteration #  3     ecut=    75.00 Ry     beta= 0.70
     Davidson diagonalization with overlap
     ethr =  2.24E-03,  avg # of iterations =  6.3

     total cpu time spent up to now is       60.4 secs

     total energy              =   -1373.20741219 Ry
     estimated scf accuracy    <       0.17591995 Ry

     iteration #  4     ecut=    75.00 Ry     beta= 0.70
     Davidson diagonalization with overlap
     ethr =  3.03E-04,  avg # of iterations =  6.9

     total cpu time spent up to now is       77.5 secs

     total energy              =   -1373.22968490 Ry
     estimated scf accuracy    <       0.44540849 Ry

     iteration #  5     ecut=    75.00 Ry     beta= 0.70
     Davidson diagonalization with overlap
     ethr =  3.03E-04,  avg # of iterations =  5.8

     total cpu time spent up to now is       92.9 secs

     total energy              =   -1373.24582580 Ry
     estimated scf accuracy    <       0.03706009 Ry

     iteration #  6     ecut=    75.00 Ry     beta= 0.70
     Davidson diagonalization with overlap
     ethr =  6.39E-05,  avg # of iterations =  3.6

     total cpu time spent up to now is      106.8 secs

     total energy              =   -1373.24597673 Ry
     estimated scf accuracy    <       0.01233000 Ry

     iteration #  7     ecut=    75.00 Ry     beta= 0.70
     Davidson diagonalization with overlap
     ethr =  2.13E-05,  avg # of iterations =  5.5

     negative rho (up, down):  7.028E-07 0.000E+00

     total cpu time spent up to now is      121.9 secs

     total energy              =   -1373.24768272 Ry
     estimated scf accuracy    <       0.00100733 Ry

     iteration #  8     ecut=    75.00 Ry     beta= 0.70
     Davidson diagonalization with overlap
     c_bands:  1 eigenvalues not converged
     c_bands:  1 eigenvalues not converged
     c_bands:  1 eigenvalues not converged
     ethr =  1.74E-06,  avg # of iterations =  7.7

     negative rho (up, down):  4.122E-04 0.000E+00

     total cpu time spent up to now is      141.5 secs

     total energy              =   -1373.24767244 Ry
     estimated scf accuracy    <       0.00242763 Ry

     iteration #  9     ecut=    75.00 Ry     beta= 0.70
     Davidson diagonalization with overlap
     ethr =  1.74E-06,  avg # of iterations =  4.5

     negative rho (up, down):  4.485E-04 0.000E+00

     total cpu time spent up to now is      156.3 secs

     total energy              =   -1373.24787335 Ry
     estimated scf accuracy    <       0.00038181 Ry

     iteration # 10     ecut=    75.00 Ry     beta= 0.70
     Davidson diagonalization with overlap
     ethr =  6.58E-07,  avg # of iterations =  4.5

     negative rho (up, down):  4.672E-04 0.000E+00

     total cpu time spent up to now is      170.7 secs

     total energy              =   -1373.24788826 Ry
     estimated scf accuracy    <       0.00011234 Ry

     iteration # 11     ecut=    75.00 Ry     beta= 0.70
     Davidson diagonalization with overlap
     ethr =  1.94E-07,  avg # of iterations =  5.9

     negative rho (up, down):  4.277E-04 0.000E+00

     total cpu time spent up to now is      186.3 secs

     total energy              =   -1373.24790316 Ry
     estimated scf accuracy    <       0.00003339 Ry

     iteration # 12     ecut=    75.00 Ry     beta= 0.70
     Davidson diagonalization with overlap
     ethr =  5.76E-08,  avg # of iterations =  2.9

     negative rho (up, down):  4.407E-04 0.000E+00

     total cpu time spent up to now is      199.7 secs

     total energy              =   -1373.24789975 Ry
     estimated scf accuracy    <       0.00003635 Ry

     iteration # 13     ecut=    75.00 Ry     beta= 0.70
     Davidson diagonalization with overlap
     ethr =  5.76E-08,  avg # of iterations =  3.6

     negative rho (up, down):  4.339E-04 0.000E+00

     total cpu time spent up to now is      213.9 secs

     total energy              =   -1373.24790269 Ry
     estimated scf accuracy    <       0.00000116 Ry

     iteration # 14     ecut=    75.00 Ry     beta= 0.70
     Davidson diagonalization with overlap
     ethr =  2.00E-09,  avg # of iterations =  7.5

     negative rho (up, down):  4.345E-04 0.000E+00

     total cpu time spent up to now is      231.4 secs

     total energy              =   -1373.24790318 Ry
     estimated scf accuracy    <       0.00000236 Ry

     iteration # 15     ecut=    75.00 Ry     beta= 0.70
     Davidson diagonalization with overlap
     ethr =  2.00E-09,  avg # of iterations =  3.0

     negative rho (up, down):  4.329E-04 0.000E+00

     total cpu time spent up to now is      244.7 secs

     total energy              =   -1373.24790314 Ry
     estimated scf accuracy    <       0.00000078 Ry

     iteration # 16     ecut=    75.00 Ry     beta= 0.70
     Davidson diagonalization with overlap
     ethr =  1.34E-09,  avg # of iterations =  5.2

     negative rho (up, down):  4.337E-04 0.000E+00

     total cpu time spent up to now is      259.7 secs

     total energy              =   -1373.24790326 Ry
     estimated scf accuracy    <       0.00000026 Ry

     iteration # 17     ecut=    75.00 Ry     beta= 0.70
     Davidson diagonalization with overlap
     ethr =  4.43E-10,  avg # of iterations =  3.4

     negative rho (up, down):  4.337E-04 0.000E+00

     total cpu time spent up to now is      273.1 secs

     total energy              =   -1373.24790326 Ry
     estimated scf accuracy    <       0.00000041 Ry

     iteration # 18     ecut=    75.00 Ry     beta= 0.70
     Davidson diagonalization with overlap
     ethr =  4.43E-10,  avg # of iterations =  1.0

     negative rho (up, down):  4.337E-04 0.000E+00

     total cpu time spent up to now is      285.0 secs

     total energy              =   -1373.24790323 Ry
     estimated scf accuracy    <       0.00000035 Ry

     iteration # 19     ecut=    75.00 Ry     beta= 0.70
     Davidson diagonalization with overlap
     ethr =  4.43E-10,  avg # of iterations =  3.8

     negative rho (up, down):  4.335E-04 0.000E+00

     total cpu time spent up to now is      298.7 secs

     total energy              =   -1373.24790324 Ry
     estimated scf accuracy    <       0.00000002 Ry

     iteration # 20     ecut=    75.00 Ry     beta= 0.70
     Davidson diagonalization with overlap
     ethr =  3.82E-11,  avg # of iterations =  6.9

     negative rho (up, down):  4.335E-04 0.000E+00

     total cpu time spent up to now is      315.4 secs

     total energy              =   -1373.24790325 Ry
     estimated scf accuracy    <       0.00000003 Ry

     iteration # 21     ecut=    75.00 Ry     beta= 0.70
     Davidson diagonalization with overlap
     ethr =  3.82E-11,  avg # of iterations =  4.3

     negative rho (up, down):  4.335E-04 0.000E+00

     total cpu time spent up to now is      329.8 secs

     total energy              =   -1373.24790325 Ry
     estimated scf accuracy    <          3.6E-10 Ry

     iteration # 22     ecut=    75.00 Ry     beta= 0.70
     Davidson diagonalization with overlap
     c_bands:  1 eigenvalues not converged
     c_bands:  1 eigenvalues not converged
     c_bands:  1 eigenvalues not converged
     ethr =  6.15E-13,  avg # of iterations =  9.1

     negative rho (up, down):  4.334E-04 0.000E+00

     total cpu time spent up to now is      349.9 secs

     total energy              =   -1373.24790325 Ry
     estimated scf accuracy    <       0.00000002 Ry

     iteration # 23     ecut=    75.00 Ry     beta= 0.70
     Davidson diagonalization with overlap
     ethr =  6.15E-13,  avg # of iterations =  7.3

     negative rho (up, down):  4.334E-04 0.000E+00

     total cpu time spent up to now is      367.5 secs

     total energy              =   -1373.24790325 Ry
     estimated scf accuracy    <          5.9E-09 Ry

     iteration # 24     ecut=    75.00 Ry     beta= 0.70
     Davidson diagonalization with overlap
     ethr =  6.15E-13,  avg # of iterations =  7.1

     negative rho (up, down):  4.334E-04 0.000E+00

     total cpu time spent up to now is      384.7 secs

     total energy              =   -1373.24790325 Ry
     estimated scf accuracy    <          5.7E-10 Ry

     iteration # 25     ecut=    75.00 Ry     beta= 0.70
     Davidson diagonalization with overlap
     ethr =  6.15E-13,  avg # of iterations =  5.6

     negative rho (up, down):  4.334E-04 0.000E+00

     total cpu time spent up to now is      400.1 secs

     total energy              =   -1373.24790325 Ry
     estimated scf accuracy    <          6.7E-12 Ry

     iteration # 26     ecut=    75.00 Ry     beta= 0.70
     Davidson diagonalization with overlap
     ethr =  1.00E-13,  avg # of iterations =  5.6

     negative rho (up, down):  4.334E-04 0.000E+00

     total cpu time spent up to now is      415.3 secs

     total energy              =   -1373.24790325 Ry
     estimated scf accuracy    <          7.4E-11 Ry

     iteration # 27     ecut=    75.00 Ry     beta= 0.70
     Davidson diagonalization with overlap
     ethr =  1.00E-13,  avg # of iterations =  1.0

     negative rho (up, down):  4.334E-04 0.000E+00

     total cpu time spent up to now is      427.4 secs

     total energy              =   -1373.24790325 Ry
     estimated scf accuracy    <          6.4E-11 Ry

     iteration # 28     ecut=    75.00 Ry     beta= 0.70
     Davidson diagonalization with overlap
     ethr =  1.00E-13,  avg # of iterations =  2.1

     negative rho (up, down):  4.334E-04 0.000E+00

     total cpu time spent up to now is      440.4 secs

     total energy              =   -1373.24790325 Ry
     estimated scf accuracy    <          2.7E-11 Ry

     iteration # 29     ecut=    75.00 Ry     beta= 0.70
     Davidson diagonalization with overlap
     ethr =  1.00E-13,  avg # of iterations =  3.2

     negative rho (up, down):  4.334E-04 0.000E+00

     total cpu time spent up to now is      453.9 secs

     End of self-consistent calculation

          k = 0.0000 0.0000 0.0000 ( 17311 PWs)   bands (ev):

   -68.2924 -68.2447 -35.3162 -34.7124 -34.4042 -34.3992 -34.3392 -34.3328
   -19.9499 -19.9362 -19.9110 -19.9105 -19.9050 -19.9047 -19.8784 -19.8778
   -19.8705 -19.8705 -19.8634 -19.8580 -19.7970 -19.7954 -13.2801  -7.6710
    -4.3955  -4.3522  -1.9309  -0.9009  -0.7281

          k =-0.0000 0.0927 0.0000 ( 17297 PWs)   bands (ev):

   -68.2885 -68.2423 -35.3035 -34.7176 -34.4512 -34.4155 -34.3831 -34.3390
   -19.9484 -19.9352 -19.9125 -19.9109 -19.9053 -19.9036 -19.8799 -19.8775
   -19.8709 -19.8698 -19.8605 -19.8553 -19.7997 -19.7984 -13.1662  -7.4509
    -4.7189  -4.3178  -1.8360  -1.0844  -0.5391

          k =-0.0000 0.1855 0.0000 ( 17352 PWs)   bands (ev):

   -68.2780 -68.2358 -35.2692 -34.7454 -34.5657 -34.5002 -34.4568 -34.3582
   -19.9444 -19.9328 -19.9162 -19.9120 -19.9064 -19.9011 -19.8836 -19.8764
   -19.8718 -19.8679 -19.8527 -19.8480 -19.8072 -19.8061 -12.8657  -6.8693
    -5.3793  -4.2551  -1.8313  -1.4653  -0.9852

          k =-0.0001 0.2782 0.0000 ( 17418 PWs)   bands (ev):

   -68.2631 -68.2274 -35.2256 -34.8491 -34.6625 -34.6419 -34.5096 -34.3873
   -19.9399 -19.9294 -19.9205 -19.9134 -19.9081 -19.8989 -19.8874 -19.8745
   -19.8728 -19.8650 -19.8421 -19.8380 -19.8170 -19.8158 -12.4858  -6.4545
    -5.6927  -4.2438  -2.4642  -1.5282  -1.0298

          k =-0.0001 0.3709 0.0000 ( 17416 PWs)   bands (ev):

   -68.2474 -68.2196 -35.1955 -35.0056 -34.7792 -34.6878 -34.5601 -34.4181
   -19.9377 -19.9252 -19.9236 -19.9149 -19.9108 -19.8980 -19.8895 -19.8736
   -19.8719 -19.8617 -19.8312 -19.8280 -19.8267 -19.8245 -12.1500  -6.8416
    -5.2249  -4.3034  -3.1011  -1.1925  -0.6698

          k =-0.0001 0.4636 0.0000 ( 17448 PWs)   bands (ev):

   -68.2350 -68.2149 -35.1996 -35.1241 -34.8380 -34.7123 -34.5960 -34.4414
   -19.9377 -19.9247 -19.9221 -19.9162 -19.9131 -19.8983 -19.8899 -19.8741
   -19.8696 -19.8591 -19.8336 -19.8302 -19.8229 -19.8207 -11.9385  -7.1625
    -5.0019  -4.3796  -3.5005  -0.4188  -0.1627

          k = 0.0001-0.5564 0.0000 ( 17434 PWs)   bands (ev):

   -68.2300 -68.2136 -35.2132 -35.1642 -34.8473 -34.7235 -34.6089 -34.4500
   -19.9380 -19.9246 -19.9215 -19.9167 -19.9138 -19.8986 -19.8898 -19.8743
   -19.8687 -19.8580 -19.8361 -19.8321 -19.8198 -19.8181 -11.8693  -7.2725
    -4.9693  -4.4125  -3.6339   0.0669   0.0963

          k = 0.0806 0.0463 0.0000 ( 17302 PWs)   bands (ev):

   -68.2885 -68.2423 -35.3033 -34.7175 -34.4491 -34.4184 -34.3799 -34.3427
   -19.9484 -19.9353 -19.9123 -19.9111 -19.9052 -19.9037 -19.8796 -19.8778
   -19.8709 -19.8698 -19.8604 -19.8553 -19.7998 -19.7984 -13.1656  -7.4500
    -4.6972  -4.3429  -1.8344  -1.0829  -0.5395

          k = 0.0806 0.1390 0.0000 ( 17329 PWs)   bands (ev):

   -68.2813 -68.2378 -35.2798 -34.7326 -34.5212 -34.4925 -34.4179 -34.3622
   -19.9456 -19.9336 -19.9147 -19.9124 -19.9055 -19.9020 -19.8824 -19.8770
   -19.8713 -19.8687 -19.8552 -19.8503 -19.8049 -19.8037 -12.9585  -7.0407
    -5.1741  -4.3262  -1.7364  -1.2947  -0.9150

          k = 0.0805 0.2317 0.0000 ( 17396 PWs)   bands (ev):

   -68.2686 -68.2304 -35.2404 -34.7910 -34.6308 -34.6062 -34.4761 -34.3944
   -19.9410 -19.9309 -19.9183 -19.9143 -19.9063 -19.8999 -19.8860 -19.8759
   -19.8715 -19.8667 -19.8460 -19.8417 -19.8135 -19.8126 -12.6178  -6.3901
    -5.7354  -4.4062  -1.9832  -1.4650  -1.1276

          k = 0.0805 0.3245 0.0000 ( 17425 PWs)   bands (ev):

   -68.2533 -68.2223 -35.2015 -34.9244 -34.7435 -34.6739 -34.5420 -34.4290
   -19.9370 -19.9274 -19.9219 -19.9160 -19.9082 -19.8986 -19.8890 -19.8747
   -19.8710 -19.8639 -19.8353 -19.8317 -19.8233 -19.8220 -12.2601  -6.5065
    -5.4371  -4.5304  -2.6337  -1.1770  -1.0494

          k = 0.0805 0.4172 0.0000 ( 17417 PWs)   bands (ev):

   -68.2391 -68.2162 -35.1862 -35.0620 -34.8192 -34.7121 -34.5929 -34.4596
   -19.9360 -19.9241 -19.9234 -19.9168 -19.9111 -19.8986 -19.8902 -19.8741
   -19.8699 -19.8610 -19.8319 -19.8294 -19.8256 -19.8230 -11.9891  -6.9082
    -5.0216  -4.6247  -3.0784  -0.7207  -0.5751

          k = 0.0805 0.5099 0.0000 ( 17464 PWs)   bands (ev):

   -68.2300 -68.2136 -35.1955 -35.1418 -34.8392 -34.7394 -34.6193 -34.4776
   -19.9364 -19.9244 -19.9213 -19.9167 -19.9133 -19.8990 -19.8904 -19.8738
   -19.8691 -19.8591 -19.8366 -19.8332 -19.8198 -19.8181 -11.8519  -7.1236
    -4.9174  -4.6882  -3.2873  -0.1438  -0.0736

          k = 0.0807-0.5101 0.0000 ( 17466 PWs)   bands (ev):

   -68.2299 -68.2136 -35.1957 -35.1419 -34.8394 -34.7392 -34.6192 -34.4775
   -19.9364 -19.9244 -19.9213 -19.9167 -19.9133 -19.8990 -19.8904 -19.8738
   -19.8691 -19.8591 -19.8366 -19.8332 -19.8198 -19.8181 -11.8517  -7.1240
    -4.9180  -4.6873  -3.2886  -0.1436  -0.0742

          k = 0.0807-0.4173 0.0000 ( 17419 PWs)   bands (ev):

   -68.2390 -68.2162 -35.1864 -35.0626 -34.8200 -34.7119 -34.5927 -34.4595
   -19.9360 -19.9241 -19.9234 -19.9168 -19.9111 -19.8986 -19.8902 -19.8741
   -19.8698 -19.8610 -19.8319 -19.8295 -19.8255 -19.8230 -11.9885  -6.9092
    -5.0216  -4.6242  -3.0815  -0.7185  -0.5773

          k = 0.0806-0.3246 0.0000 ( 17427 PWs)   bands (ev):

   -68.2532 -68.2223 -35.2015 -34.9251 -34.7443 -34.6740 -34.5419 -34.4290
   -19.9370 -19.9274 -19.9219 -19.9159 -19.9082 -19.8987 -19.8890 -19.8748
   -19.8709 -19.8639 -19.8353 -19.8317 -19.8234 -19.8220 -12.2592  -6.5074
    -5.4365  -4.5305  -2.6369  -1.1763  -1.0489

          k = 0.0806-0.2319 0.0000 ( 17392 PWs)   bands (ev):

   -68.2685 -68.2303 -35.2403 -34.7912 -34.6310 -34.6066 -34.4768 -34.3948
   -19.9410 -19.9309 -19.9183 -19.9143 -19.9063 -19.9000 -19.8860 -19.8759
   -19.8715 -19.8667 -19.8460 -19.8416 -19.8135 -19.8127 -12.6168  -6.3888
    -5.7350  -4.4077  -1.9846  -1.4638  -1.1274

          k = 0.0806-0.1392 0.0000 ( 17327 PWs)   bands (ev):

   -68.2812 -68.2378 -35.2797 -34.7325 -34.5208 -34.4923 -34.4188 -34.3635
   -19.9456 -19.9336 -19.9145 -19.9125 -19.9054 -19.9022 -19.8823 -19.8771
   -19.8713 -19.8687 -19.8551 -19.8503 -19.8049 -19.8038 -12.9578  -7.0394
    -5.1690  -4.3331  -1.7352  -1.2930  -0.9106

          k = 0.0806-0.0464 0.0000 ( 17302 PWs)   bands (ev):

   -68.2885 -68.2422 -35.3033 -34.7174 -34.4476 -34.4202 -34.3783 -34.3445
   -19.9484 -19.9353 -19.9121 -19.9114 -19.9050 -19.9039 -19.8795 -19.8779
   -19.8709 -19.8699 -19.8604 -19.8553 -19.7998 -19.7984 -13.1653  -7.4494
    -4.6877  -4.3537  -1.8336  -1.0818  -0.5371

          k = 0.1612 0.0926 0.0000 ( 17347 PWs)   bands (ev):

   -68.2778 -68.2357 -35.2687 -34.7450 -34.5647 -34.4978 -34.4605 -34.3623
   -19.9444 -19.9328 -19.9161 -19.9122 -19.9062 -19.9012 -19.8833 -19.8767
   -19.8719 -19.8678 -19.8526 -19.8480 -19.8073 -19.8062 -12.8636  -6.8661
    -5.3628  -4.2815  -1.8214  -1.4649  -0.9795

          k = 0.1611 0.1853 0.0000 ( 17389 PWs)   bands (ev):

   -68.2684 -68.2303 -35.2401 -34.7903 -34.6313 -34.6051 -34.4777 -34.3972
   -19.9409 -19.9309 -19.9182 -19.9145 -19.9062 -19.9000 -19.8859 -19.8759
   -19.8715 -19.8667 -19.8460 -19.8416 -19.8136 -19.8127 -12.6163  -6.3873
    -5.7280  -4.4209  -1.9717  -1.4687  -1.1327

          k = 0.1611 0.2780 0.0000 ( 17448 PWs)   bands (ev):

   -68.2552 -68.2233 -35.2039 -34.8739 -34.7498 -34.6595 -34.5236 -34.4582
   -19.9360 -19.9288 -19.9199 -19.9181 -19.9066 -19.8993 -19.8887 -19.8755
   -19.8694 -19.8657 -19.8368 -19.8330 -19.8220 -19.8216 -12.2975  -6.1412
    -5.6840  -4.7656  -2.1285  -1.6214  -0.5761

          k = 0.1611 0.3708 0.0000 ( 17430 PWs)   bands (ev):

   -68.2412 -68.2170 -35.1759 -34.9815 -34.8310 -34.7014 -34.5914 -34.5101
   -19.9322 -19.9265 -19.9217 -19.9190 -19.9084 -19.8995 -19.8907 -19.8747
   -19.8679 -19.8642 -19.8311 -19.8303 -19.8268 -19.8242 -12.0071  -6.4851
    -5.1420  -4.9863  -2.3904  -1.2998  -0.6060

          k = 0.1611 0.4635 0.0000 ( 17467 PWs)   bands (ev):

   -68.2298 -68.2135 -35.1633 -35.0759 -34.8459 -34.7588 -34.6356 -34.5449
   -19.9321 -19.9243 -19.9215 -19.9175 -19.9114 -19.9003 -19.8915 -19.8733
   -19.8687 -19.8620 -19.8376 -19.8356 -19.8199 -19.8181 -11.8165  -6.7435
    -5.1837  -4.7905  -2.5634  -0.6848  -0.4825

          k = 0.1611 0.5562 0.0000 ( 17482 PWs)   bands (ev):

   -68.2250 -68.2128 -35.1560 -35.1182 -34.8191 -34.8111 -34.6473 -34.5579
   -19.9326 -19.9241 -19.9201 -19.9165 -19.9132 -19.9007 -19.8917 -19.8723
   -19.8697 -19.8610 -19.8400 -19.8376 -19.8172 -19.8160 -11.7516  -6.8386
    -5.2126  -4.7431  -2.6316  -0.3343  -0.2786

          k = 0.1613-0.4638 0.0000 ( 17468 PWs)   bands (ev):

   -68.2297 -68.2135 -35.1638 -35.0766 -34.8467 -34.7584 -34.6355 -34.5448
   -19.9321 -19.9243 -19.9215 -19.9175 -19.9114 -19.9003 -19.8915 -19.8734
   -19.8686 -19.8620 -19.8376 -19.8357 -19.8199 -19.8181 -11.8158  -6.7451
    -5.1840  -4.7907  -2.5656  -0.6889  -0.4818

          k = 0.1612-0.3711 0.0000 ( 17438 PWs)   bands (ev):

   -68.2411 -68.2169 -35.1761 -34.9829 -34.8318 -34.7016 -34.5914 -34.5102
   -19.9322 -19.9264 -19.9218 -19.9190 -19.9084 -19.8996 -19.8907 -19.8747
   -19.8678 -19.8642 -19.8312 -19.8303 -19.8268 -19.8241 -12.0059  -6.4875
    -5.1415  -4.9868  -2.3946  -1.3027  -0.6044

          k = 0.1612-0.2783 0.0000 ( 17436 PWs)   bands (ev):

   -68.2551 -68.2232 -35.2037 -34.8746 -34.7507 -34.6599 -34.5243 -34.4590
   -19.9360 -19.9288 -19.9198 -19.9182 -19.9065 -19.8995 -19.8887 -19.8755
   -19.8694 -19.8656 -19.8367 -19.8329 -19.8221 -19.8217 -12.2959  -6.1417
    -5.6820  -4.7684  -2.1314  -1.6215  -0.5759

          k = 0.1612-0.1856 0.0000 ( 17387 PWs)   bands (ev):

   -68.2683 -68.2302 -35.2398 -34.7900 -34.6315 -34.6053 -34.4790 -34.3990
   -19.9409 -19.9309 -19.9181 -19.9146 -19.9061 -19.9002 -19.8859 -19.8760
   -19.8715 -19.8666 -19.8459 -19.8416 -19.8137 -19.8128 -12.6147  -6.3848
    -5.7241  -4.4283  -1.9682  -1.4693  -1.1340

          k = 0.1612-0.0929 0.0000 ( 17342 PWs)   bands (ev):

   -68.2777 -68.2356 -35.2686 -34.7446 -34.5640 -34.4967 -34.4626 -34.3643
   -19.9444 -19.9328 -19.9159 -19.9124 -19.9060 -19.9014 -19.8832 -19.8768
   -19.8718 -19.8679 -19.8526 -19.8479 -19.8074 -19.8063 -12.8626  -6.8643
    -5.3558  -4.2919  -1.8169  -1.4643  -0.9770

          k = 0.1612-0.0002 0.0000 ( 17316 PWs)   bands (ev):

   -68.2811 -68.2377 -35.2794 -34.7324 -34.5205 -34.4915 -34.4200 -34.3664
   -19.9455 -19.9336 -19.9144 -19.9127 -19.9053 -19.9023 -19.8820 -19.8774
   -19.8713 -19.8687 -19.8551 -19.8502 -19.8050 -19.8038 -12.9562  -7.0372
    -5.1553  -4.3524  -1.7332  -1.2894  -0.8991

          k = 0.2417 0.1389 0.0000 ( 17406 PWs)   bands (ev):

   -68.2627 -68.2271 -35.2249 -34.8483 -34.6636 -34.6400 -34.5143 -34.3920
   -19.9398 -19.9294 -19.9204 -19.9136 -19.9080 -19.8991 -19.8871 -19.8746
   -19.8729 -19.8649 -19.8420 -19.8379 -19.8173 -19.8160 -12.4819  -6.4472
    -5.6845  -4.2722  -2.4534  -1.5309  -1.0294

          k = 0.2417 0.2316 0.0000 ( 17418 PWs)   bands (ev):

   -68.2529 -68.2221 -35.2009 -34.9233 -34.7438 -34.6734 -34.5460 -34.4331
   -19.9370 -19.9274 -19.9218 -19.9161 -19.9081 -19.8988 -19.8889 -19.8747
   -19.8711 -19.8638 -19.8352 -19.8316 -19.8235 -19.8222 -12.2571  -6.4989
    -5.4349  -4.5516  -2.6243  -1.1779  -1.0544

          k = 0.2417 0.3243 0.0000 ( 17423 PWs)   bands (ev):

   -68.2410 -68.2169 -35.1756 -34.9807 -34.8316 -34.7008 -34.5938 -34.5122
   -19.9322 -19.9264 -19.9216 -19.9191 -19.9084 -19.8996 -19.8907 -19.8747
   -19.8680 -19.8641 -19.8312 -19.8303 -19.8268 -19.8241 -12.0056  -6.4808
    -5.1515  -4.9884  -2.3876  -1.2968  -0.6115

          k = 0.2417 0.4170 0.0000 ( 17447 PWs)   bands (ev):

   -68.2296 -68.2134 -35.1488 -35.0140 -34.8964 -34.7334 -34.6493 -34.5906
   -19.9278 -19.9268 -19.9202 -19.9190 -19.9099 -19.9012 -19.8922 -19.8735
   -19.8664 -19.8651 -19.8378 -19.8372 -19.8199 -19.8181 -11.7977  -6.4471
    -5.5109  -4.7245  -1.8261  -1.3904  -0.6836

          k = 0.2417 0.5098 0.0000 ( 17506 PWs)   bands (ev):

   -68.2215 -68.2129 -35.1103 -35.0543 -34.9154 -34.7812 -34.6702 -34.6386
   -19.9290 -19.9234 -19.9197 -19.9162 -19.9122 -19.9025 -19.8932 -19.8714
   -19.8688 -19.8641 -19.8420 -19.8411 -19.8156 -19.8147 -11.6824  -6.4542
    -5.6964  -4.5653  -1.7441  -0.8877  -0.6483

          k = 0.2416 0.6025 0.0000 ( 17506 PWs)   bands (ev):

   -68.2214 -68.2128 -35.1107 -35.0549 -34.9155 -34.7813 -34.6700 -34.6387
   -19.9290 -19.9234 -19.9198 -19.9162 -19.9122 -19.9026 -19.8932 -19.8714
   -19.8687 -19.8640 -19.8420 -19.8411 -19.8156 -19.8147 -11.6820  -6.4554
    -5.6967  -4.5660  -1.7442  -0.8944  -0.6447

          k = 0.2418-0.4175 0.0000 ( 17452 PWs)   bands (ev):

   -68.2294 -68.2133 -35.1493 -35.0154 -34.8969 -34.7337 -34.6494 -34.5909
   -19.9278 -19.9268 -19.9204 -19.9190 -19.9099 -19.9014 -19.8922 -19.8735
   -19.8663 -19.8650 -19.8379 -19.8373 -19.8198 -19.8180 -11.7964  -6.4493
    -5.5128  -4.7253  -1.8294  -1.3946  -0.6819

          k = 0.2418-0.3248 0.0000 ( 17425 PWs)   bands (ev):

   -68.2407 -68.2167 -35.1757 -34.9816 -34.8329 -34.7008 -34.5948 -34.5133
   -19.9323 -19.9264 -19.9216 -19.9192 -19.9083 -19.8998 -19.8906 -19.8747
   -19.8679 -19.8640 -19.8313 -19.8305 -19.8267 -19.8240 -12.0036  -6.4813
    -5.1539  -4.9897  -2.3912  -1.2978  -0.6118

          k = 0.2418-0.2320 0.0000 ( 17423 PWs)   bands (ev):

   -68.2527 -68.2220 -35.2006 -34.9233 -34.7445 -34.6733 -34.5479 -34.4352
   -19.9370 -19.9274 -19.9217 -19.9163 -19.9080 -19.8990 -19.8889 -19.8747
   -19.8711 -19.8638 -19.8350 -19.8315 -19.8237 -19.8224 -12.2548  -6.4969
    -5.4314  -4.5602  -2.6242  -1.1775  -1.0553

          k = 0.2418-0.1393 0.0000 ( 17414 PWs)   bands (ev):

   -68.2625 -68.2270 -35.2245 -34.8477 -34.6638 -34.6393 -34.5169 -34.3944
   -19.9399 -19.9294 -19.9203 -19.9138 -19.9077 -19.8993 -19.8871 -19.8746
   -19.8729 -19.8649 -19.8419 -19.8378 -19.8174 -19.8162 -12.4801  -6.4440
    -5.6796  -4.2831  -2.4492  -1.5317  -1.0291

          k = 0.2418-0.0466 0.0000 ( 17389 PWs)   bands (ev):

   -68.2681 -68.2301 -35.2394 -34.7911 -34.6315 -34.6063 -34.4798 -34.3999
   -19.9409 -19.9309 -19.9181 -19.9147 -19.9061 -19.9002 -19.8857 -19.8761
   -19.8715 -19.8665 -19.8458 -19.8415 -19.8138 -19.8129 -12.6126  -6.3828
    -5.7228  -4.4345  -1.9712  -1.4672  -1.1330

          k = 0.2417 0.0461 0.0000 ( 17387 PWs)   bands (ev):

   -68.2682 -68.2301 -35.2396 -34.7915 -34.6316 -34.6065 -34.4791 -34.3985
   -19.9409 -19.9309 -19.9182 -19.9145 -19.9062 -19.9001 -19.8857 -19.8761
   -19.8716 -19.8665 -19.8459 -19.8415 -19.8137 -19.8129 -12.6133  -6.3840
    -5.7263  -4.4286  -1.9761  -1.4654  -1.1315

          k = 0.3223 0.1851 0.0000 ( 17412 PWs)   bands (ev):

   -68.2468 -68.2193 -35.1949 -35.0056 -34.7787 -34.6885 -34.5657 -34.4235
   -19.9376 -19.9251 -19.9235 -19.9152 -19.9106 -19.8983 -19.8894 -19.8737
   -19.8718 -19.8616 -19.8310 -19.8278 -19.8270 -19.8248 -12.1449  -6.8358
    -5.2236  -4.3343  -3.0935  -1.1899  -0.6662

          k = 0.3223 0.2779 0.0000 ( 17412 PWs)   bands (ev):

   -68.2384 -68.2160 -35.1860 -35.0617 -34.8181 -34.7132 -34.5981 -34.4645
   -19.9360 -19.9240 -19.9232 -19.9170 -19.9110 -19.8988 -19.8902 -19.8740
   -19.8700 -19.8609 -19.8322 -19.8297 -19.8253 -19.8228 -11.9848  -6.9032
    -5.0242  -4.6503  -3.0726  -0.7174  -0.5680

          k = 0.3223 0.3706 0.0000 ( 17473 PWs)   bands (ev):

   -68.2293 -68.2134 -35.1635 -35.0755 -34.8461 -34.7589 -34.6393 -34.5479
   -19.9322 -19.9243 -19.9213 -19.9176 -19.9113 -19.9005 -19.8915 -19.8733
   -19.8688 -19.8619 -19.8378 -19.8358 -19.8197 -19.8180 -11.8135  -6.7407
    -5.1985  -4.7962  -2.5671  -0.6724  -0.4741

          k = 0.3222 0.4633 0.0000 ( 17502 PWs)   bands (ev):

   -68.2211 -68.2129 -35.1109 -35.0542 -34.9166 -34.7801 -34.6727 -34.6390
   -19.9291 -19.9234 -19.9196 -19.9163 -19.9122 -19.9026 -19.8932 -19.8713
   -19.8689 -19.8639 -19.8421 -19.8411 -19.8155 -19.8146 -11.6809  -6.4536
    -5.7030  -4.5693  -1.7597  -0.8689  -0.6415

          k = 0.3222 0.5561 0.0000 ( 17498 PWs)   bands (ev):

   -68.2156 -68.2151 -35.0391 -35.0371 -35.0022 -34.7811 -34.6849 -34.6824
   -19.9285 -19.9208 -19.9206 -19.9138 -19.9136 -19.9039 -19.8940 -19.8697
   -19.8694 -19.8653 -19.8436 -19.8434 -19.8138 -19.8136 -11.6304  -6.1133
    -6.1121  -4.4625  -1.0933  -0.9626  -0.9511

          k = 0.3222 0.6488 0.0000 ( 17492 PWs)   bands (ev):

   -68.2210 -68.2128 -35.1114 -35.0546 -34.9173 -34.7801 -34.6732 -34.6394
   -19.9290 -19.9235 -19.9196 -19.9163 -19.9121 -19.9028 -19.8931 -19.8714
   -19.8689 -19.8638 -19.8422 -19.8412 -19.8154 -19.8145 -11.6799  -6.4540
    -5.7063  -4.5710  -1.7669  -0.8668  -0.6354

          k = 0.3224-0.3712 0.0000 ( 17475 PWs)   bands (ev):

   -68.2290 -68.2132 -35.1640 -35.0760 -34.8472 -34.7588 -34.6406 -34.5494
   -19.9322 -19.9243 -19.9213 -19.9178 -19.9113 -19.9007 -19.8914 -19.8733
   -19.8687 -19.8618 -19.8379 -19.8360 -19.8196 -19.8178 -11.8117  -6.7408
    -5.2049  -4.7971  -2.5717  -0.6702  -0.4702

          k = 0.3224-0.2785 0.0000 ( 17423 PWs)   bands (ev):

   -68.2381 -68.2157 -35.1860 -35.0619 -34.8186 -34.7133 -34.6004 -34.4669
   -19.9360 -19.9239 -19.9232 -19.9171 -19.9109 -19.8990 -19.8901 -19.8741
   -19.8699 -19.8608 -19.8323 -19.8299 -19.8252 -19.8226 -11.9825  -6.9019
    -5.0230  -4.6597  -3.0743  -0.7139  -0.5664

          k = 0.3224-0.1858 0.0000 ( 17396 PWs)   bands (ev):

   -68.2465 -68.2191 -35.1946 -35.0053 -34.7786 -34.6886 -34.5686 -34.4262
   -19.9377 -19.9251 -19.9234 -19.9154 -19.9104 -19.8985 -19.8893 -19.8737
   -19.8718 -19.8616 -19.8308 -19.8277 -19.8272 -19.8250 -12.1426  -6.8331
    -5.2207  -4.3462  -3.0914  -1.1889  -0.6640

          k = 0.3224-0.0930 0.0000 ( 17409 PWs)   bands (ev):

   -68.2525 -68.2218 -35.2006 -34.9254 -34.7459 -34.6736 -34.5475 -34.4354
   -19.9370 -19.9274 -19.9218 -19.9163 -19.9080 -19.8990 -19.8888 -19.8749
   -19.8709 -19.8637 -19.8350 -19.8314 -19.8238 -19.8225 -12.2527  -6.5002
    -5.4300  -4.5621  -2.6318  -1.1769  -1.0525

          k = 0.3223-0.0003 0.0000 ( 17438 PWs)   bands (ev):

   -68.2547 -68.2229 -35.2033 -34.8774 -34.7519 -34.6606 -34.5251 -34.4607
   -19.9359 -19.9289 -19.9198 -19.9183 -19.9065 -19.8996 -19.8885 -19.8757
   -19.8694 -19.8654 -19.8365 -19.8328 -19.8223 -19.8219 -12.2918  -6.1440
    -5.6784  -4.7783  -2.1364  -1.6239  -0.5788

          k = 0.3223 0.0924 0.0000 ( 17414 PWs)   bands (ev):

   -68.2526 -68.2220 -35.2009 -34.9261 -34.7458 -34.6738 -34.5455 -34.4333
   -19.9369 -19.9274 -19.9219 -19.9161 -19.9081 -19.8989 -19.8888 -19.8749
   -19.8709 -19.8637 -19.8350 -19.8315 -19.8237 -19.8223 -12.2541  -6.5032
    -5.4328  -4.5537  -2.6351  -1.1766  -1.0511

          k = 0.4029 0.2314 0.0000 ( 17446 PWs)   bands (ev):

   -68.2341 -68.2146 -35.2003 -35.1244 -34.8360 -34.7141 -34.6022 -34.4473
   -19.9377 -19.9246 -19.9218 -19.9165 -19.9131 -19.8986 -19.8898 -19.8743
   -19.8694 -19.8589 -19.8340 -19.8305 -19.8226 -19.8204 -11.9328  -7.1595
    -5.0079  -4.4124  -3.4941  -0.4078  -0.1527

          k = 0.4029 0.3242 0.0000 ( 17464 PWs)   bands (ev):

   -68.2291 -68.2133 -35.1966 -35.1418 -34.8366 -34.7420 -34.6247 -34.4829
   -19.9365 -19.9243 -19.9211 -19.9169 -19.9133 -19.8993 -19.8903 -19.8739
   -19.8690 -19.8589 -19.8370 -19.8336 -19.8195 -19.8179 -11.8468  -7.1215
    -4.9244  -4.7146  -3.2868  -0.1303  -0.0603

          k = 0.4028 0.4169 0.0000 ( 17484 PWs)   bands (ev):

   -68.2242 -68.2127 -35.1578 -35.1183 -34.8171 -34.8136 -34.6508 -34.5612
   -19.9327 -19.9240 -19.9199 -19.9166 -19.9132 -19.9009 -19.8916 -19.8725
   -19.8695 -19.8608 -19.8403 -19.8378 -19.8169 -19.8157 -11.7475  -6.8391
    -5.2286  -4.7514  -2.6406  -0.3221  -0.2618

          k = 0.4028 0.5096 0.0000 ( 17501 PWs)   bands (ev):

   -68.2208 -68.2128 -35.1124 -35.0565 -34.9162 -34.7804 -34.6714 -34.6399
   -19.9291 -19.9234 -19.9197 -19.9162 -19.9122 -19.9027 -19.8931 -19.8716
   -19.8687 -19.8638 -19.8422 -19.8412 -19.8154 -19.8145 -11.6791  -6.4594
    -5.7032  -4.5725  -1.7606  -0.8905  -0.6292

          k = 0.4028 0.6023 0.0000 ( 17503 PWs)   bands (ev):

   -68.2207 -68.2128 -35.1125 -35.0564 -34.9168 -34.7803 -34.6721 -34.6403
   -19.9291 -19.9235 -19.9197 -19.9163 -19.9121 -19.9028 -19.8930 -19.8716
   -19.8687 -19.8637 -19.8422 -19.8413 -19.8154 -19.8145 -11.6786  -6.4586
    -5.7062  -4.5734  -1.7677  -0.8817  -0.6266

          k = 0.4028 0.6951 0.0000 ( 17482 PWs)   bands (ev):

   -68.2239 -68.2126 -35.1582 -35.1183 -34.8167 -34.8148 -34.6522 -34.5630
   -19.9327 -19.9241 -19.9198 -19.9168 -19.9130 -19.9011 -19.8915 -19.8725
   -19.8694 -19.8608 -19.8404 -19.8380 -19.8168 -19.8156 -11.7460  -6.8384
    -5.2352  -4.7530  -2.6450  -0.3155  -0.2553

          k = 0.4030-0.3249 0.0000 ( 17460 PWs)   bands (ev):

   -68.2287 -68.2131 -35.1970 -35.1419 -34.8363 -34.7426 -34.6273 -34.4855
   -19.9365 -19.9243 -19.9210 -19.9171 -19.9132 -19.8995 -19.8901 -19.8739
   -19.8689 -19.8589 -19.8372 -19.8338 -19.8193 -19.8177 -11.8446  -7.1203
    -4.9256  -4.7243  -3.2888  -0.1242  -0.0543

          k = 0.4030-0.2322 0.0000 ( 17442 PWs)   bands (ev):

   -68.2338 -68.2143 -35.2004 -35.1244 -34.8357 -34.7143 -34.6054 -34.4502
   -19.9378 -19.9245 -19.9218 -19.9167 -19.9129 -19.8988 -19.8897 -19.8742
   -19.8694 -19.8589 -19.8342 -19.8308 -19.8224 -19.8203 -11.9305  -7.1575
    -5.0076  -4.4252  -3.4928  -0.4031  -0.1475

          k = 0.4029-0.1395 0.0000 ( 17405 PWs)   bands (ev):

   -68.2380 -68.2157 -35.1866 -35.0634 -34.8200 -34.7129 -34.5999 -34.4668
   -19.9360 -19.9239 -19.9232 -19.9172 -19.9109 -19.8991 -19.8900 -19.8743
   -19.8696 -19.8608 -19.8324 -19.8300 -19.8251 -19.8226 -11.9810  -6.9054
    -5.0241  -4.6577  -3.0819  -0.7091  -0.5708

          k = 0.4029-0.0467 0.0000 ( 17420 PWs)   bands (ev):

   -68.2404 -68.2166 -35.1763 -34.9854 -34.8340 -34.7013 -34.5942 -34.5137
   -19.9322 -19.9264 -19.9217 -19.9193 -19.9083 -19.8999 -19.8905 -19.8749
   -19.8677 -19.8639 -19.8315 -19.8306 -19.8265 -19.8239 -12.0002  -6.4891
    -5.1492  -4.9965  -2.4010  -1.3052  -0.6033

          k = 0.4029 0.0460 0.0000 ( 17431 PWs)   bands (ev):

   -68.2404 -68.2166 -35.1764 -34.9859 -34.8336 -34.7014 -34.5932 -34.5126
   -19.9322 -19.9265 -19.9218 -19.9191 -19.9084 -19.8998 -19.8906 -19.8749
   -19.8677 -19.8640 -19.8314 -19.8306 -19.8266 -19.8239 -12.0008  -6.4909
    -5.1462  -4.9959  -2.4015  -1.3071  -0.6013

          k = 0.4029 0.1387 0.0000 ( 17404 PWs)   bands (ev):

   -68.2382 -68.2158 -35.1868 -35.0638 -34.8202 -34.7126 -34.5973 -34.4643
   -19.9360 -19.9240 -19.9232 -19.9170 -19.9110 -19.8989 -19.8901 -19.8743
   -19.8696 -19.8608 -19.8322 -19.8298 -19.8252 -19.8227 -11.9828  -6.9078
    -5.0252  -4.6477  -3.0834  -0.7104  -0.5746

          k =-0.4835-0.2777 0.0000 ( 17432 PWs)   bands (ev):

   -68.2290 -68.2133 -35.2149 -35.1644 -34.8444 -34.7259 -34.6153 -34.4560
   -19.9381 -19.9244 -19.9212 -19.9170 -19.9138 -19.8989 -19.8897 -19.8744
   -19.8685 -19.8579 -19.8365 -19.8325 -19.8194 -19.8178 -11.8635  -7.2705
    -4.9783  -4.4460  -3.6278   0.0832   0.1093

          k =-0.4835-0.1850 0.0000 ( 17462 PWs)   bands (ev):

   -68.2290 -68.2133 -35.1973 -35.1424 -34.8373 -34.7415 -34.6245 -34.4828
   -19.9365 -19.9243 -19.9211 -19.9170 -19.9133 -19.8994 -19.8903 -19.8740
   -19.8688 -19.8589 -19.8370 -19.8336 -19.8195 -19.8178 -11.8461  -7.1233
    -4.9280  -4.7101  -3.2910  -0.1310  -0.0613

          k =-0.4835-0.0923 0.0000 ( 17456 PWs)   bands (ev):

   -68.2289 -68.2132 -35.1653 -35.0784 -34.8481 -34.7578 -34.6385 -34.5478
   -19.9323 -19.9243 -19.9214 -19.9177 -19.9114 -19.9005 -19.8914 -19.8736
   -19.8684 -19.8618 -19.8379 -19.8359 -19.8196 -19.8178 -11.8109  -6.7479
    -5.1996  -4.7969  -2.5750  -0.6864  -0.4695

          k =-0.4835 0.0005 0.0000 ( 17466 PWs)   bands (ev):

   -68.2289 -68.2132 -35.1508 -35.0196 -34.8965 -34.7340 -34.6491 -34.5920
   -19.9279 -19.9268 -19.9205 -19.9191 -19.9099 -19.9014 -19.8921 -19.8737
   -19.8661 -19.8649 -19.8380 -19.8375 -19.8196 -19.8178 -11.7928  -6.4576
    -5.5160  -4.7299  -1.8376  -1.4042  -0.6741

          k =-0.4835 0.0932 0.0000 ( 17463 PWs)   bands (ev):

   -68.2288 -68.2131 -35.1653 -35.0781 -34.8483 -34.7581 -34.6400 -34.5495
   -19.9322 -19.9243 -19.9214 -19.9178 -19.9112 -19.9007 -19.8913 -19.8736
   -19.8684 -19.8617 -19.8380 -19.8361 -19.8195 -19.8177 -11.8097  -6.7463
    -5.2057  -4.7975  -2.5773  -0.6801  -0.4663

          k =-0.4835 0.1859 0.0000 ( 17459 PWs)   bands (ev):

   -68.2287 -68.2131 -35.1975 -35.1423 -34.8368 -34.7422 -34.6271 -34.4854
   -19.9365 -19.9243 -19.9210 -19.9172 -19.9131 -19.8995 -19.8901 -19.8740
   -19.8688 -19.8589 -19.8372 -19.8338 -19.8193 -19.8177 -11.8441  -7.1217
    -4.9286  -4.7205  -3.2918  -0.1249  -0.0548

          k =-0.4833-0.8341 0.0000 ( 17442 PWs)   bands (ev):

   -68.2286 -68.2131 -35.2152 -35.1643 -34.8438 -34.7263 -34.6186 -34.4590
   -19.9381 -19.9244 -19.9212 -19.9172 -19.9136 -19.8991 -19.8896 -19.8744
   -19.8684 -19.8578 -19.8367 -19.8328 -19.8192 -19.8176 -11.8612  -7.2689
    -4.9792  -4.4592  -3.6267   0.0904   0.1159

     highest occupied level (ev):     0.1159

!    total energy              =   -1373.24790325 Ry
     estimated scf accuracy    <          2.7E-13 Ry

     The total energy is the sum of the following terms:
     one-electron contribution =  -10891.87101778 Ry
     hartree contribution      =    5474.26534883 Ry
     xc contribution           =    -138.78095402 Ry
     ewald contribution        =    4183.13871972 Ry

     convergence has been achieved in  29 iterations

     negative rho (up, down):  4.334E-04 0.000E+00

     Forces acting on atoms (cartesian axes, Ry/au):

     atom    1 type  2   force =     0.00031092    0.00028339   -0.00017353
     atom    2 type  1   force =    -0.00026704   -0.00046564    0.00151034
     atom    3 type  1   force =    -0.00004388    0.00018225   -0.00133682

     Total force =     0.002096     Total SCF correction =     0.000007


     Computing stress (Cartesian axis) and pressure


     negative rho (up, down):  4.334E-04 0.000E+00
          total   stress  (Ry/bohr**3)                   (kbar)     P=        5.38
   0.00006550  -0.00000261   0.00000033            9.63       -0.38        0.05
  -0.00000261   0.00005046   0.00000093           -0.38        7.42        0.14
   0.00000033   0.00000093  -0.00000617            0.05        0.14       -0.91


     Writing output data file /scratch/as3359/Ta2C-CT-ecutoff/Ta2C.save/
 
     init_run     :     16.40s CPU      9.13s WALL (       1 calls)
     electrons    :    863.97s CPU    444.59s WALL (       1 calls)
     forces       :      5.61s CPU      2.90s WALL (       1 calls)
     stress       :     19.27s CPU      9.99s WALL (       1 calls)

     Called by init_run:
     wfcinit      :     11.71s CPU      6.02s WALL (       1 calls)
     potinit      :      1.09s CPU      0.55s WALL (       1 calls)
     hinit0       :      2.78s CPU      1.97s WALL (       1 calls)

     Called by electrons:
     c_bands      :    697.35s CPU    353.84s WALL (      29 calls)
     sum_band     :    139.26s CPU     74.09s WALL (      29 calls)
     v_of_rho     :      3.91s CPU      2.03s WALL (      30 calls)
     newd         :     22.40s CPU     14.15s WALL (      30 calls)
     mix_rho      :      1.34s CPU      0.72s WALL (      29 calls)

     Called by c_bands:
     init_us_2    :     19.56s CPU      9.81s WALL (    4514 calls)
     cegterg      :    637.40s CPU    323.60s WALL (    2146 calls)

     Called by *egterg:
     cdiaghg      :     19.04s CPU      9.76s WALL (   12727 calls)
     h_psi        :    500.16s CPU    254.59s WALL (   12801 calls)
     s_psi        :     24.90s CPU     12.50s WALL (   12801 calls)
     g_psi        :      2.66s CPU      1.34s WALL (   10581 calls)

     Called by h_psi:
     h_psi:calbec :     23.34s CPU     11.77s WALL (   12801 calls)
     vloc_psi     :    441.81s CPU    225.25s WALL (   12801 calls)
     add_vuspsi   :     31.20s CPU     15.66s WALL (   12801 calls)

     General routines
     calbec       :     31.06s CPU     15.66s WALL (   15317 calls)
     fft          :      2.02s CPU      1.04s WALL (     413 calls)
     ffts         :      0.21s CPU      0.11s WALL (      59 calls)
     fftw         :    454.03s CPU    231.73s WALL (  372886 calls)
     interpolate  :      0.34s CPU      0.18s WALL (      30 calls)
 
     Parallel routines
 
     PWSCF        :  15m 7.39s CPU   7m48.56s WALL

 
   This run was terminated on:  20:27:27   6Apr2022            

=------------------------------------------------------------------------------=
   JOB DONE.
=------------------------------------------------------------------------------=
