
     Program PWSCF v.6.8 starts on  6Apr2022 at 23:12: 9 

     This program is part of the open-source Quantum ESPRESSO suite
     for quantum simulation of materials; please cite
         "P. Giannozzi et al., J. Phys.:Condens. Matter 21 395502 (2009);
         "P. Giannozzi et al., J. Phys.:Condens. Matter 29 465901 (2017);
         "P. Giannozzi et al., J. Chem. Phys. 152 154105 (2020);
          URL http://www.quantum-espresso.org", 
     in publications or presentations arising from this work. More details at
     http://www.quantum-espresso.org/quote

     Parallel version (MPI & OpenMP), running on       4 processor cores
     Number of MPI processes:                 2
     Threads/MPI process:                     2

     MPI processes distributed on     1 nodes
     R & G space division:  proc/nbgrp/npool/nimage =       2
     124975 MiB available memory on the printing compute node when the environment starts
 
     Reading input from Ta2C.scf.135.in

     Current dimensions of program PWSCF are:
     Max number of different atomic species (ntypx) = 10
     Max number of k-points (npk) =  40000
     Max angular momentum in pseudopotentials (lmaxx) =  4
     file Ta.pbesol-spfn-rrkjus_psl.1.0.0.UPF: wavefunction(s)  5S 5P renormalized

     Subspace diagonalization in iterative solution of the eigenvalue problem:
     a serial algorithm will be used

 
     Parallelization info
     --------------------
     sticks:   dense  smooth     PW     G-vecs:    dense   smooth      PW
     Min         765     618    183               235229   168388   27599
     Max         766     619    184               235256   168407   27616
     Sum        1531    1237    367               470485   336795   55215
 
     Using Slab Decomposition
 


     bravais-lattice index     =            0
     lattice parameter (alat)  =       5.5500  a.u.
     unit-cell volume          =    1588.7844 (a.u.)^3
     number of atoms/cell      =            3
     number of atomic types    =            2
     number of electrons       =        58.00
     number of Kohn-Sham states=           29
     kinetic-energy cutoff     =     135.0000  Ry
     charge density cutoff     =     675.0000  Ry
     scf convergence threshold =      1.0E-12
     mixing beta               =       0.7000
     number of iterations used =            8  plain     mixing
     Exchange-correlation= PBESOL
                           (   1   4  10   8   0   0   0)

     celldm(1)=   5.550000  celldm(2)=   0.000000  celldm(3)=   0.000000
     celldm(4)=   0.000000  celldm(5)=   0.000000  celldm(6)=   0.000000

     crystal axes: (cart. coord. in units of alat)
               a(1) = (   1.034114   0.000203   0.000000 )  
               a(2) = (  -0.516207   0.898604   0.000000 )  
               a(3) = (   0.000000   0.000000  10.000000 )  

     reciprocal axes: (cart. coord. in units 2 pi/alat)
               b(1) = (  0.966902  0.555441  0.000000 )  
               b(2) = ( -0.000219  1.112711  0.000000 )  
               b(3) = (  0.000000  0.000000  0.100000 )  


     PseudoPot. # 1 for Ta read from file:
     /shared/home/as3359/pseudo/Ta.pbesol-spfn-rrkjus_psl.1.0.0.UPF
     MD5 check sum: f099565ffaca9b150a52e9412a28e20b
     Pseudo is Ultrasoft + core correction, Zval = 27.0
     Generated using &quot;atomic&quot; code by A. Dal Corso  v.6.3
     Using radial grid of 1273 points,  8 beta functions with: 
                l(1) =   0
                l(2) =   0
                l(3) =   1
                l(4) =   1
                l(5) =   2
                l(6) =   2
                l(7) =   3
                l(8) =   3
     Q(r) pseudized with 0 coefficients 


     PseudoPot. # 2 for C  read from file:
     /shared/home/as3359/pseudo/C.pbesol-n-rrkjus_psl.1.0.0.UPF
     MD5 check sum: 05995be603a8a7c99da3dc4413f31573
     Pseudo is Ultrasoft + core correction, Zval =  4.0
     Generated using &quot;atomic&quot; code by A. Dal Corso  v.6.3MaX
     Using radial grid of 1073 points,  4 beta functions with: 
                l(1) =   0
                l(2) =   0
                l(3) =   1
                l(4) =   1
     Q(r) pseudized with 0 coefficients 


     atomic species   valence    mass     pseudopotential
        Ta            27.00   180.94788     Ta( 1.00)
        C              4.00    12.01070     C ( 1.00)

     No symmetry found



   Cartesian axes

     site n.     atom                  positions (alat units)
         1           C   tau(   1) = (   0.0000000   0.0000000   0.0000000  )
         2           Ta  tau(   2) = (   0.5174615   0.3004190  -0.4127129  )
         3           Ta  tau(   3) = (   0.0007158   0.5986355   0.4125272  )

     number of k points=    74
                       cart. coord. in units 2pi/alat
        k(    1) = (   0.0000000   0.0000000   0.0000000), wk =   0.0138889
        k(    2) = (  -0.0000182   0.0927259   0.0000000), wk =   0.0277778
        k(    3) = (  -0.0000364   0.1854519   0.0000000), wk =   0.0277778
        k(    4) = (  -0.0000547   0.2781778   0.0000000), wk =   0.0277778
        k(    5) = (  -0.0000729   0.3709037   0.0000000), wk =   0.0277778
        k(    6) = (  -0.0000911   0.4636296   0.0000000), wk =   0.0277778
        k(    7) = (   0.0001093  -0.5563556   0.0000000), wk =   0.0138889
        k(    8) = (   0.0805752   0.0462867   0.0000000), wk =   0.0277778
        k(    9) = (   0.0805570   0.1390127   0.0000000), wk =   0.0277778
        k(   10) = (   0.0805388   0.2317386   0.0000000), wk =   0.0277778
        k(   11) = (   0.0805205   0.3244645   0.0000000), wk =   0.0277778
        k(   12) = (   0.0805023   0.4171904   0.0000000), wk =   0.0277778
        k(   13) = (   0.0804841   0.5099164   0.0000000), wk =   0.0277778
        k(   14) = (   0.0806845  -0.5100688   0.0000000), wk =   0.0277778
        k(   15) = (   0.0806663  -0.4173429   0.0000000), wk =   0.0277778
        k(   16) = (   0.0806481  -0.3246170   0.0000000), wk =   0.0277778
        k(   17) = (   0.0806298  -0.2318910   0.0000000), wk =   0.0277778
        k(   18) = (   0.0806116  -0.1391651   0.0000000), wk =   0.0277778
        k(   19) = (   0.0805934  -0.0464392   0.0000000), wk =   0.0277778
        k(   20) = (   0.1611504   0.0925735   0.0000000), wk =   0.0277778
        k(   21) = (   0.1611322   0.1852994   0.0000000), wk =   0.0277778
        k(   22) = (   0.1611139   0.2780253   0.0000000), wk =   0.0277778
        k(   23) = (   0.1610957   0.3707513   0.0000000), wk =   0.0277778
        k(   24) = (   0.1610775   0.4634772   0.0000000), wk =   0.0277778
        k(   25) = (   0.1610593   0.5562031   0.0000000), wk =   0.0277778
        k(   26) = (   0.1612597  -0.4637821   0.0000000), wk =   0.0277778
        k(   27) = (   0.1612415  -0.3710561   0.0000000), wk =   0.0277778
        k(   28) = (   0.1612232  -0.2783302   0.0000000), wk =   0.0277778
        k(   29) = (   0.1612050  -0.1856043   0.0000000), wk =   0.0277778
        k(   30) = (   0.1611868  -0.0928784   0.0000000), wk =   0.0277778
        k(   31) = (   0.1611686  -0.0001524   0.0000000), wk =   0.0277778
        k(   32) = (   0.2417256   0.1388602   0.0000000), wk =   0.0277778
        k(   33) = (   0.2417073   0.2315862   0.0000000), wk =   0.0277778
        k(   34) = (   0.2416891   0.3243121   0.0000000), wk =   0.0277778
        k(   35) = (   0.2416709   0.4170380   0.0000000), wk =   0.0277778
        k(   36) = (   0.2416527   0.5097639   0.0000000), wk =   0.0277778
        k(   37) = (   0.2416345   0.6024899   0.0000000), wk =   0.0277778
        k(   38) = (   0.2418349  -0.4174953   0.0000000), wk =   0.0277778
        k(   39) = (   0.2418166  -0.3247694   0.0000000), wk =   0.0277778
        k(   40) = (   0.2417984  -0.2320435   0.0000000), wk =   0.0277778
        k(   41) = (   0.2417802  -0.1393175   0.0000000), wk =   0.0277778
        k(   42) = (   0.2417620  -0.0465916   0.0000000), wk =   0.0277778
        k(   43) = (   0.2417438   0.0461343   0.0000000), wk =   0.0277778
        k(   44) = (   0.3223007   0.1851470   0.0000000), wk =   0.0277778
        k(   45) = (   0.3222825   0.2778729   0.0000000), wk =   0.0277778
        k(   46) = (   0.3222643   0.3705988   0.0000000), wk =   0.0277778
        k(   47) = (   0.3222461   0.4633248   0.0000000), wk =   0.0277778
        k(   48) = (   0.3222279   0.5560507   0.0000000), wk =   0.0277778
        k(   49) = (   0.3222097   0.6487766   0.0000000), wk =   0.0277778
        k(   50) = (   0.3224100  -0.3712086   0.0000000), wk =   0.0277778
        k(   51) = (   0.3223918  -0.2784827   0.0000000), wk =   0.0277778
        k(   52) = (   0.3223736  -0.1857567   0.0000000), wk =   0.0277778
        k(   53) = (   0.3223554  -0.0930308   0.0000000), wk =   0.0277778
        k(   54) = (   0.3223372  -0.0003049   0.0000000), wk =   0.0277778
        k(   55) = (   0.3223190   0.0924210   0.0000000), wk =   0.0277778
        k(   56) = (   0.4028759   0.2314337   0.0000000), wk =   0.0277778
        k(   57) = (   0.4028577   0.3241596   0.0000000), wk =   0.0277778
        k(   58) = (   0.4028395   0.4168856   0.0000000), wk =   0.0277778
        k(   59) = (   0.4028213   0.5096115   0.0000000), wk =   0.0277778
        k(   60) = (   0.4028031   0.6023374   0.0000000), wk =   0.0277778
        k(   61) = (   0.4027848   0.6950633   0.0000000), wk =   0.0277778
        k(   62) = (   0.4029852  -0.3249218   0.0000000), wk =   0.0277778
        k(   63) = (   0.4029670  -0.2321959   0.0000000), wk =   0.0277778
        k(   64) = (   0.4029488  -0.1394700   0.0000000), wk =   0.0277778
        k(   65) = (   0.4029306  -0.0467441   0.0000000), wk =   0.0277778
        k(   66) = (   0.4029124   0.0459819   0.0000000), wk =   0.0277778
        k(   67) = (   0.4028941   0.1387078   0.0000000), wk =   0.0277778
        k(   68) = (  -0.4834511  -0.2777205   0.0000000), wk =   0.0138889
        k(   69) = (  -0.4834693  -0.1849945   0.0000000), wk =   0.0277778
        k(   70) = (  -0.4834875  -0.0922686   0.0000000), wk =   0.0277778
        k(   71) = (  -0.4835058   0.0004573   0.0000000), wk =   0.0277778
        k(   72) = (  -0.4835240   0.0931832   0.0000000), wk =   0.0277778
        k(   73) = (  -0.4835422   0.1859092   0.0000000), wk =   0.0277778
        k(   74) = (  -0.4833418  -0.8340760   0.0000000), wk =   0.0138889

     Dense  grid:   470485 G-vectors     FFT dimensions: (  48,  48, 480)

     Smooth grid:   336795 G-vectors     FFT dimensions: (  45,  45, 432)

     Estimated max dynamical RAM per process >       2.89 GB

     Estimated total dynamical RAM >       5.79 GB

     Initial potential from superposition of free atoms

     starting charge   57.99842, renormalised to   58.00000

     negative rho (up, down):  4.491E-05 0.000E+00
     Starting wfcs are   38 randomized atomic wfcs

     total cpu time spent up to now is       23.8 secs

     Self-consistent Calculation

     iteration #  1     ecut=   135.00 Ry     beta= 0.70
     Davidson diagonalization with overlap
     ethr =  1.00E-02,  avg # of iterations =  2.1

     negative rho (up, down):  2.905E-05 0.000E+00

     total cpu time spent up to now is       59.4 secs

     total energy              =   -1372.42873028 Ry
     estimated scf accuracy    <       1.29124253 Ry

     iteration #  2     ecut=   135.00 Ry     beta= 0.70
     Davidson diagonalization with overlap
     ethr =  2.23E-03,  avg # of iterations =  6.6

     total cpu time spent up to now is      111.2 secs

     total energy              =   -1371.97460450 Ry
     estimated scf accuracy    <       8.01792292 Ry

     iteration #  3     ecut=   135.00 Ry     beta= 0.70
     Davidson diagonalization with overlap
     ethr =  2.23E-03,  avg # of iterations =  5.6

     total cpu time spent up to now is      158.8 secs

     total energy              =   -1373.20842174 Ry
     estimated scf accuracy    <       0.13755603 Ry

     iteration #  4     ecut=   135.00 Ry     beta= 0.70
     Davidson diagonalization with overlap
     ethr =  2.37E-04,  avg # of iterations =  7.9

     total cpu time spent up to now is      206.9 secs

     total energy              =   -1373.21341025 Ry
     estimated scf accuracy    <       0.80759127 Ry

     iteration #  5     ecut=   135.00 Ry     beta= 0.70
     Davidson diagonalization with overlap
     ethr =  2.37E-04,  avg # of iterations =  6.9

     negative rho (up, down):  1.622E-07 0.000E+00

     total cpu time spent up to now is      251.5 secs

     total energy              =   -1373.24789200 Ry
     estimated scf accuracy    <       0.03053555 Ry

     iteration #  6     ecut=   135.00 Ry     beta= 0.70
     Davidson diagonalization with overlap
     ethr =  5.26E-05,  avg # of iterations =  3.7

     negative rho (up, down):  3.225E-05 0.000E+00

     total cpu time spent up to now is      289.6 secs

     total energy              =   -1373.24954064 Ry
     estimated scf accuracy    <       0.00670411 Ry

     iteration #  7     ecut=   135.00 Ry     beta= 0.70
     Davidson diagonalization with overlap
     ethr =  1.16E-05,  avg # of iterations =  6.8

     negative rho (up, down):  3.945E-05 0.000E+00

     total cpu time spent up to now is      335.0 secs

     total energy              =   -1373.25041799 Ry
     estimated scf accuracy    <       0.00427385 Ry

     iteration #  8     ecut=   135.00 Ry     beta= 0.70
     Davidson diagonalization with overlap
     ethr =  7.37E-06,  avg # of iterations =  4.1

     negative rho (up, down):  1.349E-04 0.000E+00

     total cpu time spent up to now is      373.9 secs

     total energy              =   -1373.25101811 Ry
     estimated scf accuracy    <       0.00016959 Ry

     iteration #  9     ecut=   135.00 Ry     beta= 0.70
     Davidson diagonalization with overlap
     c_bands:  1 eigenvalues not converged
     ethr =  2.92E-07,  avg # of iterations =  9.3

     negative rho (up, down):  1.298E-04 0.000E+00

     total cpu time spent up to now is      431.1 secs

     total energy              =   -1373.25107330 Ry
     estimated scf accuracy    <       0.00064299 Ry

     iteration # 10     ecut=   135.00 Ry     beta= 0.70
     Davidson diagonalization with overlap
     ethr =  2.92E-07,  avg # of iterations =  6.0

     negative rho (up, down):  1.161E-04 0.000E+00

     total cpu time spent up to now is      474.3 secs

     total energy              =   -1373.25114074 Ry
     estimated scf accuracy    <       0.00001665 Ry

     iteration # 11     ecut=   135.00 Ry     beta= 0.70
     Davidson diagonalization with overlap
     ethr =  2.87E-08,  avg # of iterations =  6.8

     negative rho (up, down):  1.305E-04 0.000E+00

     total cpu time spent up to now is      521.2 secs

     total energy              =   -1373.25114626 Ry
     estimated scf accuracy    <       0.00000090 Ry

     iteration # 12     ecut=   135.00 Ry     beta= 0.70
     Davidson diagonalization with overlap
     c_bands:  1 eigenvalues not converged
     ethr =  1.56E-09,  avg # of iterations =  7.1

     negative rho (up, down):  1.315E-04 0.000E+00

     total cpu time spent up to now is      571.6 secs

     total energy              =   -1373.25114656 Ry
     estimated scf accuracy    <       0.00000106 Ry

     iteration # 13     ecut=   135.00 Ry     beta= 0.70
     Davidson diagonalization with overlap
     ethr =  1.56E-09,  avg # of iterations =  2.0

     negative rho (up, down):  1.321E-04 0.000E+00

     total cpu time spent up to now is      606.2 secs

     total energy              =   -1373.25114640 Ry
     estimated scf accuracy    <       0.00000057 Ry

     iteration # 14     ecut=   135.00 Ry     beta= 0.70
     Davidson diagonalization with overlap
     c_bands:  1 eigenvalues not converged
     c_bands:  1 eigenvalues not converged
     ethr =  9.82E-10,  avg # of iterations =  7.2

     negative rho (up, down):  1.326E-04 0.000E+00

     total cpu time spent up to now is      651.8 secs

     total energy              =   -1373.25114653 Ry
     estimated scf accuracy    <       0.00000106 Ry

     iteration # 15     ecut=   135.00 Ry     beta= 0.70
     Davidson diagonalization with overlap
     ethr =  9.82E-10,  avg # of iterations =  3.4

     negative rho (up, down):  1.327E-04 0.000E+00

     total cpu time spent up to now is      688.0 secs

     total energy              =   -1373.25114653 Ry
     estimated scf accuracy    <       0.00000029 Ry

     iteration # 16     ecut=   135.00 Ry     beta= 0.70
     Davidson diagonalization with overlap
     ethr =  5.02E-10,  avg # of iterations =  5.6

     negative rho (up, down):  1.327E-04 0.000E+00

     total cpu time spent up to now is      728.7 secs

     total energy              =   -1373.25114657 Ry
     estimated scf accuracy    <       0.00000002 Ry

     iteration # 17     ecut=   135.00 Ry     beta= 0.70
     Davidson diagonalization with overlap
     ethr =  4.19E-11,  avg # of iterations =  5.5

     negative rho (up, down):  1.327E-04 0.000E+00

     total cpu time spent up to now is      769.1 secs

     total energy              =   -1373.25114657 Ry
     estimated scf accuracy    <       0.00000004 Ry

     iteration # 18     ecut=   135.00 Ry     beta= 0.70
     Davidson diagonalization with overlap
     ethr =  4.19E-11,  avg # of iterations =  4.5

     negative rho (up, down):  1.327E-04 0.000E+00

     total cpu time spent up to now is      807.1 secs

     total energy              =   -1373.25114657 Ry
     estimated scf accuracy    <          4.0E-09 Ry

     iteration # 19     ecut=   135.00 Ry     beta= 0.70
     Davidson diagonalization with overlap
     ethr =  6.93E-12,  avg # of iterations =  6.0

     negative rho (up, down):  1.327E-04 0.000E+00

     total cpu time spent up to now is      848.5 secs

     total energy              =   -1373.25114657 Ry
     estimated scf accuracy    <          8.6E-10 Ry

     iteration # 20     ecut=   135.00 Ry     beta= 0.70
     Davidson diagonalization with overlap
     ethr =  1.48E-12,  avg # of iterations =  6.0

     negative rho (up, down):  1.327E-04 0.000E+00

     total cpu time spent up to now is      890.3 secs

     total energy              =   -1373.25114657 Ry
     estimated scf accuracy    <          4.3E-09 Ry

     iteration # 21     ecut=   135.00 Ry     beta= 0.70
     Davidson diagonalization with overlap
     ethr =  1.48E-12,  avg # of iterations =  6.2

     negative rho (up, down):  1.327E-04 0.000E+00

     total cpu time spent up to now is      932.2 secs

     total energy              =   -1373.25114657 Ry
     estimated scf accuracy    <          1.1E-10 Ry

     iteration # 22     ecut=   135.00 Ry     beta= 0.70
     Davidson diagonalization with overlap
     ethr =  1.94E-13,  avg # of iterations =  6.7

     negative rho (up, down):  1.327E-04 0.000E+00

     total cpu time spent up to now is      978.1 secs

     total energy              =   -1373.25114657 Ry
     estimated scf accuracy    <          2.3E-10 Ry

     iteration # 23     ecut=   135.00 Ry     beta= 0.70
     Davidson diagonalization with overlap
     ethr =  1.94E-13,  avg # of iterations =  2.1

     negative rho (up, down):  1.327E-04 0.000E+00

     total cpu time spent up to now is     1012.7 secs

     total energy              =   -1373.25114657 Ry
     estimated scf accuracy    <          1.3E-10 Ry

     iteration # 24     ecut=   135.00 Ry     beta= 0.70
     Davidson diagonalization with overlap
     ethr =  1.94E-13,  avg # of iterations =  4.0

     negative rho (up, down):  1.327E-04 0.000E+00

     total cpu time spent up to now is     1050.6 secs

     total energy              =   -1373.25114657 Ry
     estimated scf accuracy    <          1.4E-12 Ry

     iteration # 25     ecut=   135.00 Ry     beta= 0.70
     Davidson diagonalization with overlap
     ethr =  1.00E-13,  avg # of iterations =  2.9

     negative rho (up, down):  1.327E-04 0.000E+00

     total cpu time spent up to now is     1086.0 secs

     total energy              =   -1373.25114657 Ry
     estimated scf accuracy    <          2.4E-12 Ry

     iteration # 26     ecut=   135.00 Ry     beta= 0.70
     Davidson diagonalization with overlap
     ethr =  1.00E-13,  avg # of iterations =  1.3

     negative rho (up, down):  1.327E-04 0.000E+00

     total cpu time spent up to now is     1118.9 secs

     total energy              =   -1373.25114657 Ry
     estimated scf accuracy    <          5.2E-12 Ry

     iteration # 27     ecut=   135.00 Ry     beta= 0.70
     Davidson diagonalization with overlap
     ethr =  1.00E-13,  avg # of iterations =  1.0

     negative rho (up, down):  1.327E-04 0.000E+00

     total cpu time spent up to now is     1151.3 secs

     total energy              =   -1373.25114657 Ry
     estimated scf accuracy    <          5.5E-12 Ry

     iteration # 28     ecut=   135.00 Ry     beta= 0.70
     Davidson diagonalization with overlap
     ethr =  1.00E-13,  avg # of iterations =  1.0

     negative rho (up, down):  1.327E-04 0.000E+00

     total cpu time spent up to now is     1183.6 secs

     total energy              =   -1373.25114657 Ry
     estimated scf accuracy    <          5.1E-12 Ry

     iteration # 29     ecut=   135.00 Ry     beta= 0.70
     Davidson diagonalization with overlap
     ethr =  1.00E-13,  avg # of iterations =  1.0

     negative rho (up, down):  1.327E-04 0.000E+00

     total cpu time spent up to now is     1215.7 secs

     total energy              =   -1373.25114657 Ry
     estimated scf accuracy    <          5.0E-12 Ry

     iteration # 30     ecut=   135.00 Ry     beta= 0.70
     Davidson diagonalization with overlap
     ethr =  1.00E-13,  avg # of iterations =  1.0

     negative rho (up, down):  1.327E-04 0.000E+00

     total cpu time spent up to now is     1247.8 secs

     total energy              =   -1373.25114657 Ry
     estimated scf accuracy    <          2.9E-12 Ry

     iteration # 31     ecut=   135.00 Ry     beta= 0.70
     Davidson diagonalization with overlap
     ethr =  1.00E-13,  avg # of iterations =  1.0

     negative rho (up, down):  1.327E-04 0.000E+00

     total cpu time spent up to now is     1279.9 secs

     total energy              =   -1373.25114657 Ry
     estimated scf accuracy    <          1.7E-12 Ry

     iteration # 32     ecut=   135.00 Ry     beta= 0.70
     Davidson diagonalization with overlap
     ethr =  1.00E-13,  avg # of iterations =  1.0

     negative rho (up, down):  1.327E-04 0.000E+00

     total cpu time spent up to now is     1311.9 secs

     total energy              =   -1373.25114657 Ry
     estimated scf accuracy    <          1.6E-12 Ry

     iteration # 33     ecut=   135.00 Ry     beta= 0.70
     Davidson diagonalization with overlap
     ethr =  1.00E-13,  avg # of iterations =  1.0

     negative rho (up, down):  1.327E-04 0.000E+00

     total cpu time spent up to now is     1344.0 secs

     End of self-consistent calculation

          k = 0.0000 0.0000 0.0000 ( 42257 PWs)   bands (ev):

   -68.2899 -68.2423 -35.3154 -34.7117 -34.4036 -34.3986 -34.3386 -34.3322
   -19.9455 -19.9318 -19.9065 -19.9060 -19.9006 -19.9002 -19.8739 -19.8733
   -19.8661 -19.8660 -19.8589 -19.8535 -19.7924 -19.7909 -13.2782  -7.6691
    -4.3939  -4.3505  -1.9291  -0.8991  -0.7264

          k =-0.0000 0.0927 0.0000 ( 42192 PWs)   bands (ev):

   -68.2861 -68.2398 -35.3027 -34.7169 -34.4506 -34.4149 -34.3825 -34.3384
   -19.9440 -19.9308 -19.9080 -19.9064 -19.9009 -19.8991 -19.8755 -19.8730
   -19.8664 -19.8654 -19.8560 -19.8508 -19.7952 -19.7938 -13.1644  -7.4490
    -4.7173  -4.3162  -1.8342  -1.0827  -0.5373

          k =-0.0000 0.1855 0.0000 ( 42165 PWs)   bands (ev):

   -68.2755 -68.2334 -35.2685 -34.7447 -34.5650 -34.4996 -34.4562 -34.3576
   -19.9400 -19.9283 -19.9117 -19.9074 -19.9019 -19.8966 -19.8791 -19.8720
   -19.8674 -19.8635 -19.8483 -19.8436 -19.8026 -19.8015 -12.8639  -6.8674
    -5.3777  -4.2535  -1.8296  -1.4636  -0.9835

          k =-0.0001 0.2782 0.0000 ( 42126 PWs)   bands (ev):

   -68.2606 -68.2249 -35.2249 -34.8484 -34.6618 -34.6413 -34.5090 -34.3867
   -19.9355 -19.9250 -19.9160 -19.9088 -19.9036 -19.8944 -19.8829 -19.8700
   -19.8684 -19.8605 -19.8377 -19.8336 -19.8125 -19.8113 -12.4840  -6.4527
    -5.6909  -4.2422  -2.4625  -1.5265  -1.0280

          k =-0.0001 0.3709 0.0000 ( 42064 PWs)   bands (ev):

   -68.2450 -68.2171 -35.1948 -35.0049 -34.7786 -34.6871 -34.5594 -34.4175
   -19.9332 -19.9208 -19.9191 -19.9104 -19.9062 -19.8935 -19.8851 -19.8692
   -19.8674 -19.8573 -19.8268 -19.8236 -19.8222 -19.8199 -12.1483  -6.8398
    -5.2232  -4.3017  -3.0994  -1.1907  -0.6681

          k =-0.0001 0.4636 0.0000 ( 42076 PWs)   bands (ev):

   -68.2325 -68.2124 -35.1989 -35.1234 -34.8373 -34.7117 -34.5953 -34.4407
   -19.9332 -19.9202 -19.9176 -19.9117 -19.9086 -19.8938 -19.8855 -19.8697
   -19.8651 -19.8546 -19.8291 -19.8256 -19.8185 -19.8163 -11.9368  -7.1607
    -5.0001  -4.3779  -3.4988  -0.4170  -0.1609

          k = 0.0001-0.5564 0.0000 ( 42056 PWs)   bands (ev):

   -68.2275 -68.2111 -35.2125 -35.1634 -34.8466 -34.7229 -34.6083 -34.4493
   -19.9336 -19.9200 -19.9170 -19.9122 -19.9093 -19.8940 -19.8854 -19.8699
   -19.8642 -19.8536 -19.8316 -19.8276 -19.8153 -19.8137 -11.8677  -7.2707
    -4.9676  -4.4109  -3.6322   0.0687   0.0980

          k = 0.0806 0.0463 0.0000 ( 42200 PWs)   bands (ev):

   -68.2860 -68.2398 -35.3026 -34.7168 -34.4485 -34.4178 -34.3793 -34.3421
   -19.9440 -19.9308 -19.9078 -19.9066 -19.9007 -19.8992 -19.8752 -19.8733
   -19.8665 -19.8654 -19.8560 -19.8508 -19.7952 -19.7938 -13.1638  -7.4480
    -4.6956  -4.3413  -1.8326  -1.0812  -0.5377

          k = 0.0806 0.1390 0.0000 ( 42158 PWs)   bands (ev):

   -68.2788 -68.2354 -35.2791 -34.7319 -34.5205 -34.4919 -34.4173 -34.3616
   -19.9411 -19.9291 -19.9101 -19.9078 -19.9010 -19.8975 -19.8779 -19.8725
   -19.8669 -19.8643 -19.8507 -19.8459 -19.8003 -19.7992 -12.9567  -7.0388
    -5.1725  -4.3246  -1.7346  -1.2930  -0.9133

          k = 0.0805 0.2317 0.0000 ( 42148 PWs)   bands (ev):

   -68.2661 -68.2279 -35.2397 -34.7904 -34.6301 -34.6056 -34.4755 -34.3938
   -19.9365 -19.9264 -19.9138 -19.9098 -19.9018 -19.8954 -19.8816 -19.8714
   -19.8670 -19.8623 -19.8416 -19.8372 -19.8089 -19.8081 -12.6160  -6.3882
    -5.7337  -4.4046  -1.9815  -1.4633  -1.1259

          k = 0.0805 0.3245 0.0000 ( 42069 PWs)   bands (ev):

   -68.2508 -68.2199 -35.2008 -34.9237 -34.7429 -34.6732 -34.5413 -34.4284
   -19.9326 -19.9230 -19.9174 -19.9115 -19.9037 -19.8941 -19.8846 -19.8703
   -19.8666 -19.8595 -19.8309 -19.8273 -19.8188 -19.8175 -12.2583  -6.5047
    -5.4353  -4.5287  -2.6321  -1.1753  -1.0477

          k = 0.0805 0.4172 0.0000 ( 42049 PWs)   bands (ev):

   -68.2366 -68.2138 -35.1855 -35.0613 -34.8186 -34.7114 -34.5922 -34.4589
   -19.9315 -19.9195 -19.9189 -19.9123 -19.9066 -19.8941 -19.8858 -19.8696
   -19.8655 -19.8566 -19.8273 -19.8249 -19.8211 -19.8185 -11.9874  -6.9064
    -5.0199  -4.6231  -3.0767  -0.7190  -0.5734

          k = 0.0805 0.5099 0.0000 ( 42077 PWs)   bands (ev):

   -68.2275 -68.2111 -35.1947 -35.1410 -34.8385 -34.7387 -34.6187 -34.4769
   -19.9319 -19.9199 -19.9168 -19.9122 -19.9088 -19.8945 -19.8859 -19.8694
   -19.8647 -19.8547 -19.8321 -19.8287 -19.8154 -19.8137 -11.8502  -7.1218
    -4.9157  -4.6865  -3.2857  -0.1420  -0.0719

          k = 0.0807-0.5101 0.0000 ( 42079 PWs)   bands (ev):

   -68.2274 -68.2111 -35.1950 -35.1412 -34.8388 -34.7386 -34.6186 -34.4769
   -19.9319 -19.9199 -19.9168 -19.9122 -19.9088 -19.8945 -19.8859 -19.8694
   -19.8646 -19.8547 -19.8321 -19.8287 -19.8153 -19.8137 -11.8500  -7.1222
    -4.9163  -4.6857  -3.2869  -0.1419  -0.0725

          k = 0.0807-0.4173 0.0000 ( 42038 PWs)   bands (ev):

   -68.2365 -68.2137 -35.1857 -35.0619 -34.8193 -34.7112 -34.5920 -34.4589
   -19.9315 -19.9196 -19.9189 -19.9122 -19.9066 -19.8941 -19.8858 -19.8697
   -19.8654 -19.8566 -19.8274 -19.8249 -19.8210 -19.8185 -11.9868  -6.9074
    -5.0199  -4.6226  -3.0798  -0.7168  -0.5756

          k = 0.0806-0.3246 0.0000 ( 42066 PWs)   bands (ev):

   -68.2507 -68.2198 -35.2008 -34.9244 -34.7436 -34.6734 -34.5413 -34.4284
   -19.9326 -19.9230 -19.9174 -19.9114 -19.9037 -19.8942 -19.8846 -19.8703
   -19.8665 -19.8594 -19.8308 -19.8272 -19.8188 -19.8175 -12.2575  -6.5057
    -5.4347  -4.5288  -2.6353  -1.1746  -1.0472

          k = 0.0806-0.2319 0.0000 ( 42150 PWs)   bands (ev):

   -68.2660 -68.2279 -35.2395 -34.7906 -34.6304 -34.6059 -34.4761 -34.3942
   -19.9365 -19.9264 -19.9138 -19.9098 -19.9018 -19.8955 -19.8816 -19.8714
   -19.8670 -19.8622 -19.8415 -19.8372 -19.8090 -19.8081 -12.6151  -6.3870
    -5.7333  -4.4061  -1.9829  -1.4621  -1.1257

          k = 0.0806-0.1392 0.0000 ( 42169 PWs)   bands (ev):

   -68.2788 -68.2353 -35.2790 -34.7318 -34.5201 -34.4916 -34.4182 -34.3628
   -19.9411 -19.9291 -19.9100 -19.9080 -19.9009 -19.8977 -19.8778 -19.8726
   -19.8668 -19.8643 -19.8507 -19.8458 -19.8004 -19.7992 -12.9559  -7.0375
    -5.1673  -4.3315  -1.7335  -1.2914  -0.9089

          k = 0.0806-0.0464 0.0000 ( 42202 PWs)   bands (ev):

   -68.2860 -68.2398 -35.3026 -34.7168 -34.4470 -34.4196 -34.3777 -34.3439
   -19.9439 -19.9308 -19.9076 -19.9068 -19.9005 -19.8994 -19.8750 -19.8734
   -19.8664 -19.8654 -19.8560 -19.8508 -19.7953 -19.7939 -13.1635  -7.4475
    -4.6860  -4.3521  -1.8318  -1.0801  -0.5353

          k = 0.1612 0.0926 0.0000 ( 42165 PWs)   bands (ev):

   -68.2753 -68.2332 -35.2680 -34.7443 -34.5641 -34.4971 -34.4599 -34.3617
   -19.9399 -19.9283 -19.9116 -19.9077 -19.9017 -19.8967 -19.8788 -19.8722
   -19.8674 -19.8634 -19.8482 -19.8435 -19.8028 -19.8017 -12.8618  -6.8642
    -5.3612  -4.2799  -1.8197  -1.4632  -0.9778

          k = 0.1611 0.1853 0.0000 ( 42153 PWs)   bands (ev):

   -68.2660 -68.2278 -35.2393 -34.7896 -34.6307 -34.6045 -34.4770 -34.3966
   -19.9365 -19.9264 -19.9137 -19.9100 -19.9017 -19.8955 -19.8815 -19.8715
   -19.8671 -19.8622 -19.8415 -19.8372 -19.8090 -19.8082 -12.6146  -6.3855
    -5.7263  -4.4193  -1.9700  -1.4670  -1.1311

          k = 0.1611 0.2780 0.0000 ( 42089 PWs)   bands (ev):

   -68.2528 -68.2208 -35.2031 -34.8732 -34.7491 -34.6589 -34.5230 -34.4576
   -19.9315 -19.9243 -19.9154 -19.9135 -19.9020 -19.8948 -19.8843 -19.8711
   -19.8650 -19.8613 -19.8323 -19.8286 -19.8175 -19.8171 -12.2958  -6.1394
    -5.6822  -4.7639  -2.1268  -1.6196  -0.5744

          k = 0.1611 0.3708 0.0000 ( 42048 PWs)   bands (ev):

   -68.2387 -68.2145 -35.1751 -34.9808 -34.8303 -34.7007 -34.5908 -34.5095
   -19.9278 -19.9220 -19.9172 -19.9145 -19.9039 -19.8950 -19.8863 -19.8703
   -19.8635 -19.8598 -19.8266 -19.8258 -19.8224 -19.8198 -12.0055  -6.4833
    -5.1402  -4.9845  -2.3887  -1.2980  -0.6043

          k = 0.1611 0.4635 0.0000 ( 42069 PWs)   bands (ev):

   -68.2273 -68.2110 -35.1626 -35.0752 -34.8452 -34.7581 -34.6350 -34.5443
   -19.9277 -19.9198 -19.9170 -19.9130 -19.9069 -19.8957 -19.8871 -19.8689
   -19.8643 -19.8576 -19.8331 -19.8311 -19.8154 -19.8137 -11.8148  -6.7416
    -5.1821  -4.7887  -2.5617  -0.6831  -0.4808

          k = 0.1611 0.5562 0.0000 ( 42048 PWs)   bands (ev):

   -68.2224 -68.2103 -35.1553 -35.1175 -34.8184 -34.8104 -34.6466 -34.5573
   -19.9281 -19.9196 -19.9156 -19.9119 -19.9087 -19.8961 -19.8873 -19.8679
   -19.8652 -19.8566 -19.8355 -19.8331 -19.8127 -19.8115 -11.7500  -6.8368
    -5.2109  -4.7414  -2.6299  -0.3326  -0.2768

          k = 0.1613-0.4638 0.0000 ( 42057 PWs)   bands (ev):

   -68.2272 -68.2110 -35.1631 -35.0759 -34.8461 -34.7578 -34.6348 -34.5442
   -19.9277 -19.9198 -19.9170 -19.9130 -19.9069 -19.8958 -19.8871 -19.8690
   -19.8641 -19.8575 -19.8331 -19.8312 -19.8154 -19.8136 -11.8141  -6.7433
    -5.1823  -4.7889  -2.5639  -0.6872  -0.4801

          k = 0.1612-0.3711 0.0000 ( 42033 PWs)   bands (ev):

   -68.2386 -68.2144 -35.1754 -34.9822 -34.8311 -34.7010 -34.5907 -34.5095
   -19.9278 -19.9220 -19.9173 -19.9145 -19.9039 -19.8951 -19.8863 -19.8703
   -19.8634 -19.8597 -19.8267 -19.8258 -19.8223 -19.8197 -12.0042  -6.4857
    -5.1397  -4.9851  -2.3929  -1.3010  -0.6028

          k = 0.1612-0.2783 0.0000 ( 42097 PWs)   bands (ev):

   -68.2526 -68.2207 -35.2030 -34.8739 -34.7500 -34.6592 -34.5237 -34.4583
   -19.9315 -19.9243 -19.9153 -19.9136 -19.9020 -19.8950 -19.8843 -19.8711
   -19.8650 -19.8612 -19.8322 -19.8285 -19.8176 -19.8172 -12.2941  -6.1399
    -5.6801  -4.7667  -2.1297  -1.6198  -0.5743

          k = 0.1612-0.1856 0.0000 ( 42159 PWs)   bands (ev):

   -68.2658 -68.2277 -35.2391 -34.7894 -34.6308 -34.6046 -34.4784 -34.3983
   -19.9365 -19.9264 -19.9135 -19.9101 -19.9016 -19.8957 -19.8814 -19.8715
   -19.8671 -19.8622 -19.8414 -19.8371 -19.8091 -19.8083 -12.6129  -6.3829
    -5.7223  -4.4267  -1.9665  -1.4676  -1.1323

          k = 0.1612-0.0929 0.0000 ( 42164 PWs)   bands (ev):

   -68.2752 -68.2332 -35.2678 -34.7440 -34.5634 -34.4960 -34.4620 -34.3637
   -19.9399 -19.9284 -19.9114 -19.9079 -19.9015 -19.8969 -19.8787 -19.8723
   -19.8674 -19.8634 -19.8481 -19.8434 -19.8028 -19.8017 -12.8608  -6.8624
    -5.3542  -4.2903  -1.8151  -1.4626  -0.9753

          k = 0.1612-0.0002 0.0000 ( 42205 PWs)   bands (ev):

   -68.2786 -68.2352 -35.2787 -34.7318 -34.5198 -34.4908 -34.4194 -34.3658
   -19.9411 -19.9291 -19.9099 -19.9081 -19.9009 -19.8978 -19.8775 -19.8729
   -19.8669 -19.8642 -19.8506 -19.8458 -19.8005 -19.7993 -12.9543  -7.0353
    -5.1537  -4.3508  -1.7314  -1.2877  -0.8974

          k = 0.2417 0.1389 0.0000 ( 42132 PWs)   bands (ev):

   -68.2602 -68.2246 -35.2241 -34.8477 -34.6629 -34.6394 -34.5137 -34.3914
   -19.9354 -19.9250 -19.9159 -19.9091 -19.9034 -19.8945 -19.8827 -19.8702
   -19.8685 -19.8605 -19.8375 -19.8334 -19.8127 -19.8115 -12.4801  -6.4454
    -5.6827  -4.2706  -2.4517  -1.5292  -1.0277

          k = 0.2417 0.2316 0.0000 ( 42079 PWs)   bands (ev):

   -68.2504 -68.2196 -35.2002 -34.9226 -34.7431 -34.6727 -34.5454 -34.4325
   -19.9325 -19.9229 -19.9173 -19.9116 -19.9036 -19.8943 -19.8845 -19.8703
   -19.8667 -19.8594 -19.8307 -19.8271 -19.8190 -19.8177 -12.2553  -6.4972
    -5.4331  -4.5500  -2.6227  -1.1762  -1.0526

          k = 0.2417 0.3243 0.0000 ( 42033 PWs)   bands (ev):

   -68.2385 -68.2144 -35.1749 -34.9800 -34.8310 -34.7001 -34.5932 -34.5115
   -19.9278 -19.9219 -19.9171 -19.9146 -19.9039 -19.8951 -19.8863 -19.8703
   -19.8636 -19.8597 -19.8267 -19.8258 -19.8223 -19.8197 -12.0039  -6.4790
    -5.1497  -4.9867  -2.3859  -1.2951  -0.6098

          k = 0.2417 0.4170 0.0000 ( 42074 PWs)   bands (ev):

   -68.2270 -68.2109 -35.1481 -35.0133 -34.8957 -34.7327 -34.6486 -34.5900
   -19.9233 -19.9223 -19.9158 -19.9145 -19.9054 -19.8967 -19.8878 -19.8690
   -19.8619 -19.8607 -19.8332 -19.8327 -19.8154 -19.8136 -11.7960  -6.4453
    -5.5092  -4.7228  -1.8244  -1.3888  -0.6819

          k = 0.2417 0.5098 0.0000 ( 42056 PWs)   bands (ev):

   -68.2190 -68.2103 -35.1096 -35.0536 -34.9147 -34.7805 -34.6695 -34.6380
   -19.9245 -19.9189 -19.9153 -19.9117 -19.9077 -19.8980 -19.8888 -19.8669
   -19.8644 -19.8596 -19.8375 -19.8365 -19.8112 -19.8102 -11.6808  -6.4524
    -5.6947  -4.5635  -1.7424  -0.8860  -0.6466

          k = 0.2416 0.6025 0.0000 ( 42065 PWs)   bands (ev):

   -68.2189 -68.2103 -35.1100 -35.0542 -34.9148 -34.7806 -34.6694 -34.6380
   -19.9245 -19.9189 -19.9153 -19.9117 -19.9077 -19.8980 -19.8888 -19.8670
   -19.8643 -19.8596 -19.8375 -19.8366 -19.8111 -19.8102 -11.6803  -6.4536
    -5.6950  -4.5643  -1.7426  -0.8927  -0.6430

          k = 0.2418-0.4175 0.0000 ( 42071 PWs)   bands (ev):

   -68.2269 -68.2108 -35.1486 -35.0147 -34.8962 -34.7331 -34.6487 -34.5902
   -19.9233 -19.9223 -19.9159 -19.9145 -19.9054 -19.8968 -19.8877 -19.8691
   -19.8619 -19.8606 -19.8333 -19.8328 -19.8153 -19.8135 -11.7947  -6.4475
    -5.5110  -4.7236  -1.8277  -1.3930  -0.6802

          k = 0.2418-0.3248 0.0000 ( 42035 PWs)   bands (ev):

   -68.2383 -68.2142 -35.1750 -34.9809 -34.8322 -34.7002 -34.5942 -34.5127
   -19.9278 -19.9219 -19.9171 -19.9147 -19.9038 -19.8953 -19.8862 -19.8703
   -19.8635 -19.8596 -19.8268 -19.8260 -19.8222 -19.8195 -12.0019  -6.4796
    -5.1521  -4.9879  -2.3895  -1.2961  -0.6102

          k = 0.2418-0.2320 0.0000 ( 42079 PWs)   bands (ev):

   -68.2502 -68.2195 -35.1999 -34.9226 -34.7439 -34.6727 -34.5473 -34.4346
   -19.9325 -19.9229 -19.9172 -19.9118 -19.9035 -19.8945 -19.8844 -19.8703
   -19.8666 -19.8594 -19.8306 -19.8270 -19.8191 -19.8178 -12.2531  -6.4951
    -5.4296  -4.5585  -2.6226  -1.1758  -1.0536

          k = 0.2418-0.1393 0.0000 ( 42154 PWs)   bands (ev):

   -68.2600 -68.2245 -35.2238 -34.8470 -34.6631 -34.6387 -34.5162 -34.3937
   -19.9354 -19.9250 -19.9158 -19.9093 -19.9032 -19.8947 -19.8826 -19.8702
   -19.8684 -19.8605 -19.8374 -19.8333 -19.8129 -19.8117 -12.4784  -6.4422
    -5.6778  -4.2815  -2.4475  -1.5300  -1.0273

          k = 0.2418-0.0466 0.0000 ( 42161 PWs)   bands (ev):

   -68.2656 -68.2276 -35.2387 -34.7904 -34.6309 -34.6056 -34.4792 -34.3993
   -19.9364 -19.9265 -19.9135 -19.9102 -19.9016 -19.8957 -19.8812 -19.8717
   -19.8671 -19.8621 -19.8414 -19.8370 -19.8092 -19.8084 -12.6108  -6.3809
    -5.7210  -4.4329  -1.9695  -1.4655  -1.1313

          k = 0.2417 0.0461 0.0000 ( 42157 PWs)   bands (ev):

   -68.2657 -68.2276 -35.2388 -34.7909 -34.6309 -34.6058 -34.4784 -34.3979
   -19.9364 -19.9265 -19.9137 -19.9100 -19.9017 -19.8956 -19.8813 -19.8717
   -19.8671 -19.8621 -19.8414 -19.8371 -19.8092 -19.8083 -12.6115  -6.3822
    -5.7246  -4.4270  -1.9744  -1.4637  -1.1298

          k = 0.3223 0.1851 0.0000 ( 42033 PWs)   bands (ev):

   -68.2443 -68.2168 -35.1942 -35.0049 -34.7780 -34.6878 -34.5650 -34.4229
   -19.9332 -19.9207 -19.9190 -19.9106 -19.9061 -19.8937 -19.8849 -19.8693
   -19.8674 -19.8572 -19.8265 -19.8233 -19.8225 -19.8203 -12.1432  -6.8340
    -5.2219  -4.3327  -3.0918  -1.1882  -0.6644

          k = 0.3223 0.2779 0.0000 ( 42047 PWs)   bands (ev):

   -68.2360 -68.2135 -35.1853 -35.0610 -34.8174 -34.7126 -34.5974 -34.4639
   -19.9315 -19.9195 -19.9187 -19.9124 -19.9065 -19.8943 -19.8858 -19.8696
   -19.8656 -19.8565 -19.8277 -19.8252 -19.8208 -19.8183 -11.9832  -6.9014
    -5.0224  -4.6487  -3.0709  -0.7157  -0.5663

          k = 0.3223 0.3706 0.0000 ( 42077 PWs)   bands (ev):

   -68.2268 -68.2109 -35.1628 -35.0748 -34.8455 -34.7582 -34.6386 -34.5473
   -19.9278 -19.9198 -19.9168 -19.9131 -19.9068 -19.8959 -19.8871 -19.8689
   -19.8644 -19.8574 -19.8333 -19.8313 -19.8153 -19.8135 -11.8118  -6.7389
    -5.1968  -4.7945  -2.5655  -0.6707  -0.4724

          k = 0.3222 0.4633 0.0000 ( 42083 PWs)   bands (ev):

   -68.2186 -68.2103 -35.1102 -35.0535 -34.9159 -34.7794 -34.6720 -34.6383
   -19.9246 -19.9189 -19.9151 -19.9117 -19.9077 -19.8981 -19.8887 -19.8669
   -19.8645 -19.8595 -19.8376 -19.8366 -19.8111 -19.8102 -11.6792  -6.4518
    -5.7013  -4.5676  -1.7580  -0.8672  -0.6398

          k = 0.3222 0.5561 0.0000 ( 42066 PWs)   bands (ev):

   -68.2131 -68.2126 -35.0384 -35.0364 -35.0015 -34.7804 -34.6843 -34.6818
   -19.9240 -19.9163 -19.9161 -19.9093 -19.9091 -19.8994 -19.8896 -19.8653
   -19.8650 -19.8609 -19.8391 -19.8389 -19.8093 -19.8091 -11.6288  -6.1116
    -6.1103  -4.4608  -1.0917  -0.9609  -0.9494

          k = 0.3222 0.6488 0.0000 ( 42072 PWs)   bands (ev):

   -68.2184 -68.2103 -35.1107 -35.0539 -34.9166 -34.7795 -34.6725 -34.6387
   -19.9245 -19.9190 -19.9152 -19.9118 -19.9076 -19.8982 -19.8887 -19.8670
   -19.8644 -19.8594 -19.8377 -19.8367 -19.8110 -19.8101 -11.6783  -6.4522
    -5.7046  -4.5693  -1.7653  -0.8651  -0.6337

          k = 0.3224-0.3712 0.0000 ( 42073 PWs)   bands (ev):

   -68.2265 -68.2107 -35.1632 -35.0753 -34.8465 -34.7581 -34.6399 -34.5488
   -19.9278 -19.9198 -19.9168 -19.9132 -19.9068 -19.8961 -19.8870 -19.8689
   -19.8642 -19.8573 -19.8334 -19.8315 -19.8151 -19.8133 -11.8100  -6.7390
    -5.2032  -4.7953  -2.5700  -0.6685  -0.4685

          k = 0.3224-0.2785 0.0000 ( 42057 PWs)   bands (ev):

   -68.2357 -68.2133 -35.1853 -35.0612 -34.8179 -34.7127 -34.5998 -34.4663
   -19.9316 -19.9194 -19.9187 -19.9126 -19.9064 -19.8945 -19.8857 -19.8697
   -19.8654 -19.8564 -19.8278 -19.8254 -19.8207 -19.8181 -11.9808  -6.9001
    -5.0213  -4.6581  -3.0726  -0.7121  -0.5646

          k = 0.3224-0.1858 0.0000 ( 42024 PWs)   bands (ev):

   -68.2441 -68.2166 -35.1939 -35.0046 -34.7779 -34.6879 -34.5679 -34.4256
   -19.9332 -19.9207 -19.9189 -19.9109 -19.9059 -19.8939 -19.8848 -19.8693
   -19.8674 -19.8571 -19.8264 -19.8232 -19.8227 -19.8205 -12.1409  -6.8313
    -5.2189  -4.3446  -3.0897  -1.1871  -0.6623

          k = 0.3224-0.0930 0.0000 ( 42070 PWs)   bands (ev):

   -68.2500 -68.2193 -35.1999 -34.9247 -34.7452 -34.6730 -34.5468 -34.4347
   -19.9325 -19.9230 -19.9172 -19.9118 -19.9035 -19.8945 -19.8843 -19.8705
   -19.8665 -19.8593 -19.8305 -19.8269 -19.8192 -19.8179 -12.2510  -6.4984
    -5.4282  -4.5605  -2.6301  -1.1752  -1.0508

          k = 0.3223-0.0003 0.0000 ( 42072 PWs)   bands (ev):

   -68.2522 -68.2204 -35.2026 -34.8767 -34.7512 -34.6599 -34.5245 -34.4601
   -19.9315 -19.9244 -19.9153 -19.9137 -19.9020 -19.8950 -19.8841 -19.8713
   -19.8650 -19.8610 -19.8320 -19.8283 -19.8178 -19.8174 -12.2901  -6.1422
    -5.6766  -4.7767  -2.1348  -1.6221  -0.5772

          k = 0.3223 0.0924 0.0000 ( 42084 PWs)   bands (ev):

   -68.2501 -68.2195 -35.2001 -34.9254 -34.7451 -34.6732 -34.5449 -34.4327
   -19.9325 -19.9230 -19.9174 -19.9116 -19.9036 -19.8943 -19.8844 -19.8705
   -19.8665 -19.8593 -19.8306 -19.8270 -19.8191 -19.8178 -12.2524  -6.5014
    -5.4310  -4.5520  -2.6334  -1.1749  -1.0494

          k = 0.4029 0.2314 0.0000 ( 42029 PWs)   bands (ev):

   -68.2316 -68.2121 -35.1996 -35.1237 -34.8354 -34.7134 -34.6015 -34.4466
   -19.9333 -19.9201 -19.9174 -19.9119 -19.9086 -19.8941 -19.8854 -19.8698
   -19.8650 -19.8545 -19.8295 -19.8260 -19.8181 -19.8160 -11.9311  -7.1577
    -5.0061  -4.4107  -3.4925  -0.4061  -0.1510

          k = 0.4029 0.3242 0.0000 ( 42039 PWs)   bands (ev):

   -68.2266 -68.2108 -35.1959 -35.1411 -34.8359 -34.7413 -34.6241 -34.4822
   -19.9320 -19.9198 -19.9166 -19.9124 -19.9088 -19.8948 -19.8858 -19.8695
   -19.8646 -19.8545 -19.8325 -19.8291 -19.8150 -19.8134 -11.8452  -7.1197
    -4.9227  -4.7129  -3.2851  -0.1286  -0.0586

          k = 0.4028 0.4169 0.0000 ( 42078 PWs)   bands (ev):

   -68.2217 -68.2102 -35.1571 -35.1176 -34.8164 -34.8129 -34.6502 -34.5606
   -19.9283 -19.9195 -19.9154 -19.9121 -19.9087 -19.8964 -19.8872 -19.8680
   -19.8651 -19.8564 -19.8358 -19.8333 -19.8124 -19.8113 -11.7459  -6.8373
    -5.2269  -4.7497  -2.6389  -0.3204  -0.2601

          k = 0.4028 0.5096 0.0000 ( 42057 PWs)   bands (ev):

   -68.2183 -68.2103 -35.1117 -35.0558 -34.9155 -34.7797 -34.6707 -34.6393
   -19.9246 -19.9189 -19.9153 -19.9117 -19.9077 -19.8982 -19.8887 -19.8672
   -19.8642 -19.8594 -19.8377 -19.8367 -19.8109 -19.8101 -11.6775  -6.4576
    -5.7015  -4.5707  -1.7589  -0.8888  -0.6275

          k = 0.4028 0.6023 0.0000 ( 42044 PWs)   bands (ev):

   -68.2182 -68.2103 -35.1117 -35.0557 -34.9161 -34.7796 -34.6714 -34.6397
   -19.9245 -19.9190 -19.9152 -19.9118 -19.9076 -19.8983 -19.8886 -19.8671
   -19.8643 -19.8593 -19.8377 -19.8368 -19.8109 -19.8100 -11.6769  -6.4568
    -5.7045  -4.5717  -1.7660  -0.8800  -0.6249

          k = 0.4028 0.6951 0.0000 ( 42067 PWs)   bands (ev):

   -68.2214 -68.2101 -35.1575 -35.1175 -34.8160 -34.8142 -34.6515 -34.5623
   -19.9282 -19.9196 -19.9153 -19.9123 -19.9085 -19.8966 -19.8871 -19.8681
   -19.8650 -19.8563 -19.8359 -19.8335 -19.8123 -19.8111 -11.7444  -6.8366
    -5.2335  -4.7513  -2.6433  -0.3138  -0.2536

          k = 0.4030-0.3249 0.0000 ( 42055 PWs)   bands (ev):

   -68.2262 -68.2106 -35.1963 -35.1412 -34.8356 -34.7419 -34.6266 -34.4849
   -19.9320 -19.9198 -19.9165 -19.9126 -19.9087 -19.8950 -19.8857 -19.8695
   -19.8645 -19.8544 -19.8327 -19.8293 -19.8148 -19.8132 -11.8430  -7.1185
    -4.9239  -4.7226  -3.2871  -0.1224  -0.0526

          k = 0.4030-0.2322 0.0000 ( 42011 PWs)   bands (ev):

   -68.2313 -68.2118 -35.1997 -35.1237 -34.8350 -34.7137 -34.6047 -34.4495
   -19.9333 -19.9200 -19.9173 -19.9122 -19.9084 -19.8943 -19.8853 -19.8698
   -19.8650 -19.8544 -19.8297 -19.8263 -19.8179 -19.8158 -11.9288  -7.1557
    -5.0059  -4.4236  -3.4911  -0.4013  -0.1458

          k = 0.4029-0.1395 0.0000 ( 42044 PWs)   bands (ev):

   -68.2355 -68.2132 -35.1859 -35.0627 -34.8193 -34.7122 -34.5992 -34.4662
   -19.9316 -19.9194 -19.9188 -19.9127 -19.9064 -19.8945 -19.8856 -19.8699
   -19.8652 -19.8564 -19.8279 -19.8255 -19.8206 -19.8181 -11.9793  -6.9036
    -5.0223  -4.6560  -3.0803  -0.7073  -0.5690

          k = 0.4029-0.0467 0.0000 ( 42030 PWs)   bands (ev):

   -68.2379 -68.2141 -35.1756 -34.9847 -34.8333 -34.7006 -34.5935 -34.5131
   -19.9278 -19.9220 -19.9172 -19.9147 -19.9038 -19.8953 -19.8861 -19.8705
   -19.8633 -19.8595 -19.8269 -19.8261 -19.8221 -19.8194 -11.9985  -6.4873
    -5.1475  -4.9948  -2.3993  -1.3035  -0.6016

          k = 0.4029 0.0460 0.0000 ( 42047 PWs)   bands (ev):

   -68.2380 -68.2141 -35.1757 -34.9852 -34.8329 -34.7008 -34.5925 -34.5120
   -19.9278 -19.9220 -19.9173 -19.9146 -19.9039 -19.8953 -19.8862 -19.8705
   -19.8633 -19.8596 -19.8269 -19.8260 -19.8221 -19.8195 -11.9992  -6.4891
    -5.1445  -4.9942  -2.3998  -1.3054  -0.5996

          k = 0.4029 0.1387 0.0000 ( 42040 PWs)   bands (ev):

   -68.2357 -68.2133 -35.1861 -35.0631 -34.8195 -34.7119 -34.5967 -34.4637
   -19.9315 -19.9195 -19.9188 -19.9125 -19.9065 -19.8944 -19.8857 -19.8699
   -19.8652 -19.8564 -19.8277 -19.8253 -19.8207 -19.8182 -11.9811  -6.9060
    -5.0235  -4.6461  -3.0817  -0.7087  -0.5729

          k =-0.4835-0.2777 0.0000 ( 42028 PWs)   bands (ev):

   -68.2265 -68.2108 -35.2141 -35.1637 -34.8437 -34.7253 -34.6147 -34.4554
   -19.9336 -19.9199 -19.9168 -19.9124 -19.9093 -19.8944 -19.8853 -19.8700
   -19.8641 -19.8534 -19.8320 -19.8280 -19.8149 -19.8133 -11.8618  -7.2687
    -4.9766  -4.4443  -3.6261   0.0849   0.1110

          k =-0.4835-0.1850 0.0000 ( 42055 PWs)   bands (ev):

   -68.2265 -68.2108 -35.1966 -35.1417 -34.8366 -34.7408 -34.6238 -34.4821
   -19.9320 -19.9198 -19.9166 -19.9124 -19.9088 -19.8948 -19.8858 -19.8696
   -19.8644 -19.8545 -19.8325 -19.8291 -19.8150 -19.8134 -11.8444  -7.1215
    -4.9263  -4.7084  -3.2894  -0.1292  -0.0595

          k =-0.4835-0.0923 0.0000 ( 42054 PWs)   bands (ev):

   -68.2264 -68.2107 -35.1646 -35.0777 -34.8474 -34.7571 -34.6379 -34.5472
   -19.9278 -19.9198 -19.9169 -19.9132 -19.9068 -19.8960 -19.8870 -19.8692
   -19.8639 -19.8574 -19.8334 -19.8314 -19.8151 -19.8134 -11.8092  -6.7461
    -5.1979  -4.7952  -2.5733  -0.6847  -0.4678

          k =-0.4835 0.0005 0.0000 ( 42053 PWs)   bands (ev):

   -68.2264 -68.2107 -35.1501 -35.0189 -34.8958 -34.7334 -34.6484 -34.5914
   -19.9234 -19.9223 -19.9160 -19.9145 -19.9053 -19.8969 -19.8877 -19.8693
   -19.8617 -19.8604 -19.8335 -19.8330 -19.8152 -19.8133 -11.7911  -6.4559
    -5.5143  -4.7281  -1.8359  -1.4025  -0.6724

          k =-0.4835 0.0932 0.0000 ( 42050 PWs)   bands (ev):

   -68.2263 -68.2106 -35.1645 -35.0774 -34.8477 -34.7574 -34.6393 -34.5488
   -19.9278 -19.9198 -19.9169 -19.9133 -19.9067 -19.8962 -19.8869 -19.8691
   -19.8640 -19.8573 -19.8335 -19.8316 -19.8150 -19.8133 -11.8080  -6.7445
    -5.2040  -4.7958  -2.5756  -0.6784  -0.4646

          k =-0.4835 0.1859 0.0000 ( 42055 PWs)   bands (ev):

   -68.2262 -68.2106 -35.1968 -35.1416 -34.8361 -34.7416 -34.6264 -34.4848
   -19.9320 -19.9198 -19.9165 -19.9126 -19.9086 -19.8950 -19.8857 -19.8696
   -19.8644 -19.8544 -19.8327 -19.8293 -19.8148 -19.8132 -11.8424  -7.1199
    -4.9269  -4.7189  -3.2901  -0.1232  -0.0530

          k =-0.4833-0.8341 0.0000 ( 42012 PWs)   bands (ev):

   -68.2261 -68.2106 -35.2145 -35.1636 -34.8431 -34.7257 -34.6180 -34.4584
   -19.9337 -19.9199 -19.9167 -19.9127 -19.9091 -19.8946 -19.8852 -19.8700
   -19.8640 -19.8534 -19.8322 -19.8283 -19.8147 -19.8131 -11.8595  -7.2670
    -4.9775  -4.4576  -3.6250   0.0921   0.1176

     highest occupied level (ev):     0.1176

!    total energy              =   -1373.25114657 Ry
     estimated scf accuracy    <          3.1E-13 Ry

     The total energy is the sum of the following terms:
     one-electron contribution =  -10891.88893112 Ry
     hartree contribution      =    5474.28079228 Ry
     xc contribution           =    -138.78172746 Ry
     ewald contribution        =    4183.13871972 Ry

     convergence has been achieved in  33 iterations

     negative rho (up, down):  1.327E-04 0.000E+00

     Forces acting on atoms (cartesian axes, Ry/au):

     atom    1 type  2   force =     0.00031077    0.00028325   -0.00017287
     atom    2 type  1   force =    -0.00026855   -0.00046419    0.00154977
     atom    3 type  1   force =    -0.00004221    0.00018094   -0.00137689

     Total force =     0.002149     Total SCF correction =     0.000008


     Computing stress (Cartesian axis) and pressure


     negative rho (up, down):  1.327E-04 0.000E+00
          total   stress  (Ry/bohr**3)                   (kbar)     P=        5.50
   0.00006632  -0.00000261   0.00000033            9.76       -0.38        0.05
  -0.00000261   0.00005130   0.00000093           -0.38        7.55        0.14
   0.00000033   0.00000093  -0.00000536            0.05        0.14       -0.79


     Writing output data file /scratch/as3359/Ta2C-CT-ecutoff/Ta2C.save/
 
     init_run     :     43.34s CPU     23.66s WALL (       1 calls)
     electrons    :   2583.70s CPU   1320.18s WALL (       1 calls)
     forces       :     12.97s CPU      6.75s WALL (       1 calls)
     stress       :     50.40s CPU     26.07s WALL (       1 calls)

     Called by init_run:
     wfcinit      :     32.98s CPU     16.81s WALL (       1 calls)
     potinit      :      2.61s CPU      1.34s WALL (       1 calls)
     hinit0       :      5.66s CPU      4.12s WALL (       1 calls)

     Called by electrons:
     c_bands      :   2074.60s CPU   1047.38s WALL (      33 calls)
     sum_band     :    434.43s CPU    226.83s WALL (      33 calls)
     v_of_rho     :     10.86s CPU      6.11s WALL (      34 calls)
     newd         :     60.41s CPU     38.11s WALL (      34 calls)
     mix_rho      :      3.92s CPU      2.18s WALL (      33 calls)

     Called by c_bands:
     init_us_2    :     50.14s CPU     25.09s WALL (    5106 calls)
     cegterg      :   1918.89s CPU    969.10s WALL (    2442 calls)

     Called by *egterg:
     cdiaghg      :     19.16s CPU      9.80s WALL (   13045 calls)
     h_psi        :   1600.24s CPU    809.15s WALL (   13119 calls)
     s_psi        :     76.12s CPU     38.13s WALL (   13119 calls)
     g_psi        :      6.74s CPU      3.38s WALL (   10603 calls)

     Called by h_psi:
     h_psi:calbec :     57.89s CPU     29.05s WALL (   13119 calls)
     vloc_psi     :   1449.72s CPU    733.60s WALL (   13119 calls)
     add_vuspsi   :     83.54s CPU     41.86s WALL (   13119 calls)

     General routines
     calbec       :     77.72s CPU     39.01s WALL (   15931 calls)
     fft          :      6.03s CPU      3.26s WALL (     465 calls)
     ffts         :      0.66s CPU      0.34s WALL (      67 calls)
     fftw         :   1523.23s CPU    771.41s WALL (  419120 calls)
     interpolate  :      1.04s CPU      0.54s WALL (      34 calls)
 
     Parallel routines
 
     PWSCF        :  44m54.07s CPU  22m59.88s WALL

 
   This run was terminated on:  23:35: 9   6Apr2022            

=------------------------------------------------------------------------------=
   JOB DONE.
=------------------------------------------------------------------------------=
