
     Program PWSCF v.6.8 starts on 24Mar2022 at 10: 4:45 

     This program is part of the open-source Quantum ESPRESSO suite
     for quantum simulation of materials; please cite
         "P. Giannozzi et al., J. Phys.:Condens. Matter 21 395502 (2009);
         "P. Giannozzi et al., J. Phys.:Condens. Matter 29 465901 (2017);
         "P. Giannozzi et al., J. Chem. Phys. 152 154105 (2020);
          URL http://www.quantum-espresso.org", 
     in publications or presentations arising from this work. More details at
     http://www.quantum-espresso.org/quote

     Parallel version (MPI & OpenMP), running on       4 processor cores
     Number of MPI processes:                 2
     Threads/MPI process:                     2

     MPI processes distributed on     1 nodes
     R & G space division:  proc/nbgrp/npool/nimage =       2
     124380 MiB available memory on the printing compute node when the environment starts
 
     Reading input from Ta2CO2.relax.in
Warning: card  &CELL ignored
Warning: card     CELL_DYNAMICS='BFGS', CELL_DOFREE ='2DXY' ignored
Warning: card  / ignored

     Current dimensions of program PWSCF are:
     Max number of different atomic species (ntypx) = 10
     Max number of k-points (npk) =  40000
     Max angular momentum in pseudopotentials (lmaxx) =  4
     file Ta.pbesol-spfn-rrkjus_psl.1.0.0.UPF: wavefunction(s)  5S 5P renormalized

     Subspace diagonalization in iterative solution of the eigenvalue problem:
     a serial algorithm will be used

 
     Parallelization info
     --------------------
     sticks:   dense  smooth     PW     G-vecs:    dense   smooth      PW
     Min         813     324     99               251744    63732   11435
     Max         814     325    100               251745    63763   11474
     Sum        1627     649    199               503489   127495   22909
 
     Using Slab Decomposition
 


     bravais-lattice index     =            0
     lattice parameter (alat)  =       5.5500  a.u.
     unit-cell volume          =    1608.7155 (a.u.)^3
     number of atoms/cell      =            5
     number of atomic types    =            3
     number of electrons       =        70.00
     number of Kohn-Sham states=           42
     kinetic-energy cutoff     =      70.0000  Ry
     charge density cutoff     =     700.0000  Ry
     scf convergence threshold =      1.0E-12
     mixing beta               =       0.7000
     number of iterations used =            8  plain     mixing
     energy convergence thresh.=      1.0E-04
     force convergence thresh. =      1.0E-03
     Exchange-correlation= PBESOL
                           (   1   4  10   8   0   0   0)
     nstep                     =           50


     celldm(1)=   5.550000  celldm(2)=   0.000000  celldm(3)=   0.000000
     celldm(4)=   0.000000  celldm(5)=   0.000000  celldm(6)=   0.000000

     crystal axes: (cart. coord. in units of alat)
               a(1) = (   1.043485   0.000819   0.000000 )  
               a(2) = (  -0.521734   0.901399   0.000000 )  
               a(3) = (   0.000000   0.000000  10.000000 )  

     reciprocal axes: (cart. coord. in units 2 pi/alat)
               b(1) = (  0.957892  0.554433  0.000000 )  
               b(2) = ( -0.000870  1.108883  0.000000 )  
               b(3) = (  0.000000  0.000000  0.100000 )  


     PseudoPot. # 1 for Ta read from file:
     /shared/home/as3359/pseudo/Ta.pbesol-spfn-rrkjus_psl.1.0.0.UPF
     MD5 check sum: f099565ffaca9b150a52e9412a28e20b
     Pseudo is Ultrasoft + core correction, Zval = 27.0
     Generated using &quot;atomic&quot; code by A. Dal Corso  v.6.3
     Using radial grid of 1273 points,  8 beta functions with: 
                l(1) =   0
                l(2) =   0
                l(3) =   1
                l(4) =   1
                l(5) =   2
                l(6) =   2
                l(7) =   3
                l(8) =   3
     Q(r) pseudized with 0 coefficients 


     PseudoPot. # 2 for C  read from file:
     /shared/home/as3359/pseudo/C.pbesol-n-rrkjus_psl.1.0.0.UPF
     MD5 check sum: 05995be603a8a7c99da3dc4413f31573
     Pseudo is Ultrasoft + core correction, Zval =  4.0
     Generated using &quot;atomic&quot; code by A. Dal Corso  v.6.3MaX
     Using radial grid of 1073 points,  4 beta functions with: 
                l(1) =   0
                l(2) =   0
                l(3) =   1
                l(4) =   1
     Q(r) pseudized with 0 coefficients 


     PseudoPot. # 3 for O  read from file:
     /shared/home/as3359/pseudo/O.pbesol-n-rrkjus_psl.1.0.0.UPF
     MD5 check sum: dd9bad2534826f832ffc9296591fc5de
     Pseudo is Ultrasoft + core correction, Zval =  6.0
     Generated using &quot;atomic&quot; code by A. Dal Corso  v.6.3MaX
     Using radial grid of 1095 points,  4 beta functions with: 
                l(1) =   0
                l(2) =   0
                l(3) =   1
                l(4) =   1
     Q(r) pseudized with 0 coefficients 


     atomic species   valence    mass     pseudopotential
        Ta            27.00   180.94788     Ta( 1.00)
        C              4.00    12.01070     C ( 1.00)
        O              6.00    15.99940     O ( 1.00)

     No symmetry found



   Cartesian axes

     site n.     atom                  positions (alat units)
         1           C   tau(   1) = (  -0.1376285   0.0180317   0.0193959  )
         2           Ta  tau(   2) = (   0.3841511   0.3192090  -0.4303689  )
         3           Ta  tau(   3) = (  -0.1376464   0.6197159   0.4272142  )
         4           O   tau(   4) = (   0.3845753   0.3202170   0.8049305  )
         5           O   tau(   5) = (  -0.1374362   0.0185582  -0.8211192  )

     number of k points=    74  Marzari-Vanderbilt smearing, width (Ry)=  0.0010
                       cart. coord. in units 2pi/alat
        k(    1) = (   0.0000000   0.0000000   0.0000000), wk =   0.0138889
        k(    2) = (  -0.0000725   0.0924069   0.0000000), wk =   0.0277778
        k(    3) = (  -0.0001451   0.1848139   0.0000000), wk =   0.0277778
        k(    4) = (  -0.0002176   0.2772208   0.0000000), wk =   0.0277778
        k(    5) = (  -0.0002901   0.3696277   0.0000000), wk =   0.0277778
        k(    6) = (  -0.0003626   0.4620347   0.0000000), wk =   0.0277778
        k(    7) = (   0.0004352  -0.5544416   0.0000000), wk =   0.0138889
        k(    8) = (   0.0798244   0.0462027   0.0000000), wk =   0.0277778
        k(    9) = (   0.0797518   0.1386097   0.0000000), wk =   0.0277778
        k(   10) = (   0.0796793   0.2310166   0.0000000), wk =   0.0277778
        k(   11) = (   0.0796068   0.3234235   0.0000000), wk =   0.0277778
        k(   12) = (   0.0795342   0.4158305   0.0000000), wk =   0.0277778
        k(   13) = (   0.0794617   0.5082374   0.0000000), wk =   0.0277778
        k(   14) = (   0.0802595  -0.5082389   0.0000000), wk =   0.0277778
        k(   15) = (   0.0801870  -0.4158320   0.0000000), wk =   0.0277778
        k(   16) = (   0.0801145  -0.3234250   0.0000000), wk =   0.0277778
        k(   17) = (   0.0800419  -0.2310181   0.0000000), wk =   0.0277778
        k(   18) = (   0.0799694  -0.1386112   0.0000000), wk =   0.0277778
        k(   19) = (   0.0798969  -0.0462042   0.0000000), wk =   0.0277778
        k(   20) = (   0.1596487   0.0924054   0.0000000), wk =   0.0277778
        k(   21) = (   0.1595762   0.1848124   0.0000000), wk =   0.0277778
        k(   22) = (   0.1595036   0.2772193   0.0000000), wk =   0.0277778
        k(   23) = (   0.1594311   0.3696262   0.0000000), wk =   0.0277778
        k(   24) = (   0.1593586   0.4620332   0.0000000), wk =   0.0277778
        k(   25) = (   0.1592861   0.5544401   0.0000000), wk =   0.0277778
        k(   26) = (   0.1600839  -0.4620362   0.0000000), wk =   0.0277778
        k(   27) = (   0.1600113  -0.3696292   0.0000000), wk =   0.0277778
        k(   28) = (   0.1599388  -0.2772223   0.0000000), wk =   0.0277778
        k(   29) = (   0.1598663  -0.1848154   0.0000000), wk =   0.0277778
        k(   30) = (   0.1597938  -0.0924084   0.0000000), wk =   0.0277778
        k(   31) = (   0.1597212  -0.0000015   0.0000000), wk =   0.0277778
        k(   32) = (   0.2394731   0.1386082   0.0000000), wk =   0.0277778
        k(   33) = (   0.2394005   0.2310151   0.0000000), wk =   0.0277778
        k(   34) = (   0.2393280   0.3234220   0.0000000), wk =   0.0277778
        k(   35) = (   0.2392555   0.4158290   0.0000000), wk =   0.0277778
        k(   36) = (   0.2391829   0.5082359   0.0000000), wk =   0.0277778
        k(   37) = (   0.2391104   0.6006428   0.0000000), wk =   0.0277778
        k(   38) = (   0.2399082  -0.4158335   0.0000000), wk =   0.0277778
        k(   39) = (   0.2398357  -0.3234265   0.0000000), wk =   0.0277778
        k(   40) = (   0.2397632  -0.2310196   0.0000000), wk =   0.0277778
        k(   41) = (   0.2396906  -0.1386127   0.0000000), wk =   0.0277778
        k(   42) = (   0.2396181  -0.0462057   0.0000000), wk =   0.0277778
        k(   43) = (   0.2395456   0.0462012   0.0000000), wk =   0.0277778
        k(   44) = (   0.3192974   0.1848109   0.0000000), wk =   0.0277778
        k(   45) = (   0.3192249   0.2772178   0.0000000), wk =   0.0277778
        k(   46) = (   0.3191524   0.3696247   0.0000000), wk =   0.0277778
        k(   47) = (   0.3190798   0.4620317   0.0000000), wk =   0.0277778
        k(   48) = (   0.3190073   0.5544386   0.0000000), wk =   0.0277778
        k(   49) = (   0.3189348   0.6468455   0.0000000), wk =   0.0277778
        k(   50) = (   0.3197326  -0.3696307   0.0000000), wk =   0.0277778
        k(   51) = (   0.3196600  -0.2772238   0.0000000), wk =   0.0277778
        k(   52) = (   0.3195875  -0.1848169   0.0000000), wk =   0.0277778
        k(   53) = (   0.3195150  -0.0924099   0.0000000), wk =   0.0277778
        k(   54) = (   0.3194425  -0.0000030   0.0000000), wk =   0.0277778
        k(   55) = (   0.3193699   0.0924039   0.0000000), wk =   0.0277778
        k(   56) = (   0.3991218   0.2310136   0.0000000), wk =   0.0277778
        k(   57) = (   0.3990492   0.3234205   0.0000000), wk =   0.0277778
        k(   58) = (   0.3989767   0.4158275   0.0000000), wk =   0.0277778
        k(   59) = (   0.3989042   0.5082344   0.0000000), wk =   0.0277778
        k(   60) = (   0.3988317   0.6006413   0.0000000), wk =   0.0277778
        k(   61) = (   0.3987591   0.6930483   0.0000000), wk =   0.0277778
        k(   62) = (   0.3995569  -0.3234280   0.0000000), wk =   0.0277778
        k(   63) = (   0.3994844  -0.2310211   0.0000000), wk =   0.0277778
        k(   64) = (   0.3994119  -0.1386142   0.0000000), wk =   0.0277778
        k(   65) = (   0.3993393  -0.0462072   0.0000000), wk =   0.0277778
        k(   66) = (   0.3992668   0.0461997   0.0000000), wk =   0.0277778
        k(   67) = (   0.3991943   0.1386067   0.0000000), wk =   0.0277778
        k(   68) = (  -0.4789461  -0.2772163   0.0000000), wk =   0.0138889
        k(   69) = (  -0.4790186  -0.1848094   0.0000000), wk =   0.0277778
        k(   70) = (  -0.4790912  -0.0924024   0.0000000), wk =   0.0277778
        k(   71) = (  -0.4791637   0.0000045   0.0000000), wk =   0.0277778
        k(   72) = (  -0.4792362   0.0924114   0.0000000), wk =   0.0277778
        k(   73) = (  -0.4793088   0.1848184   0.0000000), wk =   0.0277778
        k(   74) = (  -0.4785109  -0.8316579   0.0000000), wk =   0.0138889

     Dense  grid:   503489 G-vectors     FFT dimensions: (  50,  50, 480)

     Smooth grid:   127495 G-vectors     FFT dimensions: (  32,  32, 300)

     Estimated max dynamical RAM per process >       2.74 GB

     Estimated total dynamical RAM >       5.48 GB

     Initial potential from superposition of free atoms

     starting charge   69.99841, renormalised to   70.00000

     negative rho (up, down):  1.349E-04 0.000E+00
     Starting wfcs are   46 randomized atomic wfcs

     total cpu time spent up to now is       17.8 secs

     Self-consistent Calculation

     iteration #  1     ecut=    70.00 Ry     beta= 0.70
     Davidson diagonalization with overlap
     ethr =  1.00E-02,  avg # of iterations =  2.0

     total cpu time spent up to now is       33.1 secs

     total energy              =   -1437.39781414 Ry
     estimated scf accuracy    <       1.65457971 Ry

     iteration #  2     ecut=    70.00 Ry     beta= 0.70
     Davidson diagonalization with overlap
     ethr =  2.36E-03,  avg # of iterations =  5.0

     negative rho (up, down):  3.138E-06 0.000E+00

     total cpu time spent up to now is       53.7 secs

     total energy              =   -1434.64720355 Ry
     estimated scf accuracy    <      27.37151095 Ry

     iteration #  3     ecut=    70.00 Ry     beta= 0.70
     Davidson diagonalization with overlap
     ethr =  2.36E-03,  avg # of iterations =  7.4

     negative rho (up, down):  4.621E-06 0.000E+00

     total cpu time spent up to now is       75.9 secs

     total energy              =   -1433.40388238 Ry
     estimated scf accuracy    <     109.76408079 Ry

     iteration #  4     ecut=    70.00 Ry     beta= 0.70
     Davidson diagonalization with overlap
     ethr =  2.36E-03,  avg # of iterations =  7.0

     negative rho (up, down):  2.451E-07 0.000E+00

     total cpu time spent up to now is       97.1 secs

     total energy              =   -1438.23302847 Ry
     estimated scf accuracy    <       1.45189420 Ry

     iteration #  5     ecut=    70.00 Ry     beta= 0.70
     Davidson diagonalization with overlap
     ethr =  2.07E-03,  avg # of iterations =  3.0

     negative rho (up, down):  1.834E-06 0.000E+00

     total cpu time spent up to now is      112.5 secs

     WARNING: integrated charge=    70.00026743, expected=    70.00000000

     total energy              =   -1438.33417495 Ry
     estimated scf accuracy    <       0.22966091 Ry

     iteration #  6     ecut=    70.00 Ry     beta= 0.70
     Davidson diagonalization with overlap
     ethr =  3.28E-04,  avg # of iterations =  7.5

     negative rho (up, down):  5.424E-06 0.000E+00

     total cpu time spent up to now is      132.6 secs

     WARNING: integrated charge=    70.00009623, expected=    70.00000000

     total energy              =   -1438.36230022 Ry
     estimated scf accuracy    <       0.06632591 Ry

     iteration #  7     ecut=    70.00 Ry     beta= 0.70
     Davidson diagonalization with overlap
     c_bands:  1 eigenvalues not converged
     ethr =  9.48E-05,  avg # of iterations =  2.6
     Minimization algorithm failed to find Fermi energy: reverting to bisection
     Possible cause: smearing is larger than the electronic band-gap.

     negative rho (up, down):  4.031E-05 0.000E+00

     total cpu time spent up to now is      147.7 secs

     WARNING: integrated charge=    69.99970190, expected=    70.00000000

     total energy              =   -1438.35874873 Ry
     estimated scf accuracy    <       0.05339453 Ry

     iteration #  8     ecut=    70.00 Ry     beta= 0.70
     Davidson diagonalization with overlap
     ethr =  7.63E-05,  avg # of iterations =  2.2
     Minimization algorithm failed to find Fermi energy: reverting to bisection
     Possible cause: smearing is larger than the electronic band-gap.

     negative rho (up, down):  2.150E-04 0.000E+00

     total cpu time spent up to now is      162.9 secs

     WARNING: integrated charge=    69.99961018, expected=    70.00000000

     total energy              =   -1438.35687852 Ry
     estimated scf accuracy    <       0.04095551 Ry

     iteration #  9     ecut=    70.00 Ry     beta= 0.70
     Davidson diagonalization with overlap
     ethr =  5.85E-05,  avg # of iterations =  2.1

     negative rho (up, down):  2.220E-04 0.000E+00

     total cpu time spent up to now is      177.5 secs

     WARNING: integrated charge=    69.99978336, expected=    70.00000000

     total energy              =   -1438.35521911 Ry
     estimated scf accuracy    <       0.01687243 Ry

     iteration # 10     ecut=    70.00 Ry     beta= 0.70
     Davidson diagonalization with overlap
     ethr =  2.41E-05,  avg # of iterations =  3.0

     negative rho (up, down):  1.973E-04 0.000E+00

     total cpu time spent up to now is      192.9 secs

     WARNING: integrated charge=    69.99990973, expected=    70.00000000

     total energy              =   -1438.35542843 Ry
     estimated scf accuracy    <       0.00328530 Ry

     iteration # 11     ecut=    70.00 Ry     beta= 0.70
     Davidson diagonalization with overlap
     ethr =  4.69E-06,  avg # of iterations =  7.4

     negative rho (up, down):  1.914E-04 0.000E+00

     total cpu time spent up to now is      213.0 secs

     WARNING: integrated charge=    69.99992242, expected=    70.00000000

     total energy              =   -1438.35611893 Ry
     estimated scf accuracy    <       0.00061475 Ry

     iteration # 12     ecut=    70.00 Ry     beta= 0.70
     Davidson diagonalization with overlap
     ethr =  8.78E-07,  avg # of iterations =  2.2

     negative rho (up, down):  1.952E-04 0.000E+00

     total cpu time spent up to now is      227.9 secs

     WARNING: integrated charge=    70.00005373, expected=    70.00000000

     total energy              =   -1438.35608538 Ry
     estimated scf accuracy    <       0.00025299 Ry

     iteration # 13     ecut=    70.00 Ry     beta= 0.70
     Davidson diagonalization with overlap
     ethr =  3.61E-07,  avg # of iterations =  4.9

     negative rho (up, down):  1.573E-04 0.000E+00

     total cpu time spent up to now is      248.4 secs

     WARNING: integrated charge=    70.00001477, expected=    70.00000000

     total energy              =   -1438.35607374 Ry
     estimated scf accuracy    <       0.00122814 Ry

     iteration # 14     ecut=    70.00 Ry     beta= 0.70
     Davidson diagonalization with overlap
     ethr =  3.61E-07,  avg # of iterations =  3.3

     negative rho (up, down):  1.526E-04 0.000E+00

     total cpu time spent up to now is      264.1 secs

     total energy              =   -1438.35615139 Ry
     estimated scf accuracy    <       0.00005575 Ry

     iteration # 15     ecut=    70.00 Ry     beta= 0.70
     Davidson diagonalization with overlap
     ethr =  7.96E-08,  avg # of iterations =  5.3

     negative rho (up, down):  1.482E-04 0.000E+00

     total cpu time spent up to now is      282.6 secs

     total energy              =   -1438.35616772 Ry
     estimated scf accuracy    <       0.00001515 Ry

     iteration # 16     ecut=    70.00 Ry     beta= 0.70
     Davidson diagonalization with overlap
     ethr =  2.16E-08,  avg # of iterations =  2.2

     negative rho (up, down):  1.478E-04 0.000E+00

     total cpu time spent up to now is      297.2 secs

     total energy              =   -1438.35616894 Ry
     estimated scf accuracy    <       0.00000165 Ry

     iteration # 17     ecut=    70.00 Ry     beta= 0.70
     Davidson diagonalization with overlap
     ethr =  2.36E-09,  avg # of iterations =  2.3

     negative rho (up, down):  1.473E-04 0.000E+00

     total cpu time spent up to now is      312.6 secs

     total energy              =   -1438.35616907 Ry
     estimated scf accuracy    <       0.00000086 Ry

     iteration # 18     ecut=    70.00 Ry     beta= 0.70
     Davidson diagonalization with overlap
     ethr =  1.23E-09,  avg # of iterations =  2.1

     negative rho (up, down):  1.474E-04 0.000E+00

     total cpu time spent up to now is      327.4 secs

     total energy              =   -1438.35616901 Ry
     estimated scf accuracy    <       0.00000046 Ry

     iteration # 19     ecut=    70.00 Ry     beta= 0.70
     Davidson diagonalization with overlap
     ethr =  6.59E-10,  avg # of iterations =  3.6

     negative rho (up, down):  1.474E-04 0.000E+00

     total cpu time spent up to now is      343.2 secs

     total energy              =   -1438.35616907 Ry
     estimated scf accuracy    <       0.00000003 Ry

     iteration # 20     ecut=    70.00 Ry     beta= 0.70
     Davidson diagonalization with overlap
     ethr =  3.61E-11,  avg # of iterations =  5.7

     negative rho (up, down):  1.473E-04 0.000E+00

     total cpu time spent up to now is      363.4 secs

     total energy              =   -1438.35616909 Ry
     estimated scf accuracy    <          7.4E-09 Ry

     iteration # 21     ecut=    70.00 Ry     beta= 0.70
     Davidson diagonalization with overlap
     ethr =  1.06E-11,  avg # of iterations =  2.0

     negative rho (up, down):  1.473E-04 0.000E+00

     total cpu time spent up to now is      378.0 secs

     total energy              =   -1438.35616909 Ry
     estimated scf accuracy    <          8.4E-10 Ry

     iteration # 22     ecut=    70.00 Ry     beta= 0.70
     Davidson diagonalization with overlap
     ethr =  1.21E-12,  avg # of iterations =  5.9

     negative rho (up, down):  1.473E-04 0.000E+00

     total cpu time spent up to now is      397.0 secs

     total energy              =   -1438.35616909 Ry
     estimated scf accuracy    <          6.0E-10 Ry

     iteration # 23     ecut=    70.00 Ry     beta= 0.70
     Davidson diagonalization with overlap
     ethr =  8.59E-13,  avg # of iterations =  1.0

     negative rho (up, down):  1.473E-04 0.000E+00

     total cpu time spent up to now is      410.7 secs

     total energy              =   -1438.35616909 Ry
     estimated scf accuracy    <          2.4E-10 Ry

     iteration # 24     ecut=    70.00 Ry     beta= 0.70
     Davidson diagonalization with overlap
     ethr =  3.39E-13,  avg # of iterations =  2.0

     negative rho (up, down):  1.473E-04 0.000E+00

     total cpu time spent up to now is      425.7 secs

     total energy              =   -1438.35616909 Ry
     estimated scf accuracy    <          9.2E-11 Ry

     iteration # 25     ecut=    70.00 Ry     beta= 0.70
     Davidson diagonalization with overlap
     ethr =  1.32E-13,  avg # of iterations =  2.1

     negative rho (up, down):  1.473E-04 0.000E+00

     total cpu time spent up to now is      440.4 secs

     total energy              =   -1438.35616909 Ry
     estimated scf accuracy    <          2.4E-11 Ry

     iteration # 26     ecut=    70.00 Ry     beta= 0.70
     Davidson diagonalization with overlap
     ethr =  1.00E-13,  avg # of iterations =  3.7

     negative rho (up, down):  1.473E-04 0.000E+00

     total cpu time spent up to now is      456.2 secs

     total energy              =   -1438.35616909 Ry
     estimated scf accuracy    <          1.9E-12 Ry

     iteration # 27     ecut=    70.00 Ry     beta= 0.70
     Davidson diagonalization with overlap
     ethr =  1.00E-13,  avg # of iterations =  1.2

     negative rho (up, down):  1.473E-04 0.000E+00

     total cpu time spent up to now is      469.9 secs

     End of self-consistent calculation

          k = 0.0000 0.0000 0.0000 ( 16001 PWs)   bands (ev):

   -69.7072 -68.9105 -36.4036 -35.9368 -35.9357 -35.5199 -35.1021 -35.0989
   -21.4259 -21.2868 -21.2777 -21.2770 -21.2575 -21.2550 -21.2324 -20.6429
   -20.5310 -20.5188 -20.5187 -20.5072 -20.5069 -20.4524 -20.0755 -19.1761
   -13.1460  -8.3425  -6.6564  -6.6333  -5.6359  -5.1194  -5.1023  -3.1300
    -3.1144  -2.7784  -0.2667  -0.2387   0.3683   1.6646   1.6819   2.2281
     3.5629   3.6117

          k =-0.0001 0.0924 0.0000 ( 15995 PWs)   bands (ev):

   -69.7040 -68.9074 -36.3904 -35.9954 -35.9477 -35.5109 -35.1514 -35.1131
   -21.4183 -21.2853 -21.2784 -21.2763 -21.2591 -21.2554 -21.2354 -20.6349
   -20.5288 -20.5190 -20.5174 -20.5086 -20.5076 -20.4553 -20.0241 -19.1343
   -13.1324  -8.2087  -6.7653  -6.5708  -5.6051  -5.1327  -5.0551  -3.5681
    -3.3627  -2.7030  -0.4972  -0.0363   0.5796   1.5397   1.7854   2.3962
     3.4609   3.7048

          k =-0.0001 0.1848 0.0000 ( 15937 PWs)   bands (ev):

   -69.6953 -68.8990 -36.3548 -36.1493 -35.9801 -35.4909 -35.2900 -35.1435
   -21.3992 -21.2822 -21.2801 -21.2724 -21.2634 -21.2569 -21.2427 -20.6164
   -20.5235 -20.5182 -20.5136 -20.5129 -20.5087 -20.4630 -19.8988 -19.0265
   -13.0695  -7.8731  -6.9186  -6.3672  -5.8678  -5.0323  -4.9106  -4.4165
    -3.7892  -2.6871  -0.9908   0.4364   0.7012   1.6515   2.1627   2.5979
     3.7423   3.9426

          k =-0.0002 0.2772 0.0000 ( 15893 PWs)   bands (ev):

   -69.6833 -68.8874 -36.3547 -36.3023 -36.0240 -35.5037 -35.4354 -35.1847
   -21.3766 -21.2815 -21.2752 -21.2688 -21.2672 -21.2617 -21.2494 -20.5982
   -20.5209 -20.5182 -20.5108 -20.5093 -20.5082 -20.4728 -19.7647 -18.8960
   -12.9114  -7.6620  -6.7762  -6.2917  -6.1868  -5.4322  -4.8470  -4.6419
    -3.9708  -2.8679  -1.4599   0.6449   1.0229   2.0497   2.6723   3.1121
     4.0760   4.2731

          k =-0.0003 0.3696 0.0000 ( 15863 PWs)   bands (ev):

   -69.6714 -68.8759 -36.5452 -36.2598 -36.0676 -35.6592 -35.4298 -35.2255
   -21.3595 -21.2777 -21.2718 -21.2703 -21.2686 -21.2626 -21.2512 -20.5873
   -20.5249 -20.5162 -20.5134 -20.5030 -20.4962 -20.4815 -19.6737 -18.7880
   -12.6443  -7.9489  -6.7025  -6.2568  -6.1628  -5.6616  -4.9179  -4.8009
    -3.7699  -3.0290  -1.7266   0.6548   1.7518   2.4339   3.1113   3.8261
     4.2381   4.6312

          k =-0.0004 0.4620 0.0000 ( 15904 PWs)   bands (ev):

   -69.6626 -68.8674 -36.6822 -36.2322 -36.0992 -35.7753 -35.4146 -35.2552
   -21.3517 -21.2795 -21.2776 -21.2662 -21.2608 -21.2599 -21.2505 -20.5833
   -20.5288 -20.5160 -20.5123 -20.4992 -20.4870 -20.4847 -19.6333 -18.7245
   -12.3478  -8.4740  -6.6144  -6.2415  -6.1225  -5.5740  -5.0632  -4.9663
    -3.4960  -3.0777  -1.7744   0.8352   2.4617   2.7627   3.4309   3.8615
     4.6086   4.8705

          k = 0.0004-0.5544 0.0000 ( 15914 PWs)   bands (ev):

   -69.6594 -68.8643 -36.7315 -36.2244 -36.1107 -35.8147 -35.4090 -35.2660
   -21.3498 -21.2808 -21.2801 -21.2644 -21.2597 -21.2555 -21.2499 -20.5825
   -20.5303 -20.5171 -20.5107 -20.4978 -20.4887 -20.4801 -19.6238 -18.7046
   -12.2070  -8.7179  -6.5176  -6.2851  -6.0720  -5.6121  -5.1482  -4.9797
    -3.3797  -3.0640  -1.7644   0.9802   2.7699   2.9308   3.5780   3.7307
     4.7402   4.9300

          k = 0.0798 0.0462 0.0000 ( 15997 PWs)   bands (ev):

   -69.7040 -68.9074 -36.3905 -35.9942 -35.9485 -35.5109 -35.1538 -35.1102
   -21.4183 -21.2858 -21.2785 -21.2757 -21.2581 -21.2564 -21.2354 -20.6348
   -20.5288 -20.5191 -20.5173 -20.5088 -20.5073 -20.4553 -20.0243 -19.1345
   -13.1329  -8.2095  -6.7807  -6.5511  -5.6092  -5.1427  -5.0409  -3.5824
    -3.3475  -2.7045  -0.5140  -0.0124   0.5786   1.5303   1.7977   2.3933
     3.4509   3.7168

          k = 0.0798 0.1386 0.0000 ( 15944 PWs)   bands (ev):

   -69.6981 -68.9017 -36.3660 -36.0978 -35.9731 -35.4965 -35.2452 -35.1350
   -21.4049 -21.2840 -21.2794 -21.2733 -21.2615 -21.2568 -21.2407 -20.6217
   -20.5248 -20.5191 -20.5147 -20.5117 -20.5082 -20.4606 -19.9360 -19.0597
   -13.0944  -7.9644  -6.9101  -6.4279  -5.7591  -5.0410  -4.9499  -4.1156
    -3.8096  -2.6704  -0.7212   0.0882   0.8389   1.6065   1.9511   2.5627
     3.6383   3.8586

          k = 0.0797 0.2310 0.0000 ( 15915 PWs)   bands (ev):

   -69.6877 -68.8917 -36.3250 -36.2662 -36.0189 -35.4818 -35.3909 -35.1784
   -21.3840 -21.2825 -21.2780 -21.2684 -21.2667 -21.2587 -21.2486 -20.6038
   -20.5216 -20.5166 -20.5138 -20.5103 -20.5093 -20.4695 -19.8069 -18.9405
   -12.9807  -7.6097  -6.9435  -6.3985  -5.9797  -5.1634  -4.8737  -4.5303
    -4.2175  -2.7950  -1.1049   0.3001   1.0887   1.9501   2.3395   2.9606
     3.9328   4.1230

          k = 0.0796 0.3234 0.0000 ( 15897 PWs)   bands (ev):

   -69.6758 -68.8802 -36.4564 -36.2755 -36.0718 -35.5833 -35.4354 -35.2278
   -21.3640 -21.2799 -21.2729 -21.2714 -21.2654 -21.2634 -21.2526 -20.5898
   -20.5226 -20.5187 -20.5123 -20.5048 -20.5014 -20.4789 -19.6962 -18.8221
   -12.7599  -7.6125  -6.7891  -6.5132  -5.9612  -5.6530  -5.0056  -4.5278
    -4.1464  -2.9874  -1.4553   0.4987   1.4455   2.3494   2.9516   3.5986
     4.1165   4.4759

          k = 0.0795 0.4158 0.0000 ( 15919 PWs)   bands (ev):

   -69.6655 -68.8702 -36.6137 -36.2387 -36.1171 -35.7186 -35.4188 -35.2699
   -21.3519 -21.2783 -21.2743 -21.2703 -21.2648 -21.2609 -21.2523 -20.5830
   -20.5269 -20.5151 -20.5149 -20.5009 -20.4890 -20.4857 -19.6329 -18.7381
   -12.4646  -8.0944  -6.7880  -6.3250  -5.9399  -5.6523  -5.2589  -4.6177
    -3.9542  -3.0248  -1.5847   0.6740   1.9671   2.7445   3.2935   3.9907
     4.4191   4.8667

          k = 0.0795 0.5082 0.0000 ( 15893 PWs)   bands (ev):

   -69.6595 -68.8644 -36.7027 -36.2211 -36.1430 -35.7924 -35.4083 -35.2940
   -21.3476 -21.2800 -21.2795 -21.2655 -21.2610 -21.2567 -21.2519 -20.5809
   -20.5293 -20.5171 -20.5118 -20.4989 -20.4901 -20.4800 -19.6095 -18.6978
   -12.2292  -8.5166  -6.7307  -6.2367  -5.9216  -5.5716  -5.4375  -4.7088
    -3.8236  -2.9722  -1.5686   0.9044   2.4453   2.8774   3.2861   4.0284
     4.6987   5.1916

          k = 0.0803-0.5082 0.0000 ( 15893 PWs)   bands (ev):

   -69.6594 -68.8644 -36.7030 -36.2213 -36.1426 -35.7926 -35.4083 -35.2939
   -21.3476 -21.2807 -21.2789 -21.2651 -21.2616 -21.2568 -21.2516 -20.5809
   -20.5293 -20.5171 -20.5119 -20.4988 -20.4901 -20.4800 -19.6095 -18.6978
   -12.2292  -8.5169  -6.7298  -6.2383  -5.9225  -5.5704  -5.4380  -4.7090
    -3.8234  -2.9725  -1.5690   0.9037   2.4358   2.8907   3.2880   4.0308
     4.6974   5.1918

          k = 0.0802-0.4158 0.0000 ( 15913 PWs)   bands (ev):

   -69.6654 -68.8701 -36.6145 -36.2390 -36.1163 -35.7192 -35.4188 -35.2698
   -21.3520 -21.2786 -21.2743 -21.2698 -21.2652 -21.2609 -21.2521 -20.5830
   -20.5268 -20.5152 -20.5149 -20.5008 -20.4890 -20.4857 -19.6328 -18.7380
   -12.4644  -8.0953  -6.7871  -6.3274  -5.9409  -5.6516  -5.2591  -4.6185
    -3.9535  -3.0253  -1.5857   0.6742   1.9621   2.7547   3.2969   3.9933
     4.4163   4.8678

          k = 0.0801-0.3234 0.0000 ( 15897 PWs)   bands (ev):

   -69.6758 -68.8801 -36.4575 -36.2758 -36.0709 -35.5839 -35.4353 -35.2277
   -21.3641 -21.2799 -21.2731 -21.2715 -21.2655 -21.2630 -21.2526 -20.5899
   -20.5226 -20.5187 -20.5124 -20.5047 -20.5014 -20.4790 -19.6961 -18.8219
   -12.7596  -7.6133  -6.7900  -6.5134  -5.9630  -5.6529  -5.0050  -4.5298
    -4.1458  -2.9875  -1.4565   0.5014   1.4440   2.3518   2.9518   3.5962
     4.1170   4.4773

          k = 0.0800-0.2310 0.0000 ( 15915 PWs)   bands (ev):

   -69.6877 -68.8917 -36.3248 -36.2677 -36.0181 -35.4817 -35.3913 -35.1786
   -21.3841 -21.2825 -21.2775 -21.2689 -21.2673 -21.2579 -21.2487 -20.6038
   -20.5216 -20.5165 -20.5139 -20.5102 -20.5093 -20.4695 -19.8067 -18.9403
   -12.9802  -7.6095  -6.9430  -6.4001  -5.9807  -5.1644  -4.8735  -4.5318
    -4.2174  -2.7939  -1.1061   0.3036   1.0869   1.9470   2.3383   2.9598
     3.9340   4.1228

          k = 0.0800-0.1386 0.0000 ( 15940 PWs)   bands (ev):

   -69.6980 -68.9017 -36.3659 -36.0989 -35.9724 -35.4964 -35.2448 -35.1359
   -21.4050 -21.2833 -21.2799 -21.2735 -21.2621 -21.2561 -21.2407 -20.6217
   -20.5248 -20.5191 -20.5146 -20.5116 -20.5083 -20.4606 -19.9358 -19.0595
   -13.0938  -7.9638  -6.9069  -6.4341  -5.7573  -5.0411  -4.9528  -4.1127
    -3.8125  -2.6686  -0.7187   0.0845   0.8377   1.6029   1.9511   2.5629
     3.6406   3.8565

          k = 0.0799-0.0462 0.0000 ( 15993 PWs)   bands (ev):

   -69.7040 -68.9074 -36.3905 -35.9947 -35.9481 -35.5109 -35.1529 -35.1113
   -21.4183 -21.2855 -21.2789 -21.2756 -21.2586 -21.2559 -21.2354 -20.6348
   -20.5288 -20.5191 -20.5173 -20.5087 -20.5074 -20.4553 -20.0243 -19.1344
   -13.1327  -8.2092  -6.7751  -6.5585  -5.6077  -5.1396  -5.0457  -3.5768
    -3.3533  -2.7037  -0.5072  -0.0216   0.5787   1.5320   1.7947   2.3946
     3.4541   3.7128

          k = 0.1596 0.0924 0.0000 ( 15925 PWs)   bands (ev):

   -69.6954 -68.8991 -36.3548 -36.1477 -35.9803 -35.4912 -35.2916 -35.1400
   -21.3989 -21.2849 -21.2781 -21.2718 -21.2614 -21.2586 -21.2430 -20.6164
   -20.5234 -20.5183 -20.5136 -20.5132 -20.5084 -20.4629 -19.8994 -19.0272
   -13.0714  -7.8760  -6.9275  -6.3476  -5.8744  -5.0376  -4.8976  -4.4270
    -3.7715  -2.6925  -1.0027   0.4591   0.7041   1.6459   2.1708   2.5957
     3.7323   3.9521

          k = 0.1596 0.1848 0.0000 ( 15915 PWs)   bands (ev):

   -69.6879 -68.8918 -36.3241 -36.2666 -36.0184 -35.4820 -35.3917 -35.1761
   -21.3837 -21.2843 -21.2763 -21.2684 -21.2660 -21.2586 -21.2493 -20.6038
   -20.5216 -20.5166 -20.5139 -20.5102 -20.5092 -20.4694 -19.8073 -18.9410
   -12.9821  -7.6117  -6.9467  -6.3939  -5.9780  -5.1668  -4.8698  -4.5326
    -4.2048  -2.7991  -1.1121   0.3105   1.0920   1.9489   2.3405   2.9600
     3.9299   4.1248

          k = 0.1595 0.2772 0.0000 ( 15924 PWs)   bands (ev):

   -69.6775 -68.8818 -36.4088 -36.2829 -36.0869 -35.5456 -35.4352 -35.2396
   -21.3653 -21.2824 -21.2733 -21.2716 -21.2642 -21.2596 -21.2564 -20.5906
   -20.5218 -20.5198 -20.5121 -20.5053 -20.5032 -20.4782 -19.7031 -18.8342
   -12.7991  -7.2811  -7.0031  -6.6605  -5.9099  -5.5144  -4.9774  -4.6158
    -4.2735  -3.0120  -1.2102   0.3336   1.3888   2.3237   2.8817   3.5251
     4.0098   4.4228

          k = 0.1594 0.3696 0.0000 ( 15908 PWs)   bands (ev):

   -69.6672 -68.8718 -36.5400 -36.2441 -36.1614 -35.6578 -35.4202 -35.3086
   -21.3503 -21.2786 -21.2759 -21.2691 -21.2664 -21.2626 -21.2551 -20.5816
   -20.5250 -20.5183 -20.5145 -20.5019 -20.4914 -20.4859 -19.6237 -18.7419
   -12.5334  -7.5346  -6.9934  -6.4633  -6.0249  -5.6983  -5.1753  -4.5845
    -4.1898  -3.1468  -1.2908   0.5235   1.5983   2.7132   3.3482   4.0277
     4.2826   4.8103

          k = 0.1594 0.4620 0.0000 ( 15899 PWs)   bands (ev):

   -69.6596 -68.8645 -36.6319 -36.2268 -36.2085 -35.7372 -35.4072 -35.3600
   -21.3424 -21.2799 -21.2759 -21.2705 -21.2630 -21.2605 -21.2541 -20.5772
   -20.5273 -20.5171 -20.5151 -20.5006 -20.4929 -20.4798 -19.5809 -18.6844
   -12.2719  -7.9998  -6.9139  -6.4240  -5.8923  -5.6178  -5.3633  -4.5181
    -4.3401  -3.0983  -1.2185   0.7673   1.8859   2.7279   3.1851   4.3348
     4.6943   5.4595

          k = 0.1593 0.5544 0.0000 ( 15906 PWs)   bands (ev):

   -69.6568 -68.8618 -36.6653 -36.2419 -36.2049 -35.7653 -35.4031 -35.3780
   -21.3402 -21.2811 -21.2782 -21.2668 -21.2638 -21.2573 -21.2545 -20.5761
   -20.5280 -20.5184 -20.5133 -20.5005 -20.4947 -20.4760 -19.5683 -18.6654
   -12.1576  -8.1954  -6.9132  -6.3852  -5.8065  -5.5591  -5.4627  -4.4720
    -4.4503  -3.0519  -1.1541   0.9484   2.1558   2.4172   3.0342   4.4812
     4.8187   5.7827

          k = 0.1601-0.4620 0.0000 ( 15897 PWs)   bands (ev):

   -69.6595 -68.8644 -36.6332 -36.2291 -36.2053 -35.7380 -35.4070 -35.3597
   -21.3425 -21.2806 -21.2755 -21.2699 -21.2638 -21.2609 -21.2533 -20.5773
   -20.5272 -20.5172 -20.5151 -20.5004 -20.4929 -20.4798 -19.5807 -18.6843
   -12.2717  -8.0009  -6.9132  -6.4261  -5.8940  -5.6196  -5.3624  -4.5189
    -4.3385  -3.0986  -1.2203   0.7668   1.8803   2.7419   3.1907   4.3391
     4.6921   5.4610

          k = 0.1600-0.3696 0.0000 ( 15904 PWs)   bands (ev):

   -69.6671 -68.8717 -36.5420 -36.2450 -36.1592 -35.6589 -35.4200 -35.3085
   -21.3505 -21.2784 -21.2768 -21.2685 -21.2663 -21.2631 -21.2546 -20.5817
   -20.5250 -20.5184 -20.5146 -20.5017 -20.4914 -20.4859 -19.6235 -18.7417
   -12.5328  -7.5361  -6.9944  -6.4651  -6.0254  -5.7001  -5.1752  -4.5866
    -4.1891  -3.1465  -1.2928   0.5257   1.5953   2.7237   3.3509   4.0313
     4.2782   4.8136

          k = 0.1599-0.2772 0.0000 ( 15920 PWs)   bands (ev):

   -69.6774 -68.8817 -36.4108 -36.2832 -36.0855 -35.5464 -35.4351 -35.2400
   -21.3656 -21.2821 -21.2729 -21.2724 -21.2650 -21.2584 -21.2565 -20.5907
   -20.5218 -20.5198 -20.5122 -20.5052 -20.5031 -20.4782 -19.7028 -18.8338
   -12.7981  -7.2823  -7.0031  -6.6609  -5.9125  -5.5159  -4.9773  -4.6178
    -4.2752  -3.0102  -1.2109   0.3365   1.3867   2.3256   2.8807   3.5220
     4.0110   4.4257

          k = 0.1599-0.1848 0.0000 ( 15909 PWs)   bands (ev):

   -69.6878 -68.8917 -36.3242 -36.2681 -36.0177 -35.4819 -35.3917 -35.1773
   -21.3840 -21.2835 -21.2767 -21.2689 -21.2669 -21.2577 -21.2492 -20.6038
   -20.5216 -20.5166 -20.5139 -20.5102 -20.5093 -20.4695 -19.8070 -18.9406
   -12.9810  -7.6108  -6.9451  -6.3974  -5.9799  -5.1669  -4.8713  -4.5332
    -4.2090  -2.7957  -1.1102   0.3093   1.0888   1.9454   2.3399   2.9595
     3.9321   4.1240

          k = 0.1598-0.0924 0.0000 ( 15929 PWs)   bands (ev):

   -69.6953 -68.8991 -36.3548 -36.1484 -35.9802 -35.4911 -35.2909 -35.1414
   -21.3990 -21.2837 -21.2793 -21.2717 -21.2624 -21.2577 -21.2430 -20.6164
   -20.5235 -20.5182 -20.5136 -20.5130 -20.5085 -20.4629 -19.8992 -19.0269
   -13.0706  -7.8748  -6.9243  -6.3555  -5.8721  -5.0362  -4.9023  -4.4229
    -3.7778  -2.6895  -0.9977   0.4500   0.7027   1.6461   2.1694   2.5971
     3.7353   3.9490

          k = 0.1597-0.0000 0.0000 ( 15936 PWs)   bands (ev):

   -69.6981 -68.9018 -36.3660 -36.0961 -35.9741 -35.4967 -35.2456 -35.1337
   -21.4048 -21.2838 -21.2806 -21.2722 -21.2599 -21.2583 -21.2408 -20.6217
   -20.5248 -20.5192 -20.5147 -20.5118 -20.5080 -20.4605 -19.9363 -19.0601
   -13.0951  -7.9653  -6.9149  -6.4192  -5.7624  -5.0420  -4.9449  -4.1188
    -3.8051  -2.6715  -0.7247   0.0963   0.8388   1.6056   1.9569   2.5629
     3.6325   3.8635

          k = 0.2395 0.1386 0.0000 ( 15899 PWs)   bands (ev):

   -69.6836 -68.8877 -36.3492 -36.3057 -36.0235 -35.5042 -35.4359 -35.1805
   -21.3759 -21.2841 -21.2735 -21.2670 -21.2661 -21.2621 -21.2511 -20.5981
   -20.5210 -20.5184 -20.5106 -20.5095 -20.5082 -20.4725 -19.7656 -18.8972
   -12.9149  -7.6657  -6.7822  -6.2990  -6.1656  -5.4359  -4.8333  -4.6438
    -3.9534  -2.8769  -1.4673   0.6446   1.0399   2.0488   2.6774   3.1098
     4.0678   4.2775

          k = 0.2394 0.2310 0.0000 ( 15903 PWs)   bands (ev):

   -69.6761 -68.8804 -36.4538 -36.2772 -36.0705 -35.5838 -35.4358 -35.2241
   -21.3635 -21.2818 -21.2718 -21.2703 -21.2657 -21.2606 -21.2555 -20.5897
   -20.5227 -20.5188 -20.5122 -20.5048 -20.5015 -20.4787 -19.6969 -18.8229
   -12.7630  -7.6156  -6.7930  -6.5135  -5.9532  -5.6507  -4.9976  -4.5250
    -4.1359  -2.9952  -1.4609   0.5013   1.4483   2.3537   2.9543   3.5957
     4.1126   4.4763

          k = 0.2393 0.3234 0.0000 ( 15923 PWs)   bands (ev):

   -69.6673 -68.8720 -36.5386 -36.2452 -36.1603 -35.6580 -35.4204 -35.3066
   -21.3501 -21.2788 -21.2761 -21.2686 -21.2656 -21.2623 -21.2564 -20.5814
   -20.5250 -20.5184 -20.5144 -20.5019 -20.4915 -20.4858 -19.6240 -18.7423
   -12.5350  -7.5371  -6.9917  -6.4645  -6.0225  -5.6959  -5.1709  -4.5829
    -4.1852  -3.1514  -1.2935   0.5230   1.5959   2.7170   3.3497   4.0291
     4.2803   4.8092

          k = 0.2393 0.4158 0.0000 ( 15894 PWs)   bands (ev):

   -69.6597 -68.8646 -36.5828 -36.2745 -36.2093 -35.6999 -35.4066 -35.4014
   -21.3392 -21.2798 -21.2752 -21.2702 -21.2670 -21.2620 -21.2548 -20.5751
   -20.5261 -20.5172 -20.5171 -20.5012 -20.4943 -20.4799 -19.5667 -18.6779
   -12.2933  -7.5871  -7.0165  -6.4789  -6.2595  -5.5031  -5.1191  -4.8996
    -4.1331  -3.2845  -1.0504   0.7113   1.6245   2.6672   3.1707   4.4506
     4.8390   5.4109

          k = 0.2392 0.5082 0.0000 ( 15890 PWs)   bands (ev):

   -69.6553 -68.8603 -36.5906 -36.3519 -36.1939 -35.7122 -35.4703 -35.3974
   -21.3334 -21.2813 -21.2753 -21.2710 -21.2661 -21.2618 -21.2541 -20.5717
   -20.5257 -20.5197 -20.5155 -20.5021 -20.4983 -20.4738 -19.5360 -18.6430
   -12.1360  -7.6715  -7.0058  -6.6749  -6.0537  -5.4665  -5.1612  -4.9063
    -4.2940  -3.2985  -0.7830   1.0036   1.6558   2.0970   2.8966   4.8783
     5.0632   6.0596

          k = 0.2391 0.6006 0.0000 ( 15901 PWs)   bands (ev):

   -69.6553 -68.8603 -36.5918 -36.3513 -36.1936 -35.7128 -35.4701 -35.3973
   -21.3335 -21.2817 -21.2751 -21.2705 -21.2664 -21.2623 -21.2536 -20.5718
   -20.5257 -20.5198 -20.5155 -20.5020 -20.4983 -20.4738 -19.5359 -18.6429
   -12.1358  -7.6719  -7.0062  -6.6751  -6.0574  -5.4641  -5.1619  -4.9072
    -4.2934  -3.2982  -0.7844   1.0028   1.6528   2.1058   2.9004   4.8792
     5.0635   6.0615

          k = 0.2399-0.4158 0.0000 ( 15891 PWs)   bands (ev):

   -69.6596 -68.8645 -36.5853 -36.2743 -36.2079 -35.7012 -35.4065 -35.4013
   -21.3394 -21.2805 -21.2749 -21.2702 -21.2668 -21.2629 -21.2539 -20.5753
   -20.5260 -20.5173 -20.5172 -20.5010 -20.4944 -20.4798 -19.5664 -18.6776
   -12.2927  -7.5878  -7.0185  -6.4802  -6.2624  -5.5042  -5.1197  -4.9003
    -4.1337  -3.2830  -1.0525   0.7125   1.6221   2.6802   3.1767   4.4533
     4.8383   5.4127

          k = 0.2398-0.3234 0.0000 ( 15917 PWs)   bands (ev):

   -69.6672 -68.8718 -36.5411 -36.2457 -36.1585 -35.6590 -35.4202 -35.3072
   -21.3504 -21.2784 -21.2771 -21.2681 -21.2661 -21.2626 -21.2554 -20.5816
   -20.5250 -20.5185 -20.5145 -20.5017 -20.4914 -20.4859 -19.6237 -18.7419
   -12.5338  -7.5377  -6.9934  -6.4655  -6.0244  -5.6991  -5.1727  -4.5848
    -4.1865  -3.1489  -1.2941   0.5251   1.5935   2.7258   3.3522   4.0320
     4.2769   4.8130

          k = 0.2398-0.2310 0.0000 ( 15897 PWs)   bands (ev):

   -69.6759 -68.8803 -36.4558 -36.2769 -36.0700 -35.5842 -35.4356 -35.2254
   -21.3638 -21.2811 -21.2729 -21.2706 -21.2659 -21.2608 -21.2544 -20.5898
   -20.5226 -20.5188 -20.5123 -20.5047 -20.5015 -20.4788 -19.6965 -18.8224
   -12.7614  -7.6153  -6.7919  -6.5140  -5.9585  -5.6521  -5.0002  -4.5279
    -4.1386  -2.9913  -1.4597   0.5024   1.4455   2.3539   2.9547   3.5938
     4.1144   4.4780

          k = 0.2397-0.1386 0.0000 ( 15895 PWs)   bands (ev):

   -69.6835 -68.8876 -36.3511 -36.3046 -36.0236 -35.5039 -35.4357 -35.1821
   -21.3762 -21.2831 -21.2746 -21.2680 -21.2660 -21.2616 -21.2506 -20.5982
   -20.5210 -20.5183 -20.5107 -20.5094 -20.5082 -20.4726 -19.7654 -18.8968
   -12.9135  -7.6643  -6.7798  -6.2966  -6.1744  -5.4349  -4.8385  -4.6435
    -3.9591  -2.8719  -1.4643   0.6443   1.0331   2.0481   2.6766   3.1107
     4.0702   4.2765

          k = 0.2396-0.0462 0.0000 ( 15911 PWs)   bands (ev):

   -69.6879 -68.8919 -36.3245 -36.2642 -36.0199 -35.4820 -35.3906 -35.1767
   -21.3837 -21.2830 -21.2789 -21.2670 -21.2649 -21.2600 -21.2491 -20.6037
   -20.5216 -20.5167 -20.5139 -20.5103 -20.5092 -20.4693 -19.8075 -18.9412
   -12.9823  -7.6113  -6.9458  -6.3944  -5.9777  -5.1647  -4.8715  -4.5291
    -4.2090  -2.7967  -1.1075   0.3053   1.0904   1.9517   2.3423   2.9630
     3.9263   4.1259

          k = 0.2395 0.0462 0.0000 ( 15909 PWs)   bands (ev):

   -69.6879 -68.8919 -36.3242 -36.2643 -36.0198 -35.4821 -35.3910 -35.1759
   -21.3836 -21.2839 -21.2779 -21.2670 -21.2646 -21.2602 -21.2493 -20.6037
   -20.5216 -20.5167 -20.5139 -20.5103 -20.5092 -20.4693 -19.8076 -18.9414
   -12.9829  -7.6121  -6.9469  -6.3927  -5.9769  -5.1657  -4.8698  -4.5300
    -4.2046  -2.7989  -1.1106   0.3099   1.0917   1.9521   2.3418   2.9626
     3.9253   4.1265

          k = 0.3193 0.1848 0.0000 ( 15888 PWs)   bands (ev):

   -69.6718 -68.8763 -36.5408 -36.2615 -36.0663 -35.6587 -35.4306 -35.2207
   -21.3587 -21.2792 -21.2713 -21.2697 -21.2671 -21.2606 -21.2545 -20.5870
   -20.5250 -20.5164 -20.5131 -20.5031 -20.4965 -20.4811 -19.6746 -18.7894
   -12.6492  -7.9529  -6.7078  -6.2615  -6.1388  -5.6616  -4.9022  -4.8001
    -3.7547  -3.0398  -1.7322   0.6493   1.7583   2.4340   3.1121   3.8239
     4.2338   4.6312

          k = 0.3192 0.2772 0.0000 ( 15921 PWs)   bands (ev):

   -69.6658 -68.8706 -36.6102 -36.2406 -36.1152 -35.7184 -35.4195 -35.2653
   -21.3513 -21.2780 -21.2745 -21.2693 -21.2645 -21.2592 -21.2555 -20.5827
   -20.5270 -20.5153 -20.5148 -20.5009 -20.4892 -20.4854 -19.6336 -18.7392
   -12.4689  -8.0990  -6.7850  -6.3235  -5.9303  -5.6518  -5.2507  -4.6100
    -3.9455  -3.0330  -1.5900   0.6675   1.9587   2.7539   3.2953   3.9911
     4.4154   4.8657

          k = 0.3192 0.3696 0.0000 ( 15899 PWs)   bands (ev):

   -69.6598 -68.8648 -36.6289 -36.2294 -36.2063 -35.7368 -35.4076 -35.3569
   -21.3420 -21.2800 -21.2742 -21.2697 -21.2634 -21.2618 -21.2549 -20.5770
   -20.5273 -20.5170 -20.5153 -20.5006 -20.4927 -20.4800 -19.5813 -18.6851
   -12.2748  -8.0023  -6.9071  -6.4237  -5.8902  -5.6179  -5.3554  -4.5149
    -4.3327  -3.1047  -1.2224   0.7599   1.8744   2.7345   3.1874   4.3366
     4.6939   5.4587

          k = 0.3191 0.4620 0.0000 ( 15901 PWs)   bands (ev):

   -69.6554 -68.8605 -36.5877 -36.3531 -36.1943 -35.7116 -35.4692 -35.3977
   -21.3332 -21.2813 -21.2736 -21.2699 -21.2681 -21.2622 -21.2544 -20.5716
   -20.5258 -20.5196 -20.5156 -20.5022 -20.4982 -20.4739 -19.5362 -18.6433
   -12.1372  -7.6713  -7.0034  -6.6728  -6.0545  -5.4633  -5.1603  -4.9047
    -4.2897  -3.3028  -0.7838   0.9989   1.6475   2.0987   2.8969   4.8783
     5.0660   6.0582

          k = 0.3190 0.5544 0.0000 ( 15864 PWs)   bands (ev):

   -69.6538 -68.8589 -36.5183 -36.4563 -36.1858 -35.6782 -35.5360 -35.3944
   -21.3294 -21.2817 -21.2735 -21.2717 -21.2666 -21.2654 -21.2536 -20.5693
   -20.5234 -20.5222 -20.5157 -20.5032 -20.5004 -20.4717 -19.5182 -18.6276
   -12.0905  -7.3367  -7.0983  -6.9157  -5.9073  -5.7200  -5.1828  -4.6598
    -4.4207  -3.4144  -0.5167   1.3615   1.4180   1.5321   2.7808   5.0718
     5.5064   5.8474

          k = 0.3189 0.6468 0.0000 ( 15915 PWs)   bands (ev):

   -69.6553 -68.8604 -36.5900 -36.3521 -36.1938 -35.7124 -35.4695 -35.3975
   -21.3334 -21.2817 -21.2742 -21.2700 -21.2673 -21.2627 -21.2537 -20.5717
   -20.5258 -20.5197 -20.5156 -20.5021 -20.4982 -20.4739 -19.5360 -18.6431
   -12.1367  -7.6715  -7.0050  -6.6739  -6.0580  -5.4622  -5.1614  -4.9062
    -4.2906  -3.3007  -0.7844   1.0001   1.6473   2.1069   2.9004   4.8790
     5.0659   6.0597

          k = 0.3197-0.3696 0.0000 ( 15899 PWs)   bands (ev):

   -69.6597 -68.8646 -36.6312 -36.2308 -36.2039 -35.7377 -35.4073 -35.3578
   -21.3422 -21.2806 -21.2745 -21.2696 -21.2635 -21.2620 -21.2538 -20.5771
   -20.5273 -20.5171 -20.5152 -20.5005 -20.4928 -20.4799 -19.5810 -18.6847
   -12.2736  -8.0024  -6.9092  -6.4258  -5.8931  -5.6203  -5.3580  -4.5161
    -4.3338  -3.1020  -1.2222   0.7619   1.8727   2.7461   3.1922   4.3399
     4.6927   5.4604

          k = 0.3197-0.2772 0.0000 ( 15923 PWs)   bands (ev):

   -69.6657 -68.8704 -36.6122 -36.2403 -36.1149 -35.7190 -35.4192 -35.2669
   -21.3516 -21.2784 -21.2745 -21.2694 -21.2651 -21.2597 -21.2540 -20.5828
   -20.5269 -20.5153 -20.5149 -20.5008 -20.4891 -20.4856 -19.6333 -18.7387
   -12.4671  -8.0981  -6.7853  -6.3263  -5.9358  -5.6523  -5.2541  -4.6137
    -3.9470  -3.0293  -1.5887   0.6695   1.9564   2.7604   3.2989   3.9933
     4.4138   4.8678

          k = 0.3196-0.1848 0.0000 ( 15878 PWs)   bands (ev):

   -69.6716 -68.8762 -36.5424 -36.2610 -36.0666 -35.6588 -35.4303 -35.2225
   -21.3591 -21.2785 -21.2721 -21.2698 -21.2677 -21.2609 -21.2533 -20.5871
   -20.5249 -20.5163 -20.5132 -20.5031 -20.4964 -20.4813 -19.6743 -18.7889
   -12.6473  -7.9514  -6.7055  -6.2603  -6.1486  -5.6620  -4.9081  -4.8009
    -3.7595  -3.0338  -1.7300   0.6509   1.7556   2.4338   3.1125   3.8240
     4.2351   4.6320

          k = 0.3195-0.0924 0.0000 ( 15897 PWs)   bands (ev):

   -69.6761 -68.8804 -36.4526 -36.2764 -36.0724 -35.5823 -35.4357 -35.2257
   -21.3636 -21.2808 -21.2733 -21.2697 -21.2656 -21.2617 -21.2545 -20.5897
   -20.5227 -20.5187 -20.5122 -20.5050 -20.5015 -20.4787 -19.6970 -18.8229
   -12.7624  -7.6134  -6.7901  -6.5130  -5.9553  -5.6519  -5.0010  -4.5244
    -4.1399  -2.9893  -1.4565   0.4991   1.4481   2.3481   2.9500   3.6009
     4.1130   4.4740

          k = 0.3194-0.0000 0.0000 ( 15916 PWs)   bands (ev):

   -69.6777 -68.8820 -36.4048 -36.2830 -36.0891 -35.5440 -35.4353 -35.2392
   -21.3650 -21.2823 -21.2749 -21.2697 -21.2625 -21.2604 -21.2575 -20.5905
   -20.5219 -20.5198 -20.5119 -20.5055 -20.5033 -20.4780 -19.7037 -18.8348
   -12.8006  -7.2802  -7.0019  -6.6601  -5.9074  -5.5138  -4.9737  -4.6155
    -4.2700  -3.0118  -1.2087   0.3346   1.3887   2.3219   2.8784   3.5309
     4.0069   4.4183

          k = 0.3194 0.0924 0.0000 ( 15897 PWs)   bands (ev):

   -69.6761 -68.8805 -36.4517 -36.2770 -36.0720 -35.5826 -35.4359 -35.2243
   -21.3634 -21.2817 -21.2725 -21.2694 -21.2654 -21.2613 -21.2554 -20.5896
   -20.5227 -20.5188 -20.5121 -20.5049 -20.5016 -20.4786 -19.6971 -18.8232
   -12.7637  -7.6145  -6.7920  -6.5127  -5.9519  -5.6504  -4.9977  -4.5235
    -4.1366  -2.9934  -1.4589   0.5006   1.4495   2.3503   2.9498   3.6004
     4.1117   4.4737

          k = 0.3991 0.2310 0.0000 ( 15916 PWs)   bands (ev):

   -69.6632 -68.8680 -36.6773 -36.2339 -36.0974 -35.7741 -35.4156 -35.2499
   -21.3509 -21.2783 -21.2773 -21.2657 -21.2610 -21.2580 -21.2543 -20.5829
   -20.5289 -20.5157 -20.5125 -20.4993 -20.4865 -20.4851 -19.6342 -18.7259
   -12.3536  -8.4783  -6.6172  -6.2153  -6.1222  -5.5765  -5.0601  -4.9492
    -3.4814  -3.0894  -1.7804   0.8241   2.4551   2.7595   3.4253   3.8581
     4.6094   4.8688

          k = 0.3990 0.3234 0.0000 ( 15906 PWs)   bands (ev):

   -69.6599 -68.8649 -36.6982 -36.2230 -36.1413 -35.7914 -35.4092 -35.2891
   -21.3469 -21.2802 -21.2775 -21.2643 -21.2599 -21.2584 -21.2544 -20.5804
   -20.5294 -20.5169 -20.5121 -20.4990 -20.4897 -20.4803 -19.6102 -18.6991
   -12.2343  -8.5203  -6.7219  -6.2349  -5.9129  -5.5696  -5.4306  -4.6978
    -3.8169  -2.9789  -1.5739   0.8913   2.4221   2.8875   3.2837   4.0273
     4.6975   5.1913

          k = 0.3990 0.4158 0.0000 ( 15896 PWs)   bands (ev):

   -69.6571 -68.8621 -36.6603 -36.2423 -36.2061 -35.7638 -35.4036 -35.3750
   -21.3397 -21.2809 -21.2762 -21.2661 -21.2631 -21.2598 -21.2556 -20.5757
   -20.5280 -20.5182 -20.5134 -20.5007 -20.4944 -20.4762 -19.5688 -18.6663
   -12.1612  -8.1961  -6.9059  -6.3824  -5.8042  -5.5553  -5.4549  -4.4641
    -4.4479  -3.0579  -1.1563   0.9385   2.1440   2.4108   3.0303   4.4810
     4.8183   5.7816

          k = 0.3989 0.5082 0.0000 ( 15911 PWs)   bands (ev):

   -69.6555 -68.8605 -36.5855 -36.3544 -36.1947 -35.7104 -35.4697 -35.3978
   -21.3332 -21.2809 -21.2735 -21.2704 -21.2680 -21.2614 -21.2552 -20.5715
   -20.5258 -20.5196 -20.5155 -20.5023 -20.4981 -20.4740 -19.5363 -18.6435
   -12.1378  -7.6701  -7.0023  -6.6725  -6.0502  -5.4671  -5.1592  -4.9020
    -4.2913  -3.3028  -0.7810   1.0025   1.6539   2.0808   2.8904   4.8814
     5.0626   6.0561

          k = 0.3988 0.6006 0.0000 ( 15895 PWs)   bands (ev):

   -69.6554 -68.8605 -36.5865 -36.3540 -36.1946 -35.7106 -35.4701 -35.3977
   -21.3333 -21.2809 -21.2743 -21.2711 -21.2669 -21.2614 -21.2551 -20.5716
   -20.5258 -20.5196 -20.5155 -20.5022 -20.4982 -20.4739 -19.5362 -18.6434
   -12.1374  -7.6699  -7.0035  -6.6736  -6.0500  -5.4683  -5.1596  -4.9027
    -4.2927  -3.3010  -0.7803   1.0044   1.6567   2.0802   2.8901   4.8812
     5.0623   6.0542

          k = 0.3988 0.6930 0.0000 ( 15898 PWs)   bands (ev):

   -69.6570 -68.8620 -36.6621 -36.2424 -36.2054 -35.7643 -35.4034 -35.3762
   -21.3400 -21.2810 -21.2769 -21.2667 -21.2628 -21.2593 -21.2549 -20.5759
   -20.5280 -20.5183 -20.5134 -20.5006 -20.4945 -20.4761 -19.5686 -18.6660
   -12.1600  -8.1955  -6.9089  -6.3835  -5.8056  -5.5572  -5.4584  -4.4669
    -4.4479  -3.0550  -1.1547   0.9420   2.1485   2.4129   3.0316   4.4816
     4.8189   5.7820

          k = 0.3996-0.3234 0.0000 ( 15902 PWs)   bands (ev):

   -69.6598 -68.8647 -36.7001 -36.2227 -36.1413 -35.7919 -35.4088 -35.2909
   -21.3472 -21.2807 -21.2777 -21.2648 -21.2607 -21.2578 -21.2530 -20.5806
   -20.5294 -20.5170 -20.5120 -20.4989 -20.4899 -20.4802 -19.6099 -18.6986
   -12.2324  -8.5190  -6.7246  -6.2370  -5.9179  -5.5701  -5.4339  -4.7021
    -3.8180  -2.9755  -1.5720   0.8948   2.4210   2.8974   3.2866   4.0304
     4.6971   5.1921

          k = 0.3995-0.2310 0.0000 ( 15919 PWs)   bands (ev):

   -69.6630 -68.8678 -36.6791 -36.2334 -36.0979 -35.7745 -35.4152 -35.2519
   -21.3513 -21.2790 -21.2772 -21.2661 -21.2612 -21.2584 -21.2527 -20.5831
   -20.5289 -20.5158 -20.5124 -20.4993 -20.4867 -20.4850 -19.6339 -18.7254
   -12.3514  -8.4766  -6.6164  -6.2260  -6.1222  -5.5764  -5.0616  -4.9557
    -3.4860  -3.0829  -1.7782   0.8275   2.4566   2.7619   3.4279   3.8593
     4.6089   4.8704

          k = 0.3994-0.1386 0.0000 ( 15919 PWs)   bands (ev):

   -69.6658 -68.8705 -36.6099 -36.2396 -36.1171 -35.7174 -35.4194 -35.2674
   -21.3515 -21.2777 -21.2743 -21.2700 -21.2650 -21.2593 -21.2547 -20.5827
   -20.5269 -20.5151 -20.5148 -20.5010 -20.4892 -20.4855 -19.6335 -18.7390
   -12.4677  -8.0955  -6.7883  -6.3193  -5.9338  -5.6526  -5.2546  -4.6122
    -3.9492  -3.0266  -1.5857   0.6707   1.9713   2.7329   3.2869   3.9873
     4.4231   4.8628

          k = 0.3993-0.0462 0.0000 ( 15921 PWs)   bands (ev):

   -69.6674 -68.8721 -36.5354 -36.2438 -36.1640 -35.6557 -35.4206 -35.3078
   -21.3500 -21.2790 -21.2739 -21.2702 -21.2662 -21.2615 -21.2568 -20.5814
   -20.5251 -20.5183 -20.5143 -20.5021 -20.4915 -20.4858 -19.6243 -18.7427
   -12.5356  -7.5334  -6.9913  -6.4609  -6.0222  -5.6968  -5.1713  -4.5819
    -4.1876  -3.1477  -1.2885   0.5244   1.6003   2.6981   3.3408   4.0237
     4.2897   4.8028

          k = 0.3993 0.0462 0.0000 ( 15923 PWs)   bands (ev):

   -69.6675 -68.8721 -36.5349 -36.2442 -36.1637 -35.6558 -35.4207 -35.3070
   -21.3499 -21.2791 -21.2740 -21.2700 -21.2655 -21.2617 -21.2572 -20.5813
   -20.5251 -20.5184 -20.5143 -20.5021 -20.4915 -20.4858 -19.6244 -18.7428
   -12.5362  -7.5343  -6.9907  -6.4617  -6.0208  -5.6955  -5.1694  -4.5820
    -4.1857  -3.1499  -1.2898   0.5245   1.5997   2.6997   3.3410   4.0244
     4.2887   4.8024

          k = 0.3992 0.1386 0.0000 ( 15919 PWs)   bands (ev):

   -69.6659 -68.8706 -36.6087 -36.2402 -36.1166 -35.7173 -35.4197 -35.2657
   -21.3512 -21.2777 -21.2743 -21.2695 -21.2646 -21.2588 -21.2560 -20.5826
   -20.5270 -20.5152 -20.5148 -20.5010 -20.4892 -20.4854 -19.6337 -18.7394
   -12.4694  -8.0972  -6.7871  -6.3189  -5.9294  -5.6514  -5.2515  -4.6093
    -3.9470  -3.0308  -1.5880   0.6688   1.9686   2.7365   3.2868   3.9878
     4.4218   4.8617

          k =-0.4789-0.2772 0.0000 ( 15922 PWs)   bands (ev):

   -69.6600 -68.8649 -36.7265 -36.2262 -36.1088 -35.8134 -35.4100 -35.2605
   -21.3491 -21.2802 -21.2787 -21.2635 -21.2579 -21.2565 -21.2533 -20.5820
   -20.5304 -20.5169 -20.5109 -20.4979 -20.4882 -20.4805 -19.6246 -18.7060
   -12.2130  -8.7220  -6.5183  -6.2583  -6.0743  -5.6127  -5.1439  -4.9620
    -3.3651  -3.0765  -1.7707   0.9658   2.7554   2.9249   3.5692   3.7281
     4.7431   4.9284

          k =-0.4790-0.1848 0.0000 ( 15904 PWs)   bands (ev):

   -69.6600 -68.8649 -36.6976 -36.2227 -36.1419 -35.7910 -35.4093 -35.2892
   -21.3469 -21.2796 -21.2780 -21.2647 -21.2593 -21.2577 -21.2554 -20.5804
   -20.5294 -20.5169 -20.5120 -20.4991 -20.4897 -20.4803 -19.6102 -18.6991
   -12.2345  -8.5195  -6.7238  -6.2315  -5.9115  -5.5716  -5.4301  -4.6977
    -3.8175  -2.9781  -1.5730   0.8928   2.4395   2.8640   3.2795   4.0251
     4.7001   5.1899

          k =-0.4791-0.0924 0.0000 ( 15888 PWs)   bands (ev):

   -69.6599 -68.8648 -36.6266 -36.2259 -36.2113 -35.7353 -35.4078 -35.3574
   -21.3419 -21.2792 -21.2748 -21.2700 -21.2634 -21.2603 -21.2563 -20.5769
   -20.5273 -20.5170 -20.5152 -20.5008 -20.4926 -20.4801 -19.5814 -18.6853
   -12.2755  -8.0001  -6.9087  -6.4193  -5.8885  -5.6153  -5.3566  -4.5138
    -4.3354  -3.1034  -1.2189   0.7632   1.8853   2.7086   3.1768   4.3341
     4.6954   5.4556

          k =-0.4792 0.0000 0.0000 ( 15906 PWs)   bands (ev):

   -69.6599 -68.8648 -36.5783 -36.2754 -36.2114 -35.6976 -35.4070 -35.4017
   -21.3391 -21.2789 -21.2749 -21.2698 -21.2682 -21.2608 -21.2564 -20.5750
   -20.5261 -20.5172 -20.5170 -20.5014 -20.4942 -20.4800 -19.5670 -18.6783
   -12.2948  -7.5852  -7.0134  -6.4759  -6.2568  -5.5038  -5.1168  -4.8979
    -4.1331  -3.2852  -1.0459   0.7142   1.6277   2.6426   3.1593   4.4515
     4.8379   5.4069

          k =-0.4792 0.0924 0.0000 ( 15901 PWs)   bands (ev):

   -69.6598 -68.8647 -36.6277 -36.2251 -36.2120 -35.7354 -35.4076 -35.3586
   -21.3421 -21.2791 -21.2755 -21.2705 -21.2628 -21.2600 -21.2561 -20.5770
   -20.5273 -20.5170 -20.5151 -20.5008 -20.4927 -20.4800 -19.5813 -18.6851
   -12.2745  -7.9989  -6.9115  -6.4192  -5.8897  -5.6159  -5.3601  -4.5142
    -4.3380  -3.1005  -1.2168   0.7656   1.8893   2.7061   3.1759   4.3331
     4.6965   5.4557

          k =-0.4793 0.1848 0.0000 ( 15904 PWs)   bands (ev):

   -69.6598 -68.8647 -36.6993 -36.2221 -36.1423 -35.7913 -35.4089 -35.2911
   -21.3472 -21.2797 -21.2786 -21.2655 -21.2595 -21.2572 -21.2542 -20.5806
   -20.5294 -20.5170 -20.5119 -20.4990 -20.4898 -20.4802 -19.6100 -18.6987
   -12.2327  -8.5179  -6.7274  -6.2321  -5.9156  -5.5733  -5.4329  -4.7019
    -3.8187  -2.9744  -1.5707   0.8970   2.4479   2.8606   3.2805   4.0258
     4.7011   5.1905

          k =-0.4785-0.8317 0.0000 ( 15918 PWs)   bands (ev):

   -69.6598 -68.8647 -36.7283 -36.2257 -36.1093 -35.8138 -35.4096 -35.2626
   -21.3495 -21.2807 -21.2790 -21.2642 -21.2584 -21.2562 -21.2518 -20.5822
   -20.5303 -20.5169 -20.5108 -20.4979 -20.4884 -20.4804 -19.6244 -18.7055
   -12.2108  -8.7202  -6.5186  -6.2691  -6.0731  -5.6134  -5.1457  -4.9688
    -3.3697  -3.0696  -1.7684   0.9703   2.7576   2.9308   3.5722   3.7300
     4.7423   4.9300

     the Fermi energy is    -0.2547 ev

!    total energy              =   -1438.35616909 Ry
     estimated scf accuracy    <          3.1E-13 Ry
     smearing contrib. (-TS)   =       0.00000065 Ry
     internal energy E=F+TS    =   -1438.35616973 Ry

     The total energy is F=E-TS. E is the sum of the following terms:
     one-electron contribution =  -14107.01698225 Ry
     hartree contribution      =    7084.40878327 Ry
     xc contribution           =    -153.69909396 Ry
     ewald contribution        =    5737.95112321 Ry

     convergence has been achieved in  27 iterations

     negative rho (up, down):  1.473E-04 0.000E+00

     Forces acting on atoms (cartesian axes, Ry/au):

     atom    1 type  2   force =    -0.00029581   -0.00012246   -0.00010689
     atom    2 type  1   force =     0.00006949   -0.00004360   -0.00000687
     atom    3 type  1   force =     0.00016684   -0.00018028    0.00005149
     atom    4 type  3   force =     0.00003544    0.00030416    0.00010124
     atom    5 type  3   force =     0.00002404    0.00004218   -0.00003897

     Total force =     0.000540     Total SCF correction =     0.000003


     Computing stress (Cartesian axis) and pressure


     negative rho (up, down):  1.473E-04 0.000E+00
          total   stress  (Ry/bohr**3)                   (kbar)     P=       -0.35
  -0.00000276  -0.00000090   0.00000015           -0.41       -0.13        0.02
  -0.00000090   0.00000222   0.00000052           -0.13        0.33        0.08
   0.00000015   0.00000052  -0.00000657            0.02        0.08       -0.97


     BFGS Geometry Optimization
     Energy error            =      0.0E+00 Ry
     Gradient error          =      3.0E-04 Ry/Bohr

     bfgs converged in   1 scf cycles and   0 bfgs steps
     (criteria: energy <  1.0E-04 Ry, force <  1.0E-03 Ry/Bohr)

     End of BFGS Geometry Optimization

     Final energy             =   -1438.3561690863 Ry
Begin final coordinates

ATOMIC_POSITIONS (alat)
C            -0.1376285000        0.0180317000        0.0193959000
Ta            0.3841511000        0.3192090000       -0.4303689000
Ta           -0.1376464000        0.6197159000        0.4272142000
O             0.3845753000        0.3202170000        0.8049305000
O            -0.1374362000        0.0185582000       -0.8211192000
End final coordinates



     Writing output data file /scratch/as3359/Ta2CO2_loop/Ta.save/
 
     init_run     :     27.96s CPU     17.51s WALL (       1 calls)
     electrons    :    874.71s CPU    452.20s WALL (       1 calls)
     forces       :     12.30s CPU      6.32s WALL (       1 calls)
     stress       :     38.41s CPU     19.75s WALL (       1 calls)

     Called by init_run:
     wfcinit      :     10.96s CPU      5.63s WALL (       1 calls)
     potinit      :      5.46s CPU      3.33s WALL (       1 calls)
     hinit0       :      9.56s CPU      7.31s WALL (       1 calls)

     Called by electrons:
     c_bands      :    664.77s CPU    337.32s WALL (      27 calls)
     sum_band     :    157.28s CPU     84.20s WALL (      27 calls)
     v_of_rho     :      7.56s CPU      4.03s WALL (      28 calls)
     newd         :     45.24s CPU     26.79s WALL (      28 calls)
     mix_rho      :      1.19s CPU      0.65s WALL (      27 calls)

     Called by c_bands:
     init_us_2    :     14.90s CPU      7.47s WALL (    4218 calls)
     cegterg      :    611.76s CPU    310.64s WALL (    1998 calls)

     Called by *egterg:
     cdiaghg      :     26.32s CPU     13.47s WALL (    9300 calls)
     h_psi        :    460.95s CPU    234.77s WALL (    9374 calls)
     s_psi        :     24.00s CPU     12.02s WALL (    9374 calls)
     g_psi        :      3.85s CPU      1.93s WALL (    7302 calls)

     Called by h_psi:
     h_psi:calbec :     22.84s CPU     11.49s WALL (    9374 calls)
     vloc_psi     :    408.21s CPU    208.28s WALL (    9374 calls)
     add_vuspsi   :     26.08s CPU     13.07s WALL (    9374 calls)

     General routines
     calbec       :     31.80s CPU     15.99s WALL (   11742 calls)
     fft          :      5.01s CPU      3.30s WALL (     387 calls)
     ffts         :      0.16s CPU      0.08s WALL (      55 calls)
     fftw         :    422.47s CPU    215.53s WALL (  500810 calls)
     interpolate  :      0.41s CPU      0.22s WALL (      28 calls)
 
     Parallel routines
 
     PWSCF        :  15m56.44s CPU   8m18.76s WALL

 
   This run was terminated on:  10:13: 4  24Mar2022            

=------------------------------------------------------------------------------=
   JOB DONE.
=------------------------------------------------------------------------------=
