
     Program PWSCF v.6.8 starts on 24Mar2022 at  9:33:27 

     This program is part of the open-source Quantum ESPRESSO suite
     for quantum simulation of materials; please cite
         "P. Giannozzi et al., J. Phys.:Condens. Matter 21 395502 (2009);
         "P. Giannozzi et al., J. Phys.:Condens. Matter 29 465901 (2017);
         "P. Giannozzi et al., J. Chem. Phys. 152 154105 (2020);
          URL http://www.quantum-espresso.org", 
     in publications or presentations arising from this work. More details at
     http://www.quantum-espresso.org/quote

     Parallel version (MPI & OpenMP), running on       4 processor cores
     Number of MPI processes:                 2
     Threads/MPI process:                     2

     MPI processes distributed on     1 nodes
     R & G space division:  proc/nbgrp/npool/nimage =       2
     125179 MiB available memory on the printing compute node when the environment starts
 
     Reading input from Ta2CO2.vcrelax.in

     Current dimensions of program PWSCF are:
     Max number of different atomic species (ntypx) = 10
     Max number of k-points (npk) =  40000
     Max angular momentum in pseudopotentials (lmaxx) =  4
     file Ta.pbesol-spfn-rrkjus_psl.1.0.0.UPF: wavefunction(s)  5S 5P renormalized

     Subspace diagonalization in iterative solution of the eigenvalue problem:
     a serial algorithm will be used

 
     Parallelization info
     --------------------
     sticks:   dense  smooth     PW     G-vecs:    dense   smooth      PW
     Min         812     324     99               251735    63740   11435
     Max         813     325    100               251740    63771   11474
     Sum        1625     649    199               503475   127511   22909
 
     Using Slab Decomposition
 


     bravais-lattice index     =            0
     lattice parameter (alat)  =       5.5500  a.u.
     unit-cell volume          =    1608.7888 (a.u.)^3
     number of atoms/cell      =            5
     number of atomic types    =            3
     number of electrons       =        70.00
     number of Kohn-Sham states=           42
     kinetic-energy cutoff     =      70.0000  Ry
     charge density cutoff     =     700.0000  Ry
     scf convergence threshold =      1.0E-12
     mixing beta               =       0.7000
     number of iterations used =            8  plain     mixing
     energy convergence thresh.=      1.0E-04
     force convergence thresh. =      1.0E-03
     press convergence thresh. =      5.0E-01
     Exchange-correlation= PBESOL
                           (   1   4  10   8   0   0   0)
     nstep                     =           50


     celldm(1)=   5.550000  celldm(2)=   0.000000  celldm(3)=   0.000000
     celldm(4)=   0.000000  celldm(5)=   0.000000  celldm(6)=   0.000000

     crystal axes: (cart. coord. in units of alat)
               a(1) = (   1.043732   0.000891   0.000000 )  
               a(2) = (  -0.521795   0.901190   0.000000 )  
               a(3) = (   0.000000   0.000000  10.000000 )  

     reciprocal axes: (cart. coord. in units 2 pi/alat)
               b(1) = (  0.957627  0.554472  0.000000 )  
               b(2) = ( -0.000947  1.109096  0.000000 )  
               b(3) = (  0.000000  0.000000  0.100000 )  


     PseudoPot. # 1 for Ta read from file:
     /shared/home/as3359/pseudo/Ta.pbesol-spfn-rrkjus_psl.1.0.0.UPF
     MD5 check sum: f099565ffaca9b150a52e9412a28e20b
     Pseudo is Ultrasoft + core correction, Zval = 27.0
     Generated using &quot;atomic&quot; code by A. Dal Corso  v.6.3
     Using radial grid of 1273 points,  8 beta functions with: 
                l(1) =   0
                l(2) =   0
                l(3) =   1
                l(4) =   1
                l(5) =   2
                l(6) =   2
                l(7) =   3
                l(8) =   3
     Q(r) pseudized with 0 coefficients 


     PseudoPot. # 2 for C  read from file:
     /shared/home/as3359/pseudo/C.pbesol-n-rrkjus_psl.1.0.0.UPF
     MD5 check sum: 05995be603a8a7c99da3dc4413f31573
     Pseudo is Ultrasoft + core correction, Zval =  4.0
     Generated using &quot;atomic&quot; code by A. Dal Corso  v.6.3MaX
     Using radial grid of 1073 points,  4 beta functions with: 
                l(1) =   0
                l(2) =   0
                l(3) =   1
                l(4) =   1
     Q(r) pseudized with 0 coefficients 


     PseudoPot. # 3 for O  read from file:
     /shared/home/as3359/pseudo/O.pbesol-n-rrkjus_psl.1.0.0.UPF
     MD5 check sum: dd9bad2534826f832ffc9296591fc5de
     Pseudo is Ultrasoft + core correction, Zval =  6.0
     Generated using &quot;atomic&quot; code by A. Dal Corso  v.6.3MaX
     Using radial grid of 1095 points,  4 beta functions with: 
                l(1) =   0
                l(2) =   0
                l(3) =   1
                l(4) =   1
     Q(r) pseudized with 0 coefficients 


     atomic species   valence    mass     pseudopotential
        Ta            27.00   180.94788     Ta( 1.00)
        C              4.00    12.01070     C ( 1.00)
        O              6.00    15.99940     O ( 1.00)

     No symmetry found



   Cartesian axes

     site n.     atom                  positions (alat units)
         1           C   tau(   1) = (  -0.1376599   0.0180187   0.0193959  )
         2           Ta  tau(   2) = (   0.3842019   0.3193411  -0.4303562  )
         3           Ta  tau(   3) = (  -0.1377470   0.6197475   0.4271741  )
         4           O   tau(   4) = (   0.3846711   0.3199349   0.8048845  )
         5           O   tau(   5) = (  -0.1374755   0.0184454  -0.8210983  )

     number of k points=    74  Marzari-Vanderbilt smearing, width (Ry)=  0.0010
                       cart. coord. in units 2pi/alat
        k(    1) = (   0.0000000   0.0000000   0.0000000), wk =   0.0138889
        k(    2) = (  -0.0000789   0.0924246   0.0000000), wk =   0.0277778
        k(    3) = (  -0.0001578   0.1848493   0.0000000), wk =   0.0277778
        k(    4) = (  -0.0002367   0.2772739   0.0000000), wk =   0.0277778
        k(    5) = (  -0.0003157   0.3696985   0.0000000), wk =   0.0277778
        k(    6) = (  -0.0003946   0.4621232   0.0000000), wk =   0.0277778
        k(    7) = (   0.0004735  -0.5545478   0.0000000), wk =   0.0138889
        k(    8) = (   0.0798022   0.0462060   0.0000000), wk =   0.0277778
        k(    9) = (   0.0797233   0.1386307   0.0000000), wk =   0.0277778
        k(   10) = (   0.0796444   0.2310553   0.0000000), wk =   0.0277778
        k(   11) = (   0.0795655   0.3234799   0.0000000), wk =   0.0277778
        k(   12) = (   0.0794866   0.4159046   0.0000000), wk =   0.0277778
        k(   13) = (   0.0794077   0.5083292   0.0000000), wk =   0.0277778
        k(   14) = (   0.0802757  -0.5083418   0.0000000), wk =   0.0277778
        k(   15) = (   0.0801968  -0.4159171   0.0000000), wk =   0.0277778
        k(   16) = (   0.0801179  -0.3234925   0.0000000), wk =   0.0277778
        k(   17) = (   0.0800390  -0.2310679   0.0000000), wk =   0.0277778
        k(   18) = (   0.0799601  -0.1386432   0.0000000), wk =   0.0277778
        k(   19) = (   0.0798811  -0.0462186   0.0000000), wk =   0.0277778
        k(   20) = (   0.1596045   0.0924121   0.0000000), wk =   0.0277778
        k(   21) = (   0.1595256   0.1848367   0.0000000), wk =   0.0277778
        k(   22) = (   0.1594466   0.2772613   0.0000000), wk =   0.0277778
        k(   23) = (   0.1593677   0.3696860   0.0000000), wk =   0.0277778
        k(   24) = (   0.1592888   0.4621106   0.0000000), wk =   0.0277778
        k(   25) = (   0.1592099   0.5545352   0.0000000), wk =   0.0277778
        k(   26) = (   0.1600779  -0.4621357   0.0000000), wk =   0.0277778
        k(   27) = (   0.1599990  -0.3697111   0.0000000), wk =   0.0277778
        k(   28) = (   0.1599201  -0.2772865   0.0000000), wk =   0.0277778
        k(   29) = (   0.1598412  -0.1848618   0.0000000), wk =   0.0277778
        k(   30) = (   0.1597623  -0.0924372   0.0000000), wk =   0.0277778
        k(   31) = (   0.1596834  -0.0000126   0.0000000), wk =   0.0277778
        k(   32) = (   0.2394067   0.1386181   0.0000000), wk =   0.0277778
        k(   33) = (   0.2393278   0.2310427   0.0000000), wk =   0.0277778
        k(   34) = (   0.2392489   0.3234674   0.0000000), wk =   0.0277778
        k(   35) = (   0.2391700   0.4158920   0.0000000), wk =   0.0277778
        k(   36) = (   0.2390910   0.5083166   0.0000000), wk =   0.0277778
        k(   37) = (   0.2390121   0.6007413   0.0000000), wk =   0.0277778
        k(   38) = (   0.2398802  -0.4159297   0.0000000), wk =   0.0277778
        k(   39) = (   0.2398013  -0.3235051   0.0000000), wk =   0.0277778
        k(   40) = (   0.2397223  -0.2310804   0.0000000), wk =   0.0277778
        k(   41) = (   0.2396434  -0.1386558   0.0000000), wk =   0.0277778
        k(   42) = (   0.2395645  -0.0462312   0.0000000), wk =   0.0277778
        k(   43) = (   0.2394856   0.0461935   0.0000000), wk =   0.0277778
        k(   44) = (   0.3192089   0.1848241   0.0000000), wk =   0.0277778
        k(   45) = (   0.3191300   0.2772488   0.0000000), wk =   0.0277778
        k(   46) = (   0.3190511   0.3696734   0.0000000), wk =   0.0277778
        k(   47) = (   0.3189722   0.4620980   0.0000000), wk =   0.0277778
        k(   48) = (   0.3188933   0.5545227   0.0000000), wk =   0.0277778
        k(   49) = (   0.3188144   0.6469473   0.0000000), wk =   0.0277778
        k(   50) = (   0.3196824  -0.3697237   0.0000000), wk =   0.0277778
        k(   51) = (   0.3196035  -0.2772990   0.0000000), wk =   0.0277778
        k(   52) = (   0.3195246  -0.1848744   0.0000000), wk =   0.0277778
        k(   53) = (   0.3194457  -0.0924498   0.0000000), wk =   0.0277778
        k(   54) = (   0.3193668  -0.0000251   0.0000000), wk =   0.0277778
        k(   55) = (   0.3192878   0.0923995   0.0000000), wk =   0.0277778
        k(   56) = (   0.3990112   0.2310302   0.0000000), wk =   0.0277778
        k(   57) = (   0.3989322   0.3234548   0.0000000), wk =   0.0277778
        k(   58) = (   0.3988533   0.4158794   0.0000000), wk =   0.0277778
        k(   59) = (   0.3987744   0.5083041   0.0000000), wk =   0.0277778
        k(   60) = (   0.3986955   0.6007287   0.0000000), wk =   0.0277778
        k(   61) = (   0.3986166   0.6931533   0.0000000), wk =   0.0277778
        k(   62) = (   0.3994846  -0.3235176   0.0000000), wk =   0.0277778
        k(   63) = (   0.3994057  -0.2310930   0.0000000), wk =   0.0277778
        k(   64) = (   0.3993268  -0.1386684   0.0000000), wk =   0.0277778
        k(   65) = (   0.3992479  -0.0462437   0.0000000), wk =   0.0277778
        k(   66) = (   0.3991690   0.0461809   0.0000000), wk =   0.0277778
        k(   67) = (   0.3990901   0.1386055   0.0000000), wk =   0.0277778
        k(   68) = (  -0.4788134  -0.2772362   0.0000000), wk =   0.0138889
        k(   69) = (  -0.4788923  -0.1848116   0.0000000), wk =   0.0277778
        k(   70) = (  -0.4789712  -0.0923869   0.0000000), wk =   0.0277778
        k(   71) = (  -0.4790501   0.0000377   0.0000000), wk =   0.0277778
        k(   72) = (  -0.4791290   0.0924623   0.0000000), wk =   0.0277778
        k(   73) = (  -0.4792080   0.1848870   0.0000000), wk =   0.0277778
        k(   74) = (  -0.4783399  -0.8317840   0.0000000), wk =   0.0138889

     Dense  grid:   503475 G-vectors     FFT dimensions: (  50,  50, 480)

     Smooth grid:   127511 G-vectors     FFT dimensions: (  32,  32, 300)

     Estimated max dynamical RAM per process >       2.75 GB

     Estimated total dynamical RAM >       5.51 GB

     Initial potential from superposition of free atoms

     starting charge   69.99841, renormalised to   70.00000

     negative rho (up, down):  1.350E-04 0.000E+00
     Starting wfcs are   46 randomized atomic wfcs

     total cpu time spent up to now is       25.6 secs

     Self-consistent Calculation

     iteration #  1     ecut=    70.00 Ry     beta= 0.70
     Davidson diagonalization with overlap
     ethr =  1.00E-02,  avg # of iterations =  2.0

     total cpu time spent up to now is       41.1 secs

     WARNING: integrated charge=    70.00058655, expected=    70.00000000

     total energy              =   -1437.39834742 Ry
     estimated scf accuracy    <       1.65383594 Ry

     iteration #  2     ecut=    70.00 Ry     beta= 0.70
     Davidson diagonalization with overlap
     ethr =  2.36E-03,  avg # of iterations =  5.1

     negative rho (up, down):  2.958E-06 0.000E+00

     total cpu time spent up to now is       62.0 secs

     WARNING: integrated charge=    70.00052509, expected=    70.00000000

     total energy              =   -1434.64118038 Ry
     estimated scf accuracy    <      27.46354687 Ry

     iteration #  3     ecut=    70.00 Ry     beta= 0.70
     Davidson diagonalization with overlap
     ethr =  2.36E-03,  avg # of iterations =  7.6

     negative rho (up, down):  4.560E-06 0.000E+00

     total cpu time spent up to now is       84.8 secs

     WARNING: integrated charge=    70.00045419, expected=    70.00000000

     total energy              =   -1433.39661502 Ry
     estimated scf accuracy    <     110.00135949 Ry

     iteration #  4     ecut=    70.00 Ry     beta= 0.70
     Davidson diagonalization with overlap
     ethr =  2.36E-03,  avg # of iterations =  7.1

     negative rho (up, down):  2.511E-07 0.000E+00

     total cpu time spent up to now is      106.3 secs

     WARNING: integrated charge=    70.00035120, expected=    70.00000000

     total energy              =   -1438.23389048 Ry
     estimated scf accuracy    <       1.45590283 Ry

     iteration #  5     ecut=    70.00 Ry     beta= 0.70
     Davidson diagonalization with overlap
     ethr =  2.08E-03,  avg # of iterations =  2.6

     negative rho (up, down):  1.916E-06 0.000E+00

     total cpu time spent up to now is      121.8 secs

     WARNING: integrated charge=    70.00070414, expected=    70.00000000

     total energy              =   -1438.33339689 Ry
     estimated scf accuracy    <       0.23216172 Ry

     iteration #  6     ecut=    70.00 Ry     beta= 0.70
     Davidson diagonalization with overlap
     ethr =  3.32E-04,  avg # of iterations =  7.5

     negative rho (up, down):  5.488E-06 0.000E+00

     total cpu time spent up to now is      142.2 secs

     WARNING: integrated charge=    70.00035210, expected=    70.00000000

     total energy              =   -1438.36255049 Ry
     estimated scf accuracy    <       0.06605326 Ry

     iteration #  7     ecut=    70.00 Ry     beta= 0.70
     Davidson diagonalization with overlap
     ethr =  9.44E-05,  avg # of iterations =  3.3

     negative rho (up, down):  4.027E-05 0.000E+00

     total cpu time spent up to now is      157.6 secs

     WARNING: integrated charge=    69.99958339, expected=    70.00000000

     total energy              =   -1438.35880016 Ry
     estimated scf accuracy    <       0.05356124 Ry

     iteration #  8     ecut=    70.00 Ry     beta= 0.70
     Davidson diagonalization with overlap
     ethr =  7.65E-05,  avg # of iterations =  2.6

     negative rho (up, down):  2.180E-04 0.000E+00

     total cpu time spent up to now is      173.2 secs

     WARNING: integrated charge=    69.99932516, expected=    70.00000000

     total energy              =   -1438.35710931 Ry
     estimated scf accuracy    <       0.04154721 Ry

     iteration #  9     ecut=    70.00 Ry     beta= 0.70
     Davidson diagonalization with overlap
     ethr =  5.94E-05,  avg # of iterations =  1.9
     Minimization algorithm failed to find Fermi energy: reverting to bisection
     Possible cause: smearing is larger than the electronic band-gap.

     negative rho (up, down):  2.298E-04 0.000E+00

     total cpu time spent up to now is      187.7 secs

     WARNING: integrated charge=    69.99963827, expected=    70.00000000

     total energy              =   -1438.35499384 Ry
     estimated scf accuracy    <       0.01785662 Ry

     iteration # 10     ecut=    70.00 Ry     beta= 0.70
     Davidson diagonalization with overlap
     ethr =  2.55E-05,  avg # of iterations =  2.9

     negative rho (up, down):  1.902E-04 0.000E+00

     total cpu time spent up to now is      203.2 secs

     WARNING: integrated charge=    69.99984993, expected=    70.00000000

     total energy              =   -1438.35540066 Ry
     estimated scf accuracy    <       0.00310995 Ry

     iteration # 11     ecut=    70.00 Ry     beta= 0.70
     Davidson diagonalization with overlap
     ethr =  4.44E-06,  avg # of iterations =  7.6

     negative rho (up, down):  1.909E-04 0.000E+00

     total cpu time spent up to now is      223.9 secs

     WARNING: integrated charge=    69.99986966, expected=    70.00000000

     total energy              =   -1438.35612882 Ry
     estimated scf accuracy    <       0.00059467 Ry

     iteration # 12     ecut=    70.00 Ry     beta= 0.70
     Davidson diagonalization with overlap
     ethr =  8.50E-07,  avg # of iterations =  2.2

     negative rho (up, down):  1.963E-04 0.000E+00

     total cpu time spent up to now is      238.8 secs

     WARNING: integrated charge=    70.00009280, expected=    70.00000000

     total energy              =   -1438.35607241 Ry
     estimated scf accuracy    <       0.00022748 Ry

     iteration # 13     ecut=    70.00 Ry     beta= 0.70
     Davidson diagonalization with overlap
     ethr =  3.25E-07,  avg # of iterations =  5.3

     negative rho (up, down):  1.577E-04 0.000E+00

     total cpu time spent up to now is      260.3 secs

     WARNING: integrated charge=    70.00002719, expected=    70.00000000

     total energy              =   -1438.35606082 Ry
     estimated scf accuracy    <       0.00130922 Ry

     iteration # 14     ecut=    70.00 Ry     beta= 0.70
     Davidson diagonalization with overlap
     ethr =  3.25E-07,  avg # of iterations =  4.2

     negative rho (up, down):  1.528E-04 0.000E+00

     total cpu time spent up to now is      277.4 secs

     total energy              =   -1438.35615054 Ry
     estimated scf accuracy    <       0.00004646 Ry

     iteration # 15     ecut=    70.00 Ry     beta= 0.70
     Davidson diagonalization with overlap
     ethr =  6.64E-08,  avg # of iterations =  4.9

     negative rho (up, down):  1.479E-04 0.000E+00

     total cpu time spent up to now is      295.6 secs

     total energy              =   -1438.35616379 Ry
     estimated scf accuracy    <       0.00001619 Ry

     iteration # 16     ecut=    70.00 Ry     beta= 0.70
     Davidson diagonalization with overlap
     ethr =  2.31E-08,  avg # of iterations =  2.0

     negative rho (up, down):  1.477E-04 0.000E+00

     total cpu time spent up to now is      310.3 secs

     total energy              =   -1438.35616513 Ry
     estimated scf accuracy    <       0.00000205 Ry

     iteration # 17     ecut=    70.00 Ry     beta= 0.70
     Davidson diagonalization with overlap
     ethr =  2.93E-09,  avg # of iterations =  2.3

     negative rho (up, down):  1.474E-04 0.000E+00

     total cpu time spent up to now is      325.7 secs

     total energy              =   -1438.35616526 Ry
     estimated scf accuracy    <       0.00000094 Ry

     iteration # 18     ecut=    70.00 Ry     beta= 0.70
     Davidson diagonalization with overlap
     ethr =  1.34E-09,  avg # of iterations =  1.9

     negative rho (up, down):  1.474E-04 0.000E+00

     total cpu time spent up to now is      340.2 secs

     total energy              =   -1438.35616517 Ry
     estimated scf accuracy    <       0.00000047 Ry

     iteration # 19     ecut=    70.00 Ry     beta= 0.70
     Davidson diagonalization with overlap
     ethr =  6.73E-10,  avg # of iterations =  2.8

     negative rho (up, down):  1.475E-04 0.000E+00

     total cpu time spent up to now is      355.9 secs

     total energy              =   -1438.35616524 Ry
     estimated scf accuracy    <       0.00000002 Ry

     iteration # 20     ecut=    70.00 Ry     beta= 0.70
     Davidson diagonalization with overlap
     ethr =  2.17E-11,  avg # of iterations =  7.5

     negative rho (up, down):  1.474E-04 0.000E+00

     total cpu time spent up to now is      378.4 secs

     total energy              =   -1438.35616526 Ry
     estimated scf accuracy    <       0.00000001 Ry

     iteration # 21     ecut=    70.00 Ry     beta= 0.70
     Davidson diagonalization with overlap
     ethr =  2.14E-11,  avg # of iterations =  1.6

     negative rho (up, down):  1.473E-04 0.000E+00

     total cpu time spent up to now is      392.7 secs

     total energy              =   -1438.35616526 Ry
     estimated scf accuracy    <          2.8E-09 Ry

     iteration # 22     ecut=    70.00 Ry     beta= 0.70
     Davidson diagonalization with overlap
     ethr =  3.96E-12,  avg # of iterations =  5.0

     negative rho (up, down):  1.473E-04 0.000E+00

     total cpu time spent up to now is      411.1 secs

     total energy              =   -1438.35616526 Ry
     estimated scf accuracy    <          8.5E-10 Ry

     iteration # 23     ecut=    70.00 Ry     beta= 0.70
     Davidson diagonalization with overlap
     ethr =  1.22E-12,  avg # of iterations =  1.3

     negative rho (up, down):  1.473E-04 0.000E+00

     total cpu time spent up to now is      425.1 secs

     total energy              =   -1438.35616526 Ry
     estimated scf accuracy    <          2.5E-10 Ry

     iteration # 24     ecut=    70.00 Ry     beta= 0.70
     Davidson diagonalization with overlap
     ethr =  3.63E-13,  avg # of iterations =  2.0

     negative rho (up, down):  1.473E-04 0.000E+00

     total cpu time spent up to now is      440.4 secs

     total energy              =   -1438.35616526 Ry
     estimated scf accuracy    <          1.1E-10 Ry

     iteration # 25     ecut=    70.00 Ry     beta= 0.70
     Davidson diagonalization with overlap
     ethr =  1.63E-13,  avg # of iterations =  2.9

     negative rho (up, down):  1.473E-04 0.000E+00

     total cpu time spent up to now is      456.3 secs

     total energy              =   -1438.35616526 Ry
     estimated scf accuracy    <          7.9E-12 Ry

     iteration # 26     ecut=    70.00 Ry     beta= 0.70
     Davidson diagonalization with overlap
     ethr =  1.00E-13,  avg # of iterations =  1.4

     negative rho (up, down):  1.473E-04 0.000E+00

     total cpu time spent up to now is      470.3 secs

     total energy              =   -1438.35616526 Ry
     estimated scf accuracy    <          2.5E-12 Ry

     iteration # 27     ecut=    70.00 Ry     beta= 0.70
     Davidson diagonalization with overlap
     ethr =  1.00E-13,  avg # of iterations =  1.6

     negative rho (up, down):  1.473E-04 0.000E+00

     total cpu time spent up to now is      484.5 secs

     End of self-consistent calculation

          k = 0.0000 0.0000 0.0000 ( 16009 PWs)   bands (ev):

   -69.7073 -68.9109 -36.4038 -35.9369 -35.9362 -35.5202 -35.1029 -35.0991
   -21.4261 -21.2870 -21.2779 -21.2772 -21.2577 -21.2553 -21.2326 -20.6433
   -20.5314 -20.5193 -20.5191 -20.5077 -20.5072 -20.4528 -20.0754 -19.1763
   -13.1462  -8.3426  -6.6578  -6.6325  -5.6356  -5.1213  -5.1012  -3.1304
    -3.1150  -2.7785  -0.2683  -0.2378   0.3682   1.6608   1.6850   2.2279
     3.5621   3.6079

          k =-0.0001 0.0924 0.0000 ( 15993 PWs)   bands (ev):

   -69.7041 -68.9078 -36.3906 -35.9955 -35.9482 -35.5112 -35.1517 -35.1139
   -21.4185 -21.2855 -21.2786 -21.2765 -21.2593 -21.2557 -21.2356 -20.6353
   -20.5292 -20.5194 -20.5179 -20.5089 -20.5081 -20.4558 -20.0240 -19.1346
   -13.1327  -8.2088  -6.7648  -6.5717  -5.6047  -5.1316  -5.0567  -3.5690
    -3.3635  -2.7032  -0.4981  -0.0370   0.5798   1.5423   1.7813   2.3962
     3.4635   3.7012

          k =-0.0002 0.1848 0.0000 ( 15937 PWs)   bands (ev):

   -69.6954 -68.8994 -36.3549 -36.1495 -35.9807 -35.4912 -35.2904 -35.1443
   -21.3993 -21.2824 -21.2803 -21.2726 -21.2635 -21.2571 -21.2430 -20.6168
   -20.5239 -20.5185 -20.5141 -20.5132 -20.5092 -20.4635 -19.8985 -19.0267
   -13.0700  -7.8730  -6.9180  -6.3674  -5.8673  -5.0304  -4.9115  -4.4172
    -3.7920  -2.6879  -0.9926   0.4363   0.7005   1.6539   2.1589   2.5979
     3.7452   3.9395

          k =-0.0002 0.2773 0.0000 ( 15895 PWs)   bands (ev):

   -69.6835 -68.8878 -36.3549 -36.3025 -36.0247 -35.5041 -35.4358 -35.1855
   -21.3766 -21.2817 -21.2754 -21.2690 -21.2674 -21.2619 -21.2496 -20.5986
   -20.5214 -20.5186 -20.5113 -20.5097 -20.5086 -20.4733 -19.7643 -18.8961
   -12.9120  -7.6616  -6.7756  -6.2910  -6.1862  -5.4315  -4.8472  -4.6406
    -3.9750  -2.8697  -1.4621   0.6439   1.0224   2.0510   2.6697   3.1128
     4.0782   4.2701

          k =-0.0003 0.3697 0.0000 ( 15863 PWs)   bands (ev):

   -69.6715 -68.8763 -36.5456 -36.2598 -36.0683 -35.6599 -35.4300 -35.2265
   -21.3596 -21.2779 -21.2720 -21.2705 -21.2688 -21.2629 -21.2514 -20.5877
   -20.5252 -20.5166 -20.5139 -20.5035 -20.4966 -20.4820 -19.6733 -18.7881
   -12.6447  -7.9485  -6.7026  -6.2555  -6.1622  -5.6600  -4.9184  -4.7994
    -3.7737  -3.0313  -1.7292   0.6539   1.7514   2.4341   3.1096   3.8268
     4.2399   4.6282

          k =-0.0004 0.4621 0.0000 ( 15908 PWs)   bands (ev):

   -69.6628 -68.8678 -36.6827 -36.2322 -36.1000 -35.7759 -35.4149 -35.2562
   -21.3518 -21.2797 -21.2778 -21.2664 -21.2610 -21.2601 -21.2506 -20.5837
   -20.5292 -20.5165 -20.5127 -20.4996 -20.4875 -20.4851 -19.6329 -18.7246
   -12.3480  -8.4742  -6.6140  -6.2413  -6.1213  -5.5715  -5.0623  -4.9667
    -3.4992  -3.0803  -1.7766   0.8347   2.4618   2.7623   3.4295   3.8607
     4.6102   4.8673

          k = 0.0005-0.5545 0.0000 ( 15918 PWs)   bands (ev):

   -69.6595 -68.8647 -36.7321 -36.2245 -36.1115 -35.8154 -35.4092 -35.2670
   -21.3499 -21.2810 -21.2803 -21.2646 -21.2600 -21.2555 -21.2500 -20.5829
   -20.5307 -20.5176 -20.5110 -20.4982 -20.4892 -20.4805 -19.6235 -18.7047
   -12.2069  -8.7182  -6.5172  -6.2851  -6.0704  -5.6098  -5.1476  -4.9801
    -3.3827  -3.0665  -1.7664   0.9800   2.7702   2.9303   3.5768   3.7293
     4.7411   4.9265

          k = 0.0798 0.0462 0.0000 ( 15991 PWs)   bands (ev):

   -69.7042 -68.9079 -36.3907 -35.9945 -35.9486 -35.5113 -35.1545 -35.1104
   -21.4184 -21.2860 -21.2787 -21.2759 -21.2582 -21.2567 -21.2356 -20.6353
   -20.5292 -20.5196 -20.5177 -20.5093 -20.5077 -20.4557 -20.0243 -19.1348
   -13.1331  -8.2097  -6.7818  -6.5505  -5.6095  -5.1439  -5.0403  -3.5834
    -3.3470  -2.7047  -0.5146  -0.0119   0.5784   1.5284   1.7993   2.3928
     3.4488   3.7186

          k = 0.0797 0.1386 0.0000 ( 15946 PWs)   bands (ev):

   -69.6982 -68.9021 -36.3662 -36.0980 -35.9734 -35.4969 -35.2457 -35.1354
   -21.4050 -21.2842 -21.2796 -21.2735 -21.2616 -21.2570 -21.2409 -20.6221
   -20.5253 -20.5196 -20.5151 -20.5121 -20.5086 -20.4610 -19.9358 -19.0600
   -13.0948  -7.9645  -6.9103  -6.4275  -5.7593  -5.0404  -4.9500  -4.1173
    -3.8097  -2.6710  -0.7225   0.0875   0.8396   1.6084   1.9480   2.5628
     3.6394   3.8575

          k = 0.0796 0.2311 0.0000 ( 15915 PWs)   bands (ev):

   -69.6879 -68.8921 -36.3251 -36.2665 -36.0194 -35.4821 -35.3914 -35.1790
   -21.3841 -21.2827 -21.2782 -21.2686 -21.2668 -21.2589 -21.2488 -20.6042
   -20.5220 -20.5170 -20.5142 -20.5107 -20.5098 -20.4699 -19.8066 -18.9407
   -12.9813  -7.6095  -6.9432  -6.3978  -5.9794  -5.1623  -4.8730  -4.5307
    -4.2204  -2.7963  -1.1069   0.2988   1.0891   1.9514   2.3374   2.9607
     3.9342   4.1216

          k = 0.0796 0.3235 0.0000 ( 15897 PWs)   bands (ev):

   -69.6760 -68.8806 -36.4567 -36.2756 -36.0724 -35.5838 -35.4357 -35.2286
   -21.3641 -21.2801 -21.2731 -21.2715 -21.2656 -21.2636 -21.2528 -20.5902
   -20.5230 -20.5191 -20.5128 -20.5053 -20.5018 -20.4794 -19.6959 -18.8222
   -12.7604  -7.6120  -6.7891  -6.5123  -5.9603  -5.6521  -5.0053  -4.5272
    -4.1494  -2.9893  -1.4582   0.4974   1.4455   2.3492   2.9504   3.5995
     4.1175   4.4741

          k = 0.0795 0.4159 0.0000 ( 15919 PWs)   bands (ev):

   -69.6656 -68.8706 -36.6141 -36.2388 -36.1178 -35.7193 -35.4191 -35.2708
   -21.3520 -21.2785 -21.2745 -21.2705 -21.2650 -21.2612 -21.2525 -20.5834
   -20.5272 -20.5156 -20.5154 -20.5013 -20.4895 -20.4862 -19.6326 -18.7382
   -12.4649  -8.0943  -6.7877  -6.3244  -5.9392  -5.6506  -5.2581  -4.6174
    -3.9569  -3.0269  -1.5877   0.6732   1.9674   2.7436   3.2925   3.9897
     4.4196   4.8654

          k = 0.0794 0.5083 0.0000 ( 15893 PWs)   bands (ev):

   -69.6596 -68.8647 -36.7033 -36.2212 -36.1437 -35.7931 -35.4086 -35.2949
   -21.3477 -21.2802 -21.2797 -21.2657 -21.2613 -21.2568 -21.2521 -20.5813
   -20.5297 -20.5176 -20.5122 -20.4993 -20.4906 -20.4804 -19.6092 -18.6979
   -12.2292  -8.5169  -6.7305  -6.2360  -5.9207  -5.5694  -5.4369  -4.7089
    -3.8261  -2.9743  -1.5714   0.9041   2.4457   2.8766   3.2853   4.0268
     4.6981   5.1903

          k = 0.0803-0.5083 0.0000 ( 15893 PWs)   bands (ev):

   -69.6596 -68.8647 -36.7036 -36.2214 -36.1433 -35.7933 -35.4085 -35.2948
   -21.3477 -21.2809 -21.2790 -21.2653 -21.2619 -21.2570 -21.2517 -20.5813
   -20.5297 -20.5176 -20.5123 -20.4993 -20.4906 -20.4804 -19.6092 -18.6979
   -12.2292  -8.5174  -6.7295  -6.2377  -5.9217  -5.5682  -5.4376  -4.7090
    -3.8260  -2.9745  -1.5719   0.9033   2.4348   2.8918   3.2874   4.0299
     4.6965   5.1906

          k = 0.0802-0.4159 0.0000 ( 15909 PWs)   bands (ev):

   -69.6656 -68.8705 -36.6150 -36.2391 -36.1168 -35.7199 -35.4190 -35.2707
   -21.3521 -21.2788 -21.2745 -21.2699 -21.2654 -21.2612 -21.2522 -20.5834
   -20.5272 -20.5157 -20.5154 -20.5012 -20.4894 -20.4862 -19.6324 -18.7381
   -12.4647  -8.0954  -6.7869  -6.3273  -5.9401  -5.6496  -5.2588  -4.6182
    -3.9562  -3.0275  -1.5888   0.6733   1.9616   2.7555   3.2960   3.9933
     4.4163   4.8666

          k = 0.0801-0.3235 0.0000 ( 15899 PWs)   bands (ev):

   -69.6759 -68.8805 -36.4580 -36.2759 -36.0714 -35.5845 -35.4356 -35.2285
   -21.3642 -21.2801 -21.2733 -21.2716 -21.2657 -21.2632 -21.2528 -20.5903
   -20.5230 -20.5191 -20.5129 -20.5052 -20.5018 -20.4795 -19.6957 -18.8220
   -12.7600  -7.6129  -6.7901  -6.5126  -5.9623  -5.6521  -5.0047  -4.5295
    -4.1486  -2.9893  -1.4594   0.5007   1.4437   2.3525   2.9501   3.5966
     4.1179   4.4758

          k = 0.0800-0.2311 0.0000 ( 15913 PWs)   bands (ev):

   -69.6879 -68.8921 -36.3249 -36.2682 -36.0185 -35.4820 -35.3917 -35.1794
   -21.3842 -21.2827 -21.2777 -21.2691 -21.2675 -21.2580 -21.2489 -20.6042
   -20.5221 -20.5169 -20.5143 -20.5107 -20.5098 -20.4700 -19.8064 -18.9405
   -12.9806  -7.6094  -6.9424  -6.3999  -5.9805  -5.1639  -4.8730  -4.5323
    -4.2203  -2.7948  -1.1082   0.3031   1.0864   1.9479   2.3360   2.9596
     3.9352   4.1214

          k = 0.0800-0.1386 0.0000 ( 15948 PWs)   bands (ev):

   -69.6982 -68.9021 -36.3661 -36.0992 -35.9727 -35.4968 -35.2452 -35.1366
   -21.4051 -21.2835 -21.2801 -21.2737 -21.2623 -21.2563 -21.2409 -20.6222
   -20.5253 -20.5195 -20.5151 -20.5120 -20.5088 -20.4611 -19.9357 -19.0598
   -13.0941  -7.9637  -6.9065  -6.4347  -5.7572  -5.0406  -4.9535  -4.1135
    -3.8137  -2.6687  -0.7194   0.0834   0.8376   1.6036   1.9489   2.5630
     3.6417   3.8549

          k = 0.0799-0.0462 0.0000 ( 15991 PWs)   bands (ev):

   -69.7042 -68.9079 -36.3907 -35.9950 -35.9482 -35.5113 -35.1533 -35.1118
   -21.4185 -21.2857 -21.2791 -21.2758 -21.2588 -21.2561 -21.2356 -20.6353
   -20.5292 -20.5195 -20.5178 -20.5092 -20.5078 -20.4557 -20.0242 -19.1348
   -13.1328  -8.2093  -6.7753  -6.5590  -5.6078  -5.1404  -5.0458  -3.5763
    -3.3545  -2.7036  -0.5067  -0.0225   0.5784   1.5299   1.7964   2.3945
     3.4522   3.7140

          k = 0.1596 0.0924 0.0000 ( 15929 PWs)   bands (ev):

   -69.6956 -68.8996 -36.3550 -36.1479 -35.9804 -35.4916 -35.2921 -35.1402
   -21.3990 -21.2852 -21.2782 -21.2719 -21.2615 -21.2589 -21.2432 -20.6168
   -20.5239 -20.5188 -20.5140 -20.5136 -20.5088 -20.4633 -19.8994 -19.0276
   -13.0716  -7.8764  -6.9284  -6.3473  -5.8752  -5.0385  -4.8973  -4.4277
    -3.7701  -2.6926  -1.0027   0.4595   0.7045   1.6445   2.1719   2.5953
     3.7302   3.9535

          k = 0.1595 0.1848 0.0000 ( 15915 PWs)   bands (ev):

   -69.6880 -68.8923 -36.3243 -36.2669 -36.0185 -35.4825 -35.3923 -35.1764
   -21.3839 -21.2845 -21.2765 -21.2686 -21.2661 -21.2588 -21.2495 -20.6042
   -20.5220 -20.5171 -20.5144 -20.5106 -20.5096 -20.4698 -19.8072 -18.9413
   -12.9825  -7.6120  -6.9473  -6.3933  -5.9781  -5.1672  -4.8697  -4.5334
    -4.2043  -2.7996  -1.1127   0.3087   1.0932   1.9484   2.3404   2.9599
     3.9300   4.1248

          k = 0.1594 0.2773 0.0000 ( 15920 PWs)   bands (ev):

   -69.6777 -68.8823 -36.4091 -36.2831 -36.0871 -35.5462 -35.4356 -35.2399
   -21.3654 -21.2826 -21.2735 -21.2717 -21.2644 -21.2598 -21.2565 -20.5910
   -20.5223 -20.5203 -20.5125 -20.5057 -20.5036 -20.4786 -19.7029 -18.8344
   -12.7995  -7.2808  -7.0035  -6.6601  -5.9093  -5.5134  -4.9790  -4.6146
    -4.2743  -3.0130  -1.2120   0.3316   1.3893   2.3224   2.8824   3.5254
     4.0100   4.4223

          k = 0.1594 0.3697 0.0000 ( 15902 PWs)   bands (ev):

   -69.6673 -68.8722 -36.5403 -36.2442 -36.1618 -35.6584 -35.4205 -35.3091
   -21.3504 -21.2788 -21.2760 -21.2693 -21.2666 -21.2629 -21.2552 -20.5820
   -20.5254 -20.5188 -20.5150 -20.5023 -20.4918 -20.4864 -19.6235 -18.7422
   -12.5337  -7.5346  -6.9931  -6.4631  -6.0243  -5.6972  -5.1754  -4.5849
    -4.1899  -3.1483  -1.2937   0.5218   1.5986   2.7124   3.3484   4.0270
     4.2819   4.8103

          k = 0.1593 0.4621 0.0000 ( 15899 PWs)   bands (ev):

   -69.6597 -68.8649 -36.6324 -36.2270 -36.2088 -35.7378 -35.4075 -35.3606
   -21.3425 -21.2801 -21.2762 -21.2707 -21.2632 -21.2606 -21.2543 -20.5776
   -20.5277 -20.5176 -20.5155 -20.5010 -20.4934 -20.4802 -19.5807 -18.6846
   -12.2720  -8.0002  -6.9137  -6.4237  -5.8913  -5.6169  -5.3622  -4.5194
    -4.3402  -3.0998  -1.2217   0.7662   1.8862   2.7273   3.1850   4.3330
     4.6931   5.4597

          k = 0.1592 0.5545 0.0000 ( 15912 PWs)   bands (ev):

   -69.6569 -68.8622 -36.6659 -36.2424 -36.2050 -35.7660 -35.4034 -35.3786
   -21.3403 -21.2813 -21.2784 -21.2671 -21.2640 -21.2574 -21.2546 -20.5765
   -20.5283 -20.5189 -20.5137 -20.5009 -20.4952 -20.4764 -19.5681 -18.6656
   -12.1576  -8.1961  -6.9133  -6.3844  -5.8057  -5.5580  -5.4619  -4.4723
    -4.4515  -3.0533  -1.1574   0.9476   2.1555   2.4174   3.0347   4.4797
     4.8179   5.7823

          k = 0.1601-0.4621 0.0000 ( 15899 PWs)   bands (ev):

   -69.6597 -68.8648 -36.6338 -36.2295 -36.2054 -35.7387 -35.4073 -35.3604
   -21.3426 -21.2808 -21.2756 -21.2701 -21.2641 -21.2611 -21.2534 -20.5777
   -20.5276 -20.5177 -20.5155 -20.5009 -20.4934 -20.4802 -19.5805 -18.6844
   -12.2718  -8.0016  -6.9130  -6.4260  -5.8932  -5.6188  -5.3614  -4.5203
    -4.3385  -3.1000  -1.2237   0.7656   1.8798   2.7432   3.1914   4.3389
     4.6902   5.4616

          k = 0.1600-0.3697 0.0000 ( 15906 PWs)   bands (ev):

   -69.6672 -68.8721 -36.5427 -36.2451 -36.1594 -35.6597 -35.4203 -35.3090
   -21.3506 -21.2786 -21.2770 -21.2686 -21.2665 -21.2634 -21.2546 -20.5821
   -20.5254 -20.5188 -20.5151 -20.5021 -20.4918 -20.4864 -19.6232 -18.7419
   -12.5331  -7.5364  -6.9943  -6.4652  -6.0249  -5.6992  -5.1752  -4.5876
    -4.1890  -3.1477  -1.2958   0.5245   1.5950   2.7245   3.3510   4.0316
     4.2765   4.8142

          k = 0.1599-0.2773 0.0000 ( 15920 PWs)   bands (ev):

   -69.6776 -68.8822 -36.4114 -36.2833 -36.0856 -35.5470 -35.4355 -35.2405
   -21.3657 -21.2823 -21.2731 -21.2726 -21.2653 -21.2586 -21.2566 -20.5911
   -20.5222 -20.5203 -20.5127 -20.5056 -20.5035 -20.4787 -19.7026 -18.8340
   -12.7984  -7.2822  -7.0033  -6.6606  -5.9124  -5.5158  -4.9786  -4.6173
    -4.2761  -3.0106  -1.2126   0.3352   1.3865   2.3251   2.8807   3.5216
     4.0110   4.4258

          k = 0.1598-0.1849 0.0000 ( 15911 PWs)   bands (ev):

   -69.6879 -68.8922 -36.3244 -36.2685 -36.0178 -35.4822 -35.3922 -35.1778
   -21.3842 -21.2837 -21.2769 -21.2691 -21.2671 -21.2578 -21.2494 -20.6043
   -20.5221 -20.5170 -20.5144 -20.5106 -20.5097 -20.4699 -19.8068 -18.9409
   -12.9812  -7.6109  -6.9453  -6.3973  -5.9803  -5.1676  -4.8717  -4.5337
    -4.2094  -2.7954  -1.1104   0.3075   1.0890   1.9442   2.3399   2.9594
     3.9320   4.1239

          k = 0.1598-0.0924 0.0000 ( 15931 PWs)   bands (ev):

   -69.6955 -68.8995 -36.3550 -36.1486 -35.9803 -35.4914 -35.2913 -35.1419
   -21.3992 -21.2839 -21.2796 -21.2719 -21.2626 -21.2578 -21.2432 -20.6168
   -20.5239 -20.5187 -20.5140 -20.5135 -20.5089 -20.4634 -19.8992 -19.0273
   -13.0706  -7.8750  -6.9246  -6.3563  -5.8726  -5.0371  -4.9030  -4.4225
    -3.7779  -2.6888  -0.9967   0.4488   0.7028   1.6443   2.1709   2.5971
     3.7334   3.9499

          k = 0.1597-0.0000 0.0000 ( 15940 PWs)   bands (ev):

   -69.6983 -68.9022 -36.3663 -36.0963 -35.9742 -35.4970 -35.2460 -35.1340
   -21.4049 -21.2841 -21.2808 -21.2723 -21.2601 -21.2584 -21.2410 -20.6221
   -20.5252 -20.5196 -20.5151 -20.5123 -20.5084 -20.4610 -19.9364 -19.0605
   -13.0952  -7.9657  -6.9156  -6.4198  -5.7631  -5.0433  -4.9451  -4.1176
    -3.8052  -2.6711  -0.7237   0.0971   0.8379   1.6020   1.9613   2.5621
     3.6290   3.8656

          k = 0.2394 0.1386 0.0000 ( 15895 PWs)   bands (ev):

   -69.6838 -68.8882 -36.3493 -36.3059 -36.0235 -35.5046 -35.4364 -35.1806
   -21.3761 -21.2844 -21.2737 -21.2672 -21.2662 -21.2623 -21.2512 -20.5985
   -20.5215 -20.5189 -20.5110 -20.5100 -20.5086 -20.4730 -19.7657 -18.8976
   -12.9152  -7.6663  -6.7830  -6.2997  -6.1656  -5.4365  -4.8332  -4.6445
    -3.9515  -2.8767  -1.4668   0.6452   1.0402   2.0480   2.6778   3.1091
     4.0661   4.2786

          k = 0.2393 0.2310 0.0000 ( 15903 PWs)   bands (ev):

   -69.6763 -68.8809 -36.4540 -36.2774 -36.0705 -35.5843 -35.4362 -35.2241
   -21.3636 -21.2821 -21.2720 -21.2705 -21.2660 -21.2607 -21.2557 -20.5901
   -20.5231 -20.5193 -20.5126 -20.5052 -20.5020 -20.4791 -19.6969 -18.8233
   -12.7634  -7.6162  -6.7931  -6.5142  -5.9528  -5.6512  -4.9975  -4.5251
    -4.1352  -2.9953  -1.4611   0.4999   1.4481   2.3527   2.9553   3.5955
     4.1117   4.4767

          k = 0.2392 0.3235 0.0000 ( 15923 PWs)   bands (ev):

   -69.6675 -68.8724 -36.5388 -36.2454 -36.1604 -35.6586 -35.4208 -35.3067
   -21.3502 -21.2790 -21.2763 -21.2688 -21.2658 -21.2625 -21.2565 -20.5819
   -20.5255 -20.5189 -20.5149 -20.5023 -20.4919 -20.4863 -19.6239 -18.7427
   -12.5354  -7.5375  -6.9915  -6.4646  -6.0227  -5.6950  -5.1721  -4.5810
    -4.1863  -3.1515  -1.2947   0.5212   1.5951   2.7163   3.3508   4.0282
     4.2796   4.8092

          k = 0.2392 0.4159 0.0000 ( 15896 PWs)   bands (ev):

   -69.6599 -68.8650 -36.5832 -36.2746 -36.2096 -35.7005 -35.4071 -35.4016
   -21.3394 -21.2799 -21.2754 -21.2704 -21.2673 -21.2621 -21.2550 -20.5755
   -20.5265 -20.5177 -20.5176 -20.5016 -20.4947 -20.4803 -19.5666 -18.6782
   -12.2936  -7.5875  -7.0165  -6.4790  -6.2588  -5.5021  -5.1199  -4.8991
    -4.1333  -3.2850  -1.0524   0.7096   1.6239   2.6672   3.1710   4.4489
     4.8377   5.4111

          k = 0.2391 0.5083 0.0000 ( 15892 PWs)   bands (ev):

   -69.6555 -68.8608 -36.5910 -36.3521 -36.1941 -35.7129 -35.4707 -35.3978
   -21.3336 -21.2815 -21.2754 -21.2713 -21.2663 -21.2619 -21.2543 -20.5722
   -20.5261 -20.5202 -20.5159 -20.5025 -20.4987 -20.4742 -19.5359 -18.6433
   -12.1362  -7.6723  -7.0059  -6.6746  -6.0526  -5.4661  -5.1615  -4.9060
    -4.2943  -3.2991  -0.7855   1.0020   1.6560   2.0969   2.8971   4.8768
     5.0621   6.0605

          k = 0.2390 0.6007 0.0000 ( 15907 PWs)   bands (ev):

   -69.6554 -68.8607 -36.5924 -36.3513 -36.1938 -35.7135 -35.4705 -35.3977
   -21.3336 -21.2819 -21.2753 -21.2708 -21.2666 -21.2624 -21.2537 -20.5722
   -20.5261 -20.5203 -20.5159 -20.5025 -20.4988 -20.4742 -19.5358 -18.6432
   -12.1360  -7.6729  -7.0065  -6.6747  -6.0568  -5.4634  -5.1626  -4.9069
    -4.2937  -3.2988  -0.7870   1.0011   1.6526   2.1070   2.9014   4.8783
     5.0621   6.0633

          k = 0.2399-0.4159 0.0000 ( 15891 PWs)   bands (ev):

   -69.6598 -68.8649 -36.5860 -36.2743 -36.2080 -35.7019 -35.4068 -35.4016
   -21.3396 -21.2807 -21.2751 -21.2703 -21.2670 -21.2631 -21.2539 -20.5757
   -20.5264 -20.5177 -20.5177 -20.5014 -20.4948 -20.4802 -19.5663 -18.6779
   -12.2929  -7.5884  -7.0188  -6.4805  -6.2621  -5.5036  -5.1204  -4.9001
    -4.1340  -3.2832  -1.0545   0.7111   1.6211   2.6820   3.1779   4.4528
     4.8367   5.4132

          k = 0.2398-0.3235 0.0000 ( 15923 PWs)   bands (ev):

   -69.6673 -68.8723 -36.5417 -36.2459 -36.1584 -35.6597 -35.4205 -35.3076
   -21.3505 -21.2786 -21.2774 -21.2683 -21.2663 -21.2628 -21.2554 -20.5820
   -20.5254 -20.5189 -20.5150 -20.5021 -20.4919 -20.4863 -19.6235 -18.7422
   -12.5340  -7.5382  -6.9934  -6.4656  -6.0252  -5.6988  -5.1741  -4.5834
    -4.1877  -3.1483  -1.2951   0.5237   1.5923   2.7265   3.3534   4.0318
     4.2752   4.8137

          k = 0.2397-0.2311 0.0000 ( 15897 PWs)   bands (ev):

   -69.6761 -68.8807 -36.4563 -36.2771 -36.0699 -35.5846 -35.4360 -35.2258
   -21.3641 -21.2813 -21.2731 -21.2708 -21.2661 -21.2609 -21.2546 -20.5902
   -20.5231 -20.5193 -20.5127 -20.5051 -20.5019 -20.4793 -19.6964 -18.8228
   -12.7615  -7.6156  -6.7918  -6.5148  -5.9587  -5.6531  -5.0010  -4.5285
    -4.1384  -2.9903  -1.4595   0.5013   1.4446   2.3531   2.9559   3.5928
     4.1135   4.4789

          k = 0.2396-0.1387 0.0000 ( 15893 PWs)   bands (ev):

   -69.6837 -68.8881 -36.3514 -36.3048 -36.0237 -35.5042 -35.4361 -35.1826
   -21.3765 -21.2832 -21.2749 -21.2683 -21.2662 -21.2617 -21.2507 -20.5986
   -20.5214 -20.5188 -20.5111 -20.5099 -20.5086 -20.4731 -19.7654 -18.8972
   -12.9135  -7.6646  -6.7803  -6.2971  -6.1755  -5.4354  -4.8396  -4.6441
    -3.9584  -2.8705  -1.4633   0.6450   1.0321   2.0468   2.6775   3.1098
     4.0686   4.2774

          k = 0.2396-0.0462 0.0000 ( 15915 PWs)   bands (ev):

   -69.6881 -68.8923 -36.3248 -36.2641 -36.0201 -35.4823 -35.3908 -35.1772
   -21.3839 -21.2832 -21.2791 -21.2672 -21.2651 -21.2601 -21.2493 -20.6042
   -20.5220 -20.5172 -20.5143 -20.5107 -20.5096 -20.4698 -19.8076 -18.9417
   -12.9823  -7.6117  -6.9462  -6.3961  -5.9784  -5.1656  -4.8730  -4.5284
    -4.2081  -2.7955  -1.1058   0.3071   1.0895   1.9502   2.3436   2.9623
     3.9240   4.1264

          k = 0.2395 0.0462 0.0000 ( 15907 PWs)   bands (ev):

   -69.6881 -68.8924 -36.3245 -36.2642 -36.0199 -35.4825 -35.3912 -35.1762
   -21.3838 -21.2842 -21.2781 -21.2672 -21.2648 -21.2604 -21.2495 -20.6042
   -20.5220 -20.5172 -20.5144 -20.5107 -20.5096 -20.4697 -19.8077 -18.9419
   -12.9830  -7.6127  -6.9475  -6.3941  -5.9774  -5.1667  -4.8709  -4.5296
    -4.2028  -2.7982  -1.1094   0.3125   1.0910   1.9510   2.3426   2.9618
     3.9229   4.1272

          k = 0.3192 0.1848 0.0000 ( 15884 PWs)   bands (ev):

   -69.6720 -68.8768 -36.5407 -36.2618 -36.0662 -35.6590 -35.4310 -35.2207
   -21.3589 -21.2795 -21.2714 -21.2699 -21.2672 -21.2607 -21.2548 -20.5874
   -20.5255 -20.5168 -20.5135 -20.5036 -20.4970 -20.4815 -19.6747 -18.7899
   -12.6497  -7.9536  -6.7081  -6.2623  -6.1386  -5.6624  -4.9018  -4.8008
    -3.7532  -3.0395  -1.7315   0.6499   1.7580   2.4334   3.1119   3.8234
     4.2320   4.6319

          k = 0.3191 0.2772 0.0000 ( 15921 PWs)   bands (ev):

   -69.6661 -68.8710 -36.6102 -36.2409 -36.1151 -35.7187 -35.4200 -35.2653
   -21.3514 -21.2781 -21.2748 -21.2696 -21.2647 -21.2593 -21.2558 -20.5831
   -20.5274 -20.5158 -20.5152 -20.5013 -20.4897 -20.4859 -19.6336 -18.7396
   -12.4694  -8.0995  -6.7846  -6.3242  -5.9300  -5.6534  -5.2499  -4.6104
    -3.9443  -3.0327  -1.5899   0.6669   1.9564   2.7540   3.2960   3.9902
     4.4141   4.8662

          k = 0.3191 0.3697 0.0000 ( 15899 PWs)   bands (ev):

   -69.6601 -68.8652 -36.6289 -36.2294 -36.2066 -35.7372 -35.4081 -35.3569
   -21.3421 -21.2801 -21.2744 -21.2699 -21.2635 -21.2620 -21.2551 -20.5774
   -20.5278 -20.5174 -20.5157 -20.5010 -20.4931 -20.4805 -19.5812 -18.6855
   -12.2753  -8.0027  -6.9069  -6.4241  -5.8903  -5.6177  -5.3558  -4.5142
    -4.3330  -3.1044  -1.2227   0.7591   1.8718   2.7350   3.1879   4.3347
     4.6937   5.4582

          k = 0.3190 0.4621 0.0000 ( 15901 PWs)   bands (ev):

   -69.6556 -68.8609 -36.5878 -36.3532 -36.1946 -35.7120 -35.4695 -35.3981
   -21.3334 -21.2815 -21.2738 -21.2700 -21.2684 -21.2624 -21.2546 -20.5720
   -20.5263 -20.5200 -20.5160 -20.5026 -20.4986 -20.4744 -19.5361 -18.6437
   -12.1377  -7.6714  -7.0038  -6.6725  -6.0549  -5.4629  -5.1596  -4.9058
    -4.2897  -3.3028  -0.7843   0.9985   1.6452   2.0994   2.8969   4.8772
     5.0658   6.0566

          k = 0.3189 0.5545 0.0000 ( 15864 PWs)   bands (ev):

   -69.6540 -68.8593 -36.5185 -36.4564 -36.1860 -35.6786 -35.5363 -35.3948
   -21.3296 -21.2819 -21.2736 -21.2720 -21.2667 -21.2656 -21.2537 -20.5697
   -20.5239 -20.5226 -20.5161 -20.5037 -20.5008 -20.4721 -19.5181 -18.6279
   -12.0909  -7.3369  -7.0987  -6.9156  -5.9074  -5.7202  -5.1827  -4.6598
    -4.4210  -3.4145  -0.5173   1.3609   1.4180   1.5316   2.7808   5.0710
     5.5062   5.8473

          k = 0.3188 0.6469 0.0000 ( 15909 PWs)   bands (ev):

   -69.6555 -68.8608 -36.5904 -36.3521 -36.1940 -35.7128 -35.4698 -35.3979
   -21.3336 -21.2819 -21.2744 -21.2702 -21.2675 -21.2629 -21.2538 -20.5721
   -20.5262 -20.5202 -20.5160 -20.5025 -20.4987 -20.4743 -19.5359 -18.6435
   -12.1370  -7.6716  -7.0057  -6.6739  -6.0588  -5.4617  -5.1613  -4.9071
    -4.2908  -3.3003  -0.7849   0.9997   1.6451   2.1088   2.9009   4.8784
     5.0656   6.0583

          k = 0.3197-0.3697 0.0000 ( 15907 PWs)   bands (ev):

   -69.6599 -68.8650 -36.6316 -36.2309 -36.2040 -35.7381 -35.4077 -35.3582
   -21.3424 -21.2808 -21.2747 -21.2699 -21.2637 -21.2622 -21.2538 -20.5776
   -20.5277 -20.5176 -20.5157 -20.5009 -20.4932 -20.4804 -19.5809 -18.6851
   -12.2738  -8.0027  -6.9093  -6.4263  -5.8939  -5.6207  -5.3589  -4.5154
    -4.3343  -3.1012  -1.2222   0.7613   1.8701   2.7481   3.1934   4.3394
     4.6920   5.4600

          k = 0.3196-0.2773 0.0000 ( 15919 PWs)   bands (ev):

   -69.6659 -68.8708 -36.6125 -36.2406 -36.1149 -35.7193 -35.4196 -35.2673
   -21.3519 -21.2786 -21.2748 -21.2696 -21.2653 -21.2598 -21.2541 -20.5833
   -20.5273 -20.5157 -20.5153 -20.5012 -20.4896 -20.4860 -19.6332 -18.7391
   -12.4673  -8.0985  -6.7851  -6.3273  -5.9364  -5.6539  -5.2543  -4.6149
    -3.9460  -3.0281  -1.5882   0.6693   1.9537   2.7615   3.3001   3.9929
     4.4119   4.8688

          k = 0.3195-0.1849 0.0000 ( 15878 PWs)   bands (ev):

   -69.6718 -68.8766 -36.5425 -36.2612 -36.0667 -35.6590 -35.4307 -35.2229
   -21.3593 -21.2787 -21.2724 -21.2700 -21.2679 -21.2611 -21.2534 -20.5876
   -20.5254 -20.5168 -20.5136 -20.5035 -20.4969 -20.4817 -19.6743 -18.7893
   -12.6474  -7.9517  -6.7055  -6.2612  -6.1498  -5.6628  -4.9092  -4.8018
    -3.7589  -3.0320  -1.7289   0.6519   1.7549   2.4331   3.1129   3.8228
     4.2335   4.6331

          k = 0.3194-0.0924 0.0000 ( 15895 PWs)   bands (ev):

   -69.6763 -68.8809 -36.4524 -36.2767 -36.0726 -35.5823 -35.4362 -35.2262
   -21.3639 -21.2810 -21.2736 -21.2699 -21.2658 -21.2619 -21.2546 -20.5901
   -20.5231 -20.5191 -20.5125 -20.5054 -20.5020 -20.4792 -19.6970 -18.8234
   -12.7625  -7.6138  -6.7906  -6.5135  -5.9569  -5.6528  -5.0022  -4.5249
    -4.1392  -2.9877  -1.4545   0.5012   1.4482   2.3473   2.9491   3.5997
     4.1119   4.4738

          k = 0.3194-0.0000 0.0000 ( 15910 PWs)   bands (ev):

   -69.6779 -68.8825 -36.4044 -36.2833 -36.0894 -35.5440 -35.4357 -35.2397
   -21.3652 -21.2826 -21.2751 -21.2699 -21.2626 -21.2607 -21.2577 -20.5909
   -20.5223 -20.5203 -20.5123 -20.5059 -20.5038 -20.4784 -19.7037 -18.8353
   -12.8008  -7.2809  -7.0024  -6.6607  -5.9086  -5.5160  -4.9714  -4.6176
    -4.2691  -3.0105  -1.2063   0.3376   1.3886   2.3225   2.8760   3.5300
     4.0058   4.4173

          k = 0.3193 0.0924 0.0000 ( 15903 PWs)   bands (ev):

   -69.6764 -68.8810 -36.4514 -36.2773 -36.0721 -35.5827 -35.4364 -35.2245
   -21.3636 -21.2819 -21.2726 -21.2696 -21.2655 -21.2616 -21.2556 -20.5900
   -20.5232 -20.5192 -20.5125 -20.5054 -20.5021 -20.4791 -19.6972 -18.8237
   -12.7640  -7.6151  -6.7929  -6.5131  -5.9529  -5.6509  -4.9980  -4.5238
    -4.1353  -2.9926  -1.4573   0.5030   1.4499   2.3501   2.9482   3.5995
     4.1104   4.4733

          k = 0.3990 0.2310 0.0000 ( 15919 PWs)   bands (ev):

   -69.6634 -68.8684 -36.6772 -36.2343 -36.0973 -35.7742 -35.4161 -35.2498
   -21.3511 -21.2784 -21.2775 -21.2659 -21.2612 -21.2581 -21.2546 -20.5833
   -20.5294 -20.5161 -20.5130 -20.4998 -20.4869 -20.4856 -19.6342 -18.7264
   -12.3543  -8.4787  -6.6173  -6.2149  -6.1230  -5.5779  -5.0605  -4.9486
    -3.4803  -3.0891  -1.7798   0.8245   2.4537   2.7589   3.4248   3.8576
     4.6080   4.8695

          k = 0.3989 0.3235 0.0000 ( 15904 PWs)   bands (ev):

   -69.6602 -68.8653 -36.6980 -36.2233 -36.1411 -35.7915 -35.4097 -35.2891
   -21.3471 -21.2803 -21.2777 -21.2645 -21.2601 -21.2587 -21.2546 -20.5809
   -20.5299 -20.5173 -20.5126 -20.4994 -20.4901 -20.4808 -19.6102 -18.6995
   -12.2351  -8.5205  -6.7215  -6.2357  -5.9128  -5.5707  -5.4304  -4.6978
    -3.8160  -2.9786  -1.5734   0.8913   2.4187   2.8881   3.2837   4.0262
     4.6970   5.1914

          k = 0.3989 0.4159 0.0000 ( 15894 PWs)   bands (ev):

   -69.6574 -68.8626 -36.6601 -36.2423 -36.2064 -35.7639 -35.4041 -35.3752
   -21.3399 -21.2810 -21.2764 -21.2662 -21.2633 -21.2601 -21.2558 -20.5761
   -20.5285 -20.5186 -20.5139 -20.5011 -20.4948 -20.4767 -19.5687 -18.6667
   -12.1620  -8.1961  -6.9059  -6.3829  -5.8046  -5.5556  -5.4550  -4.4641
    -4.4477  -3.0577  -1.1555   0.9390   2.1424   2.4098   3.0295   4.4810
     4.8178   5.7812

          k = 0.3988 0.5083 0.0000 ( 15909 PWs)   bands (ev):

   -69.6557 -68.8610 -36.5850 -36.3548 -36.1950 -35.7104 -35.4701 -35.3982
   -21.3334 -21.2811 -21.2737 -21.2705 -21.2682 -21.2617 -21.2555 -20.5719
   -20.5263 -20.5199 -20.5160 -20.5028 -20.4985 -20.4744 -19.5361 -18.6439
   -12.1386  -7.6698  -7.0021  -6.6731  -6.0508  -5.4683  -5.1591  -4.9017
    -4.2914  -3.3028  -0.7798   1.0044   1.6547   2.0770   2.8889   4.8819
     5.0629   6.0540

          k = 0.3987 0.6007 0.0000 ( 15893 PWs)   bands (ev):

   -69.6556 -68.8609 -36.5862 -36.3543 -36.1948 -35.7106 -35.4707 -35.3981
   -21.3335 -21.2810 -21.2745 -21.2712 -21.2669 -21.2616 -21.2553 -20.5720
   -20.5263 -20.5200 -20.5159 -20.5027 -20.4986 -20.4744 -19.5361 -18.6437
   -12.1381  -7.6694  -7.0034  -6.6744  -6.0506  -5.4698  -5.1598  -4.9023
    -4.2930  -3.3007  -0.7789   1.0065   1.6581   2.0763   2.8887   4.8815
     5.0629   6.0529

          k = 0.3986 0.6932 0.0000 ( 15898 PWs)   bands (ev):

   -69.6572 -68.8624 -36.6622 -36.2425 -36.2056 -35.7644 -35.4039 -35.3766
   -21.3402 -21.2812 -21.2772 -21.2669 -21.2630 -21.2595 -21.2551 -20.5763
   -20.5285 -20.5187 -20.5138 -20.5011 -20.4950 -20.4766 -19.5685 -18.6664
   -12.1606  -8.1953  -6.9092  -6.3842  -5.8067  -5.5578  -5.4592  -4.4674
    -4.4475  -3.0543  -1.1535   0.9429   2.1479   2.4123   3.0311   4.4821
     4.8183   5.7813

          k = 0.3995-0.3235 0.0000 ( 15902 PWs)   bands (ev):

   -69.6600 -68.8651 -36.7002 -36.2229 -36.1413 -35.7921 -35.4093 -35.2912
   -21.3475 -21.2809 -21.2780 -21.2650 -21.2609 -21.2581 -21.2530 -20.5811
   -20.5298 -20.5174 -20.5125 -20.4993 -20.4903 -20.4806 -19.6099 -18.6990
   -12.2328  -8.5190  -6.7248  -6.2379  -5.9187  -5.5712  -5.4347  -4.7031
    -3.8170  -2.9744  -1.5711   0.8953   2.4176   2.8995   3.2871   4.0303
     4.6963   5.1925

          k = 0.3994-0.2311 0.0000 ( 15925 PWs)   bands (ev):

   -69.6632 -68.8682 -36.6791 -36.2337 -36.0979 -35.7746 -35.4157 -35.2523
   -21.3515 -21.2792 -21.2774 -21.2663 -21.2615 -21.2585 -21.2529 -20.5835
   -20.5293 -20.5162 -20.5129 -20.4997 -20.4871 -20.4854 -19.6338 -18.7258
   -12.3518  -8.4765  -6.6166  -6.2271  -6.1230  -5.5775  -5.0626  -4.9567
    -3.4857  -3.0810  -1.7773   0.8285   2.4552   2.7620   3.4280   3.8590
     4.6070   4.8718

          k = 0.3993-0.1387 0.0000 ( 15919 PWs)   bands (ev):

   -69.6660 -68.8709 -36.6097 -36.2398 -36.1173 -35.7173 -35.4198 -35.2679
   -21.3518 -21.2780 -21.2745 -21.2701 -21.2652 -21.2594 -21.2549 -20.5832
   -20.5274 -20.5155 -20.5152 -20.5015 -20.4896 -20.4860 -19.6335 -18.7394
   -12.4681  -8.0954  -6.7891  -6.3192  -5.9354  -5.6534  -5.2562  -4.6126
    -3.9490  -3.0251  -1.5837   0.6726   1.9731   2.7301   3.2856   3.9871
     4.4227   4.8619

          k = 0.3992-0.0462 0.0000 ( 15921 PWs)   bands (ev):

   -69.6676 -68.8725 -36.5349 -36.2441 -36.1644 -35.6554 -35.4210 -35.3084
   -21.3502 -21.2792 -21.2741 -21.2703 -21.2664 -21.2616 -21.2571 -20.5818
   -20.5255 -20.5187 -20.5147 -20.5026 -20.4920 -20.4862 -19.6242 -18.7431
   -12.5360  -7.5334  -6.9919  -6.4609  -6.0233  -5.6993  -5.1705  -4.5831
    -4.1875  -3.1466  -1.2856   0.5274   1.6014   2.6960   3.3382   4.0234
     4.2904   4.8004

          k = 0.3992 0.0462 0.0000 ( 15927 PWs)   bands (ev):

   -69.6677 -68.8726 -36.5343 -36.2445 -36.1640 -35.6556 -35.4211 -35.3075
   -21.3501 -21.2794 -21.2741 -21.2701 -21.2657 -21.2619 -21.2576 -20.5817
   -20.5256 -20.5188 -20.5147 -20.5026 -20.4920 -20.4862 -19.6243 -18.7433
   -12.5368  -7.5344  -6.9913  -6.4620  -6.0213  -5.6975  -5.1681  -4.5834
    -4.1852  -3.1492  -1.2872   0.5275   1.6006   2.6979   3.3382   4.0244
     4.2893   4.7999

          k = 0.3991 0.1386 0.0000 ( 15925 PWs)   bands (ev):

   -69.6661 -68.8711 -36.6083 -36.2405 -36.1166 -35.7174 -35.4202 -35.2658
   -21.3514 -21.2779 -21.2744 -21.2697 -21.2648 -21.2589 -21.2564 -20.5830
   -20.5274 -20.5156 -20.5152 -20.5015 -20.4897 -20.4858 -19.6337 -18.7398
   -12.4701  -8.0976  -6.7877  -6.3189  -5.9301  -5.6519  -5.2524  -4.6089
    -3.9466  -3.0302  -1.5865   0.6703   1.9699   2.7344   3.2850   3.9879
     4.4216   4.8605

          k =-0.4788-0.2772 0.0000 ( 15926 PWs)   bands (ev):

   -69.6602 -68.8654 -36.7263 -36.2266 -36.1086 -35.8135 -35.4105 -35.2605
   -21.3493 -21.2803 -21.2789 -21.2636 -21.2580 -21.2569 -21.2536 -20.5825
   -20.5308 -20.5173 -20.5114 -20.4984 -20.4886 -20.4810 -19.6247 -18.7065
   -12.2139  -8.7222  -6.5182  -6.2577  -6.0755  -5.6138  -5.1442  -4.9615
    -3.3640  -3.0761  -1.7700   0.9660   2.7530   2.9244   3.5684   3.7276
     4.7423   4.9292

          k =-0.4789-0.1848 0.0000 ( 15900 PWs)   bands (ev):

   -69.6602 -68.8654 -36.6974 -36.2230 -36.1418 -35.7910 -35.4098 -35.2893
   -21.3471 -21.2798 -21.2781 -21.2648 -21.2594 -21.2579 -21.2557 -20.5808
   -20.5299 -20.5173 -20.5125 -20.4995 -20.4901 -20.4808 -19.6102 -18.6996
   -12.2354  -8.5197  -6.7240  -6.2315  -5.9119  -5.5725  -5.4305  -4.6974
    -3.8171  -2.9776  -1.5719   0.8934   2.4404   2.8607   3.2782   4.0253
     4.7000   5.1895

          k =-0.4790-0.0924 0.0000 ( 15890 PWs)   bands (ev):

   -69.6602 -68.8653 -36.6261 -36.2262 -36.2115 -35.7353 -35.4083 -35.3577
   -21.3421 -21.2794 -21.2749 -21.2701 -21.2636 -21.2605 -21.2567 -20.5773
   -20.5278 -20.5173 -20.5156 -20.5013 -20.4930 -20.4806 -19.5813 -18.6857
   -12.2764  -7.9999  -6.9090  -6.4195  -5.8892  -5.6164  -5.3566  -4.5137
    -4.3356  -3.1031  -1.2171   0.7652   1.8868   2.7048   3.1745   4.3354
     4.6955   5.4542

          k =-0.4791 0.0000 0.0000 ( 15906 PWs)   bands (ev):

   -69.6601 -68.8653 -36.5777 -36.2759 -36.2117 -35.6973 -35.4074 -35.4024
   -21.3393 -21.2792 -21.2750 -21.2699 -21.2683 -21.2609 -21.2568 -20.5754
   -20.5266 -20.5176 -20.5174 -20.5019 -20.4946 -20.4804 -19.5668 -18.6787
   -12.2957  -7.5847  -7.0134  -6.4763  -6.2578  -5.5059  -5.1155  -4.8989
    -4.1332  -3.2849  -1.0434   0.7171   1.6291   2.6385   3.1567   4.4526
     4.8391   5.4044

          k =-0.4791 0.0925 0.0000 ( 15901 PWs)   bands (ev):

   -69.6600 -68.8652 -36.6274 -36.2253 -36.2123 -35.7353 -35.4081 -35.3591
   -21.3423 -21.2793 -21.2756 -21.2706 -21.2629 -21.2602 -21.2564 -20.5774
   -20.5278 -20.5174 -20.5155 -20.5013 -20.4931 -20.4805 -19.5812 -18.6855
   -12.2752  -7.9985  -6.9120  -6.4194  -5.8910  -5.6173  -5.3606  -4.5140
    -4.3386  -3.0997  -1.2145   0.7679   1.8915   2.7020   3.1736   4.3342
     4.6968   5.4540

          k =-0.4792 0.1849 0.0000 ( 15900 PWs)   bands (ev):

   -69.6600 -68.8652 -36.6992 -36.2224 -36.1424 -35.7914 -35.4094 -35.2915
   -21.3475 -21.2798 -21.2789 -21.2657 -21.2596 -21.2574 -21.2544 -20.5811
   -20.5298 -20.5174 -20.5124 -20.4995 -20.4903 -20.4807 -19.6099 -18.6991
   -12.2332  -8.5176  -6.7282  -6.2321  -5.9168  -5.5744  -5.4340  -4.7025
    -3.8182  -2.9732  -1.5692   0.8983   2.4502   2.8569   3.2795   4.0263
     4.7009   5.1901

          k =-0.4783-0.8318 0.0000 ( 15918 PWs)   bands (ev):

   -69.6600 -68.8651 -36.7283 -36.2259 -36.1093 -35.8139 -35.4101 -35.2630
   -21.3497 -21.2809 -21.2792 -21.2644 -21.2586 -21.2564 -21.2519 -20.5827
   -20.5308 -20.5174 -20.5112 -20.4983 -20.4888 -20.4809 -19.6243 -18.7059
   -12.2113  -8.7200  -6.5190  -6.2702  -6.0735  -5.6146  -5.1467  -4.9699
    -3.3694  -3.0676  -1.7675   0.9712   2.7552   2.9319   3.5719   3.7302
     4.7408   4.9316

     the Fermi energy is    -0.2561 ev

!    total energy              =   -1438.35616526 Ry
     estimated scf accuracy    <          8.4E-13 Ry
     smearing contrib. (-TS)   =       0.00000086 Ry
     internal energy E=F+TS    =   -1438.35616612 Ry

     The total energy is F=E-TS. E is the sum of the following terms:
     one-electron contribution =  -14106.70248551 Ry
     hartree contribution      =    7084.25082841 Ry
     xc contribution           =    -153.69904997 Ry
     ewald contribution        =    5737.79454095 Ry

     convergence has been achieved in  27 iterations

     negative rho (up, down):  1.473E-04 0.000E+00

     Forces acting on atoms (cartesian axes, Ry/au):

     atom    1 type  2   force =    -0.00053482   -0.00000589   -0.00013217
     atom    2 type  1   force =     0.00018013   -0.00055336   -0.00004938
     atom    3 type  1   force =     0.00029793   -0.00045716    0.00012751
     atom    4 type  3   force =     0.00004207    0.00069329    0.00010095
     atom    5 type  3   force =     0.00001469    0.00032312   -0.00004691

     Total force =     0.001120     Total SCF correction =     0.000012


     Computing stress (Cartesian axis) and pressure


     negative rho (up, down):  1.473E-04 0.000E+00
          total   stress  (Ry/bohr**3)                   (kbar)     P=       -0.36
  -0.00000453  -0.00000128   0.00000021           -0.67       -0.19        0.03
  -0.00000128   0.00000366   0.00000116           -0.19        0.54        0.17
   0.00000021   0.00000116  -0.00000638            0.03        0.17       -0.94


     BFGS Geometry Optimization
     Energy error            =      0.0E+00 Ry
     Gradient error          =      6.9E-04 Ry/Bohr
     Cell gradient error     =      6.7E-01 kbar

     number of scf cycles    =   1
     number of bfgs steps    =   0

     enthalpy           new  =   -1438.3561652595 Ry

     new trust radius        =       0.0009432972 bohr
     new conv_thr            =            1.0E-12 Ry

     new unit-cell volume =   1608.75406 a.u.^3 (   238.39276 Ang^3 )
     density =      2.82736 g/cm^3

CELL_PARAMETERS (alat=  5.55000000)
   1.043614041   0.000857845   0.000000000
  -0.521764910   0.901289225   0.000000000
   0.000000000   0.000000000  10.000000000

ATOMIC_POSITIONS (alat)
C            -0.1376448847        0.0180247647        0.0193958690    0   0   0
Ta            0.3841806654        0.3192583153       -0.4303651011
Ta           -0.1376975804        0.6197262714        0.4271970782
O             0.3846249425        0.3200767914        0.8049026833
O            -0.1374579077        0.0185096668       -0.8211067156



     Writing output data file /scratch/as3359/Ta2CO2_loop/Ta.save/
     NEW-OLD atomic charge density approx. for the potential

     negative rho (up, down):  1.473E-04 0.000E+00
     extrapolated charge   69.99849, renormalised to   70.00000

     total cpu time spent up to now is      544.1 secs

     Self-consistent Calculation

     iteration #  1     ecut=    70.00 Ry     beta= 0.70
     Davidson diagonalization with overlap
     ethr =  1.00E-06,  avg # of iterations =  2.0

     Threshold (ethr) on eigenvalues was too large:
     Diagonalizing with lowered threshold

     Davidson diagonalization with overlap
     ethr =  1.30E-08,  avg # of iterations =  4.2

     negative rho (up, down):  1.473E-04 0.000E+00

     total cpu time spent up to now is      579.2 secs

     total energy              =   -1438.35615460 Ry
     estimated scf accuracy    <       0.00001157 Ry

     iteration #  2     ecut=    70.00 Ry     beta= 0.70
     Davidson diagonalization with overlap
     ethr =  1.65E-08,  avg # of iterations =  6.4

     negative rho (up, down):  1.476E-04 0.000E+00

     total cpu time spent up to now is      602.2 secs

     total energy              =   -1438.35615154 Ry
     estimated scf accuracy    <       0.00019382 Ry

     iteration #  3     ecut=    70.00 Ry     beta= 0.70
     Davidson diagonalization with overlap
     ethr =  1.65E-08,  avg # of iterations =  5.3

     negative rho (up, down):  1.475E-04 0.000E+00

     total cpu time spent up to now is      621.1 secs

     total energy              =   -1438.35616608 Ry
     estimated scf accuracy    <       0.00004078 Ry

     iteration #  4     ecut=    70.00 Ry     beta= 0.70
     Davidson diagonalization with overlap
     ethr =  1.65E-08,  avg # of iterations =  1.6

     negative rho (up, down):  1.475E-04 0.000E+00

     total cpu time spent up to now is      635.3 secs

     total energy              =   -1438.35616788 Ry
     estimated scf accuracy    <       0.00000775 Ry

     iteration #  5     ecut=    70.00 Ry     beta= 0.70
     Davidson diagonalization with overlap
     ethr =  1.11E-08,  avg # of iterations =  1.2

     negative rho (up, down):  1.474E-04 0.000E+00

     total cpu time spent up to now is      649.2 secs

     total energy              =   -1438.35616771 Ry
     estimated scf accuracy    <       0.00000334 Ry

     iteration #  6     ecut=    70.00 Ry     beta= 0.70
     Davidson diagonalization with overlap
     ethr =  4.77E-09,  avg # of iterations =  1.7

     negative rho (up, down):  1.474E-04 0.000E+00

     total cpu time spent up to now is      663.4 secs

     total energy              =   -1438.35616745 Ry
     estimated scf accuracy    <       0.00000142 Ry

     iteration #  7     ecut=    70.00 Ry     beta= 0.70
     Davidson diagonalization with overlap
     ethr =  2.03E-09,  avg # of iterations =  2.0

     negative rho (up, down):  1.473E-04 0.000E+00

     total cpu time spent up to now is      678.4 secs

     total energy              =   -1438.35616759 Ry
     estimated scf accuracy    <       0.00000007 Ry

     iteration #  8     ecut=    70.00 Ry     beta= 0.70
     Davidson diagonalization with overlap
     ethr =  1.04E-10,  avg # of iterations =  5.9

     negative rho (up, down):  1.473E-04 0.000E+00

     total cpu time spent up to now is      699.2 secs

     total energy              =   -1438.35616764 Ry
     estimated scf accuracy    <       0.00000001 Ry

     iteration #  9     ecut=    70.00 Ry     beta= 0.70
     Davidson diagonalization with overlap
     ethr =  1.71E-11,  avg # of iterations =  2.2

     negative rho (up, down):  1.473E-04 0.000E+00

     total cpu time spent up to now is      713.9 secs

     total energy              =   -1438.35616764 Ry
     estimated scf accuracy    <          6.3E-09 Ry

     iteration # 10     ecut=    70.00 Ry     beta= 0.70
     Davidson diagonalization with overlap
     ethr =  9.02E-12,  avg # of iterations =  1.9

     negative rho (up, down):  1.473E-04 0.000E+00

     total cpu time spent up to now is      728.7 secs

     total energy              =   -1438.35616764 Ry
     estimated scf accuracy    <          2.0E-09 Ry

     iteration # 11     ecut=    70.00 Ry     beta= 0.70
     Davidson diagonalization with overlap
     ethr =  2.86E-12,  avg # of iterations =  3.8

     negative rho (up, down):  1.473E-04 0.000E+00

     total cpu time spent up to now is      744.8 secs

     total energy              =   -1438.35616764 Ry
     estimated scf accuracy    <          8.1E-11 Ry

     iteration # 12     ecut=    70.00 Ry     beta= 0.70
     Davidson diagonalization with overlap
     ethr =  1.16E-13,  avg # of iterations =  6.8

     negative rho (up, down):  1.473E-04 0.000E+00

     total cpu time spent up to now is      767.6 secs

     total energy              =   -1438.35616764 Ry
     estimated scf accuracy    <          2.3E-10 Ry

     iteration # 13     ecut=    70.00 Ry     beta= 0.70
     Davidson diagonalization with overlap
     ethr =  1.16E-13,  avg # of iterations =  2.0

     negative rho (up, down):  1.473E-04 0.000E+00

     total cpu time spent up to now is      782.5 secs

     total energy              =   -1438.35616764 Ry
     estimated scf accuracy    <          6.1E-11 Ry

     iteration # 14     ecut=    70.00 Ry     beta= 0.70
     Davidson diagonalization with overlap
     ethr =  1.00E-13,  avg # of iterations =  5.0

     negative rho (up, down):  1.473E-04 0.000E+00

     total cpu time spent up to now is      799.8 secs

     total energy              =   -1438.35616764 Ry
     estimated scf accuracy    <          7.1E-12 Ry

     iteration # 15     ecut=    70.00 Ry     beta= 0.70
     Davidson diagonalization with overlap
     ethr =  1.00E-13,  avg # of iterations =  1.1

     negative rho (up, down):  1.473E-04 0.000E+00

     total cpu time spent up to now is      813.9 secs

     total energy              =   -1438.35616764 Ry
     estimated scf accuracy    <          3.5E-12 Ry

     iteration # 16     ecut=    70.00 Ry     beta= 0.70
     Davidson diagonalization with overlap
     ethr =  1.00E-13,  avg # of iterations =  1.0

     negative rho (up, down):  1.473E-04 0.000E+00

     total cpu time spent up to now is      827.5 secs

     total energy              =   -1438.35616764 Ry
     estimated scf accuracy    <          1.0E-12 Ry

     iteration # 17     ecut=    70.00 Ry     beta= 0.70
     Davidson diagonalization with overlap
     ethr =  1.00E-13,  avg # of iterations =  1.0

     negative rho (up, down):  1.473E-04 0.000E+00

     total cpu time spent up to now is      841.2 secs

     End of self-consistent calculation

          k = 0.0000 0.0000 0.0000 ( 16009 PWs)   bands (ev):

   -69.7072 -68.9106 -36.4036 -35.9368 -35.9359 -35.5200 -35.1024 -35.0989
   -21.4259 -21.2868 -21.2778 -21.2770 -21.2575 -21.2551 -21.2324 -20.6430
   -20.5311 -20.5189 -20.5188 -20.5074 -20.5070 -20.4525 -20.0755 -19.1761
   -13.1459  -8.3425  -6.6571  -6.6329  -5.6358  -5.1204  -5.1017  -3.1302
    -3.1145  -2.7784  -0.2675  -0.2381   0.3684   1.6628   1.6836   2.2280
     3.5626   3.6100

          k =-0.0001 0.0924 0.0000 ( 15993 PWs)   bands (ev):

   -69.7040 -68.9075 -36.3905 -35.9954 -35.9479 -35.5109 -35.1514 -35.1134
   -21.4184 -21.2854 -21.2784 -21.2763 -21.2591 -21.2555 -21.2354 -20.6350
   -20.5289 -20.5191 -20.5175 -20.5087 -20.5077 -20.4554 -20.0241 -19.1344
   -13.1324  -8.2087  -6.7650  -6.5713  -5.6049  -5.1321  -5.0559  -3.5682
    -3.3631  -2.7030  -0.4975  -0.0366   0.5798   1.5412   1.7834   2.3963
     3.4622   3.7032

          k =-0.0002 0.1848 0.0000 ( 15937 PWs)   bands (ev):

   -69.6953 -68.8991 -36.3547 -36.1494 -35.9803 -35.4909 -35.2901 -35.1438
   -21.3992 -21.2822 -21.2801 -21.2724 -21.2634 -21.2570 -21.2428 -20.6165
   -20.5236 -20.5182 -20.5138 -20.5130 -20.5088 -20.4632 -19.8986 -19.0265
   -13.0696  -7.8730  -6.9183  -6.3674  -5.8675  -5.0313  -4.9112  -4.4166
    -3.7906  -2.6874  -0.9914   0.4364   0.7010   1.6529   2.1610   2.5979
     3.7438   3.9412

          k =-0.0002 0.2772 0.0000 ( 15895 PWs)   bands (ev):

   -69.6833 -68.8875 -36.3548 -36.3023 -36.0243 -35.5038 -35.4355 -35.1850
   -21.3765 -21.2815 -21.2753 -21.2688 -21.2672 -21.2617 -21.2495 -20.5983
   -20.5211 -20.5183 -20.5110 -20.5094 -20.5083 -20.4729 -19.7645 -18.8960
   -12.9116  -7.6617  -6.7759  -6.2913  -6.1866  -5.4318  -4.8473  -4.6412
    -3.9728  -2.8687  -1.4607   0.6446   1.0226   2.0505   2.6711   3.1124
     4.0771   4.2718

          k =-0.0003 0.3697 0.0000 ( 15863 PWs)   bands (ev):

   -69.6714 -68.8760 -36.5454 -36.2597 -36.0679 -35.6594 -35.4298 -35.2259
   -21.3595 -21.2777 -21.2718 -21.2703 -21.2686 -21.2626 -21.2512 -20.5874
   -20.5250 -20.5163 -20.5135 -20.5031 -20.4963 -20.4816 -19.6735 -18.7880
   -12.6444  -7.9486  -6.7025  -6.2561  -6.1626  -5.6608  -4.9183  -4.8001
    -3.7717  -3.0300  -1.7276   0.6545   1.7516   2.4341   3.1106   3.8265
     4.2390   4.6299

          k =-0.0004 0.4621 0.0000 ( 15908 PWs)   bands (ev):

   -69.6626 -68.8675 -36.6824 -36.2321 -36.0995 -35.7755 -35.4147 -35.2556
   -21.3517 -21.2795 -21.2776 -21.2663 -21.2608 -21.2600 -21.2505 -20.5834
   -20.5289 -20.5161 -20.5124 -20.4993 -20.4871 -20.4848 -19.6331 -18.7245
   -12.3477  -8.4740  -6.6141  -6.2415  -6.1219  -5.5727  -5.0628  -4.9666
    -3.4976  -3.0789  -1.7752   0.8351   2.4618   2.7626   3.4303   3.8612
     4.6094   4.8691

          k = 0.0005-0.5545 0.0000 ( 15918 PWs)   bands (ev):

   -69.6594 -68.8644 -36.7317 -36.2244 -36.1111 -35.8149 -35.4090 -35.2665
   -21.3498 -21.2808 -21.2801 -21.2644 -21.2598 -21.2554 -21.2498 -20.5826
   -20.5304 -20.5172 -20.5108 -20.4979 -20.4889 -20.4802 -19.6237 -18.7046
   -12.2068  -8.7180  -6.5174  -6.2852  -6.0712  -5.6109  -5.1479  -4.9800
    -3.3811  -3.0651  -1.7651   0.9803   2.7701   2.9306   3.5775   3.7302
     4.7406   4.9285

          k = 0.0798 0.0462 0.0000 ( 15991 PWs)   bands (ev):

   -69.7040 -68.9076 -36.3905 -35.9943 -35.9484 -35.5110 -35.1541 -35.1102
   -21.4183 -21.2859 -21.2785 -21.2757 -21.2581 -21.2565 -21.2354 -20.6350
   -20.5289 -20.5192 -20.5174 -20.5090 -20.5074 -20.4554 -20.0243 -19.1346
   -13.1329  -8.2095  -6.7813  -6.5508  -5.6094  -5.1434  -5.0405  -3.5829
    -3.3471  -2.7045  -0.5142  -0.0120   0.5786   1.5295   1.7987   2.3931
     3.4500   3.7178

          k = 0.0797 0.1386 0.0000 ( 15946 PWs)   bands (ev):

   -69.6981 -68.9018 -36.3660 -36.0979 -35.9732 -35.4966 -35.2454 -35.1351
   -21.4049 -21.2840 -21.2794 -21.2733 -21.2615 -21.2568 -21.2407 -20.6218
   -20.5249 -20.5192 -20.5148 -20.5118 -20.5083 -20.4607 -19.9359 -19.0598
   -13.0944  -7.9643  -6.9103  -6.4277  -5.7592  -5.0408  -4.9500  -4.1163
    -3.8096  -2.6706  -0.7216   0.0879   0.8393   1.6076   1.9497   2.5627
     3.6389   3.8582

          k = 0.0797 0.2310 0.0000 ( 15915 PWs)   bands (ev):

   -69.6878 -68.8918 -36.3250 -36.2663 -36.0191 -35.4818 -35.3911 -35.1786
   -21.3840 -21.2825 -21.2780 -21.2684 -21.2667 -21.2587 -21.2487 -20.6039
   -20.5217 -20.5167 -20.5139 -20.5104 -20.5094 -20.4696 -19.8068 -18.9406
   -12.9808  -7.6095  -6.9434  -6.3982  -5.9795  -5.1628  -4.8734  -4.5304
    -4.2189  -2.7955  -1.1056   0.2995   1.0890   1.9509   2.3386   2.9607
     3.9335   4.1224

          k = 0.0796 0.3235 0.0000 ( 15897 PWs)   bands (ev):

   -69.6758 -68.8803 -36.4565 -36.2755 -36.0720 -35.5834 -35.4354 -35.2281
   -21.3640 -21.2799 -21.2730 -21.2714 -21.2655 -21.2634 -21.2526 -20.5899
   -20.5227 -20.5188 -20.5125 -20.5050 -20.5015 -20.4791 -19.6961 -18.8221
   -12.7600  -7.6122  -6.7890  -6.5128  -5.9608  -5.6526  -5.0056  -4.5275
    -4.1478  -2.9882  -1.4564   0.4982   1.4456   2.3494   2.9511   3.5990
     4.1171   4.4752

          k = 0.0795 0.4159 0.0000 ( 15919 PWs)   bands (ev):

   -69.6655 -68.8703 -36.6138 -36.2387 -36.1174 -35.7188 -35.4189 -35.2703
   -21.3519 -21.2783 -21.2743 -21.2703 -21.2648 -21.2610 -21.2523 -20.5831
   -20.5270 -20.5153 -20.5150 -20.5010 -20.4891 -20.4859 -19.6328 -18.7381
   -12.4646  -8.0943  -6.7879  -6.3247  -5.9396  -5.6515  -5.2585  -4.6176
    -3.9555  -3.0257  -1.5859   0.6738   1.9674   2.7441   3.2931   3.9903
     4.4193   4.8662

          k = 0.0794 0.5083 0.0000 ( 15893 PWs)   bands (ev):

   -69.6594 -68.8645 -36.7029 -36.2211 -36.1433 -35.7926 -35.4084 -35.2944
   -21.3476 -21.2801 -21.2795 -21.2656 -21.2611 -21.2567 -21.2519 -20.5810
   -20.5294 -20.5173 -20.5119 -20.4990 -20.4903 -20.4801 -19.6094 -18.6978
   -12.2291  -8.5167  -6.7306  -6.2364  -5.9212  -5.5705  -5.4373  -4.7089
    -3.8248  -2.9731  -1.5697   0.9044   2.4456   2.8771   3.2858   4.0277
     4.6985   5.1910

          k = 0.0803-0.5083 0.0000 ( 15893 PWs)   bands (ev):

   -69.6594 -68.8644 -36.7033 -36.2213 -36.1429 -35.7929 -35.4083 -35.2943
   -21.3476 -21.2807 -21.2789 -21.2651 -21.2617 -21.2568 -21.2516 -20.5810
   -20.5294 -20.5173 -20.5120 -20.4989 -20.4903 -20.4801 -19.6094 -18.6978
   -12.2290  -8.5171  -6.7296  -6.2380  -5.9221  -5.5693  -5.4378  -4.7091
    -3.8246  -2.9734  -1.5702   0.9037   2.4354   2.8914   3.2878   4.0304
     4.6969   5.1914

          k = 0.0802-0.4159 0.0000 ( 15909 PWs)   bands (ev):

   -69.6654 -68.8702 -36.6147 -36.2390 -36.1165 -35.7194 -35.4188 -35.2701
   -21.3520 -21.2787 -21.2744 -21.2698 -21.2652 -21.2610 -21.2521 -20.5831
   -20.5269 -20.5153 -20.5151 -20.5009 -20.4891 -20.4859 -19.6326 -18.7380
   -12.4644  -8.0953  -6.7870  -6.3274  -5.9405  -5.6506  -5.2590  -4.6184
    -3.9547  -3.0263  -1.5870   0.6739   1.9619   2.7552   3.2966   3.9934
     4.4163   4.8674

          k = 0.0801-0.3235 0.0000 ( 15899 PWs)   bands (ev):

   -69.6758 -68.8802 -36.4577 -36.2758 -36.0711 -35.5841 -35.4353 -35.2280
   -21.3641 -21.2800 -21.2731 -21.2715 -21.2656 -21.2630 -21.2526 -20.5900
   -20.5227 -20.5188 -20.5125 -20.5049 -20.5015 -20.4791 -19.6959 -18.8219
   -12.7597  -7.6130  -6.7900  -6.5130  -5.9627  -5.6525  -5.0049  -4.5297
    -4.1471  -2.9883  -1.4577   0.5012   1.4440   2.3523   2.9511   3.5963
     4.1175   4.4767

          k = 0.0800-0.2310 0.0000 ( 15913 PWs)   bands (ev):

   -69.6877 -68.8918 -36.3248 -36.2679 -36.0182 -35.4818 -35.3914 -35.1789
   -21.3841 -21.2825 -21.2775 -21.2690 -21.2674 -21.2579 -21.2488 -20.6040
   -20.5217 -20.5166 -20.5140 -20.5103 -20.5094 -20.4697 -19.8066 -18.9404
   -12.9803  -7.6094  -6.9427  -6.4000  -5.9806  -5.1641  -4.8733  -4.5320
    -4.2187  -2.7942  -1.1069   0.3034   1.0868   1.9476   2.3373   2.9597
     3.9347   4.1222

          k = 0.0800-0.1386 0.0000 ( 15948 PWs)   bands (ev):

   -69.6980 -68.9018 -36.3659 -36.0990 -35.9725 -35.4965 -35.2449 -35.1361
   -21.4050 -21.2833 -21.2799 -21.2735 -21.2621 -21.2561 -21.2408 -20.6219
   -20.5249 -20.5192 -20.5148 -20.5117 -20.5084 -20.4608 -19.9358 -19.0596
   -13.0939  -7.9637  -6.9067  -6.4344  -5.7572  -5.0409  -4.9532  -4.1130
    -3.8131  -2.6686  -0.7189   0.0840   0.8377   1.6034   1.9501   2.5630
     3.6412   3.8558

          k = 0.0799-0.0462 0.0000 ( 15991 PWs)   bands (ev):

   -69.7040 -68.9075 -36.3905 -35.9948 -35.9481 -35.5110 -35.1530 -35.1115
   -21.4183 -21.2856 -21.2789 -21.2756 -21.2586 -21.2559 -21.2354 -20.6350
   -20.5289 -20.5192 -20.5175 -20.5089 -20.5075 -20.4554 -20.0242 -19.1345
   -13.1326  -8.2092  -6.7752  -6.5588  -5.6078  -5.1400  -5.0457  -3.5766
    -3.3537  -2.7035  -0.5069  -0.0219   0.5787   1.5311   1.7956   2.3946
     3.4533   3.7135

          k = 0.1596 0.0924 0.0000 ( 15929 PWs)   bands (ev):

   -69.6954 -68.8992 -36.3548 -36.1478 -35.9803 -35.4913 -35.2917 -35.1400
   -21.3989 -21.2850 -21.2781 -21.2718 -21.2614 -21.2587 -21.2431 -20.6165
   -20.5236 -20.5184 -20.5137 -20.5133 -20.5085 -20.4630 -19.8994 -19.0273
   -13.0714  -7.8761  -6.9280  -6.3474  -5.8748  -5.0380  -4.8974  -4.4273
    -3.7706  -2.6925  -1.0026   0.4595   0.7044   1.6453   2.1714   2.5956
     3.7314   3.9529

          k = 0.1595 0.1848 0.0000 ( 15915 PWs)   bands (ev):

   -69.6879 -68.8919 -36.3241 -36.2667 -36.0184 -35.4822 -35.3919 -35.1761
   -21.3837 -21.2843 -21.2763 -21.2684 -21.2660 -21.2586 -21.2493 -20.6039
   -20.5217 -20.5168 -20.5141 -20.5103 -20.5093 -20.4695 -19.8072 -18.9411
   -12.9822  -7.6118  -6.9470  -6.3936  -5.9780  -5.1670  -4.8698  -4.5329
    -4.2044  -2.7992  -1.1123   0.3097   1.0926   1.9488   2.3406   2.9600
     3.9300   4.1249

          k = 0.1595 0.2772 0.0000 ( 15920 PWs)   bands (ev):

   -69.6776 -68.8820 -36.4089 -36.2830 -36.0869 -35.5458 -35.4353 -35.2397
   -21.3653 -21.2824 -21.2733 -21.2716 -21.2642 -21.2597 -21.2564 -20.5907
   -20.5220 -20.5200 -20.5122 -20.5054 -20.5033 -20.4783 -19.7030 -18.8342
   -12.7991  -7.2809  -7.0032  -6.6603  -5.9096  -5.5139  -4.9781  -4.6152
    -4.2738  -3.0124  -1.2108   0.3327   1.3892   2.3232   2.8822   3.5252
     4.0100   4.4226

          k = 0.1594 0.3697 0.0000 ( 15902 PWs)   bands (ev):

   -69.6672 -68.8719 -36.5401 -36.2441 -36.1615 -35.6580 -35.4202 -35.3088
   -21.3503 -21.2786 -21.2759 -21.2691 -21.2664 -21.2627 -21.2551 -20.5817
   -20.5251 -20.5185 -20.5146 -20.5020 -20.4915 -20.4860 -19.6237 -18.7420
   -12.5334  -7.5346  -6.9932  -6.4632  -6.0246  -5.6978  -5.1753  -4.5847
    -4.1898  -3.1475  -1.2920   0.5228   1.5986   2.7129   3.3484   4.0275
     4.2823   4.8104

          k = 0.1593 0.4621 0.0000 ( 15899 PWs)   bands (ev):

   -69.6596 -68.8646 -36.6321 -36.2268 -36.2085 -35.7374 -35.4072 -35.3602
   -21.3424 -21.2799 -21.2760 -21.2705 -21.2630 -21.2605 -21.2541 -20.5773
   -20.5274 -20.5173 -20.5152 -20.5007 -20.4930 -20.4799 -19.5808 -18.6844
   -12.2718  -7.9999  -6.9138  -6.4238  -5.8918  -5.6174  -5.3628  -4.5187
    -4.3401  -3.0990  -1.2198   0.7668   1.8862   2.7277   3.1851   4.3340
     4.6938   5.4597

          k = 0.1592 0.5545 0.0000 ( 15912 PWs)   bands (ev):

   -69.6568 -68.8619 -36.6656 -36.2421 -36.2049 -35.7655 -35.4031 -35.3782
   -21.3402 -21.2811 -21.2783 -21.2668 -21.2639 -21.2573 -21.2545 -20.5762
   -20.5281 -20.5186 -20.5134 -20.5006 -20.4949 -20.4761 -19.5682 -18.6655
   -12.1574  -8.1957  -6.9132  -6.3848  -5.8061  -5.5585  -5.4623  -4.4721
    -4.4508  -3.0525  -1.1555   0.9481   2.1557   2.4175   3.0345   4.4805
     4.8184   5.7825

          k = 0.1601-0.4621 0.0000 ( 15899 PWs)   bands (ev):

   -69.6595 -68.8645 -36.6334 -36.2292 -36.2052 -35.7382 -35.4071 -35.3600
   -21.3425 -21.2807 -21.2755 -21.2699 -21.2638 -21.2610 -21.2533 -20.5774
   -20.5273 -20.5173 -20.5152 -20.5005 -20.4931 -20.4799 -19.5806 -18.6843
   -12.2716  -8.0012  -6.9131  -6.4261  -5.8936  -5.6192  -5.3619  -4.5196
    -4.3385  -3.0992  -1.2218   0.7663   1.8802   2.7427   3.1911   4.3391
     4.6912   5.4614

          k = 0.1600-0.3697 0.0000 ( 15906 PWs)   bands (ev):

   -69.6671 -68.8718 -36.5423 -36.2450 -36.1592 -35.6592 -35.4201 -35.3087
   -21.3505 -21.2784 -21.2769 -21.2685 -21.2663 -21.2632 -21.2545 -20.5818
   -20.5251 -20.5185 -20.5147 -20.5018 -20.4915 -20.4861 -19.6234 -18.7417
   -12.5328  -7.5362  -6.9944  -6.4651  -6.0251  -5.6997  -5.1752  -4.5871
    -4.1891  -3.1470  -1.2940   0.5252   1.5953   2.7242   3.3510   4.0315
     4.2774   4.8141

          k = 0.1599-0.2773 0.0000 ( 15920 PWs)   bands (ev):

   -69.6774 -68.8818 -36.4111 -36.2832 -36.0854 -35.5466 -35.4352 -35.2401
   -21.3656 -21.2821 -21.2730 -21.2725 -21.2651 -21.2585 -21.2565 -20.5908
   -20.5219 -20.5200 -20.5123 -20.5053 -20.5032 -20.4784 -19.7027 -18.8339
   -12.7981  -7.2822  -7.0031  -6.6608  -5.9124  -5.5159  -4.9779  -4.6175
    -4.2756  -3.0103  -1.2116   0.3360   1.3867   2.3255   2.8808   3.5218
     4.0111   4.4259

          k = 0.1599-0.1848 0.0000 ( 15911 PWs)   bands (ev):

   -69.6878 -68.8918 -36.3242 -36.2682 -36.0177 -35.4820 -35.3919 -35.1774
   -21.3840 -21.2835 -21.2767 -21.2690 -21.2669 -21.2577 -21.2493 -20.6039
   -20.5217 -20.5167 -20.5141 -20.5103 -20.5094 -20.4696 -19.8069 -18.9407
   -12.9810  -7.6108  -6.9452  -6.3973  -5.9800  -5.1672  -4.8715  -4.5334
    -4.2091  -2.7955  -1.1102   0.3086   1.0890   1.9450   2.3400   2.9595
     3.9322   4.1240

          k = 0.1598-0.0924 0.0000 ( 15931 PWs)   bands (ev):

   -69.6954 -68.8992 -36.3548 -36.1484 -35.9801 -35.4912 -35.2910 -35.1415
   -21.3990 -21.2837 -21.2794 -21.2717 -21.2624 -21.2577 -21.2430 -20.6165
   -20.5236 -20.5184 -20.5137 -20.5132 -20.5086 -20.4631 -19.8992 -19.0271
   -13.0705  -7.8748  -6.9244  -6.3559  -5.8723  -5.0366  -4.9026  -4.4227
    -3.7777  -2.6890  -0.9971   0.4495   0.7028   1.6453   2.1702   2.5972
[...]

   -69.6759 -68.8803 -36.4558 -36.2769 -36.0700 -35.5842 -35.4356 -35.2254
   -21.3638 -21.2811 -21.2729 -21.2706 -21.2659 -21.2608 -21.2544 -20.5898
   -20.5226 -20.5188 -20.5123 -20.5047 -20.5015 -20.4788 -19.6965 -18.8224
   -12.7614  -7.6153  -6.7919  -6.5140  -5.9585  -5.6521  -5.0002  -4.5279
    -4.1386  -2.9913  -1.4597   0.5024   1.4455   2.3539   2.9547   3.5938
     4.1144   4.4780

          k = 0.2397-0.1386 0.0000 ( 15895 PWs)   bands (ev):

   -69.6835 -68.8876 -36.3511 -36.3046 -36.0236 -35.5039 -35.4357 -35.1821
   -21.3762 -21.2831 -21.2746 -21.2680 -21.2660 -21.2616 -21.2506 -20.5982
   -20.5210 -20.5183 -20.5107 -20.5094 -20.5082 -20.4726 -19.7654 -18.8968
   -12.9135  -7.6643  -6.7798  -6.2966  -6.1744  -5.4349  -4.8385  -4.6435
    -3.9591  -2.8719  -1.4643   0.6443   1.0331   2.0481   2.6766   3.1107
     4.0702   4.2765

          k = 0.2396-0.0462 0.0000 ( 15911 PWs)   bands (ev):

   -69.6879 -68.8919 -36.3245 -36.2642 -36.0199 -35.4820 -35.3906 -35.1767
   -21.3837 -21.2830 -21.2789 -21.2670 -21.2649 -21.2600 -21.2491 -20.6037
   -20.5216 -20.5167 -20.5139 -20.5103 -20.5092 -20.4693 -19.8075 -18.9412
   -12.9823  -7.6113  -6.9458  -6.3944  -5.9777  -5.1647  -4.8715  -4.5291
    -4.2090  -2.7967  -1.1075   0.3053   1.0904   1.9517   2.3423   2.9630
     3.9263   4.1259

          k = 0.2395 0.0462 0.0000 ( 15909 PWs)   bands (ev):

   -69.6879 -68.8919 -36.3242 -36.2643 -36.0198 -35.4821 -35.3910 -35.1759
   -21.3836 -21.2839 -21.2779 -21.2670 -21.2646 -21.2602 -21.2493 -20.6037
   -20.5216 -20.5167 -20.5139 -20.5103 -20.5092 -20.4693 -19.8076 -18.9414
   -12.9829  -7.6121  -6.9469  -6.3927  -5.9769  -5.1657  -4.8698  -4.5300
    -4.2046  -2.7989  -1.1106   0.3099   1.0917   1.9521   2.3418   2.9626
     3.9253   4.1265

          k = 0.3193 0.1848 0.0000 ( 15888 PWs)   bands (ev):

   -69.6718 -68.8763 -36.5408 -36.2615 -36.0663 -35.6587 -35.4306 -35.2207
   -21.3587 -21.2792 -21.2713 -21.2697 -21.2671 -21.2606 -21.2545 -20.5870
   -20.5250 -20.5164 -20.5131 -20.5031 -20.4965 -20.4811 -19.6746 -18.7894
   -12.6492  -7.9529  -6.7078  -6.2615  -6.1388  -5.6616  -4.9022  -4.8001
    -3.7547  -3.0398  -1.7322   0.6493   1.7583   2.4340   3.1121   3.8239
     4.2338   4.6312

          k = 0.3192 0.2772 0.0000 ( 15921 PWs)   bands (ev):

   -69.6658 -68.8706 -36.6102 -36.2406 -36.1152 -35.7184 -35.4195 -35.2653
   -21.3513 -21.2780 -21.2745 -21.2693 -21.2645 -21.2592 -21.2555 -20.5827
   -20.5270 -20.5153 -20.5148 -20.5009 -20.4892 -20.4854 -19.6336 -18.7392
   -12.4689  -8.0990  -6.7850  -6.3235  -5.9303  -5.6518  -5.2507  -4.6100
    -3.9455  -3.0330  -1.5900   0.6675   1.9587   2.7539   3.2953   3.9911
     4.4154   4.8657

          k = 0.3192 0.3696 0.0000 ( 15899 PWs)   bands (ev):

   -69.6598 -68.8648 -36.6289 -36.2294 -36.2063 -35.7368 -35.4076 -35.3569
   -21.3420 -21.2800 -21.2742 -21.2697 -21.2634 -21.2618 -21.2549 -20.5770
   -20.5273 -20.5170 -20.5153 -20.5006 -20.4927 -20.4800 -19.5813 -18.6851
   -12.2748  -8.0023  -6.9071  -6.4237  -5.8902  -5.6179  -5.3554  -4.5149
    -4.3327  -3.1047  -1.2224   0.7599   1.8744   2.7345   3.1874   4.3366
     4.6939   5.4587

          k = 0.3191 0.4620 0.0000 ( 15901 PWs)   bands (ev):

   -69.6554 -68.8605 -36.5877 -36.3531 -36.1943 -35.7116 -35.4692 -35.3977
   -21.3332 -21.2813 -21.2736 -21.2699 -21.2681 -21.2622 -21.2544 -20.5716
   -20.5258 -20.5196 -20.5156 -20.5022 -20.4982 -20.4739 -19.5362 -18.6433
   -12.1372  -7.6713  -7.0034  -6.6728  -6.0545  -5.4633  -5.1603  -4.9047
    -4.2897  -3.3028  -0.7838   0.9989   1.6475   2.0987   2.8969   4.8783
     5.0660   6.0582

          k = 0.3190 0.5544 0.0000 ( 15864 PWs)   bands (ev):

   -69.6538 -68.8589 -36.5183 -36.4563 -36.1858 -35.6782 -35.5360 -35.3944
   -21.3294 -21.2817 -21.2735 -21.2717 -21.2666 -21.2654 -21.2536 -20.5693
   -20.5234 -20.5222 -20.5157 -20.5032 -20.5004 -20.4717 -19.5182 -18.6276
   -12.0905  -7.3367  -7.0983  -6.9157  -5.9073  -5.7200  -5.1828  -4.6597
    -4.4207  -3.4144  -0.5167   1.3615   1.4180   1.5321   2.7808   5.0718
     5.5064   5.8473

          k = 0.3189 0.6468 0.0000 ( 15915 PWs)   bands (ev):

   -69.6553 -68.8604 -36.5900 -36.3521 -36.1938 -35.7124 -35.4695 -35.3975
   -21.3334 -21.2817 -21.2742 -21.2700 -21.2673 -21.2627 -21.2537 -20.5717
   -20.5258 -20.5197 -20.5156 -20.5021 -20.4982 -20.4739 -19.5360 -18.6431
   -12.1367  -7.6715  -7.0050  -6.6739  -6.0580  -5.4622  -5.1614  -4.9062
    -4.2906  -3.3007  -0.7844   1.0001   1.6473   2.1069   2.9004   4.8790
     5.0659   6.0600

          k = 0.3197-0.3696 0.0000 ( 15899 PWs)   bands (ev):

   -69.6597 -68.8646 -36.6312 -36.2308 -36.2039 -35.7377 -35.4073 -35.3578
   -21.3422 -21.2806 -21.2745 -21.2696 -21.2635 -21.2620 -21.2538 -20.5771
   -20.5273 -20.5171 -20.5152 -20.5005 -20.4928 -20.4799 -19.5810 -18.6847
   -12.2736  -8.0024  -6.9092  -6.4258  -5.8931  -5.6203  -5.3580  -4.5161
    -4.3338  -3.1020  -1.2222   0.7619   1.8727   2.7461   3.1922   4.3399
     4.6927   5.4604

          k = 0.3197-0.2772 0.0000 ( 15923 PWs)   bands (ev):

   -69.6657 -68.8704 -36.6122 -36.2403 -36.1149 -35.7190 -35.4192 -35.2669
   -21.3516 -21.2784 -21.2745 -21.2694 -21.2651 -21.2597 -21.2540 -20.5828
   -20.5269 -20.5153 -20.5149 -20.5008 -20.4891 -20.4856 -19.6333 -18.7387
   -12.4671  -8.0981  -6.7853  -6.3263  -5.9358  -5.6523  -5.2541  -4.6137
    -3.9470  -3.0293  -1.5887   0.6695   1.9564   2.7604   3.2989   3.9933
     4.4138   4.8678

          k = 0.3196-0.1848 0.0000 ( 15878 PWs)   bands (ev):

   -69.6716 -68.8762 -36.5424 -36.2610 -36.0666 -35.6588 -35.4303 -35.2225
   -21.3591 -21.2785 -21.2721 -21.2698 -21.2677 -21.2609 -21.2533 -20.5871
   -20.5249 -20.5163 -20.5132 -20.5031 -20.4964 -20.4813 -19.6743 -18.7889
   -12.6473  -7.9514  -6.7055  -6.2603  -6.1486  -5.6620  -4.9081  -4.8009
    -3.7595  -3.0338  -1.7300   0.6509   1.7556   2.4338   3.1125   3.8240
     4.2351   4.6320

          k = 0.3195-0.0924 0.0000 ( 15897 PWs)   bands (ev):

   -69.6761 -68.8804 -36.4526 -36.2764 -36.0724 -35.5823 -35.4357 -35.2257
   -21.3636 -21.2808 -21.2733 -21.2697 -21.2656 -21.2617 -21.2545 -20.5897
   -20.5227 -20.5187 -20.5122 -20.5050 -20.5015 -20.4787 -19.6970 -18.8229
   -12.7624  -7.6134  -6.7901  -6.5130  -5.9553  -5.6519  -5.0010  -4.5244
    -4.1399  -2.9893  -1.4565   0.4991   1.4481   2.3481   2.9500   3.6009
     4.1130   4.4740

          k = 0.3194-0.0000 0.0000 ( 15916 PWs)   bands (ev):

   -69.6777 -68.8820 -36.4048 -36.2830 -36.0891 -35.5440 -35.4353 -35.2392
   -21.3650 -21.2823 -21.2749 -21.2697 -21.2625 -21.2604 -21.2575 -20.5905
   -20.5219 -20.5198 -20.5119 -20.5055 -20.5033 -20.4780 -19.7037 -18.8348
   -12.8006  -7.2802  -7.0019  -6.6601  -5.9074  -5.5138  -4.9737  -4.6155
    -4.2700  -3.0118  -1.2087   0.3346   1.3887   2.3219   2.8784   3.5309
     4.0069   4.4183

          k = 0.3194 0.0924 0.0000 ( 15897 PWs)   bands (ev):

   -69.6761 -68.8805 -36.4517 -36.2770 -36.0720 -35.5826 -35.4359 -35.2243
   -21.3634 -21.2817 -21.2725 -21.2694 -21.2654 -21.2613 -21.2554 -20.5896
   -20.5227 -20.5188 -20.5121 -20.5049 -20.5016 -20.4786 -19.6971 -18.8232
   -12.7637  -7.6145  -6.7920  -6.5127  -5.9519  -5.6504  -4.9977  -4.5235
    -4.1366  -2.9934  -1.4589   0.5006   1.4495   2.3503   2.9498   3.6004
     4.1117   4.4737

          k = 0.3991 0.2310 0.0000 ( 15916 PWs)   bands (ev):

   -69.6632 -68.8680 -36.6773 -36.2339 -36.0974 -35.7741 -35.4156 -35.2499
   -21.3509 -21.2783 -21.2773 -21.2657 -21.2609 -21.2580 -21.2543 -20.5829
   -20.5289 -20.5157 -20.5125 -20.4993 -20.4865 -20.4851 -19.6342 -18.7259
   -12.3536  -8.4783  -6.6172  -6.2153  -6.1222  -5.5765  -5.0601  -4.9492
    -3.4814  -3.0894  -1.7804   0.8241   2.4551   2.7595   3.4253   3.8581
     4.6094   4.8688

          k = 0.3990 0.3234 0.0000 ( 15906 PWs)   bands (ev):

   -69.6599 -68.8649 -36.6982 -36.2230 -36.1413 -35.7914 -35.4092 -35.2891
   -21.3469 -21.2801 -21.2774 -21.2643 -21.2599 -21.2584 -21.2544 -20.5804
   -20.5294 -20.5169 -20.5121 -20.4990 -20.4897 -20.4803 -19.6102 -18.6991
   -12.2343  -8.5203  -6.7219  -6.2349  -5.9129  -5.5696  -5.4306  -4.6978
    -3.8169  -2.9789  -1.5739   0.8913   2.4221   2.8875   3.2837   4.0273
     4.6975   5.1913

          k = 0.3990 0.4158 0.0000 ( 15896 PWs)   bands (ev):

   -69.6571 -68.8621 -36.6603 -36.2423 -36.2061 -35.7638 -35.4036 -35.3750
   -21.3397 -21.2808 -21.2762 -21.2661 -21.2631 -21.2598 -21.2556 -20.5757
   -20.5280 -20.5182 -20.5134 -20.5007 -20.4944 -20.4762 -19.5688 -18.6663
   -12.1612  -8.1961  -6.9059  -6.3824  -5.8042  -5.5553  -5.4549  -4.4641
    -4.4479  -3.0579  -1.1563   0.9385   2.1440   2.4108   3.0303   4.4810
     4.8183   5.7816

          k = 0.3989 0.5082 0.0000 ( 15911 PWs)   bands (ev):

   -69.6555 -68.8605 -36.5855 -36.3544 -36.1947 -35.7105 -35.4697 -35.3978
   -21.3332 -21.2809 -21.2735 -21.2704 -21.2680 -21.2614 -21.2552 -20.5715
   -20.5258 -20.5196 -20.5155 -20.5023 -20.4981 -20.4740 -19.5363 -18.6435
   -12.1378  -7.6701  -7.0023  -6.6725  -6.0502  -5.4671  -5.1592  -4.9020
    -4.2913  -3.3028  -0.7810   1.0025   1.6539   2.0808   2.8904   4.8814
     5.0626   6.0546

          k = 0.3988 0.6006 0.0000 ( 15895 PWs)   bands (ev):

   -69.6554 -68.8605 -36.5865 -36.3539 -36.1946 -35.7106 -35.4701 -35.3977
   -21.3333 -21.2808 -21.2743 -21.2711 -21.2668 -21.2614 -21.2551 -20.5716
   -20.5258 -20.5196 -20.5155 -20.5022 -20.4982 -20.4739 -19.5362 -18.6434
   -12.1374  -7.6699  -7.0035  -6.6736  -6.0500  -5.4683  -5.1596  -4.9027
    -4.2927  -3.3010  -0.7803   1.0044   1.6567   2.0802   2.8901   4.8812
     5.0623   6.0542

          k = 0.3988 0.6930 0.0000 ( 15898 PWs)   bands (ev):

   -69.6570 -68.8620 -36.6621 -36.2424 -36.2054 -35.7643 -35.4034 -35.3762
   -21.3400 -21.2810 -21.2769 -21.2667 -21.2628 -21.2593 -21.2549 -20.5759
   -20.5280 -20.5183 -20.5134 -20.5006 -20.4945 -20.4761 -19.5686 -18.6660
   -12.1600  -8.1955  -6.9089  -6.3835  -5.8056  -5.5572  -5.4584  -4.4669
    -4.4479  -3.0550  -1.1547   0.9420   2.1485   2.4129   3.0316   4.4816
     4.8189   5.7820

          k = 0.3996-0.3234 0.0000 ( 15902 PWs)   bands (ev):

   -69.6598 -68.8647 -36.7001 -36.2227 -36.1413 -35.7919 -35.4088 -35.2909
   -21.3472 -21.2807 -21.2777 -21.2648 -21.2607 -21.2578 -21.2530 -20.5806
   -20.5294 -20.5170 -20.5120 -20.4989 -20.4899 -20.4802 -19.6099 -18.6986
   -12.2324  -8.5190  -6.7246  -6.2370  -5.9179  -5.5701  -5.4339  -4.7021
    -3.8180  -2.9755  -1.5720   0.8948   2.4210   2.8974   3.2866   4.0304
     4.6971   5.1921

          k = 0.3995-0.2310 0.0000 ( 15919 PWs)   bands (ev):

   -69.6630 -68.8678 -36.6791 -36.2334 -36.0979 -35.7745 -35.4152 -35.2519
   -21.3513 -21.2790 -21.2772 -21.2661 -21.2612 -21.2584 -21.2527 -20.5831
   -20.5289 -20.5158 -20.5124 -20.4993 -20.4867 -20.4850 -19.6339 -18.7254
   -12.3514  -8.4766  -6.6164  -6.2260  -6.1222  -5.5763  -5.0616  -4.9557
    -3.4860  -3.0829  -1.7782   0.8275   2.4566   2.7619   3.4279   3.8593
     4.6089   4.8704

          k = 0.3994-0.1386 0.0000 ( 15919 PWs)   bands (ev):

   -69.6658 -68.8705 -36.6099 -36.2396 -36.1171 -35.7174 -35.4194 -35.2674
   -21.3515 -21.2777 -21.2743 -21.2700 -21.2650 -21.2593 -21.2547 -20.5827
   -20.5269 -20.5151 -20.5148 -20.5010 -20.4892 -20.4855 -19.6335 -18.7390
   -12.4677  -8.0955  -6.7883  -6.3193  -5.9338  -5.6526  -5.2546  -4.6122
    -3.9492  -3.0266  -1.5857   0.6707   1.9713   2.7329   3.2869   3.9873
     4.4231   4.8628

          k = 0.3993-0.0462 0.0000 ( 15921 PWs)   bands (ev):

   -69.6674 -68.8721 -36.5354 -36.2438 -36.1640 -35.6557 -35.4206 -35.3078
   -21.3500 -21.2790 -21.2739 -21.2702 -21.2662 -21.2615 -21.2568 -20.5814
   -20.5251 -20.5183 -20.5143 -20.5021 -20.4915 -20.4858 -19.6243 -18.7427
   -12.5356  -7.5334  -6.9913  -6.4609  -6.0222  -5.6968  -5.1713  -4.5819
    -4.1876  -3.1477  -1.2885   0.5244   1.6003   2.6981   3.3408   4.0237
     4.2897   4.8028

          k = 0.3993 0.0462 0.0000 ( 15923 PWs)   bands (ev):

   -69.6675 -68.8721 -36.5349 -36.2442 -36.1637 -35.6558 -35.4207 -35.3070
   -21.3499 -21.2791 -21.2740 -21.2700 -21.2655 -21.2617 -21.2572 -20.5813
   -20.5251 -20.5184 -20.5143 -20.5021 -20.4915 -20.4858 -19.6244 -18.7428
   -12.5362  -7.5343  -6.9906  -6.4617  -6.0208  -5.6955  -5.1694  -4.5820
    -4.1857  -3.1499  -1.2898   0.5245   1.5997   2.6997   3.3410   4.0244
     4.2887   4.8024

          k = 0.3992 0.1386 0.0000 ( 15919 PWs)   bands (ev):

   -69.6659 -68.8706 -36.6087 -36.2402 -36.1166 -35.7173 -35.4197 -35.2657
   -21.3512 -21.2777 -21.2743 -21.2695 -21.2646 -21.2588 -21.2560 -20.5826
   -20.5270 -20.5152 -20.5148 -20.5010 -20.4892 -20.4854 -19.6337 -18.7394
   -12.4694  -8.0972  -6.7871  -6.3189  -5.9294  -5.6514  -5.2515  -4.6093
    -3.9470  -3.0308  -1.5880   0.6688   1.9686   2.7365   3.2868   3.9878
     4.4218   4.8617

          k =-0.4789-0.2772 0.0000 ( 15922 PWs)   bands (ev):

   -69.6600 -68.8649 -36.7265 -36.2262 -36.1088 -35.8134 -35.4100 -35.2605
   -21.3491 -21.2802 -21.2787 -21.2635 -21.2579 -21.2565 -21.2533 -20.5820
   -20.5304 -20.5169 -20.5109 -20.4979 -20.4882 -20.4805 -19.6246 -18.7060
   -12.2130  -8.7220  -6.5183  -6.2582  -6.0743  -5.6127  -5.1439  -4.9620
    -3.3651  -3.0765  -1.7707   0.9658   2.7554   2.9249   3.5692   3.7281
     4.7431   4.9284

          k =-0.4790-0.1848 0.0000 ( 15904 PWs)   bands (ev):

   -69.6600 -68.8649 -36.6976 -36.2227 -36.1419 -35.7910 -35.4093 -35.2892
   -21.3469 -21.2796 -21.2780 -21.2647 -21.2593 -21.2577 -21.2554 -20.5804
   -20.5294 -20.5169 -20.5120 -20.4991 -20.4897 -20.4803 -19.6102 -18.6991
   -12.2345  -8.5195  -6.7238  -6.2315  -5.9115  -5.5716  -5.4301  -4.6977
    -3.8175  -2.9781  -1.5730   0.8928   2.4395   2.8640   3.2795   4.0251
     4.7001   5.1899

          k =-0.4791-0.0924 0.0000 ( 15888 PWs)   bands (ev):

   -69.6599 -68.8648 -36.6266 -36.2259 -36.2113 -35.7353 -35.4078 -35.3574
   -21.3419 -21.2792 -21.2748 -21.2700 -21.2634 -21.2603 -21.2563 -20.5769
   -20.5273 -20.5170 -20.5152 -20.5008 -20.4926 -20.4801 -19.5814 -18.6853
   -12.2755  -8.0001  -6.9087  -6.4193  -5.8885  -5.6153  -5.3566  -4.5138
    -4.3354  -3.1034  -1.2189   0.7632   1.8853   2.7086   3.1768   4.3341
     4.6954   5.4556

          k =-0.4792 0.0000 0.0000 ( 15906 PWs)   bands (ev):

   -69.6599 -68.8648 -36.5783 -36.2754 -36.2114 -35.6976 -35.4070 -35.4017
   -21.3391 -21.2789 -21.2749 -21.2698 -21.2682 -21.2607 -21.2564 -20.5750
   -20.5261 -20.5172 -20.5170 -20.5014 -20.4942 -20.4800 -19.5670 -18.6783
   -12.2948  -7.5852  -7.0134  -6.4759  -6.2568  -5.5038  -5.1168  -4.8979
    -4.1331  -3.2852  -1.0459   0.7142   1.6277   2.6426   3.1593   4.4515
     4.8379   5.4069

          k =-0.4792 0.0924 0.0000 ( 15901 PWs)   bands (ev):

   -69.6598 -68.8647 -36.6277 -36.2251 -36.2120 -35.7354 -35.4076 -35.3586
   -21.3421 -21.2791 -21.2755 -21.2705 -21.2628 -21.2600 -21.2561 -20.5770
   -20.5273 -20.5170 -20.5151 -20.5008 -20.4927 -20.4800 -19.5813 -18.6851
   -12.2745  -7.9989  -6.9115  -6.4192  -5.8897  -5.6159  -5.3601  -4.5142
    -4.3380  -3.1005  -1.2168   0.7656   1.8893   2.7061   3.1759   4.3331
     4.6965   5.4557

          k =-0.4793 0.1848 0.0000 ( 15904 PWs)   bands (ev):

   -69.6598 -68.8647 -36.6993 -36.2221 -36.1423 -35.7913 -35.4089 -35.2911
   -21.3472 -21.2797 -21.2786 -21.2655 -21.2595 -21.2572 -21.2542 -20.5806
   -20.5294 -20.5170 -20.5119 -20.4990 -20.4898 -20.4802 -19.6100 -18.6987
   -12.2327  -8.5179  -6.7274  -6.2321  -5.9156  -5.5733  -5.4329  -4.7019
    -3.8187  -2.9744  -1.5707   0.8970   2.4479   2.8606   3.2805   4.0258
     4.7011   5.1905

          k =-0.4785-0.8317 0.0000 ( 15918 PWs)   bands (ev):

   -69.6598 -68.8647 -36.7283 -36.2257 -36.1093 -35.8138 -35.4096 -35.2626
   -21.3495 -21.2807 -21.2790 -21.2642 -21.2584 -21.2562 -21.2518 -20.5822
   -20.5303 -20.5169 -20.5108 -20.4979 -20.4884 -20.4804 -19.6244 -18.7055
   -12.2108  -8.7202  -6.5186  -6.2691  -6.0731  -5.6134  -5.1457  -4.9688
    -3.3697  -3.0696  -1.7684   0.9703   2.7576   2.9308   3.5722   3.7300
     4.7423   4.9300

     the Fermi energy is    -0.2547 ev

!    total energy              =   -1438.35616909 Ry
     estimated scf accuracy    <          5.1E-15 Ry
     smearing contrib. (-TS)   =       0.00000065 Ry
     internal energy E=F+TS    =   -1438.35616973 Ry

     The total energy is F=E-TS. E is the sum of the following terms:
     one-electron contribution =  -14107.01699292 Ry
     hartree contribution      =    7084.40878720 Ry
     xc contribution           =    -153.69909387 Ry
     ewald contribution        =    5737.95112986 Ry

     convergence has been achieved in  29 iterations

     negative rho (up, down):  1.473E-04 0.000E+00

     Forces acting on atoms (cartesian axes, Ry/au):

     atom    1 type  2   force =    -0.00029582   -0.00012238   -0.00010721
     atom    2 type  1   force =     0.00006956   -0.00004371   -0.00000700
     atom    3 type  1   force =     0.00016680   -0.00018032    0.00005267
     atom    4 type  3   force =     0.00003547    0.00030417    0.00010090
     atom    5 type  3   force =     0.00002399    0.00004224   -0.00003936

     Total force =     0.000422     Total SCF correction =     0.000000


     Computing stress (Cartesian axis) and pressure


     negative rho (up, down):  1.473E-04 0.000E+00
          total   stress  (Ry/bohr**3)                   (kbar)     P=       -0.35
  -0.00000277  -0.00000090   0.00000015           -0.41       -0.13        0.02
  -0.00000090   0.00000222   0.00000052           -0.13        0.33        0.08
   0.00000015   0.00000052  -0.00000657            0.02        0.08       -0.97


     Writing output data file /scratch/as3359/Ta2CO2_loop/Ta.save/
 
     init_run     :     77.61s CPU     48.75s WALL (       2 calls)
     electrons    :   3147.71s CPU   1627.68s WALL (       4 calls)
     update_pot   :     61.93s CPU     38.16s WALL (       2 calls)
     forces       :     83.05s CPU     42.26s WALL (       4 calls)
     stress       :    225.98s CPU    115.10s WALL (       4 calls)

     Called by init_run:
     wfcinit      :     22.29s CPU     11.46s WALL (       2 calls)
     potinit      :     16.22s CPU      8.15s WALL (       2 calls)
     hinit0       :     35.33s CPU     26.81s WALL (       2 calls)

     Called by electrons:
     c_bands      :   2403.13s CPU   1220.16s WALL (      95 calls)
     sum_band     :    557.06s CPU    298.30s WALL (      95 calls)
     v_of_rho     :     25.88s CPU     13.78s WALL (      97 calls)
     newd         :    161.92s CPU     95.74s WALL (      97 calls)
     mix_rho      :      4.16s CPU      2.23s WALL (      95 calls)

     Called by c_bands:
     init_us_2    :     53.09s CPU     26.61s WALL (   14800 calls)
     cegterg      :   2216.15s CPU   1126.04s WALL (    7030 calls)

     Called by *egterg:
     cdiaghg      :     90.90s CPU     46.43s WALL (   31278 calls)
     h_psi        :   1674.16s CPU    853.44s WALL (   31722 calls)
     s_psi        :     84.42s CPU     42.32s WALL (   31722 calls)
     g_psi        :     14.19s CPU      7.13s WALL (   24544 calls)

     Called by h_psi:
     h_psi:calbec :     80.71s CPU     40.57s WALL (   31722 calls)
     vloc_psi     :   1488.19s CPU    760.01s WALL (   31722 calls)
     add_vuspsi   :     91.47s CPU     45.84s WALL (   31722 calls)

     General routines
     calbec       :    113.38s CPU     56.96s WALL (   40232 calls)
     fft          :     13.03s CPU      7.70s WALL (    1357 calls)
     ffts         :      0.54s CPU      0.27s WALL (     192 calls)
     fftw         :   1540.61s CPU    786.73s WALL ( 1794370 calls)
     interpolate  :      1.41s CPU      0.74s WALL (      97 calls)
 
     Parallel routines
 
     PWSCF        :      1h 0m CPU  31m17.05s WALL

 
   This run was terminated on:  10: 4:44  24Mar2022            

=------------------------------------------------------------------------------=
   JOB DONE.
=------------------------------------------------------------------------------=
