
     Program PWSCF v.6.8 starts on  6Apr2022 at 21:33:33 

     This program is part of the open-source Quantum ESPRESSO suite
     for quantum simulation of materials; please cite
         "P. Giannozzi et al., J. Phys.:Condens. Matter 21 395502 (2009);
         "P. Giannozzi et al., J. Phys.:Condens. Matter 29 465901 (2017);
         "P. Giannozzi et al., J. Chem. Phys. 152 154105 (2020);
          URL http://www.quantum-espresso.org", 
     in publications or presentations arising from this work. More details at
     http://www.quantum-espresso.org/quote

     Parallel version (MPI & OpenMP), running on       4 processor cores
     Number of MPI processes:                 2
     Threads/MPI process:                     2

     MPI processes distributed on     1 nodes
     R & G space division:  proc/nbgrp/npool/nimage =       2
     125113 MiB available memory on the printing compute node when the environment starts
 
     Reading input from Ta2CF2.relax.in
Warning: card  &CELL ignored
Warning: card     CELL_DYNAMICS='BFGS', CELL_DOFREE ='2DXY' ignored
Warning: card  / ignored

     Current dimensions of program PWSCF are:
     Max number of different atomic species (ntypx) = 10
     Max number of k-points (npk) =  40000
     Max angular momentum in pseudopotentials (lmaxx) =  4
     file Ta.pbesol-spfn-rrkjus_psl.1.0.0.UPF: wavefunction(s)  5S 5P renormalized
     file F.pbesol-n-rrkjus_psl.1.0.0.UPF: wavefunction(s)  2S renormalized
     Message from routine setup:
     using ibrav=0 with symmetry is DISCOURAGED, use correct ibrav instead

     Subspace diagonalization in iterative solution of the eigenvalue problem:
     a serial algorithm will be used

 
     Parallelization info
     --------------------
     sticks:   dense  smooth     PW     G-vecs:    dense   smooth      PW
     Min         324     255     75                42000    30037    4933
     Max         325     256     76                42015    30048    4960
     Sum         649     511    151                84015    60085    9893
 
     Using Slab Decomposition
 


     bravais-lattice index     =            0
     lattice parameter (alat)  =       5.8997  a.u.
     unit-cell volume          =     955.0940 (a.u.)^3
     number of atoms/cell      =            5
     number of atomic types    =            3
     number of electrons       =        72.00
     number of Kohn-Sham states=           36
     kinetic-energy cutoff     =      60.0000  Ry
     charge density cutoff     =     300.0000  Ry
     scf convergence threshold =      1.0E-12
     mixing beta               =       0.7000
     number of iterations used =            8  plain     mixing
     energy convergence thresh.=      1.0E-04
     force convergence thresh. =      1.0E-03
     Exchange-correlation= PBESOL
                           (   1   4  10   8   0   0   0)
     nstep                     =           50


     celldm(1)=   5.899700  celldm(2)=   0.000000  celldm(3)=   0.000000
     celldm(4)=   0.000000  celldm(5)=   0.000000  celldm(6)=   0.000000

     crystal axes: (cart. coord. in units of alat)
               a(1) = (   0.946100   0.000000   0.000000 )  
               a(2) = (  -0.473050   0.819347   0.000000 )  
               a(3) = (   0.000000   0.000000   6.000000 )  

     reciprocal axes: (cart. coord. in units 2 pi/alat)
               b(1) = (  1.056970  0.610242  0.000000 )  
               b(2) = (  0.000000  1.220484  0.000000 )  
               b(3) = (  0.000000  0.000000  0.166667 )  


     PseudoPot. # 1 for Ta read from file:
     /shared/home/as3359/pseudo/Ta.pbesol-spfn-rrkjus_psl.1.0.0.UPF
     MD5 check sum: f099565ffaca9b150a52e9412a28e20b
     Pseudo is Ultrasoft + core correction, Zval = 27.0
     Generated using &quot;atomic&quot; code by A. Dal Corso  v.6.3
     Using radial grid of 1273 points,  8 beta functions with: 
                l(1) =   0
                l(2) =   0
                l(3) =   1
                l(4) =   1
                l(5) =   2
                l(6) =   2
                l(7) =   3
                l(8) =   3
     Q(r) pseudized with 0 coefficients 


     PseudoPot. # 2 for C  read from file:
     /shared/home/as3359/pseudo/C.pbesol-n-rrkjus_psl.1.0.0.UPF
     MD5 check sum: 05995be603a8a7c99da3dc4413f31573
     Pseudo is Ultrasoft + core correction, Zval =  4.0
     Generated using &quot;atomic&quot; code by A. Dal Corso  v.6.3MaX
     Using radial grid of 1073 points,  4 beta functions with: 
                l(1) =   0
                l(2) =   0
                l(3) =   1
                l(4) =   1
     Q(r) pseudized with 0 coefficients 


     PseudoPot. # 3 for F  read from file:
     /shared/home/as3359/pseudo/F.pbesol-n-rrkjus_psl.1.0.0.UPF
     MD5 check sum: 56b7518b93d9f54031eb04610776f7c7
     Pseudo is Ultrasoft + core correction, Zval =  7.0
     Generated using &quot;atomic&quot; code by A. Dal Corso  v.6.3MaX
     Using radial grid of 1105 points,  4 beta functions with: 
                l(1) =   0
                l(2) =   0
                l(3) =   1
                l(4) =   1
     Q(r) pseudized with 0 coefficients 


     atomic species   valence    mass     pseudopotential
        Ta            27.00   180.94788     Ta( 1.00)
        C              4.00    12.01070     C ( 1.00)
        F              7.00    18.99840     F ( 1.00)

      6 Sym. Ops. (no inversion) found



   Cartesian axes

     site n.     atom                  positions (alat units)
         1           Ta  tau(   1) = (   0.0000000   0.5462313   0.0508587  )
         2           C   tau(   2) = (   0.0000000   0.0000000   0.4857213  )
         3           Ta  tau(   3) = (   0.4730502   0.2731157   0.9207839  )
         4           F   tau(   4) = (   0.0000000   0.0000000   1.3761278  )
         5           F   tau(   5) = (   0.0000000   0.0000000  -0.4042852  )

     number of k points=    19
                       cart. coord. in units 2pi/alat
        k(    1) = (   0.0000000   0.0000000   0.0000000), wk =   0.0138889
        k(    2) = (   0.0000000   0.1017070   0.0000000), wk =   0.0833333
        k(    3) = (   0.0000000   0.2034140   0.0000000), wk =   0.0833333
        k(    4) = (   0.0000000   0.3051210   0.0000000), wk =   0.0833333
        k(    5) = (   0.0000000   0.4068281   0.0000000), wk =   0.0833333
        k(    6) = (   0.0000000   0.5085351   0.0000000), wk =   0.0833333
        k(    7) = (   0.0000000  -0.6102421   0.0000000), wk =   0.0416667
        k(    8) = (   0.0880809   0.1525605   0.0000000), wk =   0.0833333
        k(    9) = (   0.0880809   0.2542675   0.0000000), wk =   0.1666667
        k(   10) = (   0.0880809   0.3559746   0.0000000), wk =   0.1666667
        k(   11) = (   0.0880809   0.4576816   0.0000000), wk =   0.1666667
        k(   12) = (   0.0880809   0.5593886   0.0000000), wk =   0.1666667
        k(   13) = (   0.1761617   0.3051210   0.0000000), wk =   0.0833333
        k(   14) = (   0.1761617   0.4068281   0.0000000), wk =   0.1666667
        k(   15) = (   0.1761617   0.5085351   0.0000000), wk =   0.1666667
        k(   16) = (   0.1761617   0.6102421   0.0000000), wk =   0.0833333
        k(   17) = (   0.2642426   0.4576816   0.0000000), wk =   0.0833333
        k(   18) = (   0.2642426   0.5593886   0.0000000), wk =   0.1666667
        k(   19) = (   0.3523234   0.6102421   0.0000000), wk =   0.0277778

     Dense  grid:    84015 G-vectors     FFT dimensions: (  32,  32, 200)

     Smooth grid:    60085 G-vectors     FFT dimensions: (  27,  27, 180)

     Estimated max dynamical RAM per process >     456.32 MB

     Estimated total dynamical RAM >     912.63 MB

     Check: negative core charge=   -0.000002

     Initial potential from superposition of free atoms

     starting charge   71.99842, renormalised to   72.00000

     negative rho (up, down):  6.019E-04 0.000E+00
     Starting wfcs are   46 randomized atomic wfcs

     total cpu time spent up to now is        2.5 secs

     Self-consistent Calculation

     iteration #  1     ecut=    60.00 Ry     beta= 0.70
     CG style diagonalization
     ethr =  1.00E-02,  avg # of iterations =  2.1

     negative rho (up, down):  1.496E-04 0.000E+00

     total cpu time spent up to now is        5.2 secs

     total energy              =   -1470.08711065 Ry
     estimated scf accuracy    <       1.20389366 Ry

     iteration #  2     ecut=    60.00 Ry     beta= 0.70
     CG style diagonalization
     ethr =  1.67E-03,  avg # of iterations =  3.6

     negative rho (up, down):  2.023E-04 0.000E+00

     total cpu time spent up to now is        8.9 secs

     total energy              =   -1470.33792048 Ry
     estimated scf accuracy    <       1.60268270 Ry

     iteration #  3     ecut=    60.00 Ry     beta= 0.70
     CG style diagonalization
     ethr =  1.67E-03,  avg # of iterations =  3.6

     negative rho (up, down):  3.114E-04 0.000E+00

     total cpu time spent up to now is       12.6 secs

     total energy              =   -1470.75535633 Ry
     estimated scf accuracy    <       0.09607563 Ry

     iteration #  4     ecut=    60.00 Ry     beta= 0.70
     CG style diagonalization
     ethr =  1.33E-04,  avg # of iterations =  3.7

     negative rho (up, down):  5.925E-04 0.000E+00

     total cpu time spent up to now is       16.5 secs

     total energy              =   -1470.79682875 Ry
     estimated scf accuracy    <       0.00701512 Ry

     iteration #  5     ecut=    60.00 Ry     beta= 0.70
     CG style diagonalization
     ethr =  9.74E-06,  avg # of iterations =  4.2

     negative rho (up, down):  6.596E-04 0.000E+00

     total cpu time spent up to now is       20.8 secs

     total energy              =   -1470.80437118 Ry
     estimated scf accuracy    <       0.00554643 Ry

     iteration #  6     ecut=    60.00 Ry     beta= 0.70
     CG style diagonalization
     ethr =  7.70E-06,  avg # of iterations =  3.7

     negative rho (up, down):  6.766E-04 0.000E+00

     total cpu time spent up to now is       24.5 secs

     total energy              =   -1470.80529471 Ry
     estimated scf accuracy    <       0.00111265 Ry

     iteration #  7     ecut=    60.00 Ry     beta= 0.70
     CG style diagonalization
     ethr =  1.55E-06,  avg # of iterations =  3.9

     negative rho (up, down):  6.862E-04 0.000E+00

     total cpu time spent up to now is       28.5 secs

     total energy              =   -1470.80588242 Ry
     estimated scf accuracy    <       0.00010399 Ry

     iteration #  8     ecut=    60.00 Ry     beta= 0.70
     CG style diagonalization
     ethr =  1.44E-07,  avg # of iterations =  4.5

     negative rho (up, down):  7.075E-04 0.000E+00

     total cpu time spent up to now is       33.1 secs

     total energy              =   -1470.80597543 Ry
     estimated scf accuracy    <       0.00008917 Ry

     iteration #  9     ecut=    60.00 Ry     beta= 0.70
     CG style diagonalization
     ethr =  1.24E-07,  avg # of iterations =  3.9

     negative rho (up, down):  7.215E-04 0.000E+00

     total cpu time spent up to now is       37.1 secs

     total energy              =   -1470.80599653 Ry
     estimated scf accuracy    <       0.00002696 Ry

     iteration # 10     ecut=    60.00 Ry     beta= 0.70
     CG style diagonalization
     ethr =  3.74E-08,  avg # of iterations =  4.4

     negative rho (up, down):  7.198E-04 0.000E+00

     total cpu time spent up to now is       41.6 secs

     total energy              =   -1470.80601245 Ry
     estimated scf accuracy    <       0.00001111 Ry

     iteration # 11     ecut=    60.00 Ry     beta= 0.70
     CG style diagonalization
     ethr =  1.54E-08,  avg # of iterations =  4.1

     negative rho (up, down):  7.203E-04 0.000E+00

     total cpu time spent up to now is       45.8 secs

     total energy              =   -1470.80601531 Ry
     estimated scf accuracy    <       0.00000247 Ry

     iteration # 12     ecut=    60.00 Ry     beta= 0.70
     CG style diagonalization
     ethr =  3.43E-09,  avg # of iterations =  4.5

     negative rho (up, down):  7.200E-04 0.000E+00

     total cpu time spent up to now is       50.4 secs

     total energy              =   -1470.80601756 Ry
     estimated scf accuracy    <       0.00000143 Ry

     iteration # 13     ecut=    60.00 Ry     beta= 0.70
     CG style diagonalization
     ethr =  1.98E-09,  avg # of iterations =  3.9

     negative rho (up, down):  7.200E-04 0.000E+00

     total cpu time spent up to now is       54.4 secs

     total energy              =   -1470.80601795 Ry
     estimated scf accuracy    <       0.00000042 Ry

     iteration # 14     ecut=    60.00 Ry     beta= 0.70
     CG style diagonalization
     ethr =  5.85E-10,  avg # of iterations =  4.4

     negative rho (up, down):  7.200E-04 0.000E+00

     total cpu time spent up to now is       58.9 secs

     total energy              =   -1470.80601828 Ry
     estimated scf accuracy    <       0.00000005 Ry

     iteration # 15     ecut=    60.00 Ry     beta= 0.70
     CG style diagonalization
     ethr =  6.81E-11,  avg # of iterations =  5.7

     negative rho (up, down):  7.199E-04 0.000E+00

     total cpu time spent up to now is       64.7 secs

     total energy              =   -1470.80601845 Ry
     estimated scf accuracy    <       0.00000003 Ry

     iteration # 16     ecut=    60.00 Ry     beta= 0.70
     CG style diagonalization
     ethr =  4.05E-11,  avg # of iterations =  4.3

     negative rho (up, down):  7.199E-04 0.000E+00

     total cpu time spent up to now is       69.1 secs

     total energy              =   -1470.80601850 Ry
     estimated scf accuracy    <          5.2E-09 Ry

     iteration # 17     ecut=    60.00 Ry     beta= 0.70
     CG style diagonalization
     c_bands:  1 eigenvalues not converged
     ethr =  7.26E-12,  avg # of iterations =  5.2

     negative rho (up, down):  7.198E-04 0.000E+00

     total cpu time spent up to now is       74.3 secs

     total energy              =   -1470.80601852 Ry
     estimated scf accuracy    <          3.5E-09 Ry

     iteration # 18     ecut=    60.00 Ry     beta= 0.70
     CG style diagonalization
     ethr =  4.84E-12,  avg # of iterations =  4.1

     negative rho (up, down):  7.198E-04 0.000E+00

     total cpu time spent up to now is       78.4 secs

     total energy              =   -1470.80601853 Ry
     estimated scf accuracy    <          2.0E-09 Ry

     iteration # 19     ecut=    60.00 Ry     beta= 0.70
     CG style diagonalization
     c_bands:  1 eigenvalues not converged
     c_bands:  1 eigenvalues not converged
     ethr =  2.74E-12,  avg # of iterations =  4.2

     negative rho (up, down):  7.198E-04 0.000E+00

     total cpu time spent up to now is       82.7 secs

     total energy              =   -1470.80601853 Ry
     estimated scf accuracy    <          1.1E-10 Ry

     iteration # 20     ecut=    60.00 Ry     beta= 0.70
     CG style diagonalization
     c_bands:  1 eigenvalues not converged
     c_bands:  2 eigenvalues not converged
     c_bands:  1 eigenvalues not converged
     c_bands:  1 eigenvalues not converged
     c_bands:  1 eigenvalues not converged
     c_bands:  1 eigenvalues not converged
     c_bands:  2 eigenvalues not converged
     c_bands:  1 eigenvalues not converged
     c_bands:  1 eigenvalues not converged
     c_bands:  2 eigenvalues not converged
     ethr =  1.50E-13,  avg # of iterations =  6.8

     negative rho (up, down):  7.198E-04 0.000E+00

     total cpu time spent up to now is       89.4 secs

     total energy              =   -1470.80601854 Ry
     estimated scf accuracy    <          3.5E-10 Ry

     iteration # 21     ecut=    60.00 Ry     beta= 0.70
     CG style diagonalization
     ethr =  1.50E-13,  avg # of iterations =  4.8

     negative rho (up, down):  7.198E-04 0.000E+00

     total cpu time spent up to now is       94.2 secs

     total energy              =   -1470.80601854 Ry
     estimated scf accuracy    <          1.9E-11 Ry

     iteration # 22     ecut=    60.00 Ry     beta= 0.70
     CG style diagonalization
     ethr =  1.00E-13,  avg # of iterations =  4.4

     negative rho (up, down):  7.198E-04 0.000E+00

     total cpu time spent up to now is       98.7 secs

     total energy              =   -1470.80601854 Ry
     estimated scf accuracy    <          1.3E-10 Ry

     iteration # 23     ecut=    60.00 Ry     beta= 0.70
     CG style diagonalization
     ethr =  1.00E-13,  avg # of iterations =  3.8

     negative rho (up, down):  7.198E-04 0.000E+00

     total cpu time spent up to now is      102.5 secs

     total energy              =   -1470.80601854 Ry
     estimated scf accuracy    <          1.9E-11 Ry

     iteration # 24     ecut=    60.00 Ry     beta= 0.70
     CG style diagonalization
     ethr =  1.00E-13,  avg # of iterations =  3.5

     negative rho (up, down):  7.198E-04 0.000E+00

     total cpu time spent up to now is      106.1 secs

     total energy              =   -1470.80601854 Ry
     estimated scf accuracy    <          3.2E-12 Ry

     iteration # 25     ecut=    60.00 Ry     beta= 0.70
     CG style diagonalization
     ethr =  1.00E-13,  avg # of iterations =  3.3

     negative rho (up, down):  7.198E-04 0.000E+00

     total cpu time spent up to now is      109.5 secs

     total energy              =   -1470.80601854 Ry
     estimated scf accuracy    <          7.7E-12 Ry

     iteration # 26     ecut=    60.00 Ry     beta= 0.70
     CG style diagonalization
     ethr =  1.00E-13,  avg # of iterations =  3.2

     negative rho (up, down):  7.198E-04 0.000E+00

     total cpu time spent up to now is      112.8 secs

     total energy              =   -1470.80601854 Ry
     estimated scf accuracy    <          3.1E-12 Ry

     iteration # 27     ecut=    60.00 Ry     beta= 0.70
     CG style diagonalization
     ethr =  1.00E-13,  avg # of iterations =  3.2

     negative rho (up, down):  7.198E-04 0.000E+00

     total cpu time spent up to now is      116.0 secs

     End of self-consistent calculation

          k = 0.0000 0.0000 0.0000 (  7419 PWs)   bands (ev):

   -63.9079 -63.8893 -30.9132 -30.5755 -29.9387 -29.9387 -29.9167 -29.9167
   -21.3909 -21.3600 -15.5763 -15.5698 -15.5698 -15.5677 -15.5677 -15.5659
   -15.5414 -15.5414 -15.5404 -15.5404 -15.5255 -15.5210 -15.4495 -15.4483
    -8.3875  -4.5606  -3.1496  -2.5234  -2.5234  -2.5058  -2.5058  -0.5986
     1.5330   1.5330   2.6742   4.8697

          k = 0.0000 0.1017 0.0000 (  7432 PWs)   bands (ev):

   -63.9030 -63.8848 -30.8931 -30.5673 -30.0089 -29.9871 -29.9561 -29.9290
   -21.3704 -21.3441 -15.5754 -15.5701 -15.5682 -15.5672 -15.5664 -15.5643
   -15.5442 -15.5427 -15.5415 -15.5399 -15.5220 -15.5179 -15.4533 -15.4521
    -8.2770  -4.4165  -3.1940  -2.6750  -2.5783  -2.5363  -2.5149  -0.5219
     1.1859   1.5421   2.8055   4.3273

          k = 0.0000 0.2034 0.0000 (  7462 PWs)   bands (ev):

   -63.8893 -63.8728 -30.8376 -30.5488 -30.1977 -30.1698 -30.0018 -29.9641
   -21.3187 -21.3030 -15.5751 -15.5688 -15.5653 -15.5642 -15.5623 -15.5612
   -15.5496 -15.5454 -15.5448 -15.5399 -15.5127 -15.5091 -15.4635 -15.4623
    -7.9799  -4.0700  -3.3211  -3.0290  -2.7596  -2.5760  -2.5521  -0.3637
     0.4351   1.5589   2.9438   3.6493

          k = 0.0000 0.3051 0.0000 (  7518 PWs)   bands (ev):

   -63.8704 -63.8564 -30.7611 -30.5603 -30.4405 -30.3782 -30.0619 -30.0135
   -21.2590 -21.2507 -15.5762 -15.5684 -15.5620 -15.5615 -15.5586 -15.5556
   -15.5529 -15.5489 -15.5470 -15.5403 -15.4998 -15.4969 -15.4767 -15.4752
    -7.5855  -3.7956  -3.5034  -3.3901  -2.9495  -2.6470  -2.6184  -0.4731
    -0.0724   1.5588   2.3633   4.0504

          k = 0.0000 0.4068 0.0000 (  7506 PWs)   bands (ev):

   -63.8511 -63.8403 -30.7319 -30.7247 -30.6092 -30.4390 -30.1204 -30.0633
   -21.2107 -21.2017 -15.5780 -15.5702 -15.5619 -15.5610 -15.5578 -15.5518
   -15.5498 -15.5475 -15.5457 -15.5397 -15.4889 -15.4867 -15.4863 -15.4844
    -7.2035  -4.0114  -3.6610  -3.4459  -3.0857  -2.7418  -2.6889  -1.0376
    -0.0566   1.5320   1.9390   4.6401

          k = 0.0000 0.5085 0.0000 (  7502 PWs)   bands (ev):

   -63.8366 -63.8288 -30.8909 -30.8577 -30.5690 -30.4421 -30.1625 -30.0998
   -21.1789 -21.1708 -15.5811 -15.5697 -15.5633 -15.5622 -15.5600 -15.5516
   -15.5462 -15.5428 -15.5425 -15.5383 -15.4970 -15.4935 -15.4768 -15.4752
    -6.9299  -4.2925  -3.7798  -3.4472  -3.1853  -2.8221  -2.7426  -1.3967
    -0.1238   1.4977   1.7603   5.1871

          k = 0.0000-0.6102 0.0000 (  7546 PWs)   bands (ev):

   -63.8311 -63.8248 -30.9519 -30.9139 -30.5377 -30.4471 -30.1778 -30.1132
   -21.1673 -21.1612 -15.5827 -15.5675 -15.5668 -15.5630 -15.5596 -15.5527
   -15.5435 -15.5424 -15.5404 -15.5377 -15.5000 -15.4960 -15.4734 -15.4719
    -6.8303  -4.4019  -3.8151  -3.4610  -3.2285  -2.8533  -2.7629  -1.5146
    -0.1680   1.4826   1.7077   5.4327

          k = 0.0881 0.1526 0.0000 (  7453 PWs)   bands (ev):

   -63.8936 -63.8766 -30.8553 -30.5537 -30.1249 -30.1222 -29.9840 -29.9615
   -21.3343 -21.3157 -15.5743 -15.5704 -15.5660 -15.5651 -15.5638 -15.5619
   -15.5475 -15.5467 -15.5416 -15.5406 -15.5156 -15.5119 -15.4603 -15.4591
    -8.0726  -4.1677  -3.2771  -2.9120  -2.7252  -2.5568  -2.5447  -0.4028
     0.6666   1.5221   3.0412   3.6314

          k = 0.0881 0.2543 0.0000 (  7467 PWs)   bands (ev):

   -63.8773 -63.8624 -30.7884 -30.5437 -30.3404 -30.3058 -30.0460 -30.0139
   -21.2786 -21.2695 -15.5741 -15.5691 -15.5635 -15.5621 -15.5598 -15.5570
   -15.5518 -15.5504 -15.5441 -15.5406 -15.5045 -15.5013 -15.4720 -15.4708
    -7.7230  -3.8210  -3.4348  -3.2582  -2.9217  -2.6499  -2.5912  -0.2662
    -0.0179   1.4716   2.7650   3.5694

          k = 0.0881 0.3560 0.0000 (  7501 PWs)   bands (ev):

   -63.8582 -63.8461 -30.7176 -30.6286 -30.5582 -30.4264 -30.1184 -30.0728
   -21.2256 -21.2189 -15.5753 -15.5695 -15.5613 -15.5607 -15.5574 -15.5553
   -15.5504 -15.5493 -15.5461 -15.5401 -15.4917 -15.4890 -15.4848 -15.4832
    -7.3257  -3.7955  -3.5927  -3.4576  -3.0592  -2.7606  -2.6858  -0.7462
    -0.0585   1.3597   2.2797   4.1494

          k = 0.0881 0.4577 0.0000 (  7519 PWs)   bands (ev):

   -63.8413 -63.8324 -30.8071 -30.7832 -30.5924 -30.4390 -30.1792 -30.1240
   -21.1866 -21.1790 -15.5781 -15.5703 -15.5619 -15.5614 -15.5585 -15.5511
   -15.5502 -15.5449 -15.5432 -15.5392 -15.4955 -15.4927 -15.4802 -15.4782
    -6.9858  -4.0929  -3.7621  -3.4123  -3.1456  -2.8500  -2.8047  -1.1823
    -0.0506   1.1409   2.2014   4.7030

          k = 0.0881 0.5594 0.0000 (  7519 PWs)   bands (ev):

   -63.8311 -63.8248 -30.9173 -30.8796 -30.5407 -30.4466 -30.2133 -30.1535
   -21.1649 -21.1594 -15.5808 -15.5686 -15.5653 -15.5623 -15.5585 -15.5519
   -15.5454 -15.5428 -15.5407 -15.5382 -15.5011 -15.4976 -15.4735 -15.4720
    -6.7904  -4.2814  -3.8397  -3.4310  -3.1987  -2.9058  -2.8897  -1.3808
    -0.0982   0.9890   2.2172   5.1472

          k = 0.1762 0.3051 0.0000 (  7491 PWs)   bands (ev):

   -63.8608 -63.8483 -30.7218 -30.5866 -30.5182 -30.4093 -30.1249 -30.1016
   -21.2298 -21.2260 -15.5717 -15.5703 -15.5615 -15.5612 -15.5596 -15.5530
   -15.5529 -15.5506 -15.5451 -15.5404 -15.4934 -15.4907 -15.4836 -15.4824
    -7.3626  -3.6144  -3.5784  -3.4878  -3.0716  -2.8155  -2.6842  -0.5513
    -0.1035   1.2453   2.5439   3.7487

          k = 0.1762 0.4068 0.0000 (  7508 PWs)   bands (ev):

   -63.8439 -63.8345 -30.7204 -30.7058 -30.6082 -30.4311 -30.2207 -30.1886
   -21.1883 -21.1838 -15.5733 -15.5704 -15.5611 -15.5607 -15.5576 -15.5539
   -15.5494 -15.5489 -15.5430 -15.5396 -15.4954 -15.4938 -15.4820 -15.4799
    -6.9889  -3.8385  -3.7708  -3.3593  -3.1456  -2.9555  -2.8650  -0.9488
    -0.0202   0.8900   2.6175   4.1327

          k = 0.1762 0.5085 0.0000 (  7502 PWs)   bands (ev):

   -63.8311 -63.8248 -30.8316 -30.7970 -30.5527 -30.4449 -30.2927 -30.2508
   -21.1601 -21.1557 -15.5763 -15.5694 -15.5638 -15.5606 -15.5551 -15.5513
   -15.5501 -15.5443 -15.5411 -15.5394 -15.5035 -15.5012 -15.4738 -15.4722
    -6.7054  -4.0140  -3.8991  -3.3542  -3.1904  -3.0845  -2.9870  -1.1488
     0.0161   0.5216   2.8367   4.5462

          k = 0.1762 0.6102 0.0000 (  7507 PWs)   bands (ev):

   -63.8261 -63.8215 -30.8743 -30.8315 -30.5170 -30.4634 -30.3166 -30.2734
   -21.1500 -21.1464 -15.5776 -15.5675 -15.5667 -15.5605 -15.5555 -15.5507
   -15.5458 -15.5450 -15.5411 -15.5386 -15.5065 -15.5037 -15.4708 -15.4695
    -6.5996  -4.0737  -3.9289  -3.4232  -3.1681  -3.1580  -3.0184  -1.1974
     0.0527   0.3389   2.9127   4.7921

          k = 0.2642 0.4577 0.0000 (  7497 PWs)   bands (ev):

   -63.8311 -63.8248 -30.7725 -30.7420 -30.5704 -30.4398 -30.3374 -30.3171
   -21.1577 -21.1539 -15.5734 -15.5697 -15.5632 -15.5583 -15.5559 -15.5515
   -15.5497 -15.5469 -15.5412 -15.5397 -15.5046 -15.5033 -15.4739 -15.4724
    -6.6599  -3.9430  -3.8549  -3.2943  -3.2421  -3.1214  -3.0427  -1.0273
    -0.0368   0.4342   3.1969   4.2236

          k = 0.2642 0.5594 0.0000 (  7508 PWs)   bands (ev):

   -63.8231 -63.8198 -30.7891 -30.7403 -30.5424 -30.4951 -30.4005 -30.3869
   -21.1415 -21.1363 -15.5740 -15.5687 -15.5661 -15.5567 -15.5531 -15.5508
   -15.5481 -15.5452 -15.5431 -15.5392 -15.5102 -15.5086 -15.4694 -15.4682
    -6.4511  -3.9938  -3.8640  -3.5181  -3.2347  -3.1703  -3.0732  -0.9876
    -0.1947   0.2309   3.6282   4.4170

          k = 0.3523 0.6102 0.0000 (  7521 PWs)   bands (ev):

   -63.8195 -63.8186 -30.7264 -30.6336 -30.6070 -30.6068 -30.4247 -30.4244
   -21.1351 -21.1285 -15.5725 -15.5685 -15.5674 -15.5530 -15.5511 -15.5511
   -15.5500 -15.5446 -15.5445 -15.5397 -15.5127 -15.5116 -15.4679 -15.4667
    -6.3443  -3.9432  -3.9395  -3.4456  -3.4426  -3.1226  -3.0739  -0.6722
    -0.6714   0.2689   4.2221   4.2222

     highest occupied level (ev):     5.4327

!    total energy              =   -1470.80601854 Ry
     estimated scf accuracy    <          9.0E-13 Ry

     The total energy is the sum of the following terms:
     one-electron contribution =   -7499.95378328 Ry
     hartree contribution      =    3795.43117265 Ry
     xc contribution           =    -157.89244277 Ry
     ewald contribution        =    2391.60903486 Ry

     convergence has been achieved in  27 iterations

     negative rho (up, down):  7.198E-04 0.000E+00

     Forces acting on atoms (cartesian axes, Ry/au):

     atom    1 type  1   force =     0.00000000   -0.00000000    0.00009454
     atom    2 type  2   force =     0.00000000    0.00000000    0.00018207
     atom    3 type  1   force =     0.00000000    0.00000000   -0.00000332
     atom    4 type  3   force =     0.00000000    0.00000000   -0.00017866
     atom    5 type  3   force =     0.00000000    0.00000000   -0.00009464

     Total force =     0.000288     Total SCF correction =     0.000011


     Computing stress (Cartesian axis) and pressure


     negative rho (up, down):  7.198E-04 0.000E+00
          total   stress  (Ry/bohr**3)                   (kbar)     P=       -3.47
  -0.00000914   0.00000000   0.00000000           -1.34        0.00        0.00
   0.00000000  -0.00000914  -0.00000000            0.00       -1.34       -0.00
   0.00000000   0.00000000  -0.00005257            0.00        0.00       -7.73


     BFGS Geometry Optimization
     Energy error            =      0.0E+00 Ry
     Gradient error          =      1.8E-04 Ry/Bohr

     bfgs converged in   1 scf cycles and   0 bfgs steps
     (criteria: energy <  1.0E-04 Ry, force <  1.0E-03 Ry/Bohr)

     End of BFGS Geometry Optimization

     Final energy             =   -1470.8060185394 Ry
Begin final coordinates

ATOMIC_POSITIONS (alat)
Ta           -0.0000000000        0.5462313000        0.0508587000
C             0.0000000000        0.0000000000        0.4857213000
Ta            0.4730502000        0.2731157000        0.9207839000
F             0.0000000000        0.0000000000        1.3761278000
F             0.0000000000        0.0000000000       -0.4042852000
End final coordinates



     Writing output data file /scratch/as3359/Ta2CF2_looping/Ta.save/
 
     init_run     :      3.82s CPU      2.29s WALL (       1 calls)
     electrons    :    217.95s CPU    113.49s WALL (       1 calls)
     forces       :      1.50s CPU      0.81s WALL (       1 calls)
     stress       :      4.86s CPU      2.57s WALL (       1 calls)

     Called by init_run:
     wfcinit      :      1.53s CPU      0.79s WALL (       1 calls)
     potinit      :      0.40s CPU      0.21s WALL (       1 calls)
     hinit0       :      1.55s CPU      1.06s WALL (       1 calls)

     Called by electrons:
     c_bands      :    184.55s CPU     94.05s WALL (      27 calls)
     sum_band     :     22.82s CPU     13.01s WALL (      27 calls)
     v_of_rho     :      1.44s CPU      0.75s WALL (      28 calls)
     newd         :      8.84s CPU      5.56s WALL (      28 calls)
     mix_rho      :      0.46s CPU      0.24s WALL (      27 calls)

     Called by c_bands:
     init_us_2    :      1.96s CPU      0.99s WALL (    1083 calls)
     ccgdiagg     :    158.65s CPU     80.86s WALL (     513 calls)
     wfcrot       :     25.33s CPU     12.89s WALL (     513 calls)

     Called by *cgdiagg:
     h_psi        :    117.47s CPU     59.86s WALL (   58626 calls)
     s_psi        :     28.18s CPU     14.40s WALL (  116739 calls)

     Called by h_psi:
     h_psi:calbec :     14.57s CPU      7.41s WALL (   58626 calls)
     vloc_psi     :     86.21s CPU     43.96s WALL (   58626 calls)
     add_vuspsi   :     14.79s CPU      7.56s WALL (   58626 calls)
     hs_1psi      :    110.24s CPU     56.14s WALL (   58113 calls)
     s_1psi       :     28.43s CPU     14.44s WALL (   58113 calls)

     General routines
     calbec       :     28.49s CPU     14.56s WALL (  117347 calls)
     fft          :      0.73s CPU      0.38s WALL (     387 calls)
     ffts         :      0.07s CPU      0.04s WALL (      55 calls)
     fftw         :     84.99s CPU     43.36s WALL (  172010 calls)
     interpolate  :      0.11s CPU      0.06s WALL (      28 calls)
 
     Parallel routines
 
     PWSCF        :   3m48.66s CPU   1m59.68s WALL

 
   This run was terminated on:  21:35:32   6Apr2022            

=------------------------------------------------------------------------------=
   JOB DONE.
=------------------------------------------------------------------------------=
