
     Program PWSCF v.6.8 starts on  6Apr2022 at 20:47:19 

     This program is part of the open-source Quantum ESPRESSO suite
     for quantum simulation of materials; please cite
         "P. Giannozzi et al., J. Phys.:Condens. Matter 21 395502 (2009);
         "P. Giannozzi et al., J. Phys.:Condens. Matter 29 465901 (2017);
         "P. Giannozzi et al., J. Chem. Phys. 152 154105 (2020);
          URL http://www.quantum-espresso.org", 
     in publications or presentations arising from this work. More details at
     http://www.quantum-espresso.org/quote

     Parallel version (MPI & OpenMP), running on       4 processor cores
     Number of MPI processes:                 2
     Threads/MPI process:                     2

     MPI processes distributed on     1 nodes
     R & G space division:  proc/nbgrp/npool/nimage =       2
     125252 MiB available memory on the printing compute node when the environment starts
 
     Reading input from Ta2CF2.vcrelax.in

     Current dimensions of program PWSCF are:
     Max number of different atomic species (ntypx) = 10
     Max number of k-points (npk) =  40000
     Max angular momentum in pseudopotentials (lmaxx) =  4
     file Ta.pbesol-spfn-rrkjus_psl.1.0.0.UPF: wavefunction(s)  5S 5P renormalized
     file F.pbesol-n-rrkjus_psl.1.0.0.UPF: wavefunction(s)  2S renormalized
     Message from routine setup:
     using ibrav=0 with symmetry is DISCOURAGED, use correct ibrav instead

     Subspace diagonalization in iterative solution of the eigenvalue problem:
     a serial algorithm will be used

 
     Parallelization info
     --------------------
     sticks:   dense  smooth     PW     G-vecs:    dense   smooth      PW
     Min         330     258     81                43044    30688    5084
     Max         331     259     82                43047    30699    5085
     Sum         661     517    163                86091    61387   10169
 
     Using Slab Decomposition
 


     bravais-lattice index     =            0
     lattice parameter (alat)  =       5.8997  a.u.
     unit-cell volume          =     981.1232 (a.u.)^3
     number of atoms/cell      =            5
     number of atomic types    =            3
     number of electrons       =        72.00
     number of Kohn-Sham states=           36
     kinetic-energy cutoff     =      60.0000  Ry
     charge density cutoff     =     300.0000  Ry
     scf convergence threshold =      1.0E-12
     mixing beta               =       0.7000
     number of iterations used =            8  plain     mixing
     energy convergence thresh.=      1.0E-04
     force convergence thresh. =      1.0E-03
     press convergence thresh. =      5.0E-01
     Exchange-correlation= PBESOL
                           (   1   4  10   8   0   0   0)
     nstep                     =           50


     celldm(1)=   5.899700  celldm(2)=   0.000000  celldm(3)=   0.000000
     celldm(4)=   0.000000  celldm(5)=   0.000000  celldm(6)=   0.000000

     crystal axes: (cart. coord. in units of alat)
               a(1) = (   0.958906   0.000000   0.000000 )  
               a(2) = (  -0.479453   0.830437   0.000000 )  
               a(3) = (   0.000000   0.000000   6.000000 )  

     reciprocal axes: (cart. coord. in units 2 pi/alat)
               b(1) = (  1.042855  0.602093  0.000000 )  
               b(2) = (  0.000000  1.204186  0.000000 )  
               b(3) = (  0.000000  0.000000  0.166667 )  


     PseudoPot. # 1 for Ta read from file:
     /shared/home/as3359/pseudo/Ta.pbesol-spfn-rrkjus_psl.1.0.0.UPF
     MD5 check sum: f099565ffaca9b150a52e9412a28e20b
     Pseudo is Ultrasoft + core correction, Zval = 27.0
     Generated using &quot;atomic&quot; code by A. Dal Corso  v.6.3
     Using radial grid of 1273 points,  8 beta functions with: 
                l(1) =   0
                l(2) =   0
                l(3) =   1
                l(4) =   1
                l(5) =   2
                l(6) =   2
                l(7) =   3
                l(8) =   3
     Q(r) pseudized with 0 coefficients 


     PseudoPot. # 2 for C  read from file:
     /shared/home/as3359/pseudo/C.pbesol-n-rrkjus_psl.1.0.0.UPF
     MD5 check sum: 05995be603a8a7c99da3dc4413f31573
     Pseudo is Ultrasoft + core correction, Zval =  4.0
     Generated using &quot;atomic&quot; code by A. Dal Corso  v.6.3MaX
     Using radial grid of 1073 points,  4 beta functions with: 
                l(1) =   0
                l(2) =   0
                l(3) =   1
                l(4) =   1
     Q(r) pseudized with 0 coefficients 


     PseudoPot. # 3 for F  read from file:
     /shared/home/as3359/pseudo/F.pbesol-n-rrkjus_psl.1.0.0.UPF
     MD5 check sum: 56b7518b93d9f54031eb04610776f7c7
     Pseudo is Ultrasoft + core correction, Zval =  7.0
     Generated using &quot;atomic&quot; code by A. Dal Corso  v.6.3MaX
     Using radial grid of 1105 points,  4 beta functions with: 
                l(1) =   0
                l(2) =   0
                l(3) =   1
                l(4) =   1
     Q(r) pseudized with 0 coefficients 


     atomic species   valence    mass     pseudopotential
        Ta            27.00   180.94788     Ta( 1.00)
        C              4.00    12.01070     C ( 1.00)
        F              7.00    18.99840     F ( 1.00)

      6 Sym. Ops. (no inversion) found



   Cartesian axes

     site n.     atom                  positions (alat units)
         1           Ta  tau(   1) = (  -0.0000000   0.5536245   0.1082836  )
         2           C   tau(   2) = (   0.0000000   0.0000000   0.5223073  )
         3           Ta  tau(   3) = (   0.4794529   0.2768123   0.9246507  )
         4           F   tau(   4) = (   0.0000000   0.0000000   1.3939964  )
         5           F   tau(   5) = (   0.0000000   0.0000000  -0.5200316  )

     number of k points=    19
                       cart. coord. in units 2pi/alat
        k(    1) = (   0.0000000   0.0000000   0.0000000), wk =   0.0138889
        k(    2) = (   0.0000000   0.1003488   0.0000000), wk =   0.0833333
        k(    3) = (   0.0000000   0.2006976   0.0000000), wk =   0.0833333
        k(    4) = (   0.0000000   0.3010464   0.0000000), wk =   0.0833333
        k(    5) = (   0.0000000   0.4013952   0.0000000), wk =   0.0833333
        k(    6) = (   0.0000000   0.5017440   0.0000000), wk =   0.0833333
        k(    7) = (   0.0000000  -0.6020928   0.0000000), wk =   0.0416667
        k(    8) = (   0.0869046   0.1505232   0.0000000), wk =   0.0833333
        k(    9) = (   0.0869046   0.2508720   0.0000000), wk =   0.1666667
        k(   10) = (   0.0869046   0.3512208   0.0000000), wk =   0.1666667
        k(   11) = (   0.0869046   0.4515696   0.0000000), wk =   0.1666667
        k(   12) = (   0.0869046   0.5519184   0.0000000), wk =   0.1666667
        k(   13) = (   0.1738092   0.3010464   0.0000000), wk =   0.0833333
        k(   14) = (   0.1738092   0.4013952   0.0000000), wk =   0.1666667
        k(   15) = (   0.1738092   0.5017440   0.0000000), wk =   0.1666667
        k(   16) = (   0.1738092   0.6020928   0.0000000), wk =   0.0833333
        k(   17) = (   0.2607138   0.4515696   0.0000000), wk =   0.0833333
        k(   18) = (   0.2607138   0.5519184   0.0000000), wk =   0.1666667
        k(   19) = (   0.3476184   0.6020928   0.0000000), wk =   0.0277778

     Dense  grid:    86091 G-vectors     FFT dimensions: (  32,  32, 200)

     Smooth grid:    61387 G-vectors     FFT dimensions: (  27,  27, 180)

     Estimated max dynamical RAM per process >     477.24 MB

     Estimated total dynamical RAM >     954.48 MB

     Check: negative core charge=   -0.000002

     Initial potential from superposition of free atoms

     starting charge   71.99842, renormalised to   72.00000

     negative rho (up, down):  6.115E-04 0.000E+00
     Starting wfcs are   46 randomized atomic wfcs

     total cpu time spent up to now is        5.2 secs

     Self-consistent Calculation

     iteration #  1     ecut=    60.00 Ry     beta= 0.70
     CG style diagonalization
     ethr =  1.00E-02,  avg # of iterations =  2.1

     negative rho (up, down):  1.715E-04 0.000E+00

     total cpu time spent up to now is        8.1 secs

     total energy              =   -1469.95481796 Ry
     estimated scf accuracy    <       1.26143324 Ry

     iteration #  2     ecut=    60.00 Ry     beta= 0.70
     CG style diagonalization
     ethr =  1.75E-03,  avg # of iterations =  3.6

     negative rho (up, down):  1.286E-04 0.000E+00

     total cpu time spent up to now is       11.8 secs

     total energy              =   -1470.23758578 Ry
     estimated scf accuracy    <       1.40902634 Ry

     iteration #  3     ecut=    60.00 Ry     beta= 0.70
     CG style diagonalization
     ethr =  1.75E-03,  avg # of iterations =  3.5

     negative rho (up, down):  2.275E-04 0.000E+00

     total cpu time spent up to now is       15.6 secs

     total energy              =   -1470.62990796 Ry
     estimated scf accuracy    <       0.10734434 Ry

     iteration #  4     ecut=    60.00 Ry     beta= 0.70
     CG style diagonalization
     ethr =  1.49E-04,  avg # of iterations =  3.7

     negative rho (up, down):  4.097E-04 0.000E+00

     total cpu time spent up to now is       19.6 secs

     total energy              =   -1470.68575728 Ry
     estimated scf accuracy    <       0.01392219 Ry

     iteration #  5     ecut=    60.00 Ry     beta= 0.70
     CG style diagonalization
     ethr =  1.93E-05,  avg # of iterations =  4.1

     negative rho (up, down):  5.701E-04 0.000E+00

     total cpu time spent up to now is       24.0 secs

     total energy              =   -1470.69322042 Ry
     estimated scf accuracy    <       0.00571780 Ry

     iteration #  6     ecut=    60.00 Ry     beta= 0.70
     CG style diagonalization
     ethr =  7.94E-06,  avg # of iterations =  3.9

     negative rho (up, down):  6.522E-04 0.000E+00

     total cpu time spent up to now is       28.2 secs

     total energy              =   -1470.69550378 Ry
     estimated scf accuracy    <       0.00059132 Ry

     iteration #  7     ecut=    60.00 Ry     beta= 0.70
     CG style diagonalization
     c_bands:  1 eigenvalues not converged
     ethr =  8.21E-07,  avg # of iterations =  4.4

     negative rho (up, down):  6.569E-04 0.000E+00

     total cpu time spent up to now is       32.9 secs

     total energy              =   -1470.69631654 Ry
     estimated scf accuracy    <       0.00054172 Ry

     iteration #  8     ecut=    60.00 Ry     beta= 0.70
     CG style diagonalization
     ethr =  7.52E-07,  avg # of iterations =  3.3

     negative rho (up, down):  6.701E-04 0.000E+00

     total cpu time spent up to now is       36.4 secs

     total energy              =   -1470.69630567 Ry
     estimated scf accuracy    <       0.00022363 Ry

     iteration #  9     ecut=    60.00 Ry     beta= 0.70
     CG style diagonalization
     ethr =  3.11E-07,  avg # of iterations =  3.9

     negative rho (up, down):  6.823E-04 0.000E+00

     total cpu time spent up to now is       40.6 secs

     total energy              =   -1470.69642324 Ry
     estimated scf accuracy    <       0.00011230 Ry

     iteration # 10     ecut=    60.00 Ry     beta= 0.70
     CG style diagonalization
     ethr =  1.56E-07,  avg # of iterations =  4.0

     negative rho (up, down):  6.894E-04 0.000E+00

     total cpu time spent up to now is       44.9 secs

     total energy              =   -1470.69639807 Ry
     estimated scf accuracy    <       0.00022283 Ry

     iteration # 11     ecut=    60.00 Ry     beta= 0.70
     CG style diagonalization
     ethr =  1.56E-07,  avg # of iterations =  3.5

     negative rho (up, down):  6.929E-04 0.000E+00

     total cpu time spent up to now is       48.6 secs

     total energy              =   -1470.69643316 Ry
     estimated scf accuracy    <       0.00001009 Ry

     iteration # 12     ecut=    60.00 Ry     beta= 0.70
     CG style diagonalization
     ethr =  1.40E-08,  avg # of iterations =  4.8

     negative rho (up, down):  6.922E-04 0.000E+00

     total cpu time spent up to now is       53.8 secs

     total energy              =   -1470.69645482 Ry
     estimated scf accuracy    <       0.00010115 Ry

     iteration # 13     ecut=    60.00 Ry     beta= 0.70
     CG style diagonalization
     ethr =  1.40E-08,  avg # of iterations =  3.6

     negative rho (up, down):  6.899E-04 0.000E+00

     total cpu time spent up to now is       57.7 secs

     total energy              =   -1470.69644911 Ry
     estimated scf accuracy    <       0.00002992 Ry

     iteration # 14     ecut=    60.00 Ry     beta= 0.70
     CG style diagonalization
     c_bands:  1 eigenvalues not converged
     ethr =  1.40E-08,  avg # of iterations =  4.1

     negative rho (up, down):  6.895E-04 0.000E+00

     total cpu time spent up to now is       62.0 secs

     total energy              =   -1470.69646872 Ry
     estimated scf accuracy    <       0.00004504 Ry

     iteration # 15     ecut=    60.00 Ry     beta= 0.70
     CG style diagonalization
     ethr =  1.40E-08,  avg # of iterations =  3.6

     negative rho (up, down):  6.896E-04 0.000E+00

     total cpu time spent up to now is       65.9 secs

     total energy              =   -1470.69647402 Ry
     estimated scf accuracy    <       0.00008272 Ry

     iteration # 16     ecut=    60.00 Ry     beta= 0.70
     CG style diagonalization
     ethr =  1.40E-08,  avg # of iterations =  3.2

     negative rho (up, down):  6.896E-04 0.000E+00

     total cpu time spent up to now is       69.3 secs

     total energy              =   -1470.69647597 Ry
     estimated scf accuracy    <       0.00009707 Ry

     iteration # 17     ecut=    60.00 Ry     beta= 0.70
     CG style diagonalization
     ethr =  1.40E-08,  avg # of iterations =  3.1

     negative rho (up, down):  6.896E-04 0.000E+00

     total cpu time spent up to now is       72.7 secs

     total energy              =   -1470.69646506 Ry
     estimated scf accuracy    <       0.00011578 Ry

     iteration # 18     ecut=    60.00 Ry     beta= 0.70
     CG style diagonalization
     ethr =  1.40E-08,  avg # of iterations =  3.2

     negative rho (up, down):  6.895E-04 0.000E+00

     total cpu time spent up to now is       76.1 secs

     total energy              =   -1470.69646271 Ry
     estimated scf accuracy    <       0.00007741 Ry

     iteration # 19     ecut=    60.00 Ry     beta= 0.70
     CG style diagonalization
     ethr =  1.40E-08,  avg # of iterations =  3.5

     negative rho (up, down):  6.901E-04 0.000E+00

     total cpu time spent up to now is       79.8 secs

     total energy              =   -1470.69647352 Ry
     estimated scf accuracy    <       0.00003579 Ry

     iteration # 20     ecut=    60.00 Ry     beta= 0.70
     CG style diagonalization
     ethr =  1.40E-08,  avg # of iterations =  3.3

     negative rho (up, down):  6.903E-04 0.000E+00

     total cpu time spent up to now is       83.3 secs

     total energy              =   -1470.69646932 Ry
     estimated scf accuracy    <       0.00008743 Ry

     iteration # 21     ecut=    60.00 Ry     beta= 0.70
     CG style diagonalization
     ethr =  1.40E-08,  avg # of iterations =  3.2

     negative rho (up, down):  6.905E-04 0.000E+00

     total cpu time spent up to now is       86.7 secs

     total energy              =   -1470.69646589 Ry
     estimated scf accuracy    <       0.00007155 Ry

     iteration # 22     ecut=    60.00 Ry     beta= 0.70
     CG style diagonalization
     ethr =  1.40E-08,  avg # of iterations =  3.2

     negative rho (up, down):  6.904E-04 0.000E+00

     total cpu time spent up to now is       90.0 secs

     total energy              =   -1470.69645957 Ry
     estimated scf accuracy    <       0.00005095 Ry

     iteration # 23     ecut=    60.00 Ry     beta= 0.70
     CG style diagonalization
     ethr =  1.40E-08,  avg # of iterations =  3.4

     negative rho (up, down):  6.904E-04 0.000E+00

     total cpu time spent up to now is       93.7 secs

     total energy              =   -1470.69646181 Ry
     estimated scf accuracy    <       0.00000882 Ry

     iteration # 24     ecut=    60.00 Ry     beta= 0.70
     CG style diagonalization
     ethr =  1.23E-08,  avg # of iterations =  3.5

     negative rho (up, down):  6.906E-04 0.000E+00

     total cpu time spent up to now is       97.4 secs

     total energy              =   -1470.69646429 Ry
     estimated scf accuracy    <       0.00000107 Ry

     iteration # 25     ecut=    60.00 Ry     beta= 0.70
     CG style diagonalization
     c_bands:  1 eigenvalues not converged
     ethr =  1.49E-09,  avg # of iterations =  3.7

     negative rho (up, down):  6.908E-04 0.000E+00

     total cpu time spent up to now is      101.3 secs

     total energy              =   -1470.69646503 Ry
     estimated scf accuracy    <       0.00000814 Ry

     iteration # 26     ecut=    60.00 Ry     beta= 0.70
     CG style diagonalization
     ethr =  1.49E-09,  avg # of iterations =  3.5

     negative rho (up, down):  6.908E-04 0.000E+00

     total cpu time spent up to now is      105.1 secs

     total energy              =   -1470.69646369 Ry
     estimated scf accuracy    <       0.00000809 Ry

     iteration # 27     ecut=    60.00 Ry     beta= 0.70
     CG style diagonalization
     ethr =  1.49E-09,  avg # of iterations =  3.4

     negative rho (up, down):  6.908E-04 0.000E+00

     total cpu time spent up to now is      108.8 secs

     total energy              =   -1470.69646407 Ry
     estimated scf accuracy    <       0.00000087 Ry

     iteration # 28     ecut=    60.00 Ry     beta= 0.70
     CG style diagonalization
     c_bands:  1 eigenvalues not converged
     ethr =  1.21E-09,  avg # of iterations =  4.0

     negative rho (up, down):  6.908E-04 0.000E+00

     total cpu time spent up to now is      113.1 secs

     total energy              =   -1470.69646483 Ry
     estimated scf accuracy    <       0.00000365 Ry

     iteration # 29     ecut=    60.00 Ry     beta= 0.70
     CG style diagonalization
     ethr =  1.21E-09,  avg # of iterations =  3.1

     negative rho (up, down):  6.908E-04 0.000E+00

     total cpu time spent up to now is      116.4 secs

     total energy              =   -1470.69646489 Ry
     estimated scf accuracy    <       0.00000305 Ry

     iteration # 30     ecut=    60.00 Ry     beta= 0.70
     CG style diagonalization
     ethr =  1.21E-09,  avg # of iterations =  3.1

     negative rho (up, down):  6.907E-04 0.000E+00

     total cpu time spent up to now is      119.7 secs

     total energy              =   -1470.69646467 Ry
     estimated scf accuracy    <       0.00000321 Ry

     iteration # 31     ecut=    60.00 Ry     beta= 0.70
     CG style diagonalization
     ethr =  1.21E-09,  avg # of iterations =  3.1

     negative rho (up, down):  6.907E-04 0.000E+00

     total cpu time spent up to now is      123.0 secs

     total energy              =   -1470.69646461 Ry
     estimated scf accuracy    <       0.00000203 Ry

     iteration # 32     ecut=    60.00 Ry     beta= 0.70
     CG style diagonalization
     ethr =  1.21E-09,  avg # of iterations =  3.2

     negative rho (up, down):  6.907E-04 0.000E+00

     total cpu time spent up to now is      126.4 secs

     total energy              =   -1470.69646460 Ry
     estimated scf accuracy    <       0.00000099 Ry

     iteration # 33     ecut=    60.00 Ry     beta= 0.70
     CG style diagonalization
     ethr =  1.21E-09,  avg # of iterations =  3.2

     negative rho (up, down):  6.908E-04 0.000E+00

     total cpu time spent up to now is      129.8 secs

     total energy              =   -1470.69646467 Ry
     estimated scf accuracy    <       0.00000027 Ry

     iteration # 34     ecut=    60.00 Ry     beta= 0.70
     CG style diagonalization
     ethr =  3.74E-10,  avg # of iterations =  3.3

     negative rho (up, down):  6.908E-04 0.000E+00

     total cpu time spent up to now is      133.4 secs

     total energy              =   -1470.69646471 Ry
     estimated scf accuracy    <       0.00000005 Ry

     iteration # 35     ecut=    60.00 Ry     beta= 0.70
     CG style diagonalization
     ethr =  6.53E-11,  avg # of iterations =  3.3

     negative rho (up, down):  6.908E-04 0.000E+00

     total cpu time spent up to now is      136.9 secs

     total energy              =   -1470.69646473 Ry
     estimated scf accuracy    <       0.00000002 Ry

     iteration # 36     ecut=    60.00 Ry     beta= 0.70
     CG style diagonalization
     ethr =  2.39E-11,  avg # of iterations =  3.4

     negative rho (up, down):  6.908E-04 0.000E+00

     total cpu time spent up to now is      140.5 secs

     total energy              =   -1470.69646475 Ry
     estimated scf accuracy    <       0.00000002 Ry

     iteration # 37     ecut=    60.00 Ry     beta= 0.70
     CG style diagonalization
     c_bands:  1 eigenvalues not converged
     c_bands:  1 eigenvalues not converged
     ethr =  2.39E-11,  avg # of iterations =  3.6

     negative rho (up, down):  6.908E-04 0.000E+00

     total cpu time spent up to now is      144.4 secs

     total energy              =   -1470.69646483 Ry
     estimated scf accuracy    <       0.00000078 Ry

     iteration # 38     ecut=    60.00 Ry     beta= 0.70
     CG style diagonalization
     c_bands:  1 eigenvalues not converged
     ethr =  2.39E-11,  avg # of iterations =  4.1

     negative rho (up, down):  6.908E-04 0.000E+00

     total cpu time spent up to now is      148.8 secs

     total energy              =   -1470.69646486 Ry
     estimated scf accuracy    <       0.00000185 Ry

     iteration # 39     ecut=    60.00 Ry     beta= 0.70
     CG style diagonalization
     ethr =  2.39E-11,  avg # of iterations =  3.3

     negative rho (up, down):  6.908E-04 0.000E+00

     total cpu time spent up to now is      152.3 secs

     total energy              =   -1470.69646484 Ry
     estimated scf accuracy    <       0.00000201 Ry

     iteration # 40     ecut=    60.00 Ry     beta= 0.70
     CG style diagonalization
     ethr =  2.39E-11,  avg # of iterations =  3.1

     negative rho (up, down):  6.908E-04 0.000E+00

     total cpu time spent up to now is      155.6 secs

     total energy              =   -1470.69646481 Ry
     estimated scf accuracy    <       0.00000194 Ry

     iteration # 41     ecut=    60.00 Ry     beta= 0.70
     CG style diagonalization
     ethr =  2.39E-11,  avg # of iterations =  3.2

     negative rho (up, down):  6.908E-04 0.000E+00

     total cpu time spent up to now is      158.9 secs

     total energy              =   -1470.69646480 Ry
     estimated scf accuracy    <       0.00000177 Ry

     iteration # 42     ecut=    60.00 Ry     beta= 0.70
     CG style diagonalization
     ethr =  2.39E-11,  avg # of iterations =  3.2

     negative rho (up, down):  6.908E-04 0.000E+00

     total cpu time spent up to now is      162.3 secs

     total energy              =   -1470.69646478 Ry
     estimated scf accuracy    <       0.00000157 Ry

     iteration # 43     ecut=    60.00 Ry     beta= 0.70
     CG style diagonalization
     ethr =  2.39E-11,  avg # of iterations =  3.2

     negative rho (up, down):  6.908E-04 0.000E+00

     total cpu time spent up to now is      165.8 secs

     total energy              =   -1470.69646477 Ry
     estimated scf accuracy    <       0.00000132 Ry

     iteration # 44     ecut=    60.00 Ry     beta= 0.70
     CG style diagonalization
     ethr =  2.39E-11,  avg # of iterations =  3.3

     negative rho (up, down):  6.908E-04 0.000E+00

     total cpu time spent up to now is      169.3 secs

     total energy              =   -1470.69646479 Ry
     estimated scf accuracy    <       0.00000103 Ry

     iteration # 45     ecut=    60.00 Ry     beta= 0.70
     CG style diagonalization
     ethr =  2.39E-11,  avg # of iterations =  3.2

     negative rho (up, down):  6.908E-04 0.000E+00

     total cpu time spent up to now is      172.7 secs

     total energy              =   -1470.69646487 Ry
     estimated scf accuracy    <       0.00000106 Ry

     iteration # 46     ecut=    60.00 Ry     beta= 0.70
     CG style diagonalization
     ethr =  2.39E-11,  avg # of iterations =  3.4

     negative rho (up, down):  6.908E-04 0.000E+00

     total cpu time spent up to now is      176.4 secs

     total energy              =   -1470.69646515 Ry
     estimated scf accuracy    <       0.00000162 Ry

     iteration # 47     ecut=    60.00 Ry     beta= 0.70
     CG style diagonalization
     c_bands:  1 eigenvalues not converged
     c_bands:  1 eigenvalues not converged
     c_bands:  1 eigenvalues not converged
     c_bands:  1 eigenvalues not converged
     c_bands:  1 eigenvalues not converged
     c_bands:  1 eigenvalues not converged
     c_bands:  1 eigenvalues not converged
     ethr =  2.39E-11,  avg # of iterations =  4.5

     negative rho (up, down):  6.908E-04 0.000E+00

     total cpu time spent up to now is      181.2 secs

     total energy              =   -1470.69646487 Ry
     estimated scf accuracy    <       0.00001024 Ry

     iteration # 48     ecut=    60.00 Ry     beta= 0.70
     CG style diagonalization
     c_bands:  1 eigenvalues not converged
     c_bands:  1 eigenvalues not converged
     ethr =  2.39E-11,  avg # of iterations =  4.3

     negative rho (up, down):  6.908E-04 0.000E+00

     total cpu time spent up to now is      185.8 secs

     total energy              =   -1470.69646446 Ry
     estimated scf accuracy    <       0.00000518 Ry

     iteration # 49     ecut=    60.00 Ry     beta= 0.70
     CG style diagonalization
     c_bands:  1 eigenvalues not converged
     c_bands:  1 eigenvalues not converged
     c_bands:  1 eigenvalues not converged
     c_bands:  1 eigenvalues not converged
     c_bands:  1 eigenvalues not converged
     c_bands:  1 eigenvalues not converged
     c_bands:  1 eigenvalues not converged
     c_bands:  1 eigenvalues not converged
     c_bands:  1 eigenvalues not converged
     ethr =  2.39E-11,  avg # of iterations =  4.5

     negative rho (up, down):  6.908E-04 0.000E+00

     total cpu time spent up to now is      190.5 secs

     total energy              =   -1470.69646471 Ry
     estimated scf accuracy    <       0.00000016 Ry

     iteration # 50     ecut=    60.00 Ry     beta= 0.70
     CG style diagonalization
     ethr =  2.39E-11,  avg # of iterations =  4.0

     negative rho (up, down):  6.908E-04 0.000E+00

     total cpu time spent up to now is      194.8 secs

     total energy              =   -1470.69646472 Ry
     estimated scf accuracy    <       0.00000003 Ry

     iteration # 51     ecut=    60.00 Ry     beta= 0.70
     CG style diagonalization
     ethr =  2.39E-11,  avg # of iterations =  3.3

     negative rho (up, down):  6.908E-04 0.000E+00

     total cpu time spent up to now is      198.3 secs

     total energy              =   -1470.69646473 Ry
     estimated scf accuracy    <       0.00000002 Ry

     iteration # 52     ecut=    60.00 Ry     beta= 0.70
     CG style diagonalization
     ethr =  2.12E-11,  avg # of iterations =  3.1

     negative rho (up, down):  6.908E-04 0.000E+00

     total cpu time spent up to now is      201.6 secs

     total energy              =   -1470.69646473 Ry
     estimated scf accuracy    <          6.3E-09 Ry

     iteration # 53     ecut=    60.00 Ry     beta= 0.70
     CG style diagonalization
     ethr =  8.79E-12,  avg # of iterations =  3.2

     negative rho (up, down):  6.908E-04 0.000E+00

     total cpu time spent up to now is      205.0 secs

     total energy              =   -1470.69646473 Ry
     estimated scf accuracy    <          8.4E-10 Ry

     iteration # 54     ecut=    60.00 Ry     beta= 0.70
     CG style diagonalization
     c_bands:  1 eigenvalues not converged
     c_bands:  1 eigenvalues not converged
     ethr =  1.16E-12,  avg # of iterations =  3.9

     negative rho (up, down):  6.908E-04 0.000E+00

     total cpu time spent up to now is      209.2 secs

     total energy              =   -1470.69646473 Ry
     estimated scf accuracy    <          2.5E-09 Ry

     iteration # 55     ecut=    60.00 Ry     beta= 0.70
     CG style diagonalization
     ethr =  1.16E-12,  avg # of iterations =  3.2

     negative rho (up, down):  6.908E-04 0.000E+00

     total cpu time spent up to now is      212.6 secs

     total energy              =   -1470.69646473 Ry
     estimated scf accuracy    <          3.7E-09 Ry

     iteration # 56     ecut=    60.00 Ry     beta= 0.70
     CG style diagonalization
     ethr =  1.16E-12,  avg # of iterations =  3.1

     negative rho (up, down):  6.908E-04 0.000E+00

     total cpu time spent up to now is      215.9 secs

     total energy              =   -1470.69646473 Ry
     estimated scf accuracy    <          3.5E-09 Ry

     iteration # 57     ecut=    60.00 Ry     beta= 0.70
     CG style diagonalization
     ethr =  1.16E-12,  avg # of iterations =  3.2

     negative rho (up, down):  6.908E-04 0.000E+00

     total cpu time spent up to now is      219.3 secs

     total energy              =   -1470.69646473 Ry
     estimated scf accuracy    <          2.3E-09 Ry

     iteration # 58     ecut=    60.00 Ry     beta= 0.70
     CG style diagonalization
     ethr =  1.16E-12,  avg # of iterations =  3.1

     negative rho (up, down):  6.908E-04 0.000E+00

     total cpu time spent up to now is      222.5 secs

     total energy              =   -1470.69646473 Ry
     estimated scf accuracy    <          2.7E-09 Ry

     iteration # 59     ecut=    60.00 Ry     beta= 0.70
     CG style diagonalization
     ethr =  1.16E-12,  avg # of iterations =  3.1

     negative rho (up, down):  6.908E-04 0.000E+00

     total cpu time spent up to now is      225.9 secs

     total energy              =   -1470.69646473 Ry
     estimated scf accuracy    <          1.2E-09 Ry

     iteration # 60     ecut=    60.00 Ry     beta= 0.70
     CG style diagonalization
     ethr =  1.16E-12,  avg # of iterations =  3.3

     negative rho (up, down):  6.908E-04 0.000E+00

     total cpu time spent up to now is      229.5 secs

     total energy              =   -1470.69646473 Ry
     estimated scf accuracy    <          3.3E-11 Ry

     iteration # 61     ecut=    60.00 Ry     beta= 0.70
     CG style diagonalization
     ethr =  1.00E-13,  avg # of iterations =  3.5

     negative rho (up, down):  6.908E-04 0.000E+00

     total cpu time spent up to now is      233.2 secs

     total energy              =   -1470.69646473 Ry
     estimated scf accuracy    <          3.4E-12 Ry

     iteration # 62     ecut=    60.00 Ry     beta= 0.70
     CG style diagonalization
     ethr =  1.00E-13,  avg # of iterations =  3.4

     negative rho (up, down):  6.908E-04 0.000E+00

     total cpu time spent up to now is      236.8 secs

     total energy              =   -1470.69646473 Ry
     estimated scf accuracy    <          1.5E-11 Ry

     iteration # 63     ecut=    60.00 Ry     beta= 0.70
     CG style diagonalization
     ethr =  1.00E-13,  avg # of iterations =  3.2

     negative rho (up, down):  6.908E-04 0.000E+00

     total cpu time spent up to now is      240.2 secs

     total energy              =   -1470.69646473 Ry
     estimated scf accuracy    <          2.5E-11 Ry

     iteration # 64     ecut=    60.00 Ry     beta= 0.70
     CG style diagonalization
     ethr =  1.00E-13,  avg # of iterations =  3.1

     negative rho (up, down):  6.908E-04 0.000E+00

     total cpu time spent up to now is      243.4 secs

     total energy              =   -1470.69646473 Ry
     estimated scf accuracy    <          2.7E-11 Ry

     iteration # 65     ecut=    60.00 Ry     beta= 0.70
     CG style diagonalization
     ethr =  1.00E-13,  avg # of iterations =  3.0

     negative rho (up, down):  6.908E-04 0.000E+00

     total cpu time spent up to now is      246.6 secs

     total energy              =   -1470.69646473 Ry
     estimated scf accuracy    <          1.3E-11 Ry

     iteration # 66     ecut=    60.00 Ry     beta= 0.70
     CG style diagonalization
     ethr =  1.00E-13,  avg # of iterations =  3.0

     negative rho (up, down):  6.908E-04 0.000E+00

     total cpu time spent up to now is      249.9 secs

     total energy              =   -1470.69646473 Ry
     estimated scf accuracy    <          3.9E-12 Ry

     iteration # 67     ecut=    60.00 Ry     beta= 0.70
     CG style diagonalization
     ethr =  1.00E-13,  avg # of iterations =  3.0

     negative rho (up, down):  6.908E-04 0.000E+00

     total cpu time spent up to now is      253.1 secs

     total energy              =   -1470.69646473 Ry
     estimated scf accuracy    <          2.9E-12 Ry

     iteration # 68     ecut=    60.00 Ry     beta= 0.70
     CG style diagonalization
     ethr =  1.00E-13,  avg # of iterations =  3.0

     negative rho (up, down):  6.908E-04 0.000E+00

     total cpu time spent up to now is      256.3 secs

     End of self-consistent calculation

          k = 0.0000 0.0000 0.0000 (  7629 PWs)   bands (ev):

   -65.8675 -65.7197 -32.8116 -32.2567 -31.9622 -31.9622 -31.7586 -31.7586
   -22.6640 -19.1961 -17.5427 -17.5386 -17.5386 -17.5165 -17.5165 -17.4990
   -17.4286 -17.4281 -17.4145 -17.4145 -17.3997 -17.3997 -17.3835 -17.3140
   -10.4859  -5.8229  -3.8092  -3.8092  -3.3298  -1.2068  -1.1479  -1.1479
     0.1598   0.1598   0.9986   2.7795

          k = 0.0000 0.1003 0.0000 (  7618 PWs)   bands (ev):

   -65.8634 -65.7159 -32.7952 -32.2574 -32.0204 -31.9764 -31.8139 -31.7705
   -22.6471 -19.1789 -17.5414 -17.5386 -17.5370 -17.5184 -17.5168 -17.4956
   -17.4319 -17.4272 -17.4147 -17.4131 -17.4015 -17.4000 -17.3802 -17.3176
   -10.3738  -5.6639  -3.9733  -3.8167  -3.2528  -1.5011  -1.1627  -1.1247
     0.0167   0.1334   1.1188   2.3443

          k = 0.0000 0.2007 0.0000 (  7638 PWs)   bands (ev):

   -65.8522 -65.7057 -32.7503 -32.2856 -32.1511 -32.0150 -31.9614 -31.8030
   -22.6036 -19.1322 -17.5409 -17.5358 -17.5332 -17.5230 -17.5178 -17.4868
   -17.4412 -17.4245 -17.4148 -17.4099 -17.4062 -17.4011 -17.3718 -17.3264
   -10.0752  -5.2916  -4.3156  -3.8502  -3.1135  -2.1372  -1.2043  -1.0844
    -0.3417   0.0712   1.1386   1.8315

          k = 0.0000 0.3010 0.0000 (  7678 PWs)   bands (ev):

   -65.8368 -65.6917 -32.6916 -32.4490 -32.2018 -32.1495 -32.0672 -31.8472
   -22.5495 -19.0687 -17.5413 -17.5326 -17.5287 -17.5264 -17.5185 -17.4750
   -17.4531 -17.4232 -17.4141 -17.4104 -17.4066 -17.4018 -17.3603 -17.3376
    -9.6881  -5.0168  -4.6731  -3.9201  -3.0749  -2.5671  -1.2913  -1.0866
    -0.7506   0.0113   0.4535   2.3496

          k = 0.0000 0.4014 0.0000 (  7732 PWs)   bands (ev):

   -65.8214 -65.6777 -32.6833 -32.6145 -32.3238 -32.1994 -32.1187 -31.8911
   -22.5010 -19.0054 -17.5419 -17.5358 -17.5271 -17.5222 -17.5169 -17.4640
   -17.4631 -17.4236 -17.4191 -17.4076 -17.4066 -17.3989 -17.3487 -17.3479
    -9.3294  -5.1988  -4.7888  -4.0107  -3.4248  -2.4309  -1.4518  -1.1455
    -1.0255  -0.0273  -0.0205   3.0799

          k = 0.0000 0.5017 0.0000 (  7712 PWs)   bands (ev):

   -65.8101 -65.6674 -32.8161 -32.6354 -32.3975 -32.2044 -32.1560 -31.9231
   -22.4686 -18.9591 -17.5434 -17.5372 -17.5282 -17.5179 -17.5137 -17.4712
   -17.4542 -17.4243 -17.4229 -17.4098 -17.4025 -17.3955 -17.3547 -17.3399
    -9.0883  -5.4547  -4.8599  -4.0863  -3.6700  -2.3931  -1.6027  -1.2135
    -1.1456  -0.1958  -0.0498   3.8343

          k = 0.0000-0.6021 0.0000 (  7682 PWs)   bands (ev):

   -65.8059 -65.6637 -32.8694 -32.6556 -32.4040 -32.2076 -32.1696 -31.9348
   -22.4574 -18.9421 -17.5444 -17.5372 -17.5289 -17.5163 -17.5123 -17.4736
   -17.4507 -17.4248 -17.4241 -17.4107 -17.4010 -17.3941 -17.3569 -17.3365
    -9.0051  -5.5510  -4.8986  -4.1155  -3.7493  -2.4163  -1.6591  -1.2420
    -1.1772  -0.2330  -0.0578   4.1734

          k = 0.0869 0.1505 0.0000 (  7653 PWs)   bands (ev):

   -65.8557 -65.7089 -32.7645 -32.2688 -32.1143 -32.0085 -31.9095 -31.7965
   -22.6170 -19.1470 -17.5397 -17.5386 -17.5339 -17.5216 -17.5175 -17.4896
   -17.4384 -17.4251 -17.4152 -17.4108 -17.4047 -17.4008 -17.3745 -17.3237
   -10.1681  -5.3944  -4.2074  -3.8514  -3.1503  -1.9286  -1.3057  -1.0171
    -0.2290   0.0830   1.3244   1.7270

          k = 0.0869 0.2509 0.0000 (  7667 PWs)   bands (ev):

   -65.8424 -65.6968 -32.7119 -32.3681 -32.1938 -32.0925 -32.0387 -31.8430
   -22.5684 -19.0919 -17.5396 -17.5352 -17.5294 -17.5262 -17.5183 -17.4793
   -17.4492 -17.4223 -17.4150 -17.4098 -17.4072 -17.4017 -17.3645 -17.3339
    -9.8231  -5.0459  -4.5440  -3.9297  -3.0173  -2.4479  -1.4766  -0.9476
    -0.6016   0.0036   0.8689   1.8516

          k = 0.0869 0.3512 0.0000 (  7718 PWs)   bands (ev):

   -65.8270 -65.6828 -32.6621 -32.5520 -32.2617 -32.1978 -32.1107 -31.8955
   -22.5175 -19.0286 -17.5399 -17.5343 -17.5279 -17.5255 -17.5174 -17.4676
   -17.4607 -17.4218 -17.4167 -17.4103 -17.4067 -17.4001 -17.3530 -17.3449
    -9.4461  -5.0114  -4.7521  -4.0432  -3.2268  -2.4507  -1.6296  -1.0544
    -0.8742  -0.0859   0.3118   2.5156

          k = 0.0869 0.4516 0.0000 (  7713 PWs)   bands (ev):

   -65.8137 -65.6707 -32.7440 -32.6151 -32.3706 -32.2166 -32.1561 -31.9403
   -22.4775 -18.9737 -17.5411 -17.5365 -17.5276 -17.5211 -17.5147 -17.4701
   -17.4571 -17.4223 -17.4211 -17.4091 -17.4053 -17.3968 -17.3537 -17.3427
    -9.1422  -5.2827  -4.7960  -4.1762  -3.4949  -2.3187  -1.7418  -1.2524
    -1.0179  -0.1901   0.1469   3.1597

          k = 0.0869 0.5519 0.0000 (  7717 PWs)   bands (ev):

   -65.8059 -65.6637 -32.8383 -32.6364 -32.3967 -32.2366 -32.1739 -31.9659
   -22.4560 -18.9421 -17.5428 -17.5368 -17.5287 -17.5173 -17.5131 -17.4750
   -17.4510 -17.4237 -17.4228 -17.4108 -17.4018 -17.3952 -17.3583 -17.3367
    -8.9781  -5.4478  -4.8710  -4.2595  -3.6123  -2.3350  -1.7964  -1.3278
    -1.1301  -0.2541   0.1464   3.6909

          k = 0.1738 0.3010 0.0000 (  7697 PWs)   bands (ev):

   -65.8291 -65.6847 -32.6640 -32.5047 -32.2478 -32.1869 -32.1094 -31.9128
   -22.5234 -19.0370 -17.5366 -17.5350 -17.5300 -17.5264 -17.5172 -17.4692
   -17.4598 -17.4189 -17.4164 -17.4131 -17.4065 -17.4002 -17.3546 -17.3440
    -9.4843  -4.8904  -4.7370  -4.0911  -3.1142  -2.4350  -1.8321  -0.9558
    -0.8236  -0.1295   0.5937   2.0807

          k = 0.1738 0.4014 0.0000 (  7722 PWs)   bands (ev):

   -65.8157 -65.6726 -32.6739 -32.5924 -32.3460 -32.2317 -32.1648 -31.9863
   -22.4818 -18.9822 -17.5377 -17.5345 -17.5277 -17.5263 -17.5148 -17.4705
   -17.4587 -17.4197 -17.4176 -17.4107 -17.4084 -17.3976 -17.3541 -17.3443
    -9.1552  -5.1034  -4.6817  -4.3034  -3.3262  -2.2093  -2.0828  -1.1627
    -0.9312  -0.2935   0.5545   2.5120

          k = 0.1738 0.5017 0.0000 (  7726 PWs)   bands (ev):

   -65.8059 -65.6637 -32.7624 -32.5958 -32.3846 -32.2999 -32.1781 -32.0400
   -22.4532 -18.9420 -17.5396 -17.5349 -17.5280 -17.5211 -17.5139 -17.4776
   -17.4513 -17.4220 -17.4183 -17.4111 -17.4051 -17.3966 -17.3609 -17.3370
    -8.9229  -5.2599  -4.7616  -4.4485  -3.4263  -2.2710  -2.0657  -1.2925
    -1.0639  -0.4255   0.6949   2.8579

          k = 0.1738 0.6021 0.0000 (  7711 PWs)   bands (ev):

   -65.8023 -65.6604 -32.7976 -32.6031 -32.3791 -32.3367 -32.1808 -32.0597
   -22.4431 -18.9273 -17.5402 -17.5353 -17.5283 -17.5176 -17.5147 -17.4801
   -17.4484 -17.4226 -17.4187 -17.4121 -17.4023 -17.3970 -17.3632 -17.3341
    -8.8401  -5.3076  -4.8379  -4.4828  -3.4510  -2.3169  -2.0576  -1.3288
    -1.1229  -0.4762   0.7537   3.1044

          k = 0.2607 0.4516 0.0000 (  7739 PWs)   bands (ev):

   -65.8059 -65.6637 -32.7118 -32.5720 -32.4112 -32.3013 -32.1835 -32.0876
   -22.4518 -18.9419 -17.5384 -17.5323 -17.5265 -17.5258 -17.5141 -17.4789
   -17.4515 -17.4211 -17.4137 -17.4116 -17.4091 -17.3970 -17.3622 -17.3371
    -8.8947  -5.1915  -4.6493  -4.5299  -3.3384  -2.4711  -1.9917  -1.2136
    -1.0591  -0.5306   1.0899   2.4542

          k = 0.2607 0.5519 0.0000 (  7715 PWs)   bands (ev):

   -65.8003 -65.6585 -32.7180 -32.5567 -32.4637 -32.3419 -32.1874 -32.1564
   -22.4349 -18.9187 -17.5382 -17.5336 -17.5257 -17.5209 -17.5160 -17.4837
   -17.4472 -17.4210 -17.4149 -17.4113 -17.4053 -17.3989 -17.3669 -17.3328
    -8.7406  -5.2289  -4.8064  -4.5187  -3.2971  -2.6950  -1.9005  -1.2304
    -1.1182  -0.7189   1.5088   2.5627

          k = 0.3476 0.6021 0.0000 (  7713 PWs)   bands (ev):

   -65.7982 -65.6566 -32.6459 -32.5691 -32.5265 -32.3311 -32.2244 -32.1876
   -22.4281 -18.9101 -17.5372 -17.5341 -17.5212 -17.5207 -17.5200 -17.4860
   -17.4457 -17.4197 -17.4162 -17.4072 -17.4059 -17.4016 -17.3692 -17.3312
    -8.6687  -5.2300  -4.8610  -4.4730  -3.1186  -3.0070  -1.8109  -1.1600
    -1.0995  -0.9244   2.1317   2.3298

     highest occupied level (ev):     4.1734

!    total energy              =   -1470.69646473 Ry
     estimated scf accuracy    <          8.6E-13 Ry

     The total energy is the sum of the following terms:
     one-electron contribution =   -7288.96888857 Ry
     hartree contribution      =    3686.03879754 Ry
     xc contribution           =    -157.65285923 Ry
     ewald contribution        =    2289.88648553 Ry

     convergence has been achieved in  68 iterations

     negative rho (up, down):  6.908E-04 0.000E+00

     Forces acting on atoms (cartesian axes, Ry/au):

     atom    1 type  1   force =     0.00000000   -0.00000000   -0.20398796
     atom    2 type  2   force =     0.00000000    0.00000000   -0.01108715
     atom    3 type  1   force =     0.00000000    0.00000000    0.08504975
     atom    4 type  3   force =     0.00000000    0.00000000   -0.02160399
     atom    5 type  3   force =     0.00000000    0.00000000    0.15162936

     Total force =     0.269120     Total SCF correction =     0.000010


     Computing stress (Cartesian axis) and pressure


     negative rho (up, down):  6.908E-04 0.000E+00
          total   stress  (Ry/bohr**3)                   (kbar)     P=      -28.53
  -0.00008990   0.00000000   0.00000000          -13.22        0.00        0.00
   0.00000000  -0.00008990  -0.00000000            0.00      -13.22       -0.00
   0.00000000  -0.00000000  -0.00040205            0.00       -0.00      -59.14


     BFGS Geometry Optimization
     Energy error            =      0.0E+00 Ry
     Gradient error          =      2.0E-01 Ry/Bohr
     Cell gradient error     =      1.3E+01 kbar

     number of scf cycles    =   1
     number of bfgs steps    =   0

     enthalpy           new  =   -1470.6964647295 Ry

     new trust radius        =       0.2039879626 bohr
     new conv_thr            =            1.0E-12 Ry

     new unit-cell volume =    976.71816 a.u.^3 (   144.73470 Ang^3 )
     density =      4.72576 g/cm^3

CELL_PARAMETERS (alat=  5.89970000)
   0.956750720   0.000000000   0.000000000
  -0.478375359   0.828570429   0.000000000
   0.000000000   0.000000000   6.000000000

ATOMIC_POSITIONS (crystal)
Ta            0.3333333330        0.6666666670        0.0122846095    0   0   1
C             0.0000000000        0.0000000000        0.0867379971    0   0   1
Ta            0.6666666670        0.3333333330        0.1565111080    0   0   1
F             0.0000000000        0.0000000000        0.2317224253
F             0.0000000000        0.0000000000       -0.0823883993



     Writing output data file /scratch/as3359/Ta2CF2_looping/Ta.save/
     NEW-OLD atomic charge density approx. for the potential

     Check: negative core charge=   -0.000002

     negative rho (up, down):  7.115E-04 0.000E+00
     extrapolated charge   71.67529, renormalised to   72.00000

     total cpu time spent up to now is      266.6 secs

     Self-consistent Calculation

     iteration #  1     ecut=    60.00 Ry     beta= 0.70
     CG style diagonalization
     c_bands:  1 eigenvalues not converged
     ethr =  1.00E-06,  avg # of iterations = 22.2

     negative rho (up, down):  7.521E-04 0.000E+00

     total cpu time spent up to now is      288.2 secs

     total energy              =   -1469.50963566 Ry
     estimated scf accuracy    <       1.24677597 Ry

     iteration #  2     ecut=    60.00 Ry     beta= 0.70
     CG style diagonalization
     ethr =  1.73E-03,  avg # of iterations =  4.0

     negative rho (up, down):  1.686E-03 0.000E+00

     total cpu time spent up to now is      292.3 secs

     total energy              =   -1470.11922695 Ry
     estimated scf accuracy    <       4.47367231 Ry

     iteration #  3     ecut=    60.00 Ry     beta= 0.70
     CG style diagonalization
     ethr =  1.73E-03,  avg # of iterations =  4.2

     negative rho (up, down):  1.004E-03 0.000E+00

     total cpu time spent up to now is      296.6 secs

     total energy              =   -1470.78881251 Ry
     estimated scf accuracy    <       1.05585508 Ry

     iteration #  4     ecut=    60.00 Ry     beta= 0.70
     CG style diagonalization
     ethr =  1.47E-03,  avg # of iterations =  3.3

     negative rho (up, down):  8.590E-04 0.000E+00

     total cpu time spent up to now is      300.0 secs

     total energy              =   -1470.71510603 Ry
     estimated scf accuracy    <       0.59745045 Ry

     iteration #  5     ecut=    60.00 Ry     beta= 0.70
     CG style diagonalization
     ethr =  8.30E-04,  avg # of iterations =  3.2

     negative rho (up, down):  7.786E-04 0.000E+00

     total cpu time spent up to now is      303.4 secs

     total energy              =   -1470.72787943 Ry
     estimated scf accuracy    <       0.19228364 Ry

     iteration #  6     ecut=    60.00 Ry     beta= 0.70
     CG style diagonalization
     ethr =  2.67E-04,  avg # of iterations =  3.4

     negative rho (up, down):  7.292E-04 0.000E+00

     total cpu time spent up to now is      306.9 secs

     total energy              =   -1470.75418169 Ry
     estimated scf accuracy    <       0.04453107 Ry

     iteration #  7     ecut=    60.00 Ry     beta= 0.70
     CG style diagonalization
     ethr =  6.18E-05,  avg # of iterations =  3.4

     negative rho (up, down):  7.187E-04 0.000E+00

     total cpu time spent up to now is      310.4 secs

     total energy              =   -1470.75887043 Ry
     estimated scf accuracy    <       0.03704064 Ry

     iteration #  8     ecut=    60.00 Ry     beta= 0.70
     CG style diagonalization
     ethr =  5.14E-05,  avg # of iterations =  3.1

     negative rho (up, down):  7.178E-04 0.000E+00

     total cpu time spent up to now is      313.7 secs

     total energy              =   -1470.75623391 Ry
     estimated scf accuracy    <       0.03544115 Ry

     iteration #  9     ecut=    60.00 Ry     beta= 0.70
     CG style diagonalization
     ethr =  4.92E-05,  avg # of iterations =  3.0

     negative rho (up, down):  7.120E-04 0.000E+00

     total cpu time spent up to now is      316.8 secs

     total energy              =   -1470.75303915 Ry
     estimated scf accuracy    <       0.02570468 Ry

     iteration # 10     ecut=    60.00 Ry     beta= 0.70
     CG style diagonalization
     ethr =  3.57E-05,  avg # of iterations =  3.1

     negative rho (up, down):  7.100E-04 0.000E+00

     total cpu time spent up to now is      320.1 secs

     total energy              =   -1470.75181337 Ry
     estimated scf accuracy    <       0.01157764 Ry

     iteration # 11     ecut=    60.00 Ry     beta= 0.70
     CG style diagonalization
     ethr =  1.61E-05,  avg # of iterations =  3.5

     negative rho (up, down):  7.069E-04 0.000E+00

     total cpu time spent up to now is      323.8 secs

     total energy              =   -1470.75341390 Ry
     estimated scf accuracy    <       0.00136212 Ry

     iteration # 12     ecut=    60.00 Ry     beta= 0.70
     CG style diagonalization
     ethr =  1.89E-06,  avg # of iterations =  4.3

     negative rho (up, down):  7.051E-04 0.000E+00

     total cpu time spent up to now is      328.3 secs

     total energy              =   -1470.75507835 Ry
     estimated scf accuracy    <       0.00179541 Ry

     iteration # 13     ecut=    60.00 Ry     beta= 0.70
     CG style diagonalization
     ethr =  1.89E-06,  avg # of iterations =  3.4

     negative rho (up, down):  7.042E-04 0.000E+00

     total cpu time spent up to now is      331.8 secs

     total energy              =   -1470.75475226 Ry
     estimated scf accuracy    <       0.00247263 Ry

     iteration # 14     ecut=    60.00 Ry     beta= 0.70
     CG style diagonalization
     ethr =  1.89E-06,  avg # of iterations =  3.2

     negative rho (up, down):  7.045E-04 0.000E+00

     total cpu time spent up to now is      335.1 secs

     total energy              =   -1470.75464934 Ry
     estimated scf accuracy    <       0.00086415 Ry

     iteration # 15     ecut=    60.00 Ry     beta= 0.70
     CG style diagonalization
     ethr =  1.20E-06,  avg # of iterations =  3.5

     negative rho (up, down):  7.041E-04 0.000E+00

     total cpu time spent up to now is      338.9 secs

     total energy              =   -1470.75485518 Ry
     estimated scf accuracy    <       0.00004362 Ry

     iteration # 16     ecut=    60.00 Ry     beta= 0.70
     CG style diagonalization
     ethr =  6.06E-08,  avg # of iterations =  4.4

     negative rho (up, down):  7.043E-04 0.000E+00

     total cpu time spent up to now is      343.5 secs

     total energy              =   -1470.75490335 Ry
     estimated scf accuracy    <       0.00023676 Ry

     iteration # 17     ecut=    60.00 Ry     beta= 0.70
     CG style diagonalization
     ethr =  6.06E-08,  avg # of iterations =  3.6

     negative rho (up, down):  7.040E-04 0.000E+00

     total cpu time spent up to now is      347.2 secs

     total energy              =   -1470.75489787 Ry
     estimated scf accuracy    <       0.00005310 Ry

     iteration # 18     ecut=    60.00 Ry     beta= 0.70
     CG style diagonalization
     ethr =  6.06E-08,  avg # of iterations =  4.0

     negative rho (up, down):  7.033E-04 0.000E+00

     total cpu time spent up to now is      351.3 secs

     total energy              =   -1470.75495443 Ry
     estimated scf accuracy    <       0.00032525 Ry

     iteration # 19     ecut=    60.00 Ry     beta= 0.70
     CG style diagonalization
     ethr =  6.06E-08,  avg # of iterations =  3.7

     negative rho (up, down):  7.032E-04 0.000E+00

     total cpu time spent up to now is      355.2 secs

     total energy              =   -1470.75492765 Ry
     estimated scf accuracy    <       0.00040986 Ry

     iteration # 20     ecut=    60.00 Ry     beta= 0.70
     CG style diagonalization
     ethr =  6.06E-08,  avg # of iterations =  3.2

     negative rho (up, down):  7.032E-04 0.000E+00

     total cpu time spent up to now is      358.5 secs

     total energy              =   -1470.75488834 Ry
     estimated scf accuracy    <       0.00023348 Ry

     iteration # 21     ecut=    60.00 Ry     beta= 0.70
     CG style diagonalization
     ethr =  6.06E-08,  avg # of iterations =  3.7

     negative rho (up, down):  7.033E-04 0.000E+00

     total cpu time spent up to now is      362.4 secs

     total energy              =   -1470.75492715 Ry
     estimated scf accuracy    <       0.00001509 Ry

     iteration # 22     ecut=    60.00 Ry     beta= 0.70
     CG style diagonalization
     ethr =  2.10E-08,  avg # of iterations =  3.8

     negative rho (up, down):  7.033E-04 0.000E+00

     total cpu time spent up to now is      366.3 secs

     total energy              =   -1470.75493511 Ry
     estimated scf accuracy    <       0.00007095 Ry

     iteration # 23     ecut=    60.00 Ry     beta= 0.70
     CG style diagonalization
     ethr =  2.10E-08,  avg # of iterations =  3.3

     negative rho (up, down):  7.033E-04 0.000E+00

     total cpu time spent up to now is      369.8 secs

     total energy              =   -1470.75492160 Ry
     estimated scf accuracy    <       0.00007898 Ry

     iteration # 24     ecut=    60.00 Ry     beta= 0.70
     CG style diagonalization
     ethr =  2.10E-08,  avg # of iterations =  3.3

     negative rho (up, down):  7.034E-04 0.000E+00

     total cpu time spent up to now is      373.2 secs

     total energy              =   -1470.75492557 Ry
     estimated scf accuracy    <       0.00001881 Ry

     iteration # 25     ecut=    60.00 Ry     beta= 0.70
     CG style diagonalization
     ethr =  2.10E-08,  avg # of iterations =  3.4

     negative rho (up, down):  7.034E-04 0.000E+00

     total cpu time spent up to now is      376.8 secs

     total energy              =   -1470.75492760 Ry
     estimated scf accuracy    <       0.00000666 Ry

     iteration # 26     ecut=    60.00 Ry     beta= 0.70
     CG style diagonalization
     ethr =  9.24E-09,  avg # of iterations =  3.4

     negative rho (up, down):  7.034E-04 0.000E+00

     total cpu time spent up to now is      380.3 secs

     total energy              =   -1470.75492878 Ry
     estimated scf accuracy    <       0.00000030 Ry

     iteration # 27     ecut=    60.00 Ry     beta= 0.70
     CG style diagonalization
     c_bands:  1 eigenvalues not converged
     ethr =  4.23E-10,  avg # of iterations =  4.8

     negative rho (up, down):  7.034E-04 0.000E+00

     total cpu time spent up to now is      385.3 secs

     total energy              =   -1470.75493055 Ry
     estimated scf accuracy    <       0.00000769 Ry

     iteration # 28     ecut=    60.00 Ry     beta= 0.70
     CG style diagonalization
     ethr =  4.23E-10,  avg # of iterations =  3.4

     negative rho (up, down):  7.035E-04 0.000E+00

     total cpu time spent up to now is      388.8 secs

     total energy              =   -1470.75493091 Ry
     estimated scf accuracy    <       0.00000883 Ry

     iteration # 29     ecut=    60.00 Ry     beta= 0.70
     CG style diagonalization
     ethr =  4.23E-10,  avg # of iterations =  3.3

     negative rho (up, down):  7.035E-04 0.000E+00

     total cpu time spent up to now is      392.3 secs

     total energy              =   -1470.75493131 Ry
     estimated scf accuracy    <       0.00001060 Ry

     iteration # 30     ecut=    60.00 Ry     beta= 0.70
     CG style diagonalization
     ethr =  4.23E-10,  avg # of iterations =  3.5

     negative rho (up, down):  7.035E-04 0.000E+00

     total cpu time spent up to now is      396.0 secs

     total energy              =   -1470.75492880 Ry
     estimated scf accuracy    <       0.00001513 Ry

     iteration # 31     ecut=    60.00 Ry     beta= 0.70
     CG style diagonalization
     ethr =  4.23E-10,  avg # of iterations =  3.9

     negative rho (up, down):  7.035E-04 0.000E+00

     total cpu time spent up to now is      400.1 secs

     total energy              =   -1470.75492882 Ry
     estimated scf accuracy    <       0.00000213 Ry

     iteration # 32     ecut=    60.00 Ry     beta= 0.70
     CG style diagonalization
     ethr =  4.23E-10,  avg # of iterations =  4.7

     negative rho (up, down):  7.035E-04 0.000E+00

     total cpu time spent up to now is      404.9 secs

     total energy              =   -1470.75492964 Ry
     estimated scf accuracy    <       0.00000839 Ry

     iteration # 33     ecut=    60.00 Ry     beta= 0.70
     CG style diagonalization
     ethr =  4.23E-10,  avg # of iterations =  3.8

     negative rho (up, down):  7.034E-04 0.000E+00

     total cpu time spent up to now is      408.8 secs

     total energy              =   -1470.75492931 Ry
     estimated scf accuracy    <       0.00000359 Ry

     iteration # 34     ecut=    60.00 Ry     beta= 0.70
     CG style diagonalization
     ethr =  4.23E-10,  avg # of iterations =  3.8

     negative rho (up, down):  7.034E-04 0.000E+00

     total cpu time spent up to now is      412.7 secs

     total energy              =   -1470.75492971 Ry
     estimated scf accuracy    <       0.00000017 Ry

     iteration # 35     ecut=    60.00 Ry     beta= 0.70
     CG style diagonalization
     ethr =  2.41E-10,  avg # of iterations =  3.7

     negative rho (up, down):  7.035E-04 0.000E+00

     total cpu time spent up to now is      416.6 secs

     total energy              =   -1470.75492979 Ry
     estimated scf accuracy    <       0.00000033 Ry

     iteration # 36     ecut=    60.00 Ry     beta= 0.70
     CG style diagonalization
     ethr =  2.41E-10,  avg # of iterations =  3.3

     negative rho (up, down):  7.035E-04 0.000E+00

     total cpu time spent up to now is      420.0 secs

     total energy              =   -1470.75492981 Ry
     estimated scf accuracy    <       0.00000017 Ry

     iteration # 37     ecut=    60.00 Ry     beta= 0.70
     CG style diagonalization
     ethr =  2.31E-10,  avg # of iterations =  3.5

     negative rho (up, down):  7.035E-04 0.000E+00

     total cpu time spent up to now is      423.6 secs

     total energy              =   -1470.75492983 Ry
     estimated scf accuracy    <       0.00000044 Ry

     iteration # 38     ecut=    60.00 Ry     beta= 0.70
     CG style diagonalization
     ethr =  2.31E-10,  avg # of iterations =  3.4

     negative rho (up, down):  7.035E-04 0.000E+00

     total cpu time spent up to now is      427.2 secs

     total energy              =   -1470.75492980 Ry
     estimated scf accuracy    <       0.00000047 Ry

     iteration # 39     ecut=    60.00 Ry     beta= 0.70
     CG style diagonalization
     ethr =  2.31E-10,  avg # of iterations =  3.2

     negative rho (up, down):  7.035E-04 0.000E+00

     total cpu time spent up to now is      430.5 secs

     total energy              =   -1470.75492980 Ry
     estimated scf accuracy    <       0.00000027 Ry

     iteration # 40     ecut=    60.00 Ry     beta= 0.70
     CG style diagonalization
     ethr =  2.31E-10,  avg # of iterations =  3.1

     negative rho (up, down):  7.035E-04 0.000E+00

     total cpu time spent up to now is      433.8 secs

     total energy              =   -1470.75492980 Ry
     estimated scf accuracy    <       0.00000018 Ry

     iteration # 41     ecut=    60.00 Ry     beta= 0.70
     CG style diagonalization
     ethr =  2.31E-10,  avg # of iterations =  3.1

     negative rho (up, down):  7.035E-04 0.000E+00

     total cpu time spent up to now is      437.0 secs

     total energy              =   -1470.75492979 Ry
     estimated scf accuracy    <       0.00000011 Ry

     iteration # 42     ecut=    60.00 Ry     beta= 0.70
     CG style diagonalization
     ethr =  1.50E-10,  avg # of iterations =  3.2

     negative rho (up, down):  7.035E-04 0.000E+00

     total cpu time spent up to now is      440.3 secs

     total energy              =   -1470.75492979 Ry
     estimated scf accuracy    <       0.00000002 Ry

     iteration # 43     ecut=    60.00 Ry     beta= 0.70
     CG style diagonalization
     ethr =  2.76E-11,  avg # of iterations =  4.1

     negative rho (up, down):  7.035E-04 0.000E+00

     total cpu time spent up to now is      444.6 secs

     total energy              =   -1470.75492980 Ry
     estimated scf accuracy    <       0.00000014 Ry

     iteration # 44     ecut=    60.00 Ry     beta= 0.70
     CG style diagonalization
     ethr =  2.76E-11,  avg # of iterations =  3.3

     negative rho (up, down):  7.035E-04 0.000E+00

     total cpu time spent up to now is      448.0 secs

     total energy              =   -1470.75492980 Ry
     estimated scf accuracy    <       0.00000008 Ry

     iteration # 45     ecut=    60.00 Ry     beta= 0.70
     CG style diagonalization
     ethr =  2.76E-11,  avg # of iterations =  3.5

     negative rho (up, down):  7.035E-04 0.000E+00

     total cpu time spent up to now is      451.7 secs

     total energy              =   -1470.75492980 Ry
     estimated scf accuracy    <          8.1E-09 Ry

     iteration # 46     ecut=    60.00 Ry     beta= 0.70
     CG style diagonalization
     ethr =  1.13E-11,  avg # of iterations =  3.4

     negative rho (up, down):  7.035E-04 0.000E+00

     total cpu time spent up to now is      455.2 secs

     total energy              =   -1470.75492981 Ry
     estimated scf accuracy    <          1.2E-10 Ry

     iteration # 47     ecut=    60.00 Ry     beta= 0.70
     CG style diagonalization
     c_bands:  1 eigenvalues not converged
     c_bands:  1 eigenvalues not converged
     ethr =  1.63E-13,  avg # of iterations =  4.5

     negative rho (up, down):  7.035E-04 0.000E+00

     total cpu time spent up to now is      459.9 secs

     total energy              =   -1470.75492981 Ry
     estimated scf accuracy    <          1.6E-09 Ry

     iteration # 48     ecut=    60.00 Ry     beta= 0.70
     CG style diagonalization
     ethr =  1.63E-13,  avg # of iterations =  3.3

     negative rho (up, down):  7.035E-04 0.000E+00

     total cpu time spent up to now is      463.4 secs

     total energy              =   -1470.75492981 Ry
     estimated scf accuracy    <          1.4E-09 Ry

     iteration # 49     ecut=    60.00 Ry     beta= 0.70
     CG style diagonalization
     ethr =  1.63E-13,  avg # of iterations =  3.3

     negative rho (up, down):  7.035E-04 0.000E+00

     total cpu time spent up to now is      466.8 secs

     total energy              =   -1470.75492981 Ry
     estimated scf accuracy    <          1.2E-09 Ry

     iteration # 50     ecut=    60.00 Ry     beta= 0.70
     CG style diagonalization
     ethr =  1.63E-13,  avg # of iterations =  3.3

     negative rho (up, down):  7.035E-04 0.000E+00

     total cpu time spent up to now is      470.2 secs

     total energy              =   -1470.75492981 Ry
     estimated scf accuracy    <          3.6E-10 Ry

     iteration # 51     ecut=    60.00 Ry     beta= 0.70
     CG style diagonalization
     ethr =  1.63E-13,  avg # of iterations =  3.6

     negative rho (up, down):  7.035E-04 0.000E+00

     total cpu time spent up to now is      474.0 secs

     total energy              =   -1470.75492981 Ry
     estimated scf accuracy    <          1.3E-11 Ry

     iteration # 52     ecut=    60.00 Ry     beta= 0.70
     CG style diagonalization
     ethr =  1.00E-13,  avg # of iterations =  3.4

     negative rho (up, down):  7.035E-04 0.000E+00

     total cpu time spent up to now is      477.6 secs

     total energy              =   -1470.75492981 Ry
     estimated scf accuracy    <          7.1E-11 Ry

     iteration # 53     ecut=    60.00 Ry     beta= 0.70
     CG style diagonalization
     ethr =  1.00E-13,  avg # of iterations =  3.2

     negative rho (up, down):  7.035E-04 0.000E+00

     total cpu time spent up to now is      480.9 secs

     total energy              =   -1470.75492981 Ry
     estimated scf accuracy    <          4.7E-11 Ry

     iteration # 54     ecut=    60.00 Ry     beta= 0.70
     CG style diagonalization
     ethr =  1.00E-13,  avg # of iterations =  3.1

     negative rho (up, down):  7.035E-04 0.000E+00

     total cpu time spent up to now is      484.1 secs

     total energy              =   -1470.75492981 Ry
     estimated scf accuracy    <          2.9E-11 Ry

     iteration # 55     ecut=    60.00 Ry     beta= 0.70
     CG style diagonalization
     ethr =  1.00E-13,  avg # of iterations =  3.1

     negative rho (up, down):  7.035E-04 0.000E+00

     total cpu time spent up to now is      487.3 secs

     total energy              =   -1470.75492981 Ry
     estimated scf accuracy    <          1.1E-11 Ry

     iteration # 56     ecut=    60.00 Ry     beta= 0.70
     CG style diagonalization
     ethr =  1.00E-13,  avg # of iterations =  3.0

     negative rho (up, down):  7.035E-04 0.000E+00

     total cpu time spent up to now is      490.5 secs

     total energy              =   -1470.75492981 Ry
     estimated scf accuracy    <          6.6E-12 Ry

     iteration # 57     ecut=    60.00 Ry     beta= 0.70
     CG style diagonalization
     ethr =  1.00E-13,  avg # of iterations =  3.0

     negative rho (up, down):  7.035E-04 0.000E+00

     total cpu time spent up to now is      493.6 secs

     total energy              =   -1470.75492981 Ry
     estimated scf accuracy    <          2.7E-12 Ry

     iteration # 58     ecut=    60.00 Ry     beta= 0.70
     CG style diagonalization
     ethr =  1.00E-13,  avg # of iterations =  3.0

     negative rho (up, down):  7.035E-04 0.000E+00

     total cpu time spent up to now is      496.7 secs

     total energy              =   -1470.75492981 Ry
     estimated scf accuracy    <          2.3E-12 Ry

     iteration # 59     ecut=    60.00 Ry     beta= 0.70
     CG style diagonalization
     ethr =  1.00E-13,  avg # of iterations =  3.0

     negative rho (up, down):  7.035E-04 0.000E+00

     total cpu time spent up to now is      499.9 secs

     End of self-consistent calculation

          k = 0.0000 0.0000 0.0000 (  7629 PWs)   bands (ev):

   -65.1192 -65.0704 -32.0164 -31.6638 -31.1503 -31.1503 -31.1162 -31.1162
   -22.3919 -19.8979 -16.8359 -16.8235 -16.8235 -16.8093 -16.8093 -16.7835
   -16.7501 -16.7462 -16.7462 -16.7238 -16.7238 -16.7171 -16.7025 -16.6336
    -9.4841  -5.2349  -3.6073  -3.6073  -3.0218  -1.2073  -0.6712  -0.6712
     0.3043   0.3043   1.4897   3.6528

          k =-0.0000 0.1006 0.0000 (  7618 PWs)   bands (ev):

   -65.1152 -65.0664 -31.9999 -31.6588 -31.2133 -31.1731 -31.1655 -31.1273
   -22.3748 -19.8807 -16.8346 -16.8237 -16.8222 -16.8111 -16.8096 -16.7805
   -16.7491 -16.7458 -16.7447 -16.7256 -16.7242 -16.7205 -16.6992 -16.6373
    -9.3735  -5.1009  -3.7598  -3.6160  -2.9342  -1.2124  -0.8213  -0.6826
    -0.0060   0.3096   1.6222   3.1809

          k =-0.0000 0.2011 0.0000 (  7638 PWs)   bands (ev):

   -65.1042 -65.0555 -31.9543 -31.6494 -31.3799 -31.3240 -31.2061 -31.1583
   -22.3311 -19.8343 -16.8320 -16.8235 -16.8191 -16.8157 -16.8104 -16.7725
   -16.7483 -16.7429 -16.7412 -16.7303 -16.7300 -16.7246 -16.6907 -16.6467
    -9.0753  -4.7988  -4.0744  -3.6486  -2.7582  -1.3213  -1.1683  -0.7321
    -0.6237   0.3234   1.8033   2.5314

          k =-0.0000 0.3017 0.0000 (  7678 PWs)   bands (ev):

   -65.0892 -65.0406 -31.8928 -31.6818 -31.5620 -31.5153 -31.2598 -31.2015
   -22.2782 -19.7720 -16.8308 -16.8237 -16.8186 -16.8165 -16.8101 -16.7617
   -16.7481 -16.7413 -16.7399 -16.7371 -16.7341 -16.7255 -16.6792 -16.6586
    -8.6767  -4.6218  -4.3507  -3.7108  -2.5849  -1.8005  -1.4979  -0.9439
    -0.8291   0.3294   1.2759   2.9457

          k =-0.0000 0.4023 0.0000 (  7732 PWs)   bands (ev):

   -65.0742 -65.0256 -31.8748 -31.8337 -31.6919 -31.5804 -31.3124 -31.2450
   -22.2323 -19.7106 -16.8315 -16.8284 -16.8176 -16.8144 -16.8067 -16.7517
   -16.7508 -16.7478 -16.7432 -16.7357 -16.7304 -16.7243 -16.6695 -16.6676
    -8.2874  -4.8341  -4.3808  -3.7886  -2.7190  -2.0832  -1.8628  -0.9882
    -0.9449   0.3128   0.8351   3.6132

          k =-0.0000 0.5029 0.0000 (  7712 PWs)   bands (ev):

   -65.0631 -65.0146 -32.0141 -31.9062 -31.7071 -31.5851 -31.3502 -31.2770
   -22.2025 -19.6661 -16.8336 -16.8304 -16.8196 -16.8103 -16.8033 -16.7586
   -16.7497 -16.7445 -16.7419 -16.7366 -16.7266 -16.7215 -16.6767 -16.6589
    -8.0071  -5.0460  -4.4247  -3.8531  -3.0035  -2.3187  -1.9213  -1.0468
    -1.0357   0.2869   0.6394   4.1912

          k = 0.0000-0.6034 0.0000 (  7682 PWs)   bands (ev):

   -65.0591 -65.0105 -32.0688 -31.9487 -31.6885 -31.5895 -31.3639 -31.2886
   -22.1924 -19.6499 -16.8348 -16.8307 -16.8204 -16.8087 -16.8020 -16.7609
   -16.7508 -16.7441 -16.7388 -16.7372 -16.7252 -16.7203 -16.6791 -16.6555
    -7.9050  -5.1246  -4.4535  -3.8780  -3.1143  -2.4200  -1.9229  -1.0793
    -1.0697   0.2750   0.5832   4.4262

          k = 0.0871 0.1509 0.0000 (  7653 PWs)   bands (ev):

   -65.1077 -65.0589 -31.9688 -31.6514 -31.3228 -31.2794 -31.1903 -31.1547
   -22.3444 -19.8490 -16.8326 -16.8240 -16.8199 -16.8143 -16.8102 -16.7751
   -16.7479 -16.7450 -16.7418 -16.7289 -16.7274 -16.7242 -16.6934 -16.6438
    -9.1687  -4.8805  -3.9770  -3.6482  -2.8072  -1.2469  -1.0819  -0.7177
    -0.4537   0.2934   1.8642   2.5378

          k = 0.0871 0.2514 0.0000 (  7667 PWs)   bands (ev):

   -65.0947 -65.0460 -31.9146 -31.6533 -31.4978 -31.4430 -31.2456 -31.2004
   -22.2964 -19.7946 -16.8299 -16.8237 -16.8192 -16.8168 -16.8104 -16.7656
   -16.7471 -16.7419 -16.7378 -16.7373 -16.7337 -16.7252 -16.6834 -16.6546
    -8.8177  -4.6220  -4.2633  -3.7165  -2.6150  -1.6153  -1.2764  -0.9987
    -0.7619   0.2537   1.6871   2.4367

          k = 0.0871 0.3520 0.0000 (  7718 PWs)   bands (ev):

   -65.0797 -65.0311 -31.8588 -31.7634 -31.6326 -31.5707 -31.3101 -31.2517
   -22.2475 -19.7328 -16.8296 -16.8262 -16.8184 -16.8167 -16.8079 -16.7548
   -16.7486 -16.7468 -16.7412 -16.7361 -16.7336 -16.7247 -16.6720 -16.6662
    -8.4175  -4.6958  -4.3512  -3.8063  -2.5490  -2.0055  -1.6919  -1.1086
    -0.8442   0.1619   1.1861   3.0862

          k = 0.0871 0.4526 0.0000 (  7713 PWs)   bands (ev):

   -65.0666 -65.0181 -31.9397 -31.8556 -31.7112 -31.5830 -31.3645 -31.2961
   -22.2102 -19.6800 -16.8315 -16.8290 -16.8190 -16.8131 -16.8046 -16.7574
   -16.7480 -16.7452 -16.7430 -16.7359 -16.7293 -16.7225 -16.6756 -16.6617
    -8.0743  -4.9274  -4.3650  -3.9093  -2.8028  -2.1937  -1.9114  -1.1307
    -0.9334  -0.0196   1.0510   3.6775

          k = 0.0871 0.5532 0.0000 (  7717 PWs)   bands (ev):

   -65.0591 -65.0106 -32.0372 -31.9217 -31.6886 -31.5906 -31.3952 -31.3218
   -22.1905 -19.6497 -16.8337 -16.8296 -16.8205 -16.8096 -16.8030 -16.7622
   -16.7497 -16.7437 -16.7390 -16.7368 -16.7259 -16.7211 -16.6805 -16.6558
    -7.8766  -5.0596  -4.4129  -3.9835  -2.9866  -2.3809  -1.9076  -1.1327
    -1.0259  -0.1536   1.0400   4.1171

          k = 0.1742 0.3017 0.0000 (  7697 PWs)   bands (ev):

   -65.0817 -65.0331 -31.8624 -31.7200 -31.6054 -31.5547 -31.3174 -31.2733
   -22.2529 -19.7409 -16.8271 -16.8247 -16.8221 -16.8166 -16.8081 -16.7562
   -16.7477 -16.7455 -16.7397 -16.7374 -16.7352 -16.7246 -16.6736 -16.6653
    -8.4597  -4.6235  -4.3266  -3.8410  -2.4584  -1.9819  -1.5124  -1.2638
    -0.8214   0.0632   1.4826   2.6541

          k = 0.1742 0.4023 0.0000 (  7722 PWs)   bands (ev):

   -65.0687 -65.0201 -31.8652 -31.8139 -31.6961 -31.5785 -31.4020 -31.3475
   -22.2134 -19.6878 -16.8293 -16.8251 -16.8195 -16.8175 -16.8053 -16.7577
   -16.7468 -16.7461 -16.7400 -16.7356 -16.7340 -16.7229 -16.6760 -16.6634
    -8.0931  -4.8183  -4.2826  -3.9912  -2.5478  -2.0989  -1.9156  -1.2694
    -0.8859  -0.2415   1.5034   3.0896

          k = 0.1742 0.5029 0.0000 (  7726 PWs)   bands (ev):

   -65.0591 -65.0106 -31.9598 -31.8581 -31.6905 -31.5944 -31.4647 -31.4012
   -22.1868 -19.6491 -16.8316 -16.8260 -16.8205 -16.8128 -16.8044 -16.7646
   -16.7478 -16.7418 -16.7389 -16.7358 -16.7288 -16.7220 -16.6832 -16.6561
    -7.8178  -4.9515  -4.3116  -4.1357  -2.7249  -2.2862  -1.9366  -1.2662
    -0.9400  -0.5733   1.6675   3.4770

          k = 0.1742 0.6034 0.0000 (  7711 PWs)   bands (ev):

   -65.0556 -65.0071 -31.9964 -31.8837 -31.6688 -31.6097 -31.4855 -31.4208
   -22.1776 -19.6350 -16.8322 -16.8265 -16.8212 -16.8099 -16.8048 -16.7670
   -16.7484 -16.7423 -16.7365 -16.7357 -16.7262 -16.7224 -16.6857 -16.6533
    -7.7154  -4.9892  -4.3562  -4.1857  -2.7872  -2.3818  -1.8998  -1.2586
    -0.9406  -0.7468   1.7223   3.7101

          k = 0.2613 0.4526 0.0000 (  7739 PWs)   bands (ev):

   -65.0591 -65.0106 -31.9079 -31.8168 -31.7000 -31.5929 -31.5043 -31.4537
   -22.1850 -19.6489 -16.8306 -16.8230 -16.8192 -16.8173 -16.8048 -16.7658
   -16.7472 -16.7404 -16.7380 -16.7349 -16.7321 -16.7223 -16.6845 -16.6563
    -7.7873  -4.9120  -4.2900  -4.1475  -2.5476  -2.2166  -2.0316  -1.3400
    -0.9927  -0.6303   2.0665   3.1427

          k = 0.2613 0.5532 0.0000 (  7715 PWs)   bands (ev):

   -65.0536 -65.0051 -31.9170 -31.8129 -31.6877 -31.6417 -31.5513 -31.5219
   -22.1691 -19.6264 -16.8304 -16.8249 -16.8184 -16.8129 -16.8067 -16.7704
   -16.7474 -16.7407 -16.7352 -16.7331 -16.7283 -16.7237 -16.6894 -16.6522
    -7.5984  -4.9442  -4.4259  -4.1579  -2.5379  -2.3638  -1.9492  -1.3760
    -1.1950  -0.7999   2.4683   3.3032

          k = 0.3484 0.6034 0.0000 (  7713 PWs)   bands (ev):

   -65.0516 -65.0030 -31.8514 -31.7618 -31.7419 -31.6940 -31.5737 -31.5702
   -22.1624 -19.6181 -16.8289 -16.8265 -16.8139 -16.8133 -16.8100 -16.7727
   -16.7470 -16.7409 -16.7338 -16.7302 -16.7277 -16.7262 -16.6918 -16.6507
    -7.5099  -4.9393  -4.5141  -4.1180  -2.4084  -2.3951  -1.9354  -1.4688
    -1.4149  -0.7736   3.0394   3.1365

     highest occupied level (ev):     4.4262

!    total energy              =   -1470.75492981 Ry
     estimated scf accuracy    <          7.8E-13 Ry

     The total energy is the sum of the following terms:
     one-electron contribution =   -7214.82153317 Ry
     hartree contribution      =    3650.39685237 Ry
     xc contribution           =    -157.63740373 Ry
     ewald contribution        =    2251.30715471 Ry

     convergence has been achieved in  59 iterations

     negative rho (up, down):  7.035E-04 0.000E+00

     Forces acting on atoms (cartesian axes, Ry/au):

     atom    1 type  1   force =     0.00000000    0.00000000   -0.10567760
     atom    2 type  2   force =     0.00000000   -0.00000000   -0.02911252
     atom    3 type  1   force =     0.00000000    0.00000000    0.00840064
     atom    4 type  3   force =     0.00000000    0.00000000    0.00105518
     atom    5 type  3   force =    -0.00000000    0.00000000    0.12533429

     Total force =     0.166720     Total SCF correction =     0.000008


     Computing stress (Cartesian axis) and pressure


     negative rho (up, down):  7.035E-04 0.000E+00
          total   stress  (Ry/bohr**3)                   (kbar)     P=      -46.18
  -0.00021763   0.00000000   0.00000000          -32.02        0.00        0.00
   0.00000000  -0.00021763   0.00000000            0.00      -32.02        0.00
   0.00000000   0.00000000  -0.00050655            0.00        0.00      -74.52

     Energy error            =      5.8E-02 Ry
     Gradient error          =      1.3E-01 Ry/Bohr
     Cell gradient error     =      3.2E+01 kbar

     number of scf cycles    =   2
     number of bfgs steps    =   1

     enthalpy           old  =   -1470.6964647295 Ry
     enthalpy           new  =   -1470.7549298067 Ry

     CASE: enthalpy          _new < enthalpy          _old

     new trust radius        =       0.2243867588 bohr
     new conv_thr            =            1.0E-12 Ry

     new unit-cell volume =    959.93803 a.u.^3 (   142.24814 Ang^3 )
     density =      4.80837 g/cm^3

CELL_PARAMETERS (alat=  5.89970000)
   0.948496569   0.000000000   0.000000000
  -0.474248284   0.821422125   0.000000000
   0.000000000   0.000000000   6.000000000

ATOMIC_POSITIONS (crystal)
Ta            0.3333333330        0.6666666670        0.0063866633    0   0   1
C             0.0000000000        0.0000000000        0.0854409317    0   0   1
Ta            0.6666666670        0.3333333330        0.1574800554    0   0   1
F             0.0000000000        0.0000000000        0.2316095581
F             0.0000000000        0.0000000000       -0.0760494680



     Writing output data file /scratch/as3359/Ta2CF2_looping/Ta.save/
     NEW-OLD atomic charge density approx. for the potential

     Check: negative core charge=   -0.000002

     negative rho (up, down):  8.121E-04 0.000E+00
     extrapolated charge   70.74144, renormalised to   72.00000

     total cpu time spent up to now is      510.1 secs

     Self-consistent Calculation

     iteration #  1     ecut=    60.00 Ry     beta= 0.70
     CG style diagonalization
     c_bands:  3 eigenvalues not converged
     c_bands:  3 eigenvalues not converged
     c_bands:  4 eigenvalues not converged
     c_bands:  5 eigenvalues not converged
     c_bands:  3 eigenvalues not converged
     c_bands:  5 eigenvalues not converged
     c_bands:  3 eigenvalues not converged
     c_bands:  5 eigenvalues not converged
     c_bands:  1 eigenvalues not converged
     c_bands:  3 eigenvalues not converged
     c_bands:  4 eigenvalues not converged
     c_bands:  3 eigenvalues not converged
     c_bands:  5 eigenvalues not converged
     c_bands:  2 eigenvalues not converged
     c_bands:  1 eigenvalues not converged
     c_bands:  1 eigenvalues not converged
     c_bands:  1 eigenvalues not converged
     c_bands:  2 eigenvalues not converged
     ethr =  1.00E-06,  avg # of iterations = 32.4

     negative rho (up, down):  8.243E-04 0.000E+00

     total cpu time spent up to now is      540.9 secs

     total energy              =   -1432.67667785 Ry
     estimated scf accuracy    <      39.06386633 Ry

     iteration #  2     ecut=    60.00 Ry     beta= 0.70
     CG style diagonalization
     c_bands:  1 eigenvalues not converged
     c_bands:  1 eigenvalues not converged
     c_bands:  1 eigenvalues not converged
     c_bands:  4 eigenvalues not converged
     c_bands:  1 eigenvalues not converged
     c_bands:  1 eigenvalues not converged
     c_bands:  5 eigenvalues not converged
     c_bands:  4 eigenvalues not converged
     ethr =  1.00E-02,  avg # of iterations = 26.0

     negative rho (up, down):  8.752E-05 0.000E+00

     total cpu time spent up to now is      565.4 secs

     total energy              =   -1295.36696221 Ry
     estimated scf accuracy    <    5754.65112095 Ry

     iteration #  3     ecut=    60.00 Ry     beta= 0.70
     CG style diagonalization
     c_bands:  1 eigenvalues not converged
     c_bands:  2 eigenvalues not converged
     c_bands:  1 eigenvalues not converged
     c_bands:  3 eigenvalues not converged
     c_bands:  1 eigenvalues not converged
     c_bands:  2 eigenvalues not converged
     c_bands:  1 eigenvalues not converged
     c_bands:  2 eigenvalues not converged
     c_bands:  1 eigenvalues not converged
     c_bands:  1 eigenvalues not converged
     c_bands:  2 eigenvalues not converged
     c_bands:  2 eigenvalues not converged
     c_bands:  2 eigenvalues not converged
     c_bands:  2 eigenvalues not converged
     ethr =  1.00E-02,  avg # of iterations = 10.6

     total cpu time spent up to now is      576.0 secs

     total energy              =   -1452.83379764 Ry
     estimated scf accuracy    <     192.29543577 Ry

     iteration #  4     ecut=    60.00 Ry     beta= 0.70
     CG style diagonalization
     c_bands:  1 eigenvalues not converged
     c_bands:  1 eigenvalues not converged
     ethr =  1.00E-02,  avg # of iterations =  6.0

     total cpu time spent up to now is      582.2 secs

     total energy              =   -1463.26693411 Ry
     estimated scf accuracy    <     151.66406828 Ry

     iteration #  5     ecut=    60.00 Ry     beta= 0.70
     CG style diagonalization
     ethr =  1.00E-02,  avg # of iterations =  4.3

     total cpu time spent up to now is      586.6 secs

     total energy              =   -1468.82481313 Ry
     estimated scf accuracy    <      23.20354044 Ry

     iteration #  6     ecut=    60.00 Ry     beta= 0.70
     CG style diagonalization
     ethr =  1.00E-02,  avg # of iterations =  3.8

     total cpu time spent up to now is      590.6 secs

     total energy              =   -1470.58748022 Ry
     estimated scf accuracy    <       7.19828708 Ry

     iteration #  7     ecut=    60.00 Ry     beta= 0.70
     CG style diagonalization
     ethr =  1.00E-02,  avg # of iterations =  3.2

     negative rho (up, down):  4.108E-07 0.000E+00

     total cpu time spent up to now is      593.9 secs

     total energy              =   -1470.47873772 Ry
     estimated scf accuracy    <       4.87273515 Ry

     iteration #  8     ecut=    60.00 Ry     beta= 0.70
     CG style diagonalization
     ethr =  6.77E-03,  avg # of iterations =  3.2

     negative rho (up, down):  1.249E-06 0.000E+00

     total cpu time spent up to now is      597.3 secs

     total energy              =   -1470.66401080 Ry
     estimated scf accuracy    <       2.90517177 Ry

     iteration #  9     ecut=    60.00 Ry     beta= 0.70
     CG style diagonalization
     ethr =  4.03E-03,  avg # of iterations =  3.1

[...]
     CG style diagonalization
     ethr =  7.12E-13,  avg # of iterations =  4.0

     negative rho (up, down):  7.198E-04 0.000E+00

     total cpu time spent up to now is     2690.9 secs

     total energy              =   -1470.80601803 Ry
     estimated scf accuracy    <          1.6E-09 Ry

     iteration # 26     ecut=    60.00 Ry     beta= 0.70
     CG style diagonalization
     ethr =  7.12E-13,  avg # of iterations =  3.6

     negative rho (up, down):  7.198E-04 0.000E+00

     total cpu time spent up to now is     2694.6 secs

     total energy              =   -1470.80601803 Ry
     estimated scf accuracy    <          7.1E-10 Ry

     iteration # 27     ecut=    60.00 Ry     beta= 0.70
     CG style diagonalization
     ethr =  7.12E-13,  avg # of iterations =  3.4

     negative rho (up, down):  7.198E-04 0.000E+00

     total cpu time spent up to now is     2698.1 secs

     total energy              =   -1470.80601803 Ry
     estimated scf accuracy    <          7.3E-11 Ry

     iteration # 28     ecut=    60.00 Ry     beta= 0.70
     CG style diagonalization
     ethr =  1.01E-13,  avg # of iterations =  4.1

     negative rho (up, down):  7.198E-04 0.000E+00

     total cpu time spent up to now is     2702.3 secs

     total energy              =   -1470.80601803 Ry
     estimated scf accuracy    <          2.0E-11 Ry

     iteration # 29     ecut=    60.00 Ry     beta= 0.70
     CG style diagonalization
     ethr =  1.00E-13,  avg # of iterations =  3.5

     negative rho (up, down):  7.198E-04 0.000E+00

     total cpu time spent up to now is     2705.8 secs

     total energy              =   -1470.80601803 Ry
     estimated scf accuracy    <          2.3E-11 Ry

     iteration # 30     ecut=    60.00 Ry     beta= 0.70
     CG style diagonalization
     ethr =  1.00E-13,  avg # of iterations =  3.2

     negative rho (up, down):  7.198E-04 0.000E+00

     total cpu time spent up to now is     2709.1 secs

     total energy              =   -1470.80601803 Ry
     estimated scf accuracy    <          1.7E-11 Ry

     iteration # 31     ecut=    60.00 Ry     beta= 0.70
     CG style diagonalization
     ethr =  1.00E-13,  avg # of iterations =  3.4

     negative rho (up, down):  7.198E-04 0.000E+00

     total cpu time spent up to now is     2712.6 secs

     total energy              =   -1470.80601803 Ry
     estimated scf accuracy    <          3.8E-11 Ry

     iteration # 32     ecut=    60.00 Ry     beta= 0.70
     CG style diagonalization
     ethr =  1.00E-13,  avg # of iterations =  3.5

     negative rho (up, down):  7.198E-04 0.000E+00

     total cpu time spent up to now is     2716.3 secs

     total energy              =   -1470.80601803 Ry
     estimated scf accuracy    <          1.0E-10 Ry

     iteration # 33     ecut=    60.00 Ry     beta= 0.70
     CG style diagonalization
     ethr =  1.00E-13,  avg # of iterations =  3.2

     negative rho (up, down):  7.198E-04 0.000E+00

     total cpu time spent up to now is     2719.5 secs

     total energy              =   -1470.80601803 Ry
     estimated scf accuracy    <          5.7E-11 Ry

     iteration # 34     ecut=    60.00 Ry     beta= 0.70
     CG style diagonalization
     ethr =  1.00E-13,  avg # of iterations =  3.1

     negative rho (up, down):  7.198E-04 0.000E+00

     total cpu time spent up to now is     2722.7 secs

     total energy              =   -1470.80601803 Ry
     estimated scf accuracy    <          7.9E-11 Ry

     iteration # 35     ecut=    60.00 Ry     beta= 0.70
     CG style diagonalization
     ethr =  1.00E-13,  avg # of iterations =  3.1

     negative rho (up, down):  7.198E-04 0.000E+00

     total cpu time spent up to now is     2726.0 secs

     total energy              =   -1470.80601803 Ry
     estimated scf accuracy    <          4.1E-11 Ry

     iteration # 36     ecut=    60.00 Ry     beta= 0.70
     CG style diagonalization
     ethr =  1.00E-13,  avg # of iterations =  3.1

     negative rho (up, down):  7.198E-04 0.000E+00

     total cpu time spent up to now is     2729.2 secs

     total energy              =   -1470.80601803 Ry
     estimated scf accuracy    <          2.4E-11 Ry

     iteration # 37     ecut=    60.00 Ry     beta= 0.70
     CG style diagonalization
     ethr =  1.00E-13,  avg # of iterations =  3.1

     negative rho (up, down):  7.198E-04 0.000E+00

     total cpu time spent up to now is     2732.4 secs

     total energy              =   -1470.80601803 Ry
     estimated scf accuracy    <          6.4E-12 Ry

     iteration # 38     ecut=    60.00 Ry     beta= 0.70
     CG style diagonalization
     ethr =  1.00E-13,  avg # of iterations =  3.1

     negative rho (up, down):  7.198E-04 0.000E+00

     total cpu time spent up to now is     2735.6 secs

     total energy              =   -1470.80601803 Ry
     estimated scf accuracy    <          4.1E-14 Ry

     iteration # 39     ecut=    60.00 Ry     beta= 0.70
     CG style diagonalization
     ethr =  1.00E-13,  avg # of iterations =  3.0

     negative rho (up, down):  7.198E-04 0.000E+00

     total cpu time spent up to now is     2738.7 secs

     total energy              =   -1470.80601803 Ry
     estimated scf accuracy    <          2.2E-13 Ry

     iteration # 40     ecut=    60.00 Ry     beta= 0.70
     CG style diagonalization
     ethr =  1.00E-13,  avg # of iterations =  3.0

     negative rho (up, down):  7.198E-04 0.000E+00

     total cpu time spent up to now is     2741.8 secs

     total energy              =   -1470.80601803 Ry
     estimated scf accuracy    <          2.0E-14 Ry

     iteration # 41     ecut=    60.00 Ry     beta= 0.70
     CG style diagonalization
     ethr =  1.00E-13,  avg # of iterations =  3.0

     negative rho (up, down):  7.198E-04 0.000E+00

     total cpu time spent up to now is     2744.9 secs

     total energy              =   -1470.80601803 Ry
     estimated scf accuracy    <          1.3E-13 Ry

     iteration # 42     ecut=    60.00 Ry     beta= 0.70
     CG style diagonalization
     ethr =  1.00E-13,  avg # of iterations =  3.0

     negative rho (up, down):  7.198E-04 0.000E+00

     total cpu time spent up to now is     2748.0 secs

     total energy              =   -1470.80601803 Ry
     estimated scf accuracy    <          3.8E-14 Ry

     iteration # 43     ecut=    60.00 Ry     beta= 0.70
     CG style diagonalization
     ethr =  1.00E-13,  avg # of iterations =  3.0

     negative rho (up, down):  7.198E-04 0.000E+00

     total cpu time spent up to now is     2751.1 secs

     total energy              =   -1470.80601803 Ry
     estimated scf accuracy    <          7.4E-14 Ry

     iteration # 44     ecut=    60.00 Ry     beta= 0.70
     CG style diagonalization
     ethr =  1.00E-13,  avg # of iterations =  3.0

     negative rho (up, down):  7.198E-04 0.000E+00

     total cpu time spent up to now is     2754.2 secs

     total energy              =   -1470.80601803 Ry
     estimated scf accuracy    <          3.0E-14 Ry

     iteration # 45     ecut=    60.00 Ry     beta= 0.70
     CG style diagonalization
     ethr =  1.00E-13,  avg # of iterations =  3.0

     negative rho (up, down):  7.198E-04 0.000E+00

     total cpu time spent up to now is     2757.3 secs

     total energy              =   -1470.80601803 Ry
     estimated scf accuracy    <          4.6E-14 Ry

     iteration # 46     ecut=    60.00 Ry     beta= 0.70
     CG style diagonalization
     ethr =  1.00E-13,  avg # of iterations =  3.0

     negative rho (up, down):  7.198E-04 0.000E+00

     total cpu time spent up to now is     2760.4 secs

     total energy              =   -1470.80601803 Ry
     estimated scf accuracy    <          4.6E-14 Ry

     iteration # 47     ecut=    60.00 Ry     beta= 0.70
     CG style diagonalization
     ethr =  1.00E-13,  avg # of iterations =  3.0

     negative rho (up, down):  7.198E-04 0.000E+00

     total cpu time spent up to now is     2763.5 secs

     total energy              =   -1470.80601803 Ry
     estimated scf accuracy    <          3.3E-14 Ry

     iteration # 48     ecut=    60.00 Ry     beta= 0.70
     CG style diagonalization
     ethr =  1.00E-13,  avg # of iterations =  3.0

     negative rho (up, down):  7.198E-04 0.000E+00

     total cpu time spent up to now is     2766.6 secs

     End of self-consistent calculation

          k = 0.0000 0.0000 0.0000 (  7419 PWs)   bands (ev):

   -63.9079 -63.8893 -30.9132 -30.5755 -29.9387 -29.9387 -29.9167 -29.9167
   -21.3909 -21.3600 -15.5763 -15.5698 -15.5698 -15.5677 -15.5677 -15.5659
   -15.5414 -15.5414 -15.5404 -15.5404 -15.5255 -15.5210 -15.4495 -15.4483
    -8.3875  -4.5606  -3.1496  -2.5234  -2.5234  -2.5058  -2.5058  -0.5986
     1.5330   1.5330   2.6742   4.8697

          k =-0.0000 0.1017 0.0000 (  7432 PWs)   bands (ev):

   -63.9030 -63.8848 -30.8931 -30.5673 -30.0089 -29.9871 -29.9561 -29.9290
   -21.3704 -21.3441 -15.5754 -15.5701 -15.5682 -15.5672 -15.5664 -15.5643
   -15.5442 -15.5427 -15.5415 -15.5399 -15.5220 -15.5179 -15.4533 -15.4521
    -8.2770  -4.4165  -3.1940  -2.6750  -2.5783  -2.5363  -2.5149  -0.5219
     1.1859   1.5421   2.8055   4.3273

          k =-0.0000 0.2034 0.0000 (  7462 PWs)   bands (ev):

   -63.8893 -63.8728 -30.8376 -30.5488 -30.1977 -30.1698 -30.0018 -29.9641
   -21.3187 -21.3030 -15.5751 -15.5688 -15.5653 -15.5642 -15.5623 -15.5612
   -15.5496 -15.5454 -15.5448 -15.5399 -15.5127 -15.5091 -15.4635 -15.4623
    -7.9799  -4.0700  -3.3211  -3.0290  -2.7596  -2.5760  -2.5521  -0.3637
     0.4351   1.5589   2.9438   3.6493

          k =-0.0000 0.3051 0.0000 (  7518 PWs)   bands (ev):

   -63.8704 -63.8564 -30.7611 -30.5603 -30.4405 -30.3782 -30.0619 -30.0135
   -21.2590 -21.2507 -15.5762 -15.5684 -15.5620 -15.5615 -15.5586 -15.5556
   -15.5529 -15.5489 -15.5470 -15.5403 -15.4998 -15.4969 -15.4767 -15.4752
    -7.5855  -3.7956  -3.5034  -3.3901  -2.9495  -2.6470  -2.6184  -0.4731
    -0.0724   1.5588   2.3633   4.0504

          k =-0.0000 0.4068 0.0000 (  7506 PWs)   bands (ev):

   -63.8511 -63.8403 -30.7319 -30.7247 -30.6092 -30.4390 -30.1204 -30.0633
   -21.2107 -21.2017 -15.5780 -15.5702 -15.5619 -15.5610 -15.5578 -15.5518
   -15.5498 -15.5475 -15.5457 -15.5397 -15.4889 -15.4867 -15.4863 -15.4844
    -7.2035  -4.0114  -3.6610  -3.4459  -3.0857  -2.7418  -2.6889  -1.0376
    -0.0566   1.5320   1.9390   4.6401

          k =-0.0000 0.5085 0.0000 (  7502 PWs)   bands (ev):

   -63.8366 -63.8288 -30.8909 -30.8577 -30.5690 -30.4421 -30.1625 -30.0998
   -21.1789 -21.1708 -15.5811 -15.5697 -15.5633 -15.5622 -15.5600 -15.5516
   -15.5462 -15.5428 -15.5425 -15.5383 -15.4970 -15.4935 -15.4768 -15.4752
    -6.9299  -4.2925  -3.7798  -3.4472  -3.1853  -2.8221  -2.7426  -1.3967
    -0.1238   1.4977   1.7603   5.1871

          k = 0.0000-0.6102 0.0000 (  7546 PWs)   bands (ev):

   -63.8311 -63.8248 -30.9519 -30.9139 -30.5377 -30.4471 -30.1778 -30.1132
   -21.1673 -21.1612 -15.5827 -15.5675 -15.5668 -15.5630 -15.5596 -15.5527
   -15.5435 -15.5424 -15.5404 -15.5377 -15.5000 -15.4960 -15.4734 -15.4719
    -6.8303  -4.4019  -3.8151  -3.4610  -3.2285  -2.8533  -2.7629  -1.5146
    -0.1680   1.4826   1.7077   5.4327

          k = 0.0881 0.1526 0.0000 (  7453 PWs)   bands (ev):

   -63.8936 -63.8766 -30.8553 -30.5537 -30.1249 -30.1222 -29.9840 -29.9615
   -21.3343 -21.3157 -15.5743 -15.5704 -15.5660 -15.5651 -15.5638 -15.5619
   -15.5475 -15.5467 -15.5416 -15.5406 -15.5156 -15.5119 -15.4603 -15.4591
    -8.0726  -4.1677  -3.2771  -2.9120  -2.7252  -2.5568  -2.5447  -0.4028
     0.6666   1.5221   3.0412   3.6314

          k = 0.0881 0.2543 0.0000 (  7467 PWs)   bands (ev):

   -63.8773 -63.8624 -30.7884 -30.5437 -30.3404 -30.3058 -30.0460 -30.0139
   -21.2786 -21.2695 -15.5741 -15.5691 -15.5635 -15.5621 -15.5598 -15.5570
   -15.5518 -15.5504 -15.5441 -15.5406 -15.5045 -15.5013 -15.4720 -15.4708
    -7.7230  -3.8210  -3.4348  -3.2582  -2.9217  -2.6499  -2.5912  -0.2662
    -0.0179   1.4716   2.7650   3.5694

          k = 0.0881 0.3560 0.0000 (  7501 PWs)   bands (ev):

   -63.8582 -63.8461 -30.7176 -30.6286 -30.5582 -30.4264 -30.1184 -30.0728
   -21.2256 -21.2189 -15.5753 -15.5695 -15.5613 -15.5607 -15.5574 -15.5553
   -15.5504 -15.5493 -15.5461 -15.5401 -15.4917 -15.4890 -15.4849 -15.4832
    -7.3257  -3.7955  -3.5927  -3.4576  -3.0592  -2.7606  -2.6858  -0.7462
    -0.0585   1.3597   2.2797   4.1494

          k = 0.0881 0.4577 0.0000 (  7519 PWs)   bands (ev):

   -63.8413 -63.8324 -30.8071 -30.7832 -30.5924 -30.4390 -30.1792 -30.1240
   -21.1866 -21.1790 -15.5781 -15.5703 -15.5619 -15.5614 -15.5585 -15.5511
   -15.5502 -15.5449 -15.5432 -15.5392 -15.4955 -15.4927 -15.4802 -15.4782
    -6.9858  -4.0929  -3.7621  -3.4123  -3.1456  -2.8500  -2.8047  -1.1823
    -0.0506   1.1409   2.2014   4.7030

          k = 0.0881 0.5594 0.0000 (  7519 PWs)   bands (ev):

   -63.8311 -63.8248 -30.9173 -30.8796 -30.5407 -30.4466 -30.2133 -30.1535
   -21.1649 -21.1594 -15.5808 -15.5686 -15.5653 -15.5623 -15.5585 -15.5519
   -15.5454 -15.5428 -15.5407 -15.5382 -15.5011 -15.4976 -15.4735 -15.4720
    -6.7904  -4.2814  -3.8397  -3.4310  -3.1987  -2.9058  -2.8897  -1.3808
    -0.0982   0.9890   2.2172   5.1472

          k = 0.1762 0.3051 0.0000 (  7491 PWs)   bands (ev):

   -63.8608 -63.8483 -30.7218 -30.5866 -30.5182 -30.4093 -30.1249 -30.1016
   -21.2298 -21.2260 -15.5717 -15.5703 -15.5615 -15.5612 -15.5596 -15.5530
   -15.5529 -15.5506 -15.5451 -15.5404 -15.4934 -15.4907 -15.4836 -15.4824
    -7.3626  -3.6144  -3.5784  -3.4878  -3.0716  -2.8155  -2.6842  -0.5513
    -0.1035   1.2453   2.5439   3.7487

          k = 0.1762 0.4068 0.0000 (  7508 PWs)   bands (ev):

   -63.8439 -63.8345 -30.7204 -30.7058 -30.6082 -30.4311 -30.2207 -30.1886
   -21.1883 -21.1838 -15.5733 -15.5704 -15.5611 -15.5607 -15.5576 -15.5539
   -15.5494 -15.5489 -15.5430 -15.5396 -15.4954 -15.4938 -15.4820 -15.4799
    -6.9889  -3.8385  -3.7708  -3.3593  -3.1456  -2.9555  -2.8650  -0.9488
    -0.0202   0.8900   2.6175   4.1327

          k = 0.1762 0.5085 0.0000 (  7502 PWs)   bands (ev):

   -63.8311 -63.8248 -30.8316 -30.7970 -30.5527 -30.4449 -30.2927 -30.2508
   -21.1601 -21.1557 -15.5763 -15.5694 -15.5638 -15.5606 -15.5551 -15.5513
   -15.5501 -15.5443 -15.5411 -15.5394 -15.5035 -15.5012 -15.4738 -15.4722
    -6.7054  -4.0140  -3.8991  -3.3542  -3.1904  -3.0845  -2.9870  -1.1488
     0.0161   0.5216   2.8367   4.5462

          k = 0.1762 0.6102 0.0000 (  7507 PWs)   bands (ev):

   -63.8261 -63.8215 -30.8743 -30.8315 -30.5170 -30.4634 -30.3166 -30.2734
   -21.1500 -21.1464 -15.5776 -15.5675 -15.5667 -15.5605 -15.5555 -15.5507
   -15.5458 -15.5450 -15.5411 -15.5386 -15.5065 -15.5037 -15.4708 -15.4695
    -6.5996  -4.0737  -3.9289  -3.4232  -3.1681  -3.1580  -3.0184  -1.1974
     0.0527   0.3389   2.9127   4.7921

          k = 0.2642 0.4577 0.0000 (  7497 PWs)   bands (ev):

   -63.8311 -63.8248 -30.7725 -30.7420 -30.5704 -30.4398 -30.3374 -30.3171
   -21.1577 -21.1539 -15.5734 -15.5697 -15.5632 -15.5583 -15.5559 -15.5515
   -15.5497 -15.5469 -15.5412 -15.5397 -15.5046 -15.5033 -15.4739 -15.4724
    -6.6599  -3.9430  -3.8549  -3.2943  -3.2421  -3.1214  -3.0427  -1.0273
    -0.0368   0.4342   3.1969   4.2236

          k = 0.2642 0.5594 0.0000 (  7508 PWs)   bands (ev):

   -63.8231 -63.8198 -30.7891 -30.7403 -30.5424 -30.4951 -30.4005 -30.3869
   -21.1415 -21.1363 -15.5740 -15.5687 -15.5661 -15.5567 -15.5531 -15.5508
   -15.5481 -15.5452 -15.5431 -15.5392 -15.5102 -15.5086 -15.4694 -15.4682
    -6.4511  -3.9938  -3.8640  -3.5181  -3.2347  -3.1703  -3.0732  -0.9876
    -0.1947   0.2309   3.6282   4.4170

          k = 0.3523 0.6102 0.0000 (  7521 PWs)   bands (ev):

   -63.8195 -63.8186 -30.7264 -30.6336 -30.6070 -30.6068 -30.4247 -30.4244
   -21.1351 -21.1285 -15.5725 -15.5685 -15.5674 -15.5530 -15.5511 -15.5511
   -15.5500 -15.5446 -15.5445 -15.5397 -15.5127 -15.5116 -15.4679 -15.4667
    -6.3443  -3.9432  -3.9395  -3.4456  -3.4426  -3.1226  -3.0739  -0.6722
    -0.6714   0.2689   4.2221   4.2222

     highest occupied level (ev):     5.4327

!    total energy              =   -1470.80601803 Ry
     estimated scf accuracy    <          7.0E-15 Ry

     The total energy is the sum of the following terms:
     one-electron contribution =   -7499.95378789 Ry
     hartree contribution      =    3795.43116977 Ry
     xc contribution           =    -157.89244266 Ry
     ewald contribution        =    2391.60904275 Ry

     convergence has been achieved in  48 iterations

     negative rho (up, down):  7.198E-04 0.000E+00

     Forces acting on atoms (cartesian axes, Ry/au):

     atom    1 type  1   force =    -0.00000000    0.00000000    0.00009706
     atom    2 type  2   force =     0.00000000   -0.00000000    0.00018072
     atom    3 type  1   force =    -0.00000000    0.00000000   -0.00000277
     atom    4 type  3   force =     0.00000000   -0.00000000   -0.00017964
     atom    5 type  3   force =     0.00000000    0.00000000   -0.00009537

     Total force =     0.000289     Total SCF correction =     0.000001


     Computing stress (Cartesian axis) and pressure


     negative rho (up, down):  7.198E-04 0.000E+00
          total   stress  (Ry/bohr**3)                   (kbar)     P=       -3.47
  -0.00000914   0.00000000   0.00000000           -1.34        0.00        0.00
   0.00000000  -0.00000914   0.00000000            0.00       -1.34        0.00
   0.00000000   0.00000000  -0.00005258            0.00        0.00       -7.73


     Writing output data file /scratch/as3359/Ta2CF2_looping/Ta.save/
 
     init_run     :     15.02s CPU      9.70s WALL (       2 calls)
     electrons    :   5066.20s CPU   2646.44s WALL (      12 calls)
     update_pot   :     55.73s CPU     33.46s WALL (      10 calls)
     forces       :     42.74s CPU     21.96s WALL (      12 calls)
     stress       :    111.48s CPU     57.43s WALL (      12 calls)

     Called by init_run:
     wfcinit      :      3.13s CPU      1.63s WALL (       2 calls)
     potinit      :      2.76s CPU      1.39s WALL (       2 calls)
     hinit0       :      8.41s CPU      6.20s WALL (       2 calls)

     Called by electrons:
     c_bands      :   4206.70s CPU   2143.77s WALL (     686 calls)
     sum_band     :    589.01s CPU    336.14s WALL (     686 calls)
     v_of_rho     :     35.42s CPU     18.03s WALL (     698 calls)
     newd         :    222.77s CPU    142.55s WALL (     698 calls)
     mix_rho      :     11.76s CPU      6.01s WALL (     686 calls)

     Called by c_bands:
     init_us_2    :     47.58s CPU     24.04s WALL (   26562 calls)
     ccgdiagg     :   3521.59s CPU   1795.30s WALL (   13147 calls)
     wfcrot       :    646.67s CPU    328.57s WALL (   12957 calls)

     Called by *cgdiagg:
     h_psi        :   2689.84s CPU   1370.87s WALL ( 1289586 calls)
     s_psi        :    617.79s CPU    315.57s WALL ( 2566215 calls)

     Called by h_psi:
     h_psi:calbec :    342.61s CPU    174.28s WALL ( 1289586 calls)
     vloc_psi     :   1983.33s CPU   1011.73s WALL ( 1289586 calls)
     add_vuspsi   :    323.43s CPU    165.14s WALL ( 1289586 calls)
     hs_1psi      :   2445.20s CPU   1246.07s WALL ( 1276629 calls)
     s_1psi       :    620.77s CPU    315.26s WALL ( 1276629 calls)

     General routines
     calbec       :    649.20s CPU    331.85s WALL ( 2580389 calls)
     fft          :     18.28s CPU      9.36s WALL (    9360 calls)
     ffts         :      1.76s CPU      0.90s WALL (    1384 calls)
     fftw         :   1993.11s CPU   1016.87s WALL ( 3956146 calls)
     interpolate  :      2.66s CPU      1.36s WALL (     698 calls)
 
     Parallel routines
 
     PWSCF        :      1h28m CPU  46m13.34s WALL

 
   This run was terminated on:  21:33:32   6Apr2022            

=------------------------------------------------------------------------------=
   JOB DONE.
=------------------------------------------------------------------------------=
