
     Program BANDS v.6.8 starts on 14Apr2022 at 11:19:23 

     This program is part of the open-source Quantum ESPRESSO suite
     for quantum simulation of materials; please cite
         "P. Giannozzi et al., J. Phys.:Condens. Matter 21 395502 (2009);
         "P. Giannozzi et al., J. Phys.:Condens. Matter 29 465901 (2017);
         "P. Giannozzi et al., J. Chem. Phys. 152 154105 (2020);
          URL http://www.quantum-espresso.org", 
     in publications or presentations arising from this work. More details at
     http://www.quantum-espresso.org/quote

     Parallel version (MPI & OpenMP), running on       4 processor cores
     Number of MPI processes:                 2
     Threads/MPI process:                     2

     MPI processes distributed on     1 nodes
     R & G space division:  proc/nbgrp/npool/nimage =       2
     122649 MiB available memory on the printing compute node when the environment starts
 

     Reading xml data from directory:

     /scratch/as3359/Ta2C_bands/Ta.save/
     file Ta.pbesol-spfn-rrkjus_psl.1.0.0.UPF: wavefunction(s)  5S 5P renormalized

     IMPORTANT: XC functional enforced from input :
     Exchange-correlation= PBESOL
                           (   1   4  10   8   0   0   0)
     Any further DFT definition will be discarded
     Please, verify this is what you really want

 
     Parallelization info
     --------------------
     sticks:   dense  smooth     PW     G-vecs:    dense   smooth      PW
     Min         573     573    199               150329   150329   31257
     Max         574     574    202               150340   150340   31258
     Sum        1147    1147    401               300669   300669   62515
 
     Using Slab Decomposition
 

     negative rho (up, down):  2.790E-04 0.000E+00
     Reading collected, re-writing distributed wavefunctions
     high-symmetry point:  0.0000 0.0000 0.0000   x coordinate   0.0000
     high-symmetry point: -0.0002 0.5189 0.0000   x coordinate   0.5189
     high-symmetry point:  0.0644 0.0370 0.0000   x coordinate   0.5189
     high-symmetry point:  0.0642 0.5559 0.0000   x coordinate   1.0377
     high-symmetry point:  0.0646-0.4819 0.0000   x coordinate   1.0377
     high-symmetry point:  0.0644-0.0371 0.0000   x coordinate   1.4825
     high-symmetry point:  0.1288 0.0740 0.0000   x coordinate   1.6109
     high-symmetry point:  0.1287 0.5929 0.0000   x coordinate   2.1298
     high-symmetry point:  0.1290-0.4449 0.0000   x coordinate   2.1298
     high-symmetry point:  0.1289-0.0001 0.0000   x coordinate   2.5745
     high-symmetry point:  0.1932 0.1110 0.0000   x coordinate   2.7030
     high-symmetry point:  0.1931 0.6299 0.0000   x coordinate   3.2218
     high-symmetry point:  0.1934-0.4079 0.0000   x coordinate   3.2218
     high-symmetry point:  0.1933 0.0369 0.0000   x coordinate   3.6666
     high-symmetry point:  0.2577 0.1480 0.0000   x coordinate   3.7950
     high-symmetry point:  0.2575 0.6668 0.0000   x coordinate   4.3139
     high-symmetry point:  0.2578-0.3709 0.0000   x coordinate   4.3139
     high-symmetry point:  0.2577 0.0738 0.0000   x coordinate   4.7586
     high-symmetry point:  0.3221 0.1850 0.0000   x coordinate   4.8870
     high-symmetry point:  0.3219 0.7038 0.0000   x coordinate   5.4059
     high-symmetry point:  0.3222-0.3339 0.0000   x coordinate   5.4059
     high-symmetry point:  0.3221 0.1108 0.0000   x coordinate   5.8507
     high-symmetry point:  0.3865 0.2220 0.0000   x coordinate   5.9791
     high-symmetry point:  0.3863 0.7408 0.0000   x coordinate   6.4980
     high-symmetry point:  0.3867-0.2969 0.0000   x coordinate   6.4980
     high-symmetry point:  0.3865 0.1478 0.0000   x coordinate   6.9427
     high-symmetry point:  0.4509 0.2590 0.0000   x coordinate   7.0711
     high-symmetry point:  0.4507 0.7778 0.0000   x coordinate   7.5900
     high-symmetry point:  0.4511-0.2599 0.0000   x coordinate   7.5900
     high-symmetry point:  0.4509 0.1848 0.0000   x coordinate   8.0348

     Plottable bands (eV) written to file Ta2C.Bandx.dat.gnu
     Bands written to file Ta2C.Bandx.dat

 **************************************************************************

                    xk=(   0.00000,   0.00000,   0.00000  )

     point group C_1 (1)    
     there are  1 classes
     the character table:

       E    
A      1.00

     the symmetry operations in each class and the name of the first element:

     E        1
                                                                 

     Band symmetry, C_1 (1)     point group:

     e(  1 -  1) =    -68.23674  eV     1   --> A              
     e(  2 -  2) =    -68.18850  eV     1   --> A              
     e(  3 -  3) =    -35.27178  eV     1   --> A              
     e(  4 -  4) =    -34.66497  eV     1   --> A              
     e(  5 -  5) =    -34.34945  eV     1   --> A              
     e(  6 -  6) =    -34.34492  eV     1   --> A              
     e(  7 -  7) =    -34.28366  eV     1   --> A              
     e(  8 -  8) =    -34.27726  eV     1   --> A              
     e(  9 -  9) =    -19.89493  eV     1   --> A              
     e( 10 - 10) =    -19.88117  eV     1   --> A              
     e( 11 - 11) =    -19.85508  eV     1   --> A              
     e( 12 - 12) =    -19.85471  eV     1   --> A              
     e( 13 - 13) =    -19.84853  eV     1   --> A              
     e( 14 - 14) =    -19.84830  eV     1   --> A              
     e( 15 - 15) =    -19.82154  eV     1   --> A              
     e( 16 - 16) =    -19.82086  eV     1   --> A              
     e( 17 - 18) =    -19.81304  eV     2   -->   2 A              
     e( 19 - 19) =    -19.80315  eV     1   --> A              
     e( 20 - 20) =    -19.79761  eV     1   --> A              
     e( 21 - 21) =    -19.73684  eV     1   --> A              
     e( 22 - 22) =    -19.73532  eV     1   --> A              
     e( 23 - 23) =    -13.22256  eV     1   --> A              
     e( 24 - 24) =     -7.61182  eV     1   --> A              
     e( 25 - 25) =     -4.35691  eV     1   --> A              
     e( 26 - 26) =     -4.31036  eV     1   --> A              
     e( 27 - 27) =     -1.86530  eV     1   --> A              
     e( 28 - 28) =     -0.87643  eV     1   --> A              
     e( 29 - 29) =     -0.69149  eV     1   --> A              

 **************************************************************************

 **************************************************************************

                    xk=(  -0.00002,   0.07412,   0.00000  )

     Band symmetry, C_1 (1)     point group:

     e(  1 -  1) =    -68.23428  eV     1   --> A              
     e(  2 -  2) =    -68.18696  eV     1   --> A              
     e(  3 -  3) =    -35.26359  eV     1   --> A              
     e(  4 -  4) =    -34.66820  eV     1   --> A              
     e(  5 -  5) =    -34.37978  eV     1   --> A              
     e(  6 -  6) =    -34.35554  eV     1   --> A              
     e(  7 -  7) =    -34.31178  eV     1   --> A              
     e(  8 -  8) =    -34.28124  eV     1   --> A              
     e(  9 -  9) =    -19.89395  eV     1   --> A              
     e( 10 - 10) =    -19.88053  eV     1   --> A              
     e( 11 - 11) =    -19.85605  eV     1   --> A              
     e( 12 - 12) =    -19.85502  eV     1   --> A              
     e( 13 - 13) =    -19.84875  eV     1   --> A              
     e( 14 - 14) =    -19.84763  eV     1   --> A              
     e( 15 - 15) =    -19.82251  eV     1   --> A              
     e( 16 - 16) =    -19.82063  eV     1   --> A              
     e( 17 - 17) =    -19.81322  eV     1   --> A              
     e( 18 - 18) =    -19.81260  eV     1   --> A              
     e( 19 - 19) =    -19.80128  eV     1   --> A              
     e( 20 - 20) =    -19.79590  eV     1   --> A              
     e( 21 - 21) =    -19.73864  eV     1   --> A              
     e( 22 - 22) =    -19.73720  eV     1   --> A              
     e( 23 - 23) =    -13.14897  eV     1   --> A              
     e( 24 - 24) =     -7.46997  eV     1   --> A              
     e( 25 - 25) =     -4.57098  eV     1   --> A              
     e( 26 - 26) =     -4.28815  eV     1   --> A              
     e( 27 - 27) =     -1.79796  eV     1   --> A              
     e( 28 - 28) =     -0.99522  eV     1   --> A              
     e( 29 - 29) =     -0.56163  eV     1   --> A              

 **************************************************************************

 **************************************************************************

                    xk=(  -0.00005,   0.14825,   0.00000  )

     Band symmetry, C_1 (1)     point group:

     e(  1 -  1) =    -68.22729  eV     1   --> A              
     e(  2 -  2) =    -68.18267  eV     1   --> A              
     e(  3 -  3) =    -35.24054  eV     1   --> A              
     e(  4 -  4) =    -34.68189  eV     1   --> A              
     e(  5 -  5) =    -34.46092  eV     1   --> A              
     e(  6 -  6) =    -34.39046  eV     1   --> A              
     e(  7 -  7) =    -34.38365  eV     1   --> A              
     e(  8 -  8) =    -34.29327  eV     1   --> A              
     e(  9 -  9) =    -19.89124  eV     1   --> A              
     e( 10 - 10) =    -19.87881  eV     1   --> A              
     e( 11 - 11) =    -19.85864  eV     1   --> A              
     e( 12 - 12) =    -19.85575  eV     1   --> A              
     e( 13 - 13) =    -19.84952  eV     1   --> A              
     e( 14 - 14) =    -19.84593  eV     1   --> A              
     e( 15 - 15) =    -19.82501  eV     1   --> A              
     e( 16 - 16) =    -19.81989  eV     1   --> A              
     e( 17 - 17) =    -19.81383  eV     1   --> A              
     e( 18 - 18) =    -19.81131  eV     1   --> A              
     e( 19 - 19) =    -19.79611  eV     1   --> A              
     e( 20 - 20) =    -19.79108  eV     1   --> A              
     e( 21 - 21) =    -19.74362  eV     1   --> A              
     e( 22 - 22) =    -19.74240  eV     1   --> A              
     e( 23 - 23) =    -12.94550  eV     1   --> A              
     e( 24 - 24) =     -7.07374  eV     1   --> A              
     e( 25 - 25) =     -5.06492  eV     1   --> A              
     e( 26 - 26) =     -4.23658  eV     1   --> A              
     e( 27 - 27) =     -1.71226  eV     1   --> A              
     e( 28 - 28) =     -1.28404  eV     1   --> A              
     e( 29 - 29) =     -0.75516  eV     1   --> A              

 **************************************************************************

 **************************************************************************

                    xk=(  -0.00007,   0.22237,   0.00000  )

     Band symmetry, C_1 (1)     point group:

     e(  1 -  1) =    -68.21681  eV     1   --> A              
     e(  2 -  2) =    -68.17651  eV     1   --> A              
     e(  3 -  3) =    -35.20735  eV     1   --> A              
     e(  4 -  4) =    -34.72574  eV     1   --> A              
     e(  5 -  5) =    -34.55628  eV     1   --> A              
     e(  6 -  6) =    -34.50164  eV     1   --> A              
     e(  7 -  7) =    -34.42280  eV     1   --> A              
     e(  8 -  8) =    -34.31300  eV     1   --> A              
     e(  9 -  9) =    -19.88753  eV     1   --> A              
     e( 10 - 10) =    -19.87639  eV     1   --> A              
     e( 11 - 11) =    -19.86205  eV     1   --> A              
     e( 12 - 12) =    -19.85675  eV     1   --> A              
     e( 13 - 13) =    -19.85081  eV     1   --> A              
     e( 14 - 14) =    -19.84400  eV     1   --> A              
     e( 15 - 15) =    -19.82810  eV     1   --> A              
     e( 16 - 16) =    -19.81857  eV     1   --> A              
     e( 17 - 17) =    -19.81462  eV     1   --> A              
     e( 18 - 18) =    -19.80928  eV     1   --> A              
     e( 19 - 19) =    -19.78854  eV     1   --> A              
     e( 20 - 20) =    -19.78396  eV     1   --> A              
     e( 21 - 21) =    -19.75077  eV     1   --> A              
     e( 22 - 22) =    -19.74976  eV     1   --> A              
     e( 23 - 23) =    -12.65965  eV     1   --> A              
     e( 24 - 24) =     -6.55297  eV     1   --> A              
     e( 25 - 25) =     -5.56883  eV     1   --> A              
     e( 26 - 26) =     -4.19910  eV     1   --> A              
     e( 27 - 27) =     -1.97815  eV     1   --> A              
     e( 28 - 28) =     -1.48661  eV     1   --> A              
     e( 29 - 29) =     -1.01957  eV     1   --> A              

 **************************************************************************

 **************************************************************************

                    xk=(  -0.00010,   0.29650,   0.00000  )

     Band symmetry, C_1 (1)     point group:

     e(  1 -  1) =    -68.20441  eV     1   --> A              
     e(  2 -  2) =    -68.16976  eV     1   --> A              
     e(  3 -  3) =    -35.17254  eV     1   --> A              
     e(  4 -  4) =    -34.82752  eV     1   --> A              
     e(  5 -  5) =    -34.62911  eV     1   --> A              
     e(  6 -  6) =    -34.60500  eV     1   --> A              
     e(  7 -  7) =    -34.46566  eV     1   --> A              
     e(  8 -  8) =    -34.33733  eV     1   --> A              
     e(  9 -  9) =    -19.88415  eV     1   --> A              
     e( 10 - 10) =    -19.87345  eV     1   --> A              
     e( 11 - 11) =    -19.86537  eV     1   --> A              
     e( 12 - 12) =    -19.85795  eV     1   --> A              
     e( 13 - 13) =    -19.85263  eV     1   --> A              
     e( 14 - 14) =    -19.84259  eV     1   --> A              
     e( 15 - 15) =    -19.83078  eV     1   --> A              
     e( 16 - 16) =    -19.81666  eV     1   --> A              
     e( 17 - 17) =    -19.81538  eV     1   --> A              
     e( 18 - 18) =    -19.80675  eV     1   --> A              
     e( 19 - 19) =    -19.77973  eV     1   --> A              
     e( 20 - 20) =    -19.77575  eV     1   --> A              
     e( 21 - 21) =    -19.75885  eV     1   --> A              
     e( 22 - 22) =    -19.75758  eV     1   --> A              
     e( 23 - 23) =    -12.35597  eV     1   --> A              
     e( 24 - 24) =     -6.45540  eV     1   --> A              
     e( 25 - 25) =     -5.55632  eV     1   --> A              
     e( 26 - 26) =     -4.20803  eV     1   --> A              
     e( 27 - 27) =     -2.54688  eV     1   --> A              
     e( 28 - 28) =     -1.46248  eV     1   --> A              
     e( 29 - 29) =     -0.93109  eV     1   --> A              

 **************************************************************************

 **************************************************************************

                    xk=(  -0.00012,   0.37062,   0.00000  )

     Band symmetry, C_1 (1)     point group:

     e(  1 -  1) =    -68.19200  eV     1   --> A              
     e(  2 -  2) =    -68.16382  eV     1   --> A              
     e(  3 -  3) =    -35.14862  eV     1   --> A              
     e(  4 -  4) =    -34.95179  eV     1   --> A              
     e(  5 -  5) =    -34.72235  eV     1   --> A              
     e(  6 -  6) =    -34.63800  eV     1   --> A              
     e(  7 -  7) =    -34.50525  eV     1   --> A              
     e(  8 -  8) =    -34.36156  eV     1   --> A              
     e(  9 -  9) =    -19.88238  eV     1   --> A              
     e( 10 - 10) =    -19.87009  eV     1   --> A              
     e( 11 - 11) =    -19.86774  eV     1   --> A              
     e( 12 - 12) =    -19.85920  eV     1   --> A              
     e( 13 - 13) =    -19.85493  eV     1   --> A              
     e( 14 - 14) =    -19.84206  eV     1   --> A              
     e( 15 - 15) =    -19.83232  eV     1   --> A              
     e( 16 - 16) =    -19.81599  eV     1   --> A              
     e( 17 - 17) =    -19.81444  eV     1   --> A              
     e( 18 - 18) =    -19.80412  eV     1   --> A              
     e( 19 - 19) =    -19.77110  eV     1   --> A              
     e( 20 - 20) =    -19.76788  eV     1   --> A              
     e( 21 - 21) =    -19.76647  eV     1   --> A              
     e( 22 - 22) =    -19.76438  eV     1   --> A              
     e( 23 - 23) =    -12.09539  eV     1   --> A              
     e( 24 - 24) =     -6.78905  eV     1   --> A              
     e( 25 - 25) =     -5.16303  eV     1   --> A              
     e( 26 - 26) =     -4.25915  eV     1   --> A              
     e( 27 - 27) =     -3.04215  eV     1   --> A              
     e( 28 - 28) =     -1.15296  eV     1   --> A              
     e( 29 - 29) =     -0.62606  eV     1   --> A              

 **************************************************************************

 **************************************************************************

                    xk=(  -0.00014,   0.44475,   0.00000  )

     Band symmetry, C_1 (1)     point group:

     e(  1 -  1) =    -68.18163  eV     1   --> A              
     e(  2 -  2) =    -68.15984  eV     1   --> A              
     e(  3 -  3) =    -35.14570  eV     1   --> A              
     e(  4 -  4) =    -35.05266  eV     1   --> A              
     e(  5 -  5) =    -34.77657  eV     1   --> A              
     e(  6 -  6) =    -34.65900  eV     1   --> A              
     e(  7 -  7) =    -34.53548  eV     1   --> A              
     e(  8 -  8) =    -34.38094  eV     1   --> A              
     e(  9 -  9) =    -19.88212  eV     1   --> A              
     e( 10 - 10) =    -19.86882  eV     1   --> A              
     e( 11 - 11) =    -19.86731  eV     1   --> A              
     e( 12 - 12) =    -19.86026  eV     1   --> A              
     e( 13 - 13) =    -19.85705  eV     1   --> A              
     e( 14 - 14) =    -19.84221  eV     1   --> A              
     e( 15 - 15) =    -19.83279  eV     1   --> A              
     e( 16 - 16) =    -19.81640  eV     1   --> A              
     e( 17 - 17) =    -19.81248  eV     1   --> A              
     e( 18 - 18) =    -19.80189  eV     1   --> A              
     e( 19 - 19) =    -19.77230  eV     1   --> A              
     e( 20 - 20) =    -19.76928  eV     1   --> A              
     e( 21 - 21) =    -19.76414  eV     1   --> A              
     e( 22 - 22) =    -19.76176  eV     1   --> A              
     e( 23 - 23) =    -11.91571  eV     1   --> A              
     e( 24 - 24) =     -7.05904  eV     1   --> A              
     e( 25 - 25) =     -4.95794  eV     1   --> A              
     e( 26 - 26) =     -4.32113  eV     1   --> A              
     e( 27 - 27) =     -3.38322  eV     1   --> A              
     e( 28 - 28) =     -0.54459  eV     1   --> A              
     e( 29 - 29) =     -0.22139  eV     1   --> A              

 **************************************************************************

 **************************************************************************

                    xk=(  -0.00017,   0.51887,   0.00000  )

     Band symmetry, C_1 (1)     point group:

     e(  1 -  1) =    -68.17546  eV     1   --> A              
     e(  2 -  2) =    -68.15814  eV     1   --> A              
     e(  3 -  3) =    -35.15528  eV     1   --> A              
     e(  4 -  4) =    -35.10648  eV     1   --> A              
     e(  5 -  5) =    -34.79290  eV     1   --> A              
     e(  6 -  6) =    -34.67267  eV     1   --> A              
     e(  7 -  7) =    -34.55181  eV     1   --> A              
     e(  8 -  8) =    -34.39167  eV     1   --> A              
     e(  9 -  9) =    -19.88236  eV     1   --> A              
     e( 10 - 10) =    -19.86884  eV     1   --> A              
     e( 11 - 11) =    -19.86632  eV     1   --> A              
     e( 12 - 12) =    -19.86088  eV     1   --> A              
     e( 13 - 13) =    -19.85804  eV     1   --> A              
     e( 14 - 14) =    -19.84249  eV     1   --> A              
     e( 15 - 15) =    -19.83278  eV     1   --> A              
     e( 16 - 16) =    -19.81661  eV     1   --> A              
     e( 17 - 17) =    -19.81133  eV     1   --> A              
     e( 18 - 18) =    -19.80058  eV     1   --> A              
     e( 19 - 19) =    -19.77545  eV     1   --> A              
     e( 20 - 20) =    -19.77181  eV     1   --> A              
     e( 21 - 21) =    -19.76019  eV     1   --> A              
     e( 22 - 22) =    -19.75847  eV     1   --> A              
     e( 23 - 23) =    -11.82731  eV     1   --> A              
     e( 24 - 24) =     -7.19790  eV     1   --> A              
     e( 25 - 25) =     -4.90520  eV     1   --> A              
     e( 26 - 26) =     -4.36137  eV     1   --> A              
     e( 27 - 27) =     -3.55424  eV     1   --> A              
     e( 28 - 28) =      0.00716  eV     1   --> A              
     e( 29 - 29) =      0.09389  eV     1   --> A              

 **************************************************************************

 **************************************************************************

                    xk=(   0.06442,   0.03699,   0.00000  )

     Band symmetry, C_1 (1)     point group:

     e(  1 -  1) =    -68.23425  eV     1   --> A              
     e(  2 -  2) =    -68.18694  eV     1   --> A              
     e(  3 -  3) =    -35.26351  eV     1   --> A              
     e(  4 -  4) =    -34.66817  eV     1   --> A              
     e(  5 -  5) =    -34.37783  eV     1   --> A              
     e(  6 -  6) =    -34.35798  eV     1   --> A              
     e(  7 -  7) =    -34.30878  eV     1   --> A              
     e(  8 -  8) =    -34.28450  eV     1   --> A              
     e(  9 -  9) =    -19.89394  eV     1   --> A              
     e( 10 - 10) =    -19.88053  eV     1   --> A              
     e( 11 - 11) =    -19.85594  eV     1   --> A              
     e( 12 - 12) =    -19.85515  eV     1   --> A              
     e( 13 - 13) =    -19.84869  eV     1   --> A              
     e( 14 - 14) =    -19.84769  eV     1   --> A              
     e( 15 - 15) =    -19.82222  eV     1   --> A              
     e( 16 - 16) =    -19.82093  eV     1   --> A              
     e( 17 - 17) =    -19.81327  eV     1   --> A              
     e( 18 - 18) =    -19.81256  eV     1   --> A              
     e( 19 - 19) =    -19.80126  eV     1   --> A              
     e( 20 - 20) =    -19.79590  eV     1   --> A              
     e( 21 - 21) =    -19.73866  eV     1   --> A              
     e( 22 - 22) =    -19.73722  eV     1   --> A              
     e( 23 - 23) =    -13.14858  eV     1   --> A              
     e( 24 - 24) =     -7.46936  eV     1   --> A              
     e( 25 - 25) =     -4.54902  eV     1   --> A              
     e( 26 - 26) =     -4.31246  eV     1   --> A              
     e( 27 - 27) =     -1.79686  eV     1   --> A              
     e( 28 - 28) =     -0.99425  eV     1   --> A              
     e( 29 - 29) =     -0.56270  eV     1   --> A              

 **************************************************************************

 **************************************************************************

                    xk=(   0.06439,   0.11112,   0.00000  )

     Band symmetry, C_1 (1)     point group:

     e(  1 -  1) =    -68.22954  eV     1   --> A              
     e(  2 -  2) =    -68.18404  eV     1   --> A              
     e(  3 -  3) =    -35.24791  eV     1   --> A              
     e(  4 -  4) =    -34.67633  eV     1   --> A              
     e(  5 -  5) =    -34.42911  eV     1   --> A              
     e(  6 -  6) =    -34.39670  eV     1   --> A              
     e(  7 -  7) =    -34.34465  eV     1   --> A              
     e(  8 -  8) =    -34.29508  eV     1   --> A              
     e(  9 -  9) =    -19.89208  eV     1   --> A              
     e( 10 - 10) =    -19.87935  eV     1   --> A              
     e( 11 - 11) =    -19.85762  eV     1   --> A              
     e( 12 - 12) =    -19.85584  eV     1   --> A              
     e( 13 - 13) =    -19.84904  eV     1   --> A              
     e( 14 - 14) =    -19.84656  eV     1   --> A              
     e( 15 - 15) =    -19.82415  eV     1   --> A              
     e( 16 - 16) =    -19.82025  eV     1   --> A              
     e( 17 - 17) =    -19.81354  eV     1   --> A              
     e( 18 - 18) =    -19.81182  eV     1   --> A              
     e( 19 - 19) =    -19.79776  eV     1   --> A              
     e( 20 - 20) =    -19.79264  eV     1   --> A              
     e( 21 - 21) =    -19.74204  eV     1   --> A              
     e( 22 - 22) =    -19.74076  eV     1   --> A              
     e( 23 - 23) =    -13.01021  eV     1   --> A              
     e( 24 - 24) =     -7.19860  eV     1   --> A              
     e( 25 - 25) =     -4.90482  eV     1   --> A              
     e( 26 - 26) =     -4.27695  eV     1   --> A              
     e( 27 - 27) =     -1.71357  eV     1   --> A              
     e( 28 - 28) =     -1.15856  eV     1   --> A              
     e( 29 - 29) =     -0.64750  eV     1   --> A              

 **************************************************************************

 **************************************************************************

                    xk=(   0.06437,   0.18524,   0.00000  )

     Band symmetry, C_1 (1)     point group:

     e(  1 -  1) =    -68.22081  eV     1   --> A              
     e(  2 -  2) =    -68.17882  eV     1   --> A              
     e(  3 -  3) =    -35.21969  eV     1   --> A              
     e(  4 -  4) =    -34.70210  eV     1   --> A              
     e(  5 -  5) =    -34.51541  eV     1   --> A              
     e(  6 -  6) =    -34.48009  eV     1   --> A              
     e(  7 -  7) =    -34.38987  eV     1   --> A              
     e(  8 -  8) =    -34.31573  eV     1   --> A              
     e(  9 -  9) =    -19.88877  eV     1   --> A              
     e( 10 - 10) =    -19.87734  eV     1   --> A              
     e( 11 - 11) =    -19.86038  eV     1   --> A              
     e( 12 - 12) =    -19.85717  eV     1   --> A              
     e( 13 - 13) =    -19.84972  eV     1   --> A              
     e( 14 - 14) =    -19.84489  eV     1   --> A              
     e( 15 - 15) =    -19.82694  eV     1   --> A              
     e( 16 - 16) =    -19.81932  eV     1   --> A              
     e( 17 - 17) =    -19.81393  eV     1   --> A              
     e( 18 - 18) =    -19.81036  eV     1   --> A              
     e( 19 - 19) =    -19.79142  eV     1   --> A              
     e( 20 - 20) =    -19.78667  eV     1   --> A              
     e( 21 - 21) =    -19.74809  eV     1   --> A              
     e( 22 - 22) =    -19.74709  eV     1   --> A              
     e( 23 - 23) =    -12.76544  eV     1   --> A              
     e( 24 - 24) =     -6.71463  eV     1   --> A              
     e( 25 - 25) =     -5.39390  eV     1   --> A              
     e( 26 - 26) =     -4.28410  eV     1   --> A              
     e( 27 - 27) =     -1.70687  eV     1   --> A              
     e( 28 - 28) =     -1.39134  eV     1   --> A              
     e( 29 - 29) =     -1.02305  eV     1   --> A              

 **************************************************************************

 **************************************************************************

                    xk=(   0.06434,   0.25937,   0.00000  )

     Band symmetry, C_1 (1)     point group:

     e(  1 -  1) =    -68.20937  eV     1   --> A              
     e(  2 -  2) =    -68.17238  eV     1   --> A              
     e(  3 -  3) =    -35.18520  eV     1   --> A              
     e(  4 -  4) =    -34.77235  eV     1   --> A              
     e(  5 -  5) =    -34.60235  eV     1   --> A              
     e(  6 -  6) =    -34.57371  eV     1   --> A              
     e(  7 -  7) =    -34.44185  eV     1   --> A              
     e(  8 -  8) =    -34.34046  eV     1   --> A              
     e(  9 -  9) =    -19.88496  eV     1   --> A              
     e( 10 - 10) =    -19.87483  eV     1   --> A              
     e( 11 - 11) =    -19.86364  eV     1   --> A              
     e( 12 - 12) =    -19.85857  eV     1   --> A              
     e( 13 - 13) =    -19.85098  eV     1   --> A              
     e( 14 - 14) =    -19.84334  eV     1   --> A              
     e( 15 - 15) =    -19.82982  eV     1   --> A              
     e( 16 - 16) =    -19.81805  eV     1   --> A              
     e( 17 - 17) =    -19.81419  eV     1   --> A              
     e( 18 - 18) =    -19.80826  eV     1   --> A              
     e( 19 - 19) =    -19.78324  eV     1   --> A              
     e( 20 - 20) =    -19.77900  eV     1   --> A              
     e( 21 - 21) =    -19.75569  eV     1   --> A              
     e( 22 - 22) =    -19.75479  eV     1   --> A              
     e( 23 - 23) =    -12.47040  eV     1   --> A              
     e( 24 - 24) =     -6.29017  eV     1   --> A              
     e( 25 - 25) =     -5.71006  eV     1   --> A              
     e( 26 - 26) =     -4.33618  eV     1   --> A              
     e( 27 - 27) =     -2.17290  eV     1   --> A              
     e( 28 - 28) =     -1.35384  eV     1   --> A              
     e( 29 - 29) =     -1.10734  eV     1   --> A              

 **************************************************************************

 **************************************************************************

                    xk=(   0.06432,   0.33349,   0.00000  )

     Band symmetry, C_1 (1)     point group:

     e(  1 -  1) =    -68.19693  eV     1   --> A              
     e(  2 -  2) =    -68.16606  eV     1   --> A              
     e(  3 -  3) =    -35.15468  eV     1   --> A              
     e(  4 -  4) =    -34.88738  eV     1   --> A              
     e(  5 -  5) =    -34.69013  eV     1   --> A              
     e(  6 -  6) =    -34.62648  eV     1   --> A              
     e(  7 -  7) =    -34.49077  eV     1   --> A              
     e(  8 -  8) =    -34.36681  eV     1   --> A              
     e(  9 -  9) =    -19.88212  eV     1   --> A              
     e( 10 - 10) =    -19.87178  eV     1   --> A              
     e( 11 - 11) =    -19.86648  eV     1   --> A              
     e( 12 - 12) =    -19.85982  eV     1   --> A              
     e( 13 - 13) =    -19.85292  eV     1   --> A              
     e( 14 - 14) =    -19.84250  eV     1   --> A              
     e( 15 - 15) =    -19.83192  eV     1   --> A              
     e( 16 - 16) =    -19.81690  eV     1   --> A              
     e( 17 - 17) =    -19.81387  eV     1   --> A              
     e( 18 - 18) =    -19.80580  eV     1   --> A              
     e( 19 - 19) =    -19.77454  eV     1   --> A              
     e( 20 - 20) =    -19.77098  eV     1   --> A              
     e( 21 - 21) =    -19.76360  eV     1   --> A              
     e( 22 - 22) =    -19.76216  eV     1   --> A              
     e( 23 - 23) =    -12.18856  eV     1   --> A              
     e( 24 - 24) =     -6.54033  eV     1   --> A              
     e( 25 - 25) =     -5.32952  eV     1   --> A              
     e( 26 - 26) =     -4.41186  eV     1   --> A              
     e( 27 - 27) =     -2.69144  eV     1   --> A              
     e( 28 - 28) =     -1.17357  eV     1   --> A              
     e( 29 - 29) =     -0.92454  eV     1   --> A              

 **************************************************************************

 **************************************************************************

                    xk=(   0.06430,   0.40762,   0.00000  )

     Band symmetry, C_1 (1)     point group:

     e(  1 -  1) =    -68.18545  eV     1   --> A              
     e(  2 -  2) =    -68.16117  eV     1   --> A              
     e(  3 -  3) =    -35.14006  eV     1   --> A              
     e(  4 -  4) =    -35.00004  eV     1   --> A              
     e(  5 -  5) =    -34.75689  eV     1   --> A              
     e(  6 -  6) =    -34.65570  eV     1   --> A              
     e(  7 -  7) =    -34.52989  eV     1   --> A              
     e(  8 -  8) =    -34.39036  eV     1   --> A              
     e(  9 -  9) =    -19.88112  eV     1   --> A              
     e( 10 - 10) =    -19.86859  eV     1   --> A              
     e( 11 - 11) =    -19.86817  eV     1   --> A              
     e( 12 - 12) =    -19.86067  eV     1   --> A              
     e( 13 - 13) =    -19.85532  eV     1   --> A              
     e( 14 - 14) =    -19.84243  eV     1   --> A              
     e( 15 - 15) =    -19.83290  eV     1   --> A              
     e( 16 - 16) =    -19.81640  eV     1   --> A              
     e( 17 - 17) =    -19.81283  eV     1   --> A              
     e( 18 - 18) =    -19.80340  eV     1   --> A              
     e( 19 - 19) =    -19.77049  eV     1   --> A              
     e( 20 - 20) =    -19.76825  eV     1   --> A              
     e( 21 - 21) =    -19.76655  eV     1   --> A              
     e( 22 - 22) =    -19.76392  eV     1   --> A              
     e( 23 - 23) =    -11.96981  eV     1   --> A              
     e( 24 - 24) =     -6.86189  eV     1   --> A              
     e( 25 - 25) =     -5.00003  eV     1   --> A              
     e( 26 - 26) =     -4.48091  eV     1   --> A              
     e( 27 - 27) =     -3.06920  eV     1   --> A              
     e( 28 - 28) =     -0.78047  eV     1   --> A              
     e( 29 - 29) =     -0.53447  eV     1   --> A              

 **************************************************************************

 **************************************************************************

                    xk=(   0.06427,   0.48174,   0.00000  )

     Band symmetry, C_1 (1)     point group:

     e(  1 -  1) =    -68.17699  eV     1   --> A              
     e(  2 -  2) =    -68.15849  eV     1   --> A              
     e(  3 -  3) =    -35.14309  eV     1   --> A              
     e(  4 -  4) =    -35.07795  eV     1   --> A              
     e(  5 -  5) =    -34.78457  eV     1   --> A              
     e(  6 -  6) =    -34.67774  eV     1   --> A              
     e(  7 -  7) =    -34.55479  eV     1   --> A              
     e(  8 -  8) =    -34.40661  eV     1   --> A              
     e(  9 -  9) =    -19.88123  eV     1   --> A              
     e( 10 - 10) =    -19.86872  eV     1   --> A              
     e( 11 - 11) =    -19.86653  eV     1   --> A              
     e( 12 - 12) =    -19.86092  eV     1   --> A              
     e( 13 - 13) =    -19.85733  eV     1   --> A              
     e( 14 - 14) =    -19.84274  eV     1   --> A              
     e( 15 - 15) =    -19.83309  eV     1   --> A              
     e( 16 - 16) =    -19.81630  eV     1   --> A              
     e( 17 - 17) =    -19.81181  eV     1   --> A              
     e( 18 - 18) =    -19.80160  eV     1   --> A              
     e( 19 - 19) =    -19.77500  eV     1   --> A              
     e( 20 - 20) =    -19.77188  eV     1   --> A              
     e( 21 - 21) =    -19.76119  eV     1   --> A              
     e( 22 - 22) =    -19.75926  eV     1   --> A              
     e( 23 - 23) =    -11.83755  eV     1   --> A              
     e( 24 - 24) =     -7.06704  eV     1   --> A              
     e( 25 - 25) =     -4.88464  eV     1   --> A              
     e( 26 - 26) =     -4.53748  eV     1   --> A              
     e( 27 - 27) =     -3.28767  eV     1   --> A              
     e( 28 - 28) =     -0.24036  eV     1   --> A              
     e( 29 - 29) =     -0.11156  eV     1   --> A              

 **************************************************************************

 **************************************************************************

                    xk=(   0.06425,   0.55586,   0.00000  )

     Band symmetry, C_1 (1)     point group:

     e(  1 -  1) =    -68.17373  eV     1   --> A              
     e(  2 -  2) =    -68.15779  eV     1   --> A              
     e(  3 -  3) =    -35.14799  eV     1   --> A              
     e(  4 -  4) =    -35.10539  eV     1   --> A              
     e(  5 -  5) =    -34.78915  eV     1   --> A              
     e(  6 -  6) =    -34.68706  eV     1   --> A              
     e(  7 -  7) =    -34.56326  eV     1   --> A              
     e(  8 -  8) =    -34.41239  eV     1   --> A              
     e(  9 -  9) =    -19.88141  eV     1   --> A              
     e( 10 - 10) =    -19.86875  eV     1   --> A              
     e( 11 - 11) =    -19.86597  eV     1   --> A              
     e( 12 - 12) =    -19.86097  eV     1   --> A              
     e( 13 - 13) =    -19.85801  eV     1   --> A              
     e( 14 - 14) =    -19.84291  eV     1   --> A              
     e( 15 - 15) =    -19.83307  eV     1   --> A              
     e( 16 - 16) =    -19.81630  eV     1   --> A              
     e( 17 - 17) =    -19.81139  eV     1   --> A              
     e( 18 - 18) =    -19.80092  eV     1   --> A              
     e( 19 - 19) =    -19.77660  eV     1   --> A              
     e( 20 - 20) =    -19.77316  eV     1   --> A              
     e( 21 - 21) =    -19.75919  eV     1   --> A              
     e( 22 - 22) =    -19.75765  eV     1   --> A              
     e( 23 - 23) =    -11.79407  eV     1   --> A              
     e( 24 - 24) =     -7.13651  eV     1   --> A              
     e( 25 - 25) =     -4.86302  eV     1   --> A              
     e( 26 - 26) =     -4.56343  eV     1   --> A              
     e( 27 - 27) =     -3.35937  eV     1   --> A              
     e( 28 - 28) =      0.05609  eV     1   --> A              
     e( 29 - 29) =      0.05987  eV     1   --> A              

 **************************************************************************

 **************************************************************************

                    xk=(   0.06458,  -0.48188,   0.00000  )

     Band symmetry, C_1 (1)     point group:

     e(  1 -  1) =    -68.17695  eV     1   --> A              
     e(  2 -  2) =    -68.15847  eV     1   --> A              
     e(  3 -  3) =    -35.14337  eV     1   --> A              
     e(  4 -  4) =    -35.07825  eV     1   --> A              
     e(  5 -  5) =    -34.78496  eV     1   --> A              
     e(  6 -  6) =    -34.67755  eV     1   --> A              
     e(  7 -  7) =    -34.55465  eV     1   --> A              
     e(  8 -  8) =    -34.40656  eV     1   --> A              
     e(  9 -  9) =    -19.88123  eV     1   --> A              
     e( 10 - 10) =    -19.86873  eV     1   --> A              
     e( 11 - 11) =    -19.86653  eV     1   --> A              
     e( 12 - 12) =    -19.86094  eV     1   --> A              
     e( 13 - 13) =    -19.85732  eV     1   --> A              
     e( 14 - 14) =    -19.84275  eV     1   --> A              
     e( 15 - 15) =    -19.83309  eV     1   --> A              
     e( 16 - 16) =    -19.81635  eV     1   --> A              
     e( 17 - 17) =    -19.81173  eV     1   --> A              
     e( 18 - 18) =    -19.80160  eV     1   --> A              
     e( 19 - 19) =    -19.77502  eV     1   --> A              
     e( 20 - 20) =    -19.77190  eV     1   --> A              
     e( 21 - 21) =    -19.76117  eV     1   --> A              
     e( 22 - 22) =    -19.75925  eV     1   --> A              
     e( 23 - 23) =    -11.83720  eV     1   --> A              
     e( 24 - 24) =     -7.06785  eV     1   --> A              
     e( 25 - 25) =     -4.88556  eV     1   --> A              
     e( 26 - 26) =     -4.53587  eV     1   --> A              
     e( 27 - 27) =     -3.29001  eV     1   --> A              
     e( 28 - 28) =     -0.23924  eV     1   --> A              
     e( 29 - 29) =     -0.11299  eV     1   --> A              

 **************************************************************************

 **************************************************************************

                    xk=(   0.06456,  -0.40775,   0.00000  )

     Band symmetry, C_1 (1)     point group:

     e(  1 -  1) =    -68.18538  eV     1   --> A              
     e(  2 -  2) =    -68.16113  eV     1   --> A              
     e(  3 -  3) =    -35.14026  eV     1   --> A              
     e(  4 -  4) =    -35.00071  eV     1   --> A              
     e(  5 -  5) =    -34.75764  eV     1   --> A              
     e(  6 -  6) =    -34.65551  eV     1   --> A              
     e(  7 -  7) =    -34.52962  eV     1   --> A              
     e(  8 -  8) =    -34.39030  eV     1   --> A              
     e(  9 -  9) =    -19.88112  eV     1   --> A              
     e( 10 - 10) =    -19.86860  eV     1   --> A              
     e( 11 - 11) =    -19.86819  eV     1   --> A              
     e( 12 - 12) =    -19.86068  eV     1   --> A              
     e( 13 - 13) =    -19.85532  eV     1   --> A              
     e( 14 - 14) =    -19.84245  eV     1   --> A              
     e( 15 - 15) =    -19.83288  eV     1   --> A              
     e( 16 - 16) =    -19.81650  eV     1   --> A              
     e( 17 - 17) =    -19.81271  eV     1   --> A              
     e( 18 - 18) =    -19.80339  eV     1   --> A              
     e( 19 - 19) =    -19.77051  eV     1   --> A              
     e( 20 - 20) =    -19.76829  eV     1   --> A              
     e( 21 - 21) =    -19.76651  eV     1   --> A              
     e( 22 - 22) =    -19.76389  eV     1   --> A              
     e( 23 - 23) =    -11.96915  eV     1   --> A              
     e( 24 - 24) =     -6.86327  eV     1   --> A              
     e( 25 - 25) =     -5.00008  eV     1   --> A              
     e( 26 - 26) =     -4.48012  eV     1   --> A              
     e( 27 - 27) =     -3.07302  eV     1   --> A              
     e( 28 - 28) =     -0.77771  eV     1   --> A              
     e( 29 - 29) =     -0.53665  eV     1   --> A              

 **************************************************************************

 **************************************************************************

                    xk=(   0.06453,  -0.33363,   0.00000  )

     Band symmetry, C_1 (1)     point group:

     e(  1 -  1) =    -68.19684  eV     1   --> A              
     e(  2 -  2) =    -68.16601  eV     1   --> A              
     e(  3 -  3) =    -35.15467  eV     1   --> A              
     e(  4 -  4) =    -34.88821  eV     1   --> A              
     e(  5 -  5) =    -34.69093  eV     1   --> A              
     e(  6 -  6) =    -34.62655  eV     1   --> A              
     e(  7 -  7) =    -34.49053  eV     1   --> A              
     e(  8 -  8) =    -34.36683  eV     1   --> A              
     e(  9 -  9) =    -19.88212  eV     1   --> A              
     e( 10 - 10) =    -19.87179  eV     1   --> A              
     e( 11 - 11) =    -19.86650  eV     1   --> A              
     e( 12 - 12) =    -19.85982  eV     1   --> A              
     e( 13 - 13) =    -19.85293  eV     1   --> A              
     e( 14 - 14) =    -19.84252  eV     1   --> A              
     e( 15 - 15) =    -19.83189  eV     1   --> A              
     e( 16 - 16) =    -19.81698  eV     1   --> A              
     e( 17 - 17) =    -19.81379  eV     1   --> A              
     e( 18 - 18) =    -19.80578  eV     1   --> A              
     e( 19 - 19) =    -19.77450  eV     1   --> A              
     e( 20 - 20) =    -19.77095  eV     1   --> A              
     e( 21 - 21) =    -19.76364  eV     1   --> A              
     e( 22 - 22) =    -19.76220  eV     1   --> A              
     e( 23 - 23) =    -12.18768  eV     1   --> A              
     e( 24 - 24) =     -6.54166  eV     1   --> A              
     e( 25 - 25) =     -5.32892  eV     1   --> A              
     e( 26 - 26) =     -4.41217  eV     1   --> A              
     e( 27 - 27) =     -2.69518  eV     1   --> A              
     e( 28 - 28) =     -1.17140  eV     1   --> A              
     e( 29 - 29) =     -0.92508  eV     1   --> A              

 **************************************************************************

 **************************************************************************

                    xk=(   0.06451,  -0.25950,   0.00000  )

     Band symmetry, C_1 (1)     point group:

     e(  1 -  1) =    -68.20928  eV     1   --> A              
     e(  2 -  2) =    -68.17232  eV     1   --> A              
     e(  3 -  3) =    -35.18507  eV     1   --> A              
     e(  4 -  4) =    -34.77292  eV     1   --> A              
     e(  5 -  5) =    -34.60246  eV     1   --> A              
     e(  6 -  6) =    -34.57441  eV     1   --> A              
     e(  7 -  7) =    -34.44199  eV     1   --> A              
     e(  8 -  8) =    -34.34067  eV     1   --> A              
     e(  9 -  9) =    -19.88495  eV     1   --> A              
     e( 10 - 10) =    -19.87484  eV     1   --> A              
     e( 11 - 11) =    -19.86365  eV     1   --> A              
     e( 12 - 12) =    -19.85857  eV     1   --> A              
     e( 13 - 13) =    -19.85099  eV     1   --> A              
     e( 14 - 14) =    -19.84337  eV     1   --> A              
     e( 15 - 15) =    -19.82977  eV     1   --> A              
     e( 16 - 16) =    -19.81810  eV     1   --> A              
     e( 17 - 17) =    -19.81418  eV     1   --> A              
     e( 18 - 18) =    -19.80823  eV     1   --> A              
     e( 19 - 19) =    -19.78320  eV     1   --> A              
     e( 20 - 20) =    -19.77897  eV     1   --> A              
     e( 21 - 21) =    -19.75574  eV     1   --> A              
     e( 22 - 22) =    -19.75484  eV     1   --> A              
     e( 23 - 23) =    -12.46944  eV     1   --> A              
     e( 24 - 24) =     -6.28978  eV     1   --> A              
     e( 25 - 25) =     -5.70991  eV     1   --> A              
     e( 26 - 26) =     -4.33741  eV     1   --> A              
     e( 27 - 27) =     -2.17524  eV     1   --> A              
     e( 28 - 28) =     -1.35377  eV     1   --> A              
     e( 29 - 29) =     -1.10577  eV     1   --> A              

 **************************************************************************

 **************************************************************************

                    xk=(   0.06449,  -0.18538,   0.00000  )

     Band symmetry, C_1 (1)     point group:

     e(  1 -  1) =    -68.22074  eV     1   --> A              
     e(  2 -  2) =    -68.17877  eV     1   --> A              
     e(  3 -  3) =    -35.21953  eV     1   --> A              
     e(  4 -  4) =    -34.70217  eV     1   --> A              
     e(  5 -  5) =    -34.51574  eV     1   --> A              
     e(  6 -  6) =    -34.47982  eV     1   --> A              
     e(  7 -  7) =    -34.39070  eV     1   --> A              
     e(  8 -  8) =    -34.31635  eV     1   --> A              
     e(  9 -  9) =    -19.88875  eV     1   --> A              
     e( 10 - 10) =    -19.87735  eV     1   --> A              
     e( 11 - 11) =    -19.86036  eV     1   --> A              
     e( 12 - 12) =    -19.85720  eV     1   --> A              
     e( 13 - 13) =    -19.84970  eV     1   --> A              
     e( 14 - 14) =    -19.84494  eV     1   --> A              
     e( 15 - 15) =    -19.82685  eV     1   --> A              
     e( 16 - 16) =    -19.81939  eV     1   --> A              
     e( 17 - 17) =    -19.81394  eV     1   --> A              
     e( 18 - 18) =    -19.81034  eV     1   --> A              
     e( 19 - 19) =    -19.79138  eV     1   --> A              
     e( 20 - 20) =    -19.78664  eV     1   --> A              
     e( 21 - 21) =    -19.74814  eV     1   --> A              
     e( 22 - 22) =    -19.74713  eV     1   --> A              
     e( 23 - 23) =    -12.76456  eV     1   --> A              
     e( 24 - 24) =     -6.71341  eV     1   --> A              
     e( 25 - 25) =     -5.39149  eV     1   --> A              
     e( 26 - 26) =     -4.28842  eV     1   --> A              
     e( 27 - 27) =     -1.70720  eV     1   --> A              
     e( 28 - 28) =     -1.38996  eV     1   --> A              
     e( 29 - 29) =     -1.02085  eV     1   --> A              

 **************************************************************************

 **************************************************************************

                    xk=(   0.06446,  -0.11126,   0.00000  )

     Band symmetry, C_1 (1)     point group:

     e(  1 -  1) =    -68.22949  eV     1   --> A              
     e(  2 -  2) =    -68.18400  eV     1   --> A              
     e(  3 -  3) =    -35.24780  eV     1   --> A              
     e(  4 -  4) =    -34.67626  eV     1   --> A              
     e(  5 -  5) =    -34.42857  eV     1   --> A              
     e(  6 -  6) =    -34.39661  eV     1   --> A              
     e(  7 -  7) =    -34.34494  eV     1   --> A              
     e(  8 -  8) =    -34.29661  eV     1   --> A              
     e(  9 -  9) =    -19.89207  eV     1   --> A              
     e( 10 - 10) =    -19.87936  eV     1   --> A              
     e( 11 - 11) =    -19.85752  eV     1   --> A              
     e( 12 - 12) =    -19.85595  eV     1   --> A              
     e( 13 - 13) =    -19.84895  eV     1   --> A              
     e( 14 - 14) =    -19.84666  eV     1   --> A              
     e( 15 - 15) =    -19.82401  eV     1   --> A              
     e( 16 - 16) =    -19.82039  eV     1   --> A              
     e( 17 - 17) =    -19.81354  eV     1   --> A              
     e( 18 - 18) =    -19.81182  eV     1   --> A              
     e( 19 - 19) =    -19.79774  eV     1   --> A              
     e( 20 - 20) =    -19.79262  eV     1   --> A              
     e( 21 - 21) =    -19.74207  eV     1   --> A              
     e( 22 - 22) =    -19.74079  eV     1   --> A              
     e( 23 - 23) =    -13.00960  eV     1   --> A              
     e( 24 - 24) =     -7.19763  eV     1   --> A              
     e( 25 - 25) =     -4.89632  eV     1   --> A              
     e( 26 - 26) =     -4.28769  eV     1   --> A              
     e( 27 - 27) =     -1.71247  eV     1   --> A              
     e( 28 - 28) =     -1.15746  eV     1   --> A              
     e( 29 - 29) =     -0.63690  eV     1   --> A              

 **************************************************************************

 **************************************************************************

                    xk=(   0.06444,  -0.03713,   0.00000  )

     Band symmetry, C_1 (1)     point group:

     e(  1 -  1) =    -68.23423  eV     1   --> A              
     e(  2 -  2) =    -68.18693  eV     1   --> A              
     e(  3 -  3) =    -35.26347  eV     1   --> A              
     e(  4 -  4) =    -34.66814  eV     1   --> A              
     e(  5 -  5) =    -34.37628  eV     1   --> A              
     e(  6 -  6) =    -34.35976  eV     1   --> A              
     e(  7 -  7) =    -34.30680  eV     1   --> A              
     e(  8 -  8) =    -34.28668  eV     1   --> A              
     e(  9 -  9) =    -19.89394  eV     1   --> A              
     e( 10 - 10) =    -19.88053  eV     1   --> A              
     e( 11 - 11) =    -19.85577  eV     1   --> A              
     e( 12 - 12) =    -19.85533  eV     1   --> A              
     e( 13 - 13) =    -19.84854  eV     1   --> A              
     e( 14 - 14) =    -19.84782  eV     1   --> A              
     e( 15 - 15) =    -19.82201  eV     1   --> A              
     e( 16 - 16) =    -19.82113  eV     1   --> A              
     e( 17 - 17) =    -19.81325  eV     1   --> A              
     e( 18 - 18) =    -19.81257  eV     1   --> A              
     e( 19 - 19) =    -19.80125  eV     1   --> A              
     e( 20 - 20) =    -19.79589  eV     1   --> A              
     e( 21 - 21) =    -19.73867  eV     1   --> A              
     e( 22 - 22) =    -19.73723  eV     1   --> A              
     e( 23 - 23) =    -13.14836  eV     1   --> A              
     e( 24 - 24) =     -7.46899  eV     1   --> A              
     e( 25 - 25) =     -4.53555  eV     1   --> A              
     e( 26 - 26) =     -4.32712  eV     1   --> A              
     e( 27 - 27) =     -1.79624  eV     1   --> A              
     e( 28 - 28) =     -0.99363  eV     1   --> A              
     e( 29 - 29) =     -0.56250  eV     1   --> A              

 **************************************************************************

 **************************************************************************

                    xk=(   0.12883,   0.07399,   0.00000  )

     Band symmetry, C_1 (1)     point group:

     e(  1 -  1) =    -68.22716  eV     1   --> A              
     e(  2 -  2) =    -68.18259  eV     1   --> A              
     e(  3 -  3) =    -35.24024  eV     1   --> A              
     e(  4 -  4) =    -34.68171  eV     1   --> A              
     e(  5 -  5) =    -34.45960  eV     1   --> A              
     e(  6 -  6) =    -34.38858  eV     1   --> A              
     e(  7 -  7) =    -34.38608  eV     1   --> A              
     e(  8 -  8) =    -34.29696  eV     1   --> A              
     e(  9 -  9) =    -19.89119  eV     1   --> A              
     e( 10 - 10) =    -19.87881  eV     1   --> A              
     e( 11 - 11) =    -19.85855  eV     1   --> A              
     e( 12 - 12) =    -19.85590  eV     1   --> A              
     e( 13 - 13) =    -19.84944  eV     1   --> A              
     e( 14 - 14) =    -19.84600  eV     1   --> A              
     e( 15 - 15) =    -19.82470  eV     1   --> A              
     e( 16 - 16) =    -19.82020  eV     1   --> A              
     e( 17 - 17) =    -19.81388  eV     1   --> A              
     e( 18 - 18) =    -19.81127  eV     1   --> A              
     e( 19 - 19) =    -19.79605  eV     1   --> A              
     e( 20 - 20) =    -19.79105  eV     1   --> A              
     e( 21 - 21) =    -19.74370  eV     1   --> A              
     e( 22 - 22) =    -19.74248  eV     1   --> A              
     e( 23 - 23) =    -12.94406  eV     1   --> A              
     e( 24 - 24) =     -7.07148  eV     1   --> A              
     e( 25 - 25) =     -5.04618  eV     1   --> A              
     e( 26 - 26) =     -4.26253  eV     1   --> A              
     e( 27 - 27) =     -1.70763  eV     1   --> A              
     e( 28 - 28) =     -1.28136  eV     1   --> A              
     e( 29 - 29) =     -0.74154  eV     1   --> A              

 **************************************************************************

 **************************************************************************

                    xk=(   0.12881,   0.14811,   0.00000  )

     Band symmetry, C_1 (1)     point group:

     e(  1 -  1) =    -68.22072  eV     1   --> A              
     e(  2 -  2) =    -68.17876  eV     1   --> A              
     e(  3 -  3) =    -35.21946  eV     1   --> A              
     e(  4 -  4) =    -34.70180  eV     1   --> A              
     e(  5 -  5) =    -34.51474  eV     1   --> A              
     e(  6 -  6) =    -34.48011  eV     1   --> A              
     e(  7 -  7) =    -34.39045  eV     1   --> A              
     e(  8 -  8) =    -34.31810  eV     1   --> A              
     e(  9 -  9) =    -19.88873  eV     1   --> A              
     e( 10 - 10) =    -19.87734  eV     1   --> A              
     e( 11 - 11) =    -19.86033  eV     1   --> A              
     e( 12 - 12) =    -19.85726  eV     1   --> A              
     e( 13 - 13) =    -19.84966  eV     1   --> A              
     e( 14 - 14) =    -19.84494  eV     1   --> A              
     e( 15 - 15) =    -19.82682  eV     1   --> A              
     e( 16 - 16) =    -19.81942  eV     1   --> A              
     e( 17 - 17) =    -19.81396  eV     1   --> A              
     e( 18 - 18) =    -19.81034  eV     1   --> A              
     e( 19 - 19) =    -19.79137  eV     1   --> A              
     e( 20 - 20) =    -19.78664  eV     1   --> A              
     e( 21 - 21) =    -19.74815  eV     1   --> A              
     e( 22 - 22) =    -19.74714  eV     1   --> A              
     e( 23 - 23) =    -12.76442  eV     1   --> A              
     e( 24 - 24) =     -6.71293  eV     1   --> A              
     e( 25 - 25) =     -5.38525  eV     1   --> A              
     e( 26 - 26) =     -4.29792  eV     1   --> A              
     e( 27 - 27) =     -1.69844  eV     1   --> A              
     e( 28 - 28) =     -1.39220  eV     1   --> A              
     e( 29 - 29) =     -1.02473  eV     1   --> A              

 **************************************************************************

 **************************************************************************

                    xk=(   0.12878,   0.22224,   0.00000  )

     Band symmetry, C_1 (1)     point group:

     e(  1 -  1) =    -68.21102  eV     1   --> A              
     e(  2 -  2) =    -68.17327  eV     1   --> A              
     e(  3 -  3) =    -35.18962  eV     1   --> A              
     e(  4 -  4) =    -34.74854  eV     1   --> A              
     e(  5 -  5) =    -34.59278  eV     1   --> A              
     e(  6 -  6) =    -34.56679  eV     1   --> A              
     e(  7 -  7) =    -34.42045  eV     1   --> A              
     e(  8 -  8) =    -34.35649  eV     1   --> A              
     e(  9 -  9) =    -19.88507  eV     1   --> A              
     e( 10 - 10) =    -19.87539  eV     1   --> A              
     e( 11 - 11) =    -19.86229  eV     1   --> A              
     e( 12 - 12) =    -19.85977  eV     1   --> A              
     e( 13 - 13) =    -19.84992  eV     1   --> A              
     e( 14 - 14) =    -19.84393  eV     1   --> A              
     e( 15 - 15) =    -19.82935  eV     1   --> A              
     e( 16 - 16) =    -19.81869  eV     1   --> A              
     e( 17 - 17) =    -19.81330  eV     1   --> A              
     e( 18 - 18) =    -19.80922  eV     1   --> A              
     e( 19 - 19) =    -19.78445  eV     1   --> A              
     e( 20 - 20) =    -19.78012  eV     1   --> A              
     e( 21 - 21) =    -19.75460  eV     1   --> A              
     e( 22 - 22) =    -19.75396  eV     1   --> A              
     e( 23 - 23) =    -12.51009  eV     1   --> A              
     e( 24 - 24) =     -6.18149  eV     1   --> A              
     e( 25 - 25) =     -5.77269  eV     1   --> A              
     e( 26 - 26) =     -4.46949  eV     1   --> A              
     e( 27 - 27) =     -1.77166  eV     1   --> A              
     e( 28 - 28) =     -1.60222  eV     1   --> A              
     e( 29 - 29) =     -0.93693  eV     1   --> A              

 **************************************************************************

 **************************************************************************

                    xk=(   0.12876,   0.29636,   0.00000  )

     Band symmetry, C_1 (1)     point group:

     e(  1 -  1) =    -68.19950  eV     1   --> A              
     e(  2 -  2) =    -68.16729  eV     1   --> A              
     e(  3 -  3) =    -35.15817  eV     1   --> A              
     e(  4 -  4) =    -34.83186  eV     1   --> A              
     e(  5 -  5) =    -34.69041  eV     1   --> A              
     e(  6 -  6) =    -34.61039  eV     1   --> A              
     e(  7 -  7) =    -34.47289  eV     1   --> A              
     e(  8 -  8) =    -34.39384  eV     1   --> A              
     e(  9 -  9) =    -19.88120  eV     1   --> A              
     e( 10 - 10) =    -19.87319  eV     1   --> A              
     e( 11 - 11) =    -19.86461  eV     1   --> A              
     e( 12 - 12) =    -19.86171  eV     1   --> A              
     e( 13 - 13) =    -19.85097  eV     1   --> A              
     e( 14 - 14) =    -19.84328  eV     1   --> A              
     e( 15 - 15) =    -19.83164  eV     1   --> A              
     e( 16 - 16) =    -19.81797  eV     1   --> A              
     e( 17 - 17) =    -19.81217  eV     1   --> A              
     e( 18 - 18) =    -19.80775  eV     1   --> A              
     e( 19 - 19) =    -19.77639  eV     1   --> A              
     e( 20 - 20) =    -19.77266  eV     1   --> A              
     e( 21 - 21) =    -19.76199  eV     1   --> A              
     e( 22 - 22) =    -19.76143  eV     1   --> A              
     e( 23 - 23) =    -12.23685  eV     1   --> A              
     e( 24 - 24) =     -6.18734  eV     1   --> A              
     e( 25 - 25) =     -5.55423  eV     1   --> A              
     e( 26 - 26) =     -4.67198  eV     1   --> A              
     e( 27 - 27) =     -2.21242  eV     1   --> A              
     e( 28 - 28) =     -1.42673  eV     1   --> A              
     e( 29 - 29) =     -0.72758  eV     1   --> A              

 **************************************************************************

 **************************************************************************

                    xk=(   0.12874,   0.37048,   0.00000  )

     Band symmetry, C_1 (1)     point group:

     e(  1 -  1) =    -68.18790  eV     1   --> A              
     e(  2 -  2) =    -68.16210  eV     1   --> A              
     e(  3 -  3) =    -35.13476  eV     1   --> A              
     e(  4 -  4) =    -34.93394  eV     1   --> A              
     e(  5 -  5) =    -34.75450  eV     1   --> A              
     e(  6 -  6) =    -34.64824  eV     1   --> A              
     e(  7 -  7) =    -34.52687  eV     1   --> A              
     e(  8 -  8) =    -34.42568  eV     1   --> A              
     e(  9 -  9) =    -19.87877  eV     1   --> A              
     e( 10 - 10) =    -19.87053  eV     1   --> A              
     e( 11 - 11) =    -19.86666  eV     1   --> A              
     e( 12 - 12) =    -19.86234  eV     1   --> A              
     e( 13 - 13) =    -19.85294  eV     1   --> A              
     e( 14 - 14) =    -19.84323  eV     1   --> A              
     e( 15 - 15) =    -19.83314  eV     1   --> A              
     e( 16 - 16) =    -19.81712  eV     1   --> A              
     e( 17 - 17) =    -19.81145  eV     1   --> A              
     e( 18 - 18) =    -19.80580  eV     1   --> A              
     e( 19 - 19) =    -19.76974  eV     1   --> A              
     e( 20 - 20) =    -19.76887  eV     1   --> A              
     e( 21 - 21) =    -19.76742  eV     1   --> A              
     e( 22 - 22) =    -19.76524  eV     1   --> A              
     e( 23 - 23) =    -11.99853  eV     1   --> A              
     e( 24 - 24) =     -6.52615  eV     1   --> A              
     e( 25 - 25) =     -5.06231  eV     1   --> A              
     e( 26 - 26) =     -4.82609  eV     1   --> A              
     e( 27 - 27) =     -2.55497  eV     1   --> A              
     e( 28 - 28) =     -1.06966  eV     1   --> A              
     e( 29 - 29) =     -0.68536  eV     1   --> A              

 **************************************************************************

 **************************************************************************

                    xk=(   0.12871,   0.44461,   0.00000  )

     Band symmetry, C_1 (1)     point group:

     e(  1 -  1) =    -68.17809  eV     1   --> A              
     e(  2 -  2) =    -68.15876  eV     1   --> A              
     e(  3 -  3) =    -35.12487  eV     1   --> A              
     e(  4 -  4) =    -35.02213  eV     1   --> A              
     e(  5 -  5) =    -34.78011  eV     1   --> A              
     e(  6 -  6) =    -34.68813  eV     1   --> A              
     e(  7 -  7) =    -34.56410  eV     1   --> A              
     e(  8 -  8) =    -34.45021  eV     1   --> A              
     e(  9 -  9) =    -19.87835  eV     1   --> A              
     e( 10 - 10) =    -19.86858  eV     1   --> A              
     e( 11 - 11) =    -19.86694  eV     1   --> A              
     e( 12 - 12) =    -19.86185  eV     1   --> A              
     e( 13 - 13) =    -19.85542  eV     1   --> A              
     e( 14 - 14) =    -19.84359  eV     1   --> A              
     e( 15 - 15) =    -19.83378  eV     1   --> A              
     e( 16 - 16) =    -19.81617  eV     1   --> A              
     e( 17 - 17) =    -19.81149  eV     1   --> A              
     e( 18 - 18) =    -19.80381  eV     1   --> A              
     e( 19 - 19) =    -19.77505  eV     1   --> A              
     e( 20 - 20) =    -19.77300  eV     1   --> A              
     e( 21 - 21) =    -19.76197  eV     1   --> A              
     e( 22 - 22) =    -19.75987  eV     1   --> A              
     e( 23 - 23) =    -11.83061  eV     1   --> A              
     e( 24 - 24) =     -6.77490  eV     1   --> A              
     e( 25 - 25) =     -4.91348  eV     1   --> A              
     e( 26 - 26) =     -4.81611  eV     1   --> A              
     e( 27 - 27) =     -2.76370  eV     1   --> A              
     e( 28 - 28) =     -0.59556  eV     1   --> A              
     e( 29 - 29) =     -0.45197  eV     1   --> A              

 **************************************************************************

 **************************************************************************

                    xk=(   0.12869,   0.51873,   0.00000  )

     Band symmetry, C_1 (1)     point group:

     e(  1 -  1) =    -68.17210  eV     1   --> A              
     e(  2 -  2) =    -68.15750  eV     1   --> A              
     e(  3 -  3) =    -35.12149  eV     1   --> A              
     e(  4 -  4) =    -35.07541  eV     1   --> A              
     e(  5 -  5) =    -34.77724  eV     1   --> A              
     e(  6 -  6) =    -34.72209  eV     1   --> A              
     e(  7 -  7) =    -34.58130  eV     1   --> A              
     e(  8 -  8) =    -34.46380  eV     1   --> A              
     e(  9 -  9) =    -19.87863  eV     1   --> A              
     e( 10 - 10) =    -19.86862  eV     1   --> A              
     e( 11 - 11) =    -19.86550  eV     1   --> A              
     e( 12 - 12) =    -19.86102  eV     1   --> A              
     e( 13 - 13) =    -19.85739  eV     1   --> A              
     e( 14 - 14) =    -19.84395  eV     1   --> A              
     e( 15 - 15) =    -19.83392  eV     1   --> A              
     e( 16 - 16) =    -19.81542  eV     1   --> A              
     e( 17 - 17) =    -19.81184  eV     1   --> A              
     e( 18 - 18) =    -19.80256  eV     1   --> A              
     e( 19 - 19) =    -19.77813  eV     1   --> A              
     e( 20 - 20) =    -19.77551  eV     1   --> A              
     e( 21 - 21) =    -19.75838  eV     1   --> A              
     e( 22 - 22) =    -19.75693  eV     1   --> A              
     e( 23 - 23) =    -11.74611  eV     1   --> A              
     e( 24 - 24) =     -6.90527  eV     1   --> A              
     e( 25 - 25) =     -4.94674  eV     1   --> A              
     e( 26 - 26) =     -4.75687  eV     1   --> A              
     e( 27 - 27) =     -2.86688  eV     1   --> A              
     e( 28 - 28) =     -0.21643  eV     1   --> A              
     e( 29 - 29) =     -0.14943  eV     1   --> A              

 **************************************************************************

 **************************************************************************

                    xk=(   0.12866,   0.59286,   0.00000  )

     Band symmetry, C_1 (1)     point group:

     e(  1 -  1) =    -68.17205  eV     1   --> A              
     e(  2 -  2) =    -68.15749  eV     1   --> A              
     e(  3 -  3) =    -35.12184  eV     1   --> A              
     e(  4 -  4) =    -35.07568  eV     1   --> A              
     e(  5 -  5) =    -34.77783  eV     1   --> A              
     e(  6 -  6) =    -34.72162  eV     1   --> A              
     e(  7 -  7) =    -34.58120  eV     1   --> A              
     e(  8 -  8) =    -34.46376  eV     1   --> A              
     e(  9 -  9) =    -19.87863  eV     1   --> A              
     e( 10 - 10) =    -19.86862  eV     1   --> A              
     e( 11 - 11) =    -19.86551  eV     1   --> A              
     e( 12 - 12) =    -19.86103  eV     1   --> A              
     e( 13 - 13) =    -19.85738  eV     1   --> A              
     e( 14 - 14) =    -19.84396  eV     1   --> A              
     e( 15 - 15) =    -19.83391  eV     1   --> A              
     e( 16 - 16) =    -19.81548  eV     1   --> A              
     e( 17 - 17) =    -19.81176  eV     1   --> A              
     e( 18 - 18) =    -19.80255  eV     1   --> A              
     e( 19 - 19) =    -19.77814  eV     1   --> A              
     e( 20 - 20) =    -19.77552  eV     1   --> A              
     e( 21 - 21) =    -19.75836  eV     1   --> A              
     e( 22 - 22) =    -19.75692  eV     1   --> A              
     e( 23 - 23) =    -11.74578  eV     1   --> A              
     e( 24 - 24) =     -6.90614  eV     1   --> A              
     e( 25 - 25) =     -4.94758  eV     1   --> A              
     e( 26 - 26) =     -4.75607  eV     1   --> A              
     e( 27 - 27) =     -2.86821  eV     1   --> A              
     e( 28 - 28) =     -0.21783  eV     1   --> A              
     e( 29 - 29) =     -0.14946  eV     1   --> A              

 **************************************************************************

 **************************************************************************

                    xk=(   0.12900,  -0.44488,   0.00000  )

     Band symmetry, C_1 (1)     point group:

     e(  1 -  1) =    -68.17797  eV     1   --> A              
     e(  2 -  2) =    -68.15870  eV     1   --> A              
     e(  3 -  3) =    -35.12538  eV     1   --> A              
     e(  4 -  4) =    -35.02314  eV     1   --> A              
     e(  5 -  5) =    -34.78113  eV     1   --> A              
     e(  6 -  6) =    -34.68769  eV     1   --> A              
     e(  7 -  7) =    -34.56378  eV     1   --> A              
     e(  8 -  8) =    -34.45012  eV     1   --> A              
     e(  9 -  9) =    -19.87834  eV     1   --> A              
     e( 10 - 10) =    -19.86858  eV     1   --> A              
     e( 11 - 11) =    -19.86698  eV     1   --> A              
     e( 12 - 12) =    -19.86187  eV     1   --> A              
     e( 13 - 13) =    -19.85542  eV     1   --> A              
     e( 14 - 14) =    -19.84362  eV     1   --> A              
     e( 15 - 15) =    -19.83376  eV     1   --> A              
     e( 16 - 16) =    -19.81627  eV     1   --> A              
     e( 17 - 17) =    -19.81133  eV     1   --> A              
     e( 18 - 18) =    -19.80379  eV     1   --> A              
     e( 19 - 19) =    -19.77509  eV     1   --> A              
     e( 20 - 20) =    -19.77304  eV     1   --> A              
     e( 21 - 21) =    -19.76192  eV     1   --> A              
     e( 22 - 22) =    -19.75982  eV     1   --> A              
     e( 23 - 23) =    -11.82964  eV     1   --> A              
     e( 24 - 24) =     -6.77728  eV     1   --> A              
     e( 25 - 25) =     -4.91531  eV     1   --> A              
     e( 26 - 26) =     -4.81433  eV     1   --> A              
     e( 27 - 27) =     -2.76758  eV     1   --> A              
     e( 28 - 28) =     -0.59961  eV     1   --> A              
     e( 29 - 29) =     -0.44961  eV     1   --> A              

 **************************************************************************

 **************************************************************************

                    xk=(   0.12897,  -0.37076,   0.00000  )

     Band symmetry, C_1 (1)     point group:

     e(  1 -  1) =    -68.18774  eV     1   --> A              
     e(  2 -  2) =    -68.16201  eV     1   --> A              
     e(  3 -  3) =    -35.13496  eV     1   --> A              
     e(  4 -  4) =    -34.93549  eV     1   --> A              
     e(  5 -  5) =    -34.75557  eV     1   --> A              
     e(  6 -  6) =    -34.64834  eV     1   --> A              
     e(  7 -  7) =    -34.52652  eV     1   --> A              
     e(  8 -  8) =    -34.42569  eV     1   --> A              
     e(  9 -  9) =    -19.87876  eV     1   --> A              
     e( 10 - 10) =    -19.87055  eV     1   --> A              
     e( 11 - 11) =    -19.86671  eV     1   --> A              
     e( 12 - 12) =    -19.86235  eV     1   --> A              
     e( 13 - 13) =    -19.85294  eV     1   --> A              
     e( 14 - 14) =    -19.84327  eV     1   --> A              
     e( 15 - 15) =    -19.83310  eV     1   --> A              
     e( 16 - 16) =    -19.81721  eV     1   --> A              
     e( 17 - 17) =    -19.81133  eV     1   --> A              
     e( 18 - 18) =    -19.80576  eV     1   --> A              
     e( 19 - 19) =    -19.76974  eV     1   --> A              
     e( 20 - 20) =    -19.76896  eV     1   --> A              
     e( 21 - 21) =    -19.76739  eV     1   --> A              
     e( 22 - 22) =    -19.76519  eV     1   --> A              
     e( 23 - 23) =    -11.99705  eV     1   --> A              
     e( 24 - 24) =     -6.52921  eV     1   --> A              
     e( 25 - 25) =     -5.06069  eV     1   --> A              
     e( 26 - 26) =     -4.82775  eV     1   --> A              
     e( 27 - 27) =     -2.56032  eV     1   --> A              
     e( 28 - 28) =     -1.07304  eV     1   --> A              
     e( 29 - 29) =     -0.68099  eV     1   --> A              

 **************************************************************************

 **************************************************************************

                    xk=(   0.12895,  -0.29664,   0.00000  )

     Band symmetry, C_1 (1)     point group:

     e(  1 -  1) =    -68.19933  eV     1   --> A              
     e(  2 -  2) =    -68.16717  eV     1   --> A              
     e(  3 -  3) =    -35.15803  eV     1   --> A              
     e(  4 -  4) =    -34.83325  eV     1   --> A              
     e(  5 -  5) =    -34.69118  eV     1   --> A              
     e(  6 -  6) =    -34.61093  eV     1   --> A              
     e(  7 -  7) =    -34.47304  eV     1   --> A              
     e(  8 -  8) =    -34.39420  eV     1   --> A              
     e(  9 -  9) =    -19.88118  eV     1   --> A              
     e( 10 - 10) =    -19.87321  eV     1   --> A              
     e( 11 - 11) =    -19.86464  eV     1   --> A              
     e( 12 - 12) =    -19.86172  eV     1   --> A              
     e( 13 - 13) =    -19.85097  eV     1   --> A              
     e( 14 - 14) =    -19.84334  eV     1   --> A              
     e( 15 - 15) =    -19.83158  eV     1   --> A              
     e( 16 - 16) =    -19.81803  eV     1   --> A              
     e( 17 - 17) =    -19.81213  eV     1   --> A              
     e( 18 - 18) =    -19.80769  eV     1   --> A              
     e( 19 - 19) =    -19.77631  eV     1   --> A              
     e( 20 - 20) =    -19.77259  eV     1   --> A              
     e( 21 - 21) =    -19.76209  eV     1   --> A              
     e( 22 - 22) =    -19.76152  eV     1   --> A              
     e( 23 - 23) =    -12.23507  eV     1   --> A              
     e( 24 - 24) =     -6.18928  eV     1   --> A              
     e( 25 - 25) =     -5.55233  eV     1   --> A              
     e( 26 - 26) =     -4.67447  eV     1   --> A              
     e( 27 - 27) =     -2.21687  eV     1   --> A              
     e( 28 - 28) =     -1.42738  eV     1   --> A              
     e( 29 - 29) =     -0.72539  eV     1   --> A              

 **************************************************************************

 **************************************************************************

                    xk=(   0.12893,  -0.22251,   0.00000  )

     Band symmetry, C_1 (1)     point group:

     e(  1 -  1) =    -68.21085  eV     1   --> A              
     e(  2 -  2) =    -68.17316  eV     1   --> A              
     e(  3 -  3) =    -35.18933  eV     1   --> A              
     e(  4 -  4) =    -34.74899  eV     1   --> A              
     e(  5 -  5) =    -34.59320  eV     1   --> A              
     e(  6 -  6) =    -34.56733  eV     1   --> A              
     e(  7 -  7) =    -34.42125  eV     1   --> A              
     e(  8 -  8) =    -34.35761  eV     1   --> A              
     e(  9 -  9) =    -19.88505  eV     1   --> A              
     e( 10 - 10) =    -19.87540  eV     1   --> A              
     e( 11 - 11) =    -19.86225  eV     1   --> A              
     e( 12 - 12) =    -19.85984  eV     1   --> A              
     e( 13 - 13) =    -19.84988  eV     1   --> A              
     e( 14 - 14) =    -19.84401  eV     1   --> A              
     e( 15 - 15) =    -19.82925  eV     1   --> A              
     e( 16 - 16) =    -19.81877  eV     1   --> A              
     e( 17 - 17) =    -19.81332  eV     1   --> A              
     e( 18 - 18) =    -19.80916  eV     1   --> A              
     e( 19 - 19) =    -19.78437  eV     1   --> A              
     e( 20 - 20) =    -19.78005  eV     1   --> A              
     e( 21 - 21) =    -19.75471  eV     1   --> A              
     e( 22 - 22) =    -19.75405  eV     1   --> A              
     e( 23 - 23) =    -12.50831  eV     1   --> A              
     e( 24 - 24) =     -6.17917  eV     1   --> A              
     e( 25 - 25) =     -5.77098  eV     1   --> A              
     e( 26 - 26) =     -4.47534  eV     1   --> A              
     e( 27 - 27) =     -1.77139  eV     1   --> A              
     e( 28 - 28) =     -1.60161  eV     1   --> A              
     e( 29 - 29) =     -0.93895  eV     1   --> A              

 **************************************************************************

 **************************************************************************

                    xk=(   0.12890,  -0.14839,   0.00000  )

     Band symmetry, C_1 (1)     point group:

     e(  1 -  1) =    -68.22059  eV     1   --> A              
     e(  2 -  2) =    -68.17867  eV     1   --> A              
     e(  3 -  3) =    -35.21919  eV     1   --> A              
     e(  4 -  4) =    -34.70166  eV     1   --> A              
     e(  5 -  5) =    -34.51449  eV     1   --> A              
     e(  6 -  6) =    -34.48003  eV     1   --> A              
     e(  7 -  7) =    -34.39161  eV     1   --> A              
     e(  8 -  8) =    -34.32014  eV     1   --> A              
     e(  9 -  9) =    -19.88870  eV     1   --> A              
     e( 10 - 10) =    -19.87735  eV     1   --> A              
     e( 11 - 11) =    -19.86022  eV     1   --> A              
     e( 12 - 12) =    -19.85740  eV     1   --> A              
     e( 13 - 13) =    -19.84956  eV     1   --> A              
     e( 14 - 14) =    -19.84507  eV     1   --> A              
     e( 15 - 15) =    -19.82667  eV     1   --> A              
     e( 16 - 16) =    -19.81955  eV     1   --> A              
     e( 17 - 17) =    -19.81397  eV     1   --> A              
     e( 18 - 18) =    -19.81032  eV     1   --> A              
     e( 19 - 19) =    -19.79131  eV     1   --> A              
     e( 20 - 20) =    -19.78659  eV     1   --> A              
     e( 21 - 21) =    -19.74823  eV     1   --> A              
[...]
     e( 22 - 22) =    -19.75611  eV     1   --> A              
     e( 23 - 23) =    -11.69664  eV     1   --> A              
     e( 24 - 24) =     -6.58498  eV     1   --> A              
     e( 25 - 25) =     -5.36595  eV     1   --> A              
     e( 26 - 26) =     -4.64266  eV     1   --> A              
     e( 27 - 27) =     -2.22346  eV     1   --> A              
     e( 28 - 28) =     -0.70482  eV     1   --> A              
     e( 29 - 29) =     -0.46937  eV     1   --> A              

 **************************************************************************

 **************************************************************************

                    xk=(   0.45077,   0.70370,   0.00000  )

     Band symmetry, C_1 (1)     point group:

     e(  1 -  1) =    -68.17078  eV     1   --> A              
     e(  2 -  2) =    -68.15715  eV     1   --> A              
     e(  3 -  3) =    -35.12425  eV     1   --> A              
     e(  4 -  4) =    -35.07627  eV     1   --> A              
     e(  5 -  5) =    -34.77582  eV     1   --> A              
     e(  6 -  6) =    -34.72469  eV     1   --> A              
     e(  7 -  7) =    -34.58756  eV     1   --> A              
     e(  8 -  8) =    -34.47010  eV     1   --> A              
     e(  9 -  9) =    -19.87874  eV     1   --> A              
     e( 10 - 10) =    -19.86852  eV     1   --> A              
     e( 11 - 11) =    -19.86522  eV     1   --> A              
     e( 12 - 12) =    -19.86133  eV     1   --> A              
     e( 13 - 13) =    -19.85732  eV     1   --> A              
     e( 14 - 14) =    -19.84436  eV     1   --> A              
     e( 15 - 15) =    -19.83381  eV     1   --> A              
     e( 16 - 16) =    -19.81569  eV     1   --> A              
     e( 17 - 17) =    -19.81154  eV     1   --> A              
     e( 18 - 18) =    -19.80234  eV     1   --> A              
     e( 19 - 19) =    -19.77865  eV     1   --> A              
     e( 20 - 20) =    -19.77594  eV     1   --> A              
     e( 21 - 21) =    -19.75788  eV     1   --> A              
     e( 22 - 22) =    -19.75652  eV     1   --> A              
     e( 23 - 23) =    -11.73854  eV     1   --> A              
     e( 24 - 24) =     -6.90567  eV     1   --> A              
     e( 25 - 25) =     -4.97782  eV     1   --> A              
     e( 26 - 26) =     -4.76757  eV     1   --> A              
     e( 27 - 27) =     -2.87746  eV     1   --> A              
     e( 28 - 28) =     -0.19999  eV     1   --> A              
     e( 29 - 29) =     -0.12583  eV     1   --> A              

 **************************************************************************

 **************************************************************************

                    xk=(   0.45074,   0.77782,   0.00000  )

     Band symmetry, C_1 (1)     point group:

     e(  1 -  1) =    -68.17227  eV     1   --> A              
     e(  2 -  2) =    -68.15734  eV     1   --> A              
     e(  3 -  3) =    -35.15055  eV     1   --> A              
     e(  4 -  4) =    -35.10565  eV     1   --> A              
     e(  5 -  5) =    -34.78524  eV     1   --> A              
     e(  6 -  6) =    -34.69106  eV     1   --> A              
     e(  7 -  7) =    -34.57207  eV     1   --> A              
     e(  8 -  8) =    -34.42087  eV     1   --> A              
     e(  9 -  9) =    -19.88147  eV     1   --> A              
     e( 10 - 10) =    -19.86863  eV     1   --> A              
     e( 11 - 11) =    -19.86557  eV     1   --> A              
     e( 12 - 12) =    -19.86137  eV     1   --> A              
     e( 13 - 13) =    -19.85799  eV     1   --> A              
     e( 14 - 14) =    -19.84338  eV     1   --> A              
     e( 15 - 15) =    -19.83297  eV     1   --> A              
     e( 16 - 16) =    -19.81648  eV     1   --> A              
     e( 17 - 17) =    -19.81117  eV     1   --> A              
     e( 18 - 18) =    -19.80072  eV     1   --> A              
     e( 19 - 19) =    -19.77722  eV     1   --> A              
     e( 20 - 20) =    -19.77370  eV     1   --> A              
     e( 21 - 21) =    -19.75862  eV     1   --> A              
     e( 22 - 22) =    -19.75717  eV     1   --> A              
     e( 23 - 23) =    -11.78568  eV     1   --> A              
     e( 24 - 24) =     -7.13377  eV     1   --> A              
     e( 25 - 25) =     -4.87579  eV     1   --> A              
     e( 26 - 26) =     -4.60471  eV     1   --> A              
     e( 27 - 27) =     -3.35912  eV     1   --> A              
     e( 28 - 28) =      0.07968  eV     1   --> A              
     e( 29 - 29) =      0.08135  eV     1   --> A              

 **************************************************************************

 **************************************************************************

                    xk=(   0.45108,  -0.25992,   0.00000  )

     Band symmetry, C_1 (1)     point group:

     e(  1 -  1) =    -68.17397  eV     1   --> A              
     e(  2 -  2) =    -68.15763  eV     1   --> A              
     e(  3 -  3) =    -35.15750  eV     1   --> A              
     e(  4 -  4) =    -35.10685  eV     1   --> A              
     e(  5 -  5) =    -34.78911  eV     1   --> A              
     e(  6 -  6) =    -34.67608  eV     1   --> A              
     e(  7 -  7) =    -34.56162  eV     1   --> A              
     e(  8 -  8) =    -34.40083  eV     1   --> A              
     e(  9 -  9) =    -19.88239  eV     1   --> A              
     e( 10 - 10) =    -19.86871  eV     1   --> A              
     e( 11 - 11) =    -19.86593  eV     1   --> A              
     e( 12 - 12) =    -19.86130  eV     1   --> A              
     e( 13 - 13) =    -19.85800  eV     1   --> A              
     e( 14 - 14) =    -19.84297  eV     1   --> A              
     e( 15 - 15) =    -19.83268  eV     1   --> A              
     e( 16 - 16) =    -19.81677  eV     1   --> A              
     e( 17 - 17) =    -19.81112  eV     1   --> A              
     e( 18 - 18) =    -19.80039  eV     1   --> A              
     e( 19 - 19) =    -19.77610  eV     1   --> A              
     e( 20 - 20) =    -19.77240  eV     1   --> A              
     e( 21 - 21) =    -19.75960  eV     1   --> A              
     e( 22 - 22) =    -19.75797  eV     1   --> A              
     e( 23 - 23) =    -11.81849  eV     1   --> A              
     e( 24 - 24) =     -7.19408  eV     1   --> A              
     e( 25 - 25) =     -4.91710  eV     1   --> A              
     e( 26 - 26) =     -4.41238  eV     1   --> A              
     e( 27 - 27) =     -3.54523  eV     1   --> A              
     e( 28 - 28) =      0.02980  eV     1   --> A              
     e( 29 - 29) =      0.11430  eV     1   --> A              

 **************************************************************************

 **************************************************************************

                    xk=(   0.45105,  -0.18579,   0.00000  )

     Band symmetry, C_1 (1)     point group:

     e(  1 -  1) =    -68.17560  eV     1   --> A              
     e(  2 -  2) =    -68.15797  eV     1   --> A              
     e(  3 -  3) =    -35.14496  eV     1   --> A              
     e(  4 -  4) =    -35.07902  eV     1   --> A              
     e(  5 -  5) =    -34.78248  eV     1   --> A              
     e(  6 -  6) =    -34.68046  eV     1   --> A              
     e(  7 -  7) =    -34.56317  eV     1   --> A              
     e(  8 -  8) =    -34.41483  eV     1   --> A              
     e(  9 -  9) =    -19.88126  eV     1   --> A              
     e( 10 - 10) =    -19.86861  eV     1   --> A              
     e( 11 - 11) =    -19.86624  eV     1   --> A              
     e( 12 - 12) =    -19.86133  eV     1   --> A              
     e( 13 - 13) =    -19.85723  eV     1   --> A              
     e( 14 - 14) =    -19.84319  eV     1   --> A              
     e( 15 - 15) =    -19.83297  eV     1   --> A              
     e( 16 - 16) =    -19.81653  eV     1   --> A              
     e( 17 - 17) =    -19.81153  eV     1   --> A              
     e( 18 - 18) =    -19.80141  eV     1   --> A              
     e( 19 - 19) =    -19.77561  eV     1   --> A              
     e( 20 - 20) =    -19.77243  eV     1   --> A              
     e( 21 - 21) =    -19.76064  eV     1   --> A              
     e( 22 - 22) =    -19.75879  eV     1   --> A              
     e( 23 - 23) =    -11.82874  eV     1   --> A              
     e( 24 - 24) =     -7.06463  eV     1   --> A              
     e( 25 - 25) =     -4.89636  eV     1   --> A              
     e( 26 - 26) =     -4.57609  eV     1   --> A              
     e( 27 - 27) =     -3.28929  eV     1   --> A              
     e( 28 - 28) =     -0.22065  eV     1   --> A              
     e( 29 - 29) =     -0.09636  eV     1   --> A              

 **************************************************************************

 **************************************************************************

                    xk=(   0.45103,  -0.11167,   0.00000  )

     Band symmetry, C_1 (1)     point group:

     e(  1 -  1) =    -68.17690  eV     1   --> A              
     e(  2 -  2) =    -68.15828  eV     1   --> A              
     e(  3 -  3) =    -35.12642  eV     1   --> A              
     e(  4 -  4) =    -35.02465  eV     1   --> A              
     e(  5 -  5) =    -34.78209  eV     1   --> A              
     e(  6 -  6) =    -34.68814  eV     1   --> A              
     e(  7 -  7) =    -34.56960  eV     1   --> A              
     e(  8 -  8) =    -34.45596  eV     1   --> A              
     e(  9 -  9) =    -19.87839  eV     1   --> A              
     e( 10 - 10) =    -19.86852  eV     1   --> A              
     e( 11 - 11) =    -19.86679  eV     1   --> A              
     e( 12 - 12) =    -19.86217  eV     1   --> A              
     e( 13 - 13) =    -19.85531  eV     1   --> A              
     e( 14 - 14) =    -19.84395  eV     1   --> A              
     e( 15 - 15) =    -19.83364  eV     1   --> A              
     e( 16 - 16) =    -19.81645  eV     1   --> A              
     e( 17 - 17) =    -19.81119  eV     1   --> A              
     e( 18 - 18) =    -19.80360  eV     1   --> A              
     e( 19 - 19) =    -19.77555  eV     1   --> A              
     e( 20 - 20) =    -19.77344  eV     1   --> A              
     e( 21 - 21) =    -19.76150  eV     1   --> A              
     e( 22 - 22) =    -19.75946  eV     1   --> A              
     e( 23 - 23) =    -11.82239  eV     1   --> A              
     e( 24 - 24) =     -6.77635  eV     1   --> A              
     e( 25 - 25) =     -4.94404  eV     1   --> A              
     e( 26 - 26) =     -4.82172  eV     1   --> A              
     e( 27 - 27) =     -2.77398  eV     1   --> A              
     e( 28 - 28) =     -0.59086  eV     1   --> A              
     e( 29 - 29) =     -0.43660  eV     1   --> A              

 **************************************************************************

 **************************************************************************

                    xk=(   0.45100,  -0.03754,   0.00000  )

     Band symmetry, C_1 (1)     point group:

     e(  1 -  1) =    -68.17765  eV     1   --> A              
     e(  2 -  2) =    -68.15849  eV     1   --> A              
     e(  3 -  3) =    -35.11435  eV     1   --> A              
     e(  4 -  4) =    -34.96415  eV     1   --> A              
     e(  5 -  5) =    -34.81487  eV     1   --> A              
     e(  6 -  6) =    -34.67142  eV     1   --> A              
     e(  7 -  7) =    -34.57172  eV     1   --> A              
     e(  8 -  8) =    -34.50100  eV     1   --> A              
     e(  9 -  9) =    -19.87464  eV     1   --> A              
     e( 10 - 10) =    -19.87072  eV     1   --> A              
     e( 11 - 11) =    -19.86572  eV     1   --> A              
     e( 12 - 12) =    -19.86363  eV     1   --> A              
     e( 13 - 13) =    -19.85352  eV     1   --> A              
     e( 14 - 14) =    -19.84478  eV     1   --> A              
     e( 15 - 15) =    -19.83422  eV     1   --> A              
     e( 16 - 16) =    -19.81677  eV     1   --> A              
     e( 17 - 17) =    -19.80928  eV     1   --> A              
     e( 18 - 18) =    -19.80644  eV     1   --> A              
     e( 19 - 19) =    -19.77538  eV     1   --> A              
     e( 20 - 20) =    -19.77458  eV     1   --> A              
     e( 21 - 21) =    -19.76201  eV     1   --> A              
     e( 22 - 22) =    -19.75985  eV     1   --> A              
     e( 23 - 23) =    -11.81377  eV     1   --> A              
     e( 24 - 24) =     -6.45895  eV     1   --> A              
     e( 25 - 25) =     -5.28139  eV     1   --> A              
     e( 26 - 26) =     -4.78133  eV     1   --> A              
     e( 27 - 27) =     -2.15027  eV     1   --> A              
     e( 28 - 28) =     -1.21673  eV     1   --> A              
     e( 29 - 29) =     -0.56881  eV     1   --> A              

 **************************************************************************

 **************************************************************************

                    xk=(   0.45098,   0.03658,   0.00000  )

     Band symmetry, C_1 (1)     point group:

     e(  1 -  1) =    -68.17775  eV     1   --> A              
     e(  2 -  2) =    -68.15854  eV     1   --> A              
     e(  3 -  3) =    -35.11442  eV     1   --> A              
     e(  4 -  4) =    -34.96449  eV     1   --> A              
     e(  5 -  5) =    -34.81444  eV     1   --> A              
     e(  6 -  6) =    -34.67174  eV     1   --> A              
     e(  7 -  7) =    -34.57062  eV     1   --> A              
     e(  8 -  8) =    -34.50019  eV     1   --> A              
     e(  9 -  9) =    -19.87463  eV     1   --> A              
     e( 10 - 10) =    -19.87074  eV     1   --> A              
     e( 11 - 11) =    -19.86578  eV     1   --> A              
     e( 12 - 12) =    -19.86356  eV     1   --> A              
     e( 13 - 13) =    -19.85355  eV     1   --> A              
     e( 14 - 14) =    -19.84471  eV     1   --> A              
     e( 15 - 15) =    -19.83423  eV     1   --> A              
     e( 16 - 16) =    -19.81678  eV     1   --> A              
     e( 17 - 17) =    -19.80923  eV     1   --> A              
     e( 18 - 18) =    -19.80649  eV     1   --> A              
     e( 19 - 19) =    -19.77533  eV     1   --> A              
     e( 20 - 20) =    -19.77453  eV     1   --> A              
     e( 21 - 21) =    -19.76205  eV     1   --> A              
     e( 22 - 22) =    -19.75990  eV     1   --> A              
     e( 23 - 23) =    -11.81442  eV     1   --> A              
     e( 24 - 24) =     -6.46050  eV     1   --> A              
     e( 25 - 25) =     -5.27710  eV     1   --> A              
     e( 26 - 26) =     -4.78087  eV     1   --> A              
     e( 27 - 27) =     -2.14892  eV     1   --> A              
     e( 28 - 28) =     -1.22047  eV     1   --> A              
     e( 29 - 29) =     -0.56922  eV     1   --> A              

 **************************************************************************

 **************************************************************************

                    xk=(   0.45096,   0.11070,   0.00000  )

     Band symmetry, C_1 (1)     point group:

     e(  1 -  1) =    -68.17718  eV     1   --> A              
     e(  2 -  2) =    -68.15842  eV     1   --> A              
     e(  3 -  3) =    -35.12648  eV     1   --> A              
     e(  4 -  4) =    -35.02491  eV     1   --> A              
     e(  5 -  5) =    -34.78225  eV     1   --> A              
     e(  6 -  6) =    -34.68772  eV     1   --> A              
     e(  7 -  7) =    -34.56726  eV     1   --> A              
     e(  8 -  8) =    -34.45371  eV     1   --> A              
     e(  9 -  9) =    -19.87837  eV     1   --> A              
     e( 10 - 10) =    -19.86855  eV     1   --> A              
     e( 11 - 11) =    -19.86686  eV     1   --> A              
     e( 12 - 12) =    -19.86207  eV     1   --> A              
     e( 13 - 13) =    -19.85537  eV     1   --> A              
     e( 14 - 14) =    -19.84381  eV     1   --> A              
     e( 15 - 15) =    -19.83369  eV     1   --> A              
     e( 16 - 16) =    -19.81648  eV     1   --> A              
     e( 17 - 17) =    -19.81116  eV     1   --> A              
     e( 18 - 18) =    -19.80366  eV     1   --> A              
     e( 19 - 19) =    -19.77542  eV     1   --> A              
     e( 20 - 20) =    -19.77329  eV     1   --> A              
     e( 21 - 21) =    -19.76162  eV     1   --> A              
     e( 22 - 22) =    -19.75958  eV     1   --> A              
     e( 23 - 23) =    -11.82422  eV     1   --> A              
     e( 24 - 24) =     -6.77856  eV     1   --> A              
     e( 25 - 25) =     -4.93559  eV     1   --> A              
     e( 26 - 26) =     -4.81847  eV     1   --> A              
     e( 27 - 27) =     -2.77392  eV     1   --> A              
     e( 28 - 28) =     -0.59712  eV     1   --> A              
     e( 29 - 29) =     -0.43926  eV     1   --> A              

 **************************************************************************

 **************************************************************************

                    xk=(   0.45093,   0.18483,   0.00000  )

     Band symmetry, C_1 (1)     point group:

     e(  1 -  1) =    -68.17603  eV     1   --> A              
     e(  2 -  2) =    -68.15816  eV     1   --> A              
     e(  3 -  3) =    -35.14470  eV     1   --> A              
     e(  4 -  4) =    -35.07904  eV     1   --> A              
     e(  5 -  5) =    -34.78345  eV     1   --> A              
     e(  6 -  6) =    -34.67945  eV     1   --> A              
     e(  7 -  7) =    -34.55989  eV     1   --> A              
     e(  8 -  8) =    -34.41171  eV     1   --> A              
     e(  9 -  9) =    -19.88125  eV     1   --> A              
     e( 10 - 10) =    -19.86866  eV     1   --> A              
     e( 11 - 11) =    -19.86633  eV     1   --> A              
     e( 12 - 12) =    -19.86117  eV     1   --> A              
     e( 13 - 13) =    -19.85729  eV     1   --> A              
     e( 14 - 14) =    -19.84300  eV     1   --> A              
     e( 15 - 15) =    -19.83304  eV     1   --> A              
     e( 16 - 16) =    -19.81653  eV     1   --> A              
     e( 17 - 17) =    -19.81156  eV     1   --> A              
     e( 18 - 18) =    -19.80148  eV     1   --> A              
     e( 19 - 19) =    -19.77541  eV     1   --> A              
     e( 20 - 20) =    -19.77222  eV     1   --> A              
     e( 21 - 21) =    -19.76082  eV     1   --> A              
     e( 22 - 22) =    -19.75896  eV     1   --> A              
     e( 23 - 23) =    -11.83140  eV     1   --> A              
     e( 24 - 24) =     -7.06659  eV     1   --> A              
     e( 25 - 25) =     -4.89436  eV     1   --> A              
     e( 26 - 26) =     -4.56088  eV     1   --> A              
     e( 27 - 27) =     -3.29063  eV     1   --> A              
     e( 28 - 28) =     -0.22668  eV     1   --> A              
     e( 29 - 29) =     -0.10344  eV     1   --> A              

 **************************************************************************
 
     BANDS        :   1m 5.50s CPU     47.43s WALL

 
   This run was terminated on:  11:20:11  14Apr2022            

=------------------------------------------------------------------------------=
   JOB DONE.
=------------------------------------------------------------------------------=
