
     Program PWSCF v.6.8 starts on 21Apr2022 at 21:18:38 

     This program is part of the open-source Quantum ESPRESSO suite
     for quantum simulation of materials; please cite
         "P. Giannozzi et al., J. Phys.:Condens. Matter 21 395502 (2009);
         "P. Giannozzi et al., J. Phys.:Condens. Matter 29 465901 (2017);
         "P. Giannozzi et al., J. Chem. Phys. 152 154105 (2020);
          URL http://www.quantum-espresso.org", 
     in publications or presentations arising from this work. More details at
     http://www.quantum-espresso.org/quote

     Parallel version (MPI & OpenMP), running on       4 processor cores
     Number of MPI processes:                 2
     Threads/MPI process:                     2

     MPI processes distributed on     1 nodes
     R & G space division:  proc/nbgrp/npool/nimage =       2
     125229 MiB available memory on the printing compute node when the environment starts
 
     Reading input from Ta2CS.vcrelax.in

     Current dimensions of program PWSCF are:
     Max number of different atomic species (ntypx) = 10
     Max number of k-points (npk) =  40000
     Max angular momentum in pseudopotentials (lmaxx) =  4
     file Ta.pbesol-spfn-rrkjus_psl.1.0.0.UPF: wavefunction(s)  5S 5P renormalized
     file S.pbesol-nl-kjpaw_psl.1.0.0.UPF: wavefunction(s)  3S renormalized

     Subspace diagonalization in iterative solution of the eigenvalue problem:
     a serial algorithm will be used

 
     Parallelization info
     --------------------
     sticks:   dense  smooth     PW     G-vecs:    dense   smooth      PW
     Min         777     312     99               242162    61128   11163
     Max         778     313    100               242163    61139   11190
     Sum        1555     625    199               484325   122267   22353
 
     Using Slab Decomposition
 


     bravais-lattice index     =            0
     lattice parameter (alat)  =       5.5500  a.u.
     unit-cell volume          =    1549.0441 (a.u.)^3
     number of atoms/cell      =            4
     number of atomic types    =            3
     number of electrons       =        64.00
     number of Kohn-Sham states=           38
     kinetic-energy cutoff     =      70.0000  Ry
     charge density cutoff     =     700.0000  Ry
     scf convergence threshold =      1.0E-12
     mixing beta               =       0.7000
     number of iterations used =            8  plain     mixing
     energy convergence thresh.=      1.0E-04
     force convergence thresh. =      1.0E-03
     press convergence thresh. =      5.0E-01
     Exchange-correlation= SLA  PW   PSX  PSC
                           (   1   4  10   8   0   0   0)
     nstep                     =           50


     celldm(1)=   5.550000  celldm(2)=   0.000000  celldm(3)=   0.000000
     celldm(4)=   0.000000  celldm(5)=   0.000000  celldm(6)=   0.000000

     crystal axes: (cart. coord. in units of alat)
               a(1) = (   1.023061   0.000071   0.000000 )  
               a(2) = (  -0.511470   0.885658   0.000000 )  
               a(3) = (   0.000000   0.000000  10.000000 )  

     reciprocal axes: (cart. coord. in units 2 pi/alat)
               b(1) = (  0.977420  0.564462  0.000000 )  
               b(2) = ( -0.000078  1.129060  0.000000 )  
               b(3) = (  0.000000  0.000000  0.100000 )  


     PseudoPot. # 1 for Ta read from file:
     /shared/home/as3359/pseudo/Ta.pbesol-spfn-rrkjus_psl.1.0.0.UPF
     MD5 check sum: f099565ffaca9b150a52e9412a28e20b
     Pseudo is Ultrasoft + core correction, Zval = 27.0
     Generated using &quot;atomic&quot; code by A. Dal Corso  v.6.3
     Using radial grid of 1273 points,  8 beta functions with: 
                l(1) =   0
                l(2) =   0
                l(3) =   1
                l(4) =   1
                l(5) =   2
                l(6) =   2
                l(7) =   3
                l(8) =   3
     Q(r) pseudized with 0 coefficients 


     PseudoPot. # 2 for C  read from file:
     /shared/home/as3359/pseudo/C.pbesol-n-rrkjus_psl.1.0.0.UPF
     MD5 check sum: 05995be603a8a7c99da3dc4413f31573
     Pseudo is Ultrasoft + core correction, Zval =  4.0
     Generated using &quot;atomic&quot; code by A. Dal Corso  v.6.3MaX
     Using radial grid of 1073 points,  4 beta functions with: 
                l(1) =   0
                l(2) =   0
                l(3) =   1
                l(4) =   1
     Q(r) pseudized with 0 coefficients 


     PseudoPot. # 3 for S  read from file:
     /shared/home/as3359/pseudo/S.pbesol-nl-kjpaw_psl.1.0.0.UPF
     MD5 check sum: bf3db50ec3f960682bbc396f1aadd1dd
     Pseudo is Projector augmented-wave + core cor, Zval =  6.0
     Generated using &quot;atomic&quot; code by A. Dal Corso  v.6.3
     Shape of augmentation charge: PSQ
     Using radial grid of 1151 points,  4 beta functions with: 
                l(1) =   0
                l(2) =   0
                l(3) =   1
                l(4) =   1
     Q(r) pseudized with 0 coefficients 


     atomic species   valence    mass     pseudopotential
        Ta            27.00   180.94788     Ta( 1.00)
        C              4.00    12.01070     C ( 1.00)
        S              6.00    32.06500     S ( 1.00)

     No symmetry found



   Cartesian axes

     site n.     atom                  positions (alat units)
         1           C   tau(   1) = (   0.0000000   0.0000000   0.0000000  )
         2           Ta  tau(   2) = (   0.3772709   0.2651957  -0.5000000  )
         3           Ta  tau(   3) = (  -0.3080629   0.5337799   0.5000000  )
         4           S   tau(   4) = (   0.1110709   0.2669083   1.0000000  )

     number of k points=    74  Marzari-Vanderbilt smearing, width (Ry)=  0.0010
                       cart. coord. in units 2pi/alat
        k(    1) = (   0.0000000   0.0000000   0.0000000), wk =   0.0138889
        k(    2) = (  -0.0000065   0.0940883   0.0000000), wk =   0.0277778
        k(    3) = (  -0.0000130   0.1881766   0.0000000), wk =   0.0277778
        k(    4) = (  -0.0000195   0.2822649   0.0000000), wk =   0.0277778
        k(    5) = (  -0.0000260   0.3763532   0.0000000), wk =   0.0277778
        k(    6) = (  -0.0000325   0.4704415   0.0000000), wk =   0.0277778
        k(    7) = (   0.0000390  -0.5645298   0.0000000), wk =   0.0138889
        k(    8) = (   0.0814516   0.0470385   0.0000000), wk =   0.0277778
        k(    9) = (   0.0814451   0.1411268   0.0000000), wk =   0.0277778
        k(   10) = (   0.0814386   0.2352151   0.0000000), wk =   0.0277778
        k(   11) = (   0.0814322   0.3293034   0.0000000), wk =   0.0277778
        k(   12) = (   0.0814257   0.4233917   0.0000000), wk =   0.0277778
        k(   13) = (   0.0814192   0.5174800   0.0000000), wk =   0.0277778
        k(   14) = (   0.0814906  -0.5174912   0.0000000), wk =   0.0277778
        k(   15) = (   0.0814841  -0.4234030   0.0000000), wk =   0.0277778
        k(   16) = (   0.0814776  -0.3293147   0.0000000), wk =   0.0277778
        k(   17) = (   0.0814711  -0.2352264   0.0000000), wk =   0.0277778
        k(   18) = (   0.0814646  -0.1411381   0.0000000), wk =   0.0277778
        k(   19) = (   0.0814581  -0.0470498   0.0000000), wk =   0.0277778
        k(   20) = (   0.1629033   0.0940771   0.0000000), wk =   0.0277778
        k(   21) = (   0.1628968   0.1881653   0.0000000), wk =   0.0277778
        k(   22) = (   0.1628903   0.2822536   0.0000000), wk =   0.0277778
        k(   23) = (   0.1628838   0.3763419   0.0000000), wk =   0.0277778
        k(   24) = (   0.1628773   0.4704302   0.0000000), wk =   0.0277778
        k(   25) = (   0.1628708   0.5645185   0.0000000), wk =   0.0277778
        k(   26) = (   0.1629422  -0.4704527   0.0000000), wk =   0.0277778
        k(   27) = (   0.1629357  -0.3763644   0.0000000), wk =   0.0277778
        k(   28) = (   0.1629292  -0.2822761   0.0000000), wk =   0.0277778
        k(   29) = (   0.1629227  -0.1881878   0.0000000), wk =   0.0277778
        k(   30) = (   0.1629162  -0.0940995   0.0000000), wk =   0.0277778
        k(   31) = (   0.1629098  -0.0000112   0.0000000), wk =   0.0277778
        k(   32) = (   0.2443549   0.1411156   0.0000000), wk =   0.0277778
        k(   33) = (   0.2443484   0.2352039   0.0000000), wk =   0.0277778
        k(   34) = (   0.2443419   0.3292922   0.0000000), wk =   0.0277778
        k(   35) = (   0.2443354   0.4233805   0.0000000), wk =   0.0277778
        k(   36) = (   0.2443289   0.5174688   0.0000000), wk =   0.0277778
        k(   37) = (   0.2443224   0.6115571   0.0000000), wk =   0.0277778
        k(   38) = (   0.2443938  -0.4234142   0.0000000), wk =   0.0277778
        k(   39) = (   0.2443873  -0.3293259   0.0000000), wk =   0.0277778
        k(   40) = (   0.2443809  -0.2352376   0.0000000), wk =   0.0277778
        k(   41) = (   0.2443744  -0.1411493   0.0000000), wk =   0.0277778
        k(   42) = (   0.2443679  -0.0470610   0.0000000), wk =   0.0277778
        k(   43) = (   0.2443614   0.0470273   0.0000000), wk =   0.0277778
        k(   44) = (   0.3258065   0.1881541   0.0000000), wk =   0.0277778
        k(   45) = (   0.3258000   0.2822424   0.0000000), wk =   0.0277778
        k(   46) = (   0.3257935   0.3763307   0.0000000), wk =   0.0277778
        k(   47) = (   0.3257870   0.4704190   0.0000000), wk =   0.0277778
        k(   48) = (   0.3257806   0.5645073   0.0000000), wk =   0.0277778
        k(   49) = (   0.3257741   0.6585956   0.0000000), wk =   0.0277778
        k(   50) = (   0.3258455  -0.3763757   0.0000000), wk =   0.0277778
        k(   51) = (   0.3258390  -0.2822874   0.0000000), wk =   0.0277778
        k(   52) = (   0.3258325  -0.1881991   0.0000000), wk =   0.0277778
        k(   53) = (   0.3258260  -0.0941108   0.0000000), wk =   0.0277778
        k(   54) = (   0.3258195  -0.0000225   0.0000000), wk =   0.0277778
        k(   55) = (   0.3258130   0.0940658   0.0000000), wk =   0.0277778
        k(   56) = (   0.4072581   0.2351926   0.0000000), wk =   0.0277778
        k(   57) = (   0.4072517   0.3292809   0.0000000), wk =   0.0277778
        k(   58) = (   0.4072452   0.4233692   0.0000000), wk =   0.0277778
        k(   59) = (   0.4072387   0.5174575   0.0000000), wk =   0.0277778
        k(   60) = (   0.4072322   0.6115458   0.0000000), wk =   0.0277778
        k(   61) = (   0.4072257   0.7056341   0.0000000), wk =   0.0277778
        k(   62) = (   0.4072971  -0.3293371   0.0000000), wk =   0.0277778
        k(   63) = (   0.4072906  -0.2352488   0.0000000), wk =   0.0277778
        k(   64) = (   0.4072841  -0.1411606   0.0000000), wk =   0.0277778
        k(   65) = (   0.4072776  -0.0470723   0.0000000), wk =   0.0277778
        k(   66) = (   0.4072711   0.0470160   0.0000000), wk =   0.0277778
        k(   67) = (   0.4072646   0.1411043   0.0000000), wk =   0.0277778
        k(   68) = (  -0.4887098  -0.2822312   0.0000000), wk =   0.0138889
        k(   69) = (  -0.4887163  -0.1881429   0.0000000), wk =   0.0277778
        k(   70) = (  -0.4887228  -0.0940546   0.0000000), wk =   0.0277778
        k(   71) = (  -0.4887293   0.0000337   0.0000000), wk =   0.0277778
        k(   72) = (  -0.4887357   0.0941220   0.0000000), wk =   0.0277778
        k(   73) = (  -0.4887422   0.1882103   0.0000000), wk =   0.0277778
        k(   74) = (  -0.4886708  -0.8467609   0.0000000), wk =   0.0138889

     Dense  grid:   484325 G-vectors     FFT dimensions: (  48,  48, 480)

     Smooth grid:   122267 G-vectors     FFT dimensions: (  32,  32, 300)

     Estimated max dynamical RAM per process >       2.61 GB

     Estimated total dynamical RAM >       5.23 GB

     Initial potential from superposition of free atoms

     starting charge   63.99838, renormalised to   64.00000

     negative rho (up, down):  4.744E-05 0.000E+00
     Starting wfcs are   42 randomized atomic wfcs
     Checking if some PAW data can be deallocated... 

     total cpu time spent up to now is       23.7 secs

     Self-consistent Calculation

     iteration #  1     ecut=    70.00 Ry     beta= 0.70
     Davidson diagonalization with overlap
     ethr =  1.00E-02,  avg # of iterations =  2.3

     negative rho (up, down):  1.050E-05 0.000E+00

     total cpu time spent up to now is       37.9 secs

     total energy              =   -1436.91500881 Ry
     estimated scf accuracy    <       1.78406715 Ry

     iteration #  2     ecut=    70.00 Ry     beta= 0.70
     Davidson diagonalization with overlap
     ethr =  2.79E-03,  avg # of iterations = 11.0

     negative rho (up, down):  4.298E-05 0.000E+00

     total cpu time spent up to now is       62.8 secs

     total energy              =   -1425.97392168 Ry
     estimated scf accuracy    <     321.75063948 Ry

     iteration #  3     ecut=    70.00 Ry     beta= 0.70
     Davidson diagonalization with overlap
     ethr =  2.79E-03,  avg # of iterations =  9.3

     negative rho (up, down):  9.641E-06 0.000E+00

     total cpu time spent up to now is       86.2 secs

     total energy              =   -1435.52138732 Ry
     estimated scf accuracy    <      36.90862023 Ry

     iteration #  4     ecut=    70.00 Ry     beta= 0.70
     Davidson diagonalization with overlap
     ethr =  2.79E-03,  avg # of iterations =  6.6

     negative rho (up, down):  5.902E-06 0.000E+00

     total cpu time spent up to now is      104.0 secs

     total energy              =   -1437.86173328 Ry
     estimated scf accuracy    <       7.26433199 Ry

     iteration #  5     ecut=    70.00 Ry     beta= 0.70
     Davidson diagonalization with overlap
     ethr =  2.79E-03,  avg # of iterations =  2.0

     negative rho (up, down):  4.209E-06 0.000E+00

     total cpu time spent up to now is      117.4 secs

     WARNING: integrated charge=    64.00170822, expected=    64.00000000

     total energy              =   -1438.15363519 Ry
     estimated scf accuracy    <       0.15060803 Ry

     iteration #  6     ecut=    70.00 Ry     beta= 0.70
     Davidson diagonalization with overlap
     ethr =  2.35E-04,  avg # of iterations =  5.0

     negative rho (up, down):  6.259E-06 0.000E+00

     total cpu time spent up to now is      132.6 secs

     WARNING: integrated charge=    64.00166832, expected=    64.00000000

     total energy              =   -1438.16032254 Ry
     estimated scf accuracy    <       0.12900212 Ry

     iteration #  7     ecut=    70.00 Ry     beta= 0.70
     Davidson diagonalization with overlap
     ethr =  2.02E-04,  avg # of iterations =  1.5

     negative rho (up, down):  8.002E-06 0.000E+00

     total cpu time spent up to now is      145.2 secs

     WARNING: integrated charge=    64.00027278, expected=    64.00000000

     total energy              =   -1438.15710065 Ry
     estimated scf accuracy    <       0.05000165 Ry

     iteration #  8     ecut=    70.00 Ry     beta= 0.70
     Davidson diagonalization with overlap
     ethr =  7.81E-05,  avg # of iterations =  4.1

     negative rho (up, down):  1.167E-05 0.000E+00

     total cpu time spent up to now is      159.1 secs

     WARNING: integrated charge=    63.99994916, expected=    64.00000000

     total energy              =   -1438.15563208 Ry
     estimated scf accuracy    <       0.02043929 Ry

     iteration #  9     ecut=    70.00 Ry     beta= 0.70
     Davidson diagonalization with overlap
     ethr =  3.19E-05,  avg # of iterations =  3.5

     negative rho (up, down):  1.607E-05 0.000E+00

     total cpu time spent up to now is      172.6 secs

     WARNING: integrated charge=    63.99990489, expected=    64.00000000

     total energy              =   -1438.15314012 Ry
     estimated scf accuracy    <       0.01461095 Ry

     iteration # 10     ecut=    70.00 Ry     beta= 0.70
     Davidson diagonalization with overlap
     ethr =  2.28E-05,  avg # of iterations =  2.0

     negative rho (up, down):  5.318E-05 0.000E+00

     total cpu time spent up to now is      185.5 secs

     WARNING: integrated charge=    64.00006819, expected=    64.00000000

     total energy              =   -1438.15102393 Ry
     estimated scf accuracy    <       0.00881212 Ry

     iteration # 11     ecut=    70.00 Ry     beta= 0.70
     Davidson diagonalization with overlap
     ethr =  1.38E-05,  avg # of iterations =  3.6

     negative rho (up, down):  2.829E-04 0.000E+00

     total cpu time spent up to now is      199.2 secs

     WARNING: integrated charge=    64.00027596, expected=    64.00000000

     total energy              =   -1438.14979341 Ry
     estimated scf accuracy    <       0.00339131 Ry

     iteration # 12     ecut=    70.00 Ry     beta= 0.70
     Davidson diagonalization with overlap
     ethr =  5.30E-06,  avg # of iterations =  4.9

     negative rho (up, down):  5.797E-05 0.000E+00

     total cpu time spent up to now is      214.0 secs

     WARNING: integrated charge=    64.00008270, expected=    64.00000000

     total energy              =   -1438.15014604 Ry
     estimated scf accuracy    <       0.00031716 Ry

     iteration # 13     ecut=    70.00 Ry     beta= 0.70
     Davidson diagonalization with overlap
     ethr =  4.96E-07,  avg # of iterations =  2.6

     negative rho (up, down):  5.481E-05 0.000E+00

     total cpu time spent up to now is      227.6 secs

     WARNING: integrated charge=    63.99997550, expected=    64.00000000

     total energy              =   -1438.15016370 Ry
     estimated scf accuracy    <       0.00002450 Ry

     iteration # 14     ecut=    70.00 Ry     beta= 0.70
     Davidson diagonalization with overlap
     ethr =  3.83E-08,  avg # of iterations =  3.6

     negative rho (up, down):  5.113E-05 0.000E+00

     total cpu time spent up to now is      242.7 secs

     WARNING: integrated charge=    64.00000991, expected=    64.00000000

     total energy              =   -1438.15016895 Ry
     estimated scf accuracy    <       0.00002762 Ry

     iteration # 15     ecut=    70.00 Ry     beta= 0.70
     Davidson diagonalization with overlap
     ethr =  3.83E-08,  avg # of iterations =  1.7

     negative rho (up, down):  5.563E-05 0.000E+00

     total cpu time spent up to now is      255.6 secs

     WARNING: integrated charge=    64.00000790, expected=    64.00000000

     total energy              =   -1438.15017115 Ry
     estimated scf accuracy    <       0.00000058 Ry

     iteration # 16     ecut=    70.00 Ry     beta= 0.70
     Davidson diagonalization with overlap
     ethr =  9.06E-10,  avg # of iterations =  4.3

     negative rho (up, down):  6.186E-05 0.000E+00

     total cpu time spent up to now is      273.1 secs

     total energy              =   -1438.15017148 Ry
     estimated scf accuracy    <       0.00000048 Ry

     iteration # 17     ecut=    70.00 Ry     beta= 0.70
     Davidson diagonalization with overlap
     ethr =  7.51E-10,  avg # of iterations =  2.0

     negative rho (up, down):  6.256E-05 0.000E+00

     total cpu time spent up to now is      286.3 secs

     total energy              =   -1438.15017150 Ry
     estimated scf accuracy    <       0.00000009 Ry

     iteration # 18     ecut=    70.00 Ry     beta= 0.70
     Davidson diagonalization with overlap
     ethr =  1.37E-10,  avg # of iterations =  2.1

     negative rho (up, down):  6.180E-05 0.000E+00

     total cpu time spent up to now is      299.8 secs

     total energy              =   -1438.15017150 Ry
     estimated scf accuracy    <       0.00000035 Ry

     iteration # 19     ecut=    70.00 Ry     beta= 0.70
     Davidson diagonalization with overlap
     ethr =  1.37E-10,  avg # of iterations =  1.0

     negative rho (up, down):  6.229E-05 0.000E+00

     total cpu time spent up to now is      312.2 secs

     total energy              =   -1438.15017151 Ry
     estimated scf accuracy    <          8.1E-09 Ry

     iteration # 20     ecut=    70.00 Ry     beta= 0.70
     Davidson diagonalization with overlap
     ethr =  1.26E-11,  avg # of iterations =  2.1

     negative rho (up, down):  6.221E-05 0.000E+00

     total cpu time spent up to now is      326.4 secs

     total energy              =   -1438.15017151 Ry
     estimated scf accuracy    <          1.2E-09 Ry

     iteration # 21     ecut=    70.00 Ry     beta= 0.70
     Davidson diagonalization with overlap
     ethr =  1.94E-12,  avg # of iterations =  2.2

     negative rho (up, down):  6.227E-05 0.000E+00

     total cpu time spent up to now is      341.2 secs

     total energy              =   -1438.15017151 Ry
     estimated scf accuracy    <          1.7E-10 Ry

     iteration # 22     ecut=    70.00 Ry     beta= 0.70
     Davidson diagonalization with overlap
     ethr =  2.63E-13,  avg # of iterations =  2.3

     negative rho (up, down):  6.226E-05 0.000E+00

     total cpu time spent up to now is      354.8 secs

     total energy              =   -1438.15017151 Ry
     estimated scf accuracy    <          4.2E-11 Ry

     iteration # 23     ecut=    70.00 Ry     beta= 0.70
     Davidson diagonalization with overlap
     ethr =  1.00E-13,  avg # of iterations =  2.1

     negative rho (up, down):  6.225E-05 0.000E+00

     total cpu time spent up to now is      368.1 secs

     total energy              =   -1438.15017151 Ry
     estimated scf accuracy    <          3.8E-12 Ry

     iteration # 24     ecut=    70.00 Ry     beta= 0.70
     Davidson diagonalization with overlap
     ethr =  1.00E-13,  avg # of iterations =  1.0

     negative rho (up, down):  6.225E-05 0.000E+00

     total cpu time spent up to now is      380.4 secs

     End of self-consistent calculation

          k = 0.0000 0.0000 0.0000 ( 15285 PWs)   bands (ev):

   -67.0978 -67.0654 -34.1285 -33.7247 -33.4531 -33.3355 -33.1303 -33.0955
   -18.7641 -18.7486 -18.7327 -18.7112 -18.6995 -18.6830 -18.6797 -18.6529
   -18.6439 -18.6325 -18.6196 -18.6120 -18.5981 -18.5894 -14.6844 -11.0779
    -6.7010  -4.1357  -2.8364  -2.1653  -1.1595  -0.4072  -0.0765   0.3757
     1.1082   1.5651   2.0918   3.3356   3.7585   3.9721

          k =-0.0000 0.0941 0.0000 ( 15393 PWs)   bands (ev):

   -67.0938 -67.0619 -34.1192 -33.7208 -33.4809 -33.3778 -33.1652 -33.1249
   -18.7631 -18.7490 -18.7327 -18.7112 -18.6996 -18.6810 -18.6768 -18.6527
   -18.6434 -18.6355 -18.6194 -18.6109 -18.6006 -18.5923 -14.5517 -11.0087
    -6.4928  -4.1670  -2.9193  -2.3133  -1.4146  -0.6396  -0.0194   0.5933
     0.8672   1.5992   2.1080   3.0956   3.8302   4.0372

          k =-0.0000 0.1882 0.0000 ( 15383 PWs)   bands (ev):

   -67.0827 -67.0521 -34.0989 -33.7203 -33.5834 -33.4486 -33.3001 -33.1632
   -18.7603 -18.7507 -18.7329 -18.7106 -18.6997 -18.6756 -18.6687 -18.6532
   -18.6432 -18.6406 -18.6196 -18.6105 -18.6047 -18.5990 -14.1865 -10.8186
    -5.9312  -4.3241  -3.3948  -2.5607  -1.8342  -0.9897  -0.1226   0.4807
     1.1033   1.6818   2.3051   3.0012   3.6267   4.1008

          k =-0.0000 0.2823 0.0000 ( 15389 PWs)   bands (ev):

   -67.0674 -67.0387 -34.0995 -33.8004 -33.6491 -33.5060 -33.4830 -33.2081
   -18.7569 -18.7537 -18.7344 -18.7082 -18.6997 -18.6678 -18.6615 -18.6535
   -18.6511 -18.6365 -18.6233 -18.6169 -18.6058 -18.5989 -13.6801 -10.5398
    -5.3758  -4.5678  -4.0489  -3.1068  -1.9933  -1.3250  -0.2397   0.3900
     1.4834   1.9035   2.7781   3.4199   3.6399   4.1979

          k =-0.0000 0.3764 0.0000 ( 15341 PWs)   bands (ev):

   -67.0521 -67.0253 -34.1843 -33.8734 -33.6831 -33.6237 -33.5475 -33.2518
   -18.7578 -18.7538 -18.7366 -18.7045 -18.6995 -18.6642 -18.6620 -18.6584
   -18.6426 -18.6382 -18.6286 -18.6167 -18.6102 -18.5915 -13.1683 -10.1839
    -5.8311  -4.5790  -4.2672  -3.5254  -2.2020  -1.6474   0.0582   0.3607
     1.6655   2.3853   3.3089   4.0137   4.3584   4.5505

          k =-0.0000 0.4704 0.0000 ( 15283 PWs)   bands (ev):

   -67.0408 -67.0155 -34.2991 -33.8856 -33.7971 -33.6198 -33.5763 -33.2833
   -18.7607 -18.7525 -18.7382 -18.7016 -18.6991 -18.6688 -18.6660 -18.6523
   -18.6451 -18.6359 -18.6290 -18.6149 -18.6108 -18.5857 -12.7994  -9.7748
    -6.6157  -4.6776  -4.4840  -3.6056  -2.4181  -1.5644  -0.0589   0.8891
     1.7468   2.5905   3.9137   4.6008   5.0634   5.4857

          k = 0.0000-0.5645 0.0000 ( 15258 PWs)   bands (ev):

   -67.0367 -67.0119 -34.3463 -33.8950 -33.8314 -33.6144 -33.5867 -33.2948
   -18.7618 -18.7522 -18.7387 -18.7006 -18.6989 -18.6706 -18.6674 -18.6499
   -18.6476 -18.6343 -18.6290 -18.6143 -18.6099 -18.5834 -12.6687  -9.5434
    -6.9983  -4.7003  -4.6031  -3.6753  -2.5058  -1.4247  -0.1255   1.1077
     1.8788   2.5629   4.0676   5.0119   5.4040   5.9608

          k = 0.0815 0.0470 0.0000 ( 15393 PWs)   bands (ev):

   -67.0939 -67.0619 -34.1188 -33.7198 -33.4792 -33.3774 -33.1834 -33.1075
   -18.7638 -18.7483 -18.7324 -18.7105 -18.7004 -18.6814 -18.6771 -18.6532
   -18.6426 -18.6351 -18.6209 -18.6116 -18.6005 -18.5905 -14.5653 -10.9907
    -6.5264  -4.0688  -2.8857  -2.4816  -1.3618  -0.6763   0.0388   0.6492
     0.9890   1.3767   1.9398   3.2644   3.7198   4.0622

          k = 0.0814 0.1411 0.0000 ( 15383 PWs)   bands (ev):

   -67.0865 -67.0552 -34.0999 -33.7136 -33.4968 -33.4853 -33.2735 -33.1378
   -18.7625 -18.7480 -18.7329 -18.7104 -18.7007 -18.6775 -18.6716 -18.6535
   -18.6415 -18.6403 -18.6209 -18.6099 -18.6060 -18.5939 -14.3280 -10.8375
    -6.1767  -3.9903  -3.3825  -2.7222  -1.6809  -0.9696   0.0887   0.5856
     1.0822   1.5881   1.9667   3.0923   3.8095   4.1925

          k = 0.0814 0.2352 0.0000 ( 15382 PWs)   bands (ev):

   -67.0734 -67.0436 -34.0769 -33.7359 -33.6334 -33.5244 -33.4246 -33.1890
   -18.7599 -18.7496 -18.7340 -18.7090 -18.7010 -18.6706 -18.6636 -18.6527
   -18.6490 -18.6385 -18.6222 -18.6169 -18.6026 -18.6005 -13.8874 -10.5940
    -5.5661  -4.3254  -3.9932  -2.9735  -1.9739  -1.3580  -0.2368   0.5336
     1.5883   1.8548   2.3782   3.1988   3.5854   4.3190

          k = 0.0814 0.3293 0.0000 ( 15357 PWs)   bands (ev):

   -67.0581 -67.0302 -34.0969 -33.8564 -33.6552 -33.5940 -33.5617 -33.2450
   -18.7571 -18.7530 -18.7357 -18.7062 -18.7008 -18.6638 -18.6618 -18.6573
   -18.6453 -18.6356 -18.6296 -18.6186 -18.6074 -18.5961 -13.3540 -10.2937
    -5.4748  -4.5905  -4.2485  -3.4372  -2.4084  -1.4842  -0.2099   0.3976
     1.7938   2.2314   3.1393   3.4329   4.1290   4.6882

          k = 0.0814 0.4234 0.0000 ( 15308 PWs)   bands (ev):

   -67.0447 -67.0186 -34.2097 -33.8949 -33.7452 -33.6334 -33.5920 -33.2928
   -18.7575 -18.7544 -18.7371 -18.7033 -18.7002 -18.6668 -18.6648 -18.6539
   -18.6416 -18.6372 -18.6300 -18.6164 -18.6116 -18.5897 -12.8868  -9.9413
    -6.1866  -4.7276  -4.2185  -3.6328  -2.6332  -1.7062  -0.0123   0.6423
     1.5926   2.6775   3.7376   4.1182   4.9786   5.3256

          k = 0.0814 0.5175 0.0000 ( 15278 PWs)   bands (ev):

   -67.0368 -67.0119 -34.3102 -33.8932 -33.8165 -33.6257 -33.6052 -33.3216
   -18.7606 -18.7531 -18.7377 -18.7017 -18.6997 -18.6702 -18.6668 -18.6500
   -18.6466 -18.6338 -18.6299 -18.6147 -18.6111 -18.5850 -12.6401  -9.5992
    -6.7730  -4.7785  -4.4857  -3.5648  -2.7449  -1.6031  -0.1061   1.0653
     1.5004   2.9397   4.0148   4.8038   5.2370   5.9800

          k = 0.0815-0.5175 0.0000 ( 15276 PWs)   bands (ev):

   -67.0367 -67.0119 -34.3308 -33.8814 -33.8130 -33.6171 -33.6074 -33.3251
   -18.7619 -18.7519 -18.7373 -18.7016 -18.6996 -18.6703 -18.6661 -18.6505
   -18.6473 -18.6339 -18.6305 -18.6153 -18.6100 -18.5837 -12.6661  -9.5750
    -6.7792  -4.6606  -4.5192  -3.6187  -2.6838  -1.5348  -0.1046   0.8089
     1.6829   2.9395   3.9354   4.4660   5.3341   5.9577

          k = 0.0815-0.4234 0.0000 ( 15310 PWs)   bands (ev):

   -67.0442 -67.0186 -34.2681 -33.8659 -33.7362 -33.6176 -33.5839 -33.3031
   -18.7611 -18.7517 -18.7359 -18.7035 -18.6999 -18.6666 -18.6629 -18.6553
   -18.6439 -18.6373 -18.6305 -18.6169 -18.6103 -18.5866 -12.9269  -9.9393
    -6.1352  -4.4890  -4.3574  -3.5768  -2.4353  -1.7210   0.0135   0.3695
     1.5406   2.5877   3.4568   4.0322   4.8551   5.3296

          k = 0.0815-0.3293 0.0000 ( 15357 PWs)   bands (ev):

   -67.0574 -67.0303 -34.1661 -33.8442 -33.6485 -33.5690 -33.5300 -33.2615
   -18.7589 -18.7530 -18.7334 -18.7067 -18.7001 -18.6633 -18.6599 -18.6585
   -18.6470 -18.6372 -18.6280 -18.6183 -18.6084 -18.5930 -13.3566 -10.3595
    -5.3739  -4.4882  -4.1222  -3.3811  -2.0713  -1.7161  -0.2218   0.2356
     1.3443   1.9361   3.0364   3.8566   4.2014   4.5209

          k = 0.0815-0.2352 0.0000 ( 15382 PWs)   bands (ev):

   -67.0727 -67.0437 -34.1096 -33.7706 -33.6456 -33.4631 -33.3945 -33.2120
   -18.7585 -18.7534 -18.7315 -18.7094 -18.7004 -18.6716 -18.6622 -18.6517
   -18.6492 -18.6391 -18.6227 -18.6144 -18.6038 -18.6003 -13.8525 -10.6897
    -5.4176  -4.6292  -3.5098  -2.8023  -1.8776  -1.3467  -0.4046   0.2703
     1.0443   1.6666   2.6831   3.3204   3.8375   4.1766

          k = 0.0815-0.1411 0.0000 ( 15383 PWs)   bands (ev):

   -67.0860 -67.0552 -34.1108 -33.7209 -33.5861 -33.3918 -33.2381 -33.1682
   -18.7611 -18.7514 -18.7313 -18.7102 -18.7004 -18.6782 -18.6711 -18.6506
   -18.6425 -18.6405 -18.6214 -18.6097 -18.6019 -18.5982 -14.2870 -10.9132
    -6.0646  -4.4662  -2.8179  -2.3664  -1.8285  -0.8033  -0.2354   0.3173
     0.7220   1.6711   2.3717   2.9793   3.8324   4.0922

          k = 0.0815-0.0470 0.0000 ( 15393 PWs)   bands (ev):

   -67.0937 -67.0619 -34.1213 -33.7206 -33.5091 -33.3495 -33.1632 -33.1258
   -18.7633 -18.7496 -18.7319 -18.7103 -18.7003 -18.6817 -18.6769 -18.6519
   -18.6431 -18.6352 -18.6211 -18.6118 -18.5987 -18.5925 -14.5479 -11.0186
    -6.4878  -4.2560  -2.8160  -2.1147  -1.5457  -0.4513  -0.0906   0.3900
     0.7496   1.5726   2.1433   3.1706   3.7720   4.0657

          k = 0.1629 0.0941 0.0000 ( 15385 PWs)   bands (ev):

   -67.0831 -67.0521 -34.0944 -33.7110 -33.5872 -33.4461 -33.3258 -33.1401
   -18.7634 -18.7476 -18.7313 -18.7088 -18.7027 -18.6770 -18.6697 -18.6539
   -18.6417 -18.6386 -18.6257 -18.6104 -18.6066 -18.5925 -14.2339 -10.7514
    -6.0919  -4.0780  -3.1069  -2.9597  -2.0130  -0.6942  -0.1389   0.4558
     0.9409   1.5904   1.9671   3.2357   3.6462   4.2885

          k = 0.1629 0.1882 0.0000 ( 15382 PWs)   bands (ev):

   -67.0736 -67.0436 -34.0709 -33.7247 -33.6482 -33.5183 -33.4368 -33.1784
   -18.7624 -18.7471 -18.7322 -18.7088 -18.7032 -18.6716 -18.6647 -18.6523
   -18.6475 -18.6381 -18.6264 -18.6167 -18.6041 -18.5957 -13.9218 -10.5459
    -5.7257  -4.2356  -3.6564  -3.2918  -1.9749  -1.1178  -0.4561   0.5115
     1.2592   1.9247   2.3921   3.2299   3.8875   4.2441

          k = 0.1629 0.2823 0.0000 ( 15359 PWs)   bands (ev):

   -67.0605 -67.0319 -34.0537 -33.8324 -33.6677 -33.5849 -33.5625 -33.2463
   -18.7605 -18.7489 -18.7334 -18.7076 -18.7031 -18.6651 -18.6618 -18.6547
   -18.6460 -18.6365 -18.6301 -18.6222 -18.6019 -18.5986 -13.4485 -10.2850
    -5.3477  -4.6780  -4.1221  -3.5338  -2.2225  -1.3964  -0.7298   0.5877
     1.5594   2.1199   3.1482   3.4460   4.1066   4.6389

          k = 0.1629 0.3763 0.0000 ( 15298 PWs)   bands (ev):

   -67.0471 -67.0203 -34.1016 -33.9179 -33.7021 -33.6574 -33.6121 -33.3221
   -18.7582 -18.7526 -18.7345 -18.7063 -18.7022 -18.6649 -18.6633 -18.6547
   -18.6396 -18.6367 -18.6332 -18.6210 -18.6083 -18.5931 -12.9430  -9.9954
    -5.7682  -4.7015  -4.1739  -3.6816  -2.9096  -1.5915  -0.3114   0.5079
     1.4875   2.4614   3.4926   3.9475   4.9133   5.4634

          k = 0.1629 0.4704 0.0000 ( 15277 PWs)   bands (ev):

   -67.0371 -67.0119 -34.2143 -33.9168 -33.7725 -33.6789 -33.6133 -33.3828
   -18.7572 -18.7554 -18.7349 -18.7053 -18.7011 -18.6692 -18.6654 -18.6503
   -18.6440 -18.6341 -18.6318 -18.6163 -18.6122 -18.5884 -12.5831  -9.6879
    -6.2738  -4.9216  -4.2122  -3.6749  -2.9795  -1.9328   0.0433   0.7357
     1.2638   3.0422   3.6332   4.5306   5.3090   5.9674

          k = 0.1629 0.5645 0.0000 ( 15268 PWs)   bands (ev):

   -67.0333 -67.0088 -34.2931 -33.8876 -33.7928 -33.6847 -33.6084 -33.4115
   -18.7606 -18.7531 -18.7345 -18.7049 -18.7006 -18.6712 -18.6653 -18.6491
   -18.6469 -18.6341 -18.6314 -18.6159 -18.6109 -18.5851 -12.4970  -9.4823
    -6.5233  -4.8929  -4.4246  -3.4495  -3.0723  -1.9230   0.0072   0.7860
     1.3469   3.3150   3.8738   4.6884   5.0607   5.9591

          k = 0.1629-0.4705 0.0000 ( 15279 PWs)   bands (ev):

   -67.0365 -67.0119 -34.3052 -33.8534 -33.7551 -33.6662 -33.6071 -33.4006
   -18.7625 -18.7510 -18.7334 -18.7054 -18.7008 -18.6698 -18.6621 -18.6518
   -18.6470 -18.6356 -18.6321 -18.6172 -18.6099 -18.5844 -12.6631  -9.6348
    -6.2561  -4.6248  -4.2917  -3.5719  -2.9173  -1.9264   0.0319   0.4349
     1.3288   2.7193   3.8709   4.1996   5.0205   5.8603

          k = 0.1629-0.3764 0.0000 ( 15300 PWs)   bands (ev):

   -67.0460 -67.0205 -34.2550 -33.8404 -33.6735 -33.6104 -33.5981 -33.3525
   -18.7625 -18.7505 -18.7313 -18.7069 -18.7014 -18.6648 -18.6580 -18.6572
   -18.6457 -18.6383 -18.6322 -18.6192 -18.6088 -18.5874 -12.9947 -10.0469
    -5.6186  -4.2828  -4.1147  -3.5874  -2.7156  -1.9059  -0.2589   0.3535
     1.1821   1.8840   3.4896   4.0431   4.8015   5.4098

          k = 0.1629-0.2823 0.0000 ( 15359 PWs)   bands (ev):

   -67.0593 -67.0321 -34.1766 -33.8297 -33.6459 -33.5264 -33.5083 -33.2817
   -18.7615 -18.7514 -18.7294 -18.7085 -18.7019 -18.6660 -18.6567 -18.6556
   -18.6480 -18.6396 -18.6291 -18.6196 -18.6053 -18.5937 -13.4168 -10.4451
    -5.1486  -4.5140  -3.8673  -3.1695  -2.2075  -1.7213  -0.6541   0.4698
     0.9234   1.5208   2.9920   4.0535   4.2102   4.7335

          k = 0.1629-0.1882 0.0000 ( 15380 PWs)   bands (ev):

   -67.0726 -67.0437 -34.1246 -33.7811 -33.6528 -33.4348 -33.3920 -33.2119
   -18.7609 -18.7522 -18.7290 -18.7087 -18.7023 -18.6730 -18.6622 -18.6486
   -18.6473 -18.6414 -18.6268 -18.6136 -18.6020 -18.5997 -13.8438 -10.7192
    -5.3781  -4.7824  -3.3075  -2.5433  -1.8344  -1.4137  -0.6045   0.3123
     0.7429   1.4796   2.7373   3.3000   3.9603   4.5515

          k = 0.1629-0.0941 0.0000 ( 15385 PWs)   bands (ev):

   -67.0825 -67.0522 -34.1119 -33.7273 -33.6309 -33.3877 -33.2953 -33.1640
   -18.7617 -18.7515 -18.7298 -18.7083 -18.7024 -18.6779 -18.6689 -18.6497
   -18.6419 -18.6407 -18.6261 -18.6104 -18.6020 -18.5976 -14.1738 -10.8568
    -5.9001  -4.6133  -2.7489  -2.5586  -1.7326  -0.7993  -0.4716   0.3389
     0.6037   1.4692   2.4761   2.9696   3.8704   4.4889

          k = 0.1629-0.0000 0.0000 ( 15383 PWs)   bands (ev):

   -67.0863 -67.0552 -34.1079 -33.7150 -33.5849 -33.3928 -33.2687 -33.1394
   -18.7630 -18.7495 -18.7306 -18.7083 -18.7023 -18.6793 -18.6717 -18.6526
   -18.6396 -18.6392 -18.6257 -18.6114 -18.6020 -18.5939 -14.3197 -10.8638
    -6.1615  -4.3089  -2.8645  -2.5510  -1.7848  -0.8425  -0.0076   0.4318
     0.7342   1.4205   2.0908   3.1161   3.7398   4.2557

          k = 0.2444 0.1411 0.0000 ( 15395 PWs)   bands (ev):

   -67.0682 -67.0387 -34.0730 -33.7919 -33.6703 -33.5158 -33.4924 -33.1843
   -18.7637 -18.7471 -18.7297 -18.7081 -18.7051 -18.6701 -18.6643 -18.6510
   -18.6488 -18.6371 -18.6298 -18.6170 -18.6043 -18.5941 -13.7611 -10.4157
    -5.7248  -4.4515  -3.7178  -3.2700  -2.1248  -0.7897  -0.5853   0.2097
     1.2078   1.8957   2.6075   3.5588   3.6287   4.4364

          k = 0.2443 0.2352 0.0000 ( 15357 PWs)   bands (ev):

   -67.0588 -67.0301 -34.0553 -33.8764 -33.6739 -33.6096 -33.5496 -33.2287
   -18.7634 -18.7468 -18.7305 -18.7091 -18.7047 -18.6654 -18.6633 -18.6531
   -18.6450 -18.6392 -18.6294 -18.6234 -18.5996 -18.5969 -13.4203 -10.1964
    -5.6401  -4.6623  -4.1414  -3.5922  -1.9937  -1.0976  -0.8536   0.4060
     1.4124   2.1629   3.2213   3.7739   4.1313   4.5402

          k = 0.2443 0.3293 0.0000 ( 15294 PWs)   bands (ev):

   -67.0475 -67.0203 -34.0506 -33.9598 -33.7176 -33.6570 -33.6068 -33.3129
   -18.7618 -18.7490 -18.7311 -18.7097 -18.7036 -18.6644 -18.6625 -18.6541
   -18.6432 -18.6380 -18.6287 -18.6258 -18.6028 -18.5949 -12.9707  -9.9526
    -5.7615  -4.7714  -4.3663  -3.7824  -2.5529  -1.2415  -0.7770   0.5940
     1.4418   2.3592   3.5233   3.9853   4.9296   5.2059

          k = 0.2443 0.4234 0.0000 ( 15264 PWs)   bands (ev):

   -67.0375 -67.0118 -34.1021 -33.9896 -33.7635 -33.6901 -33.6177 -33.4136
   -18.7592 -18.7530 -18.7313 -18.7099 -18.7026 -18.6671 -18.6645 -18.6505
   -18.6450 -18.6355 -18.6303 -18.6199 -18.6087 -18.5914 -12.5582  -9.7118
    -6.0105  -4.9636  -4.2405  -3.6592  -3.3641  -1.6241  -0.0498   0.5570
     1.3449   2.6818   3.4451   4.4524   5.6048   5.9084

          k = 0.2443 0.5175 0.0000 ( 15244 PWs)   bands (ev):

   -67.0315 -67.0070 -34.2032 -33.9484 -33.7704 -33.7052 -33.6143 -33.4954
   -18.7579 -18.7555 -18.7308 -18.7099 -18.7018 -18.6702 -18.6649 -18.6484
   -18.6460 -18.6364 -18.6301 -18.6149 -18.6120 -18.5884 -12.3559  -9.5007
    -6.0615  -5.1629  -4.3567  -3.7709  -3.1369  -2.0432   0.2384   0.7127
     1.3196   3.0722   3.5958   4.7306   5.2202   5.8039

          k = 0.2443 0.6116 0.0000 ( 15244 PWs)   bands (ev):

   -67.0311 -67.0070 -34.2861 -33.8674 -33.7648 -33.7033 -33.6030 -33.5189
   -18.7619 -18.7520 -18.7297 -18.7100 -18.7016 -18.6708 -18.6628 -18.6494
   -18.6470 -18.6386 -18.6299 -18.6160 -18.6100 -18.5858 -12.4231  -9.4408
    -6.0110  -5.1265  -4.3636  -3.5291  -3.0911  -2.2013   0.1623   0.5919
     1.3924   2.7505   4.0178   4.4005   5.1462   5.4801

          k = 0.2444-0.4234 0.0000 ( 15262 PWs)   bands (ev):

   -67.0363 -67.0120 -34.3172 -33.8198 -33.7208 -33.6835 -33.5972 -33.4570
   -18.7644 -18.7495 -18.7282 -18.7101 -18.7022 -18.6682 -18.6580 -18.6532
   -18.6477 -18.6410 -18.6307 -18.6174 -18.6084 -18.5851 -12.6691  -9.6787
    -5.8771  -4.6387  -3.9952  -3.7371  -2.9191  -2.2032  -0.0178   0.3696
     1.2607   2.0006   3.9490   4.2976   5.1024   5.8321

          k = 0.2444-0.3293 0.0000 ( 15296 PWs)   bands (ev):

   -67.0458 -67.0205 -34.2892 -33.8334 -33.6668 -33.6117 -33.5778 -33.3532
   -18.7652 -18.7488 -18.7270 -18.7100 -18.7028 -18.6639 -18.6580 -18.6536
   -18.6475 -18.6432 -18.6305 -18.6200 -18.6054 -18.5879 -12.9956 -10.0823
    -5.5816  -4.3283  -4.0103  -3.3229  -2.8067  -1.9704  -0.4116   0.4537
     0.9531   1.7424   3.4356   4.2739   4.9627   5.5217

          k = 0.2444-0.2352 0.0000 ( 15359 PWs)   bands (ev):

   -67.0571 -67.0304 -34.2205 -33.8419 -33.6483 -33.5612 -33.4898 -33.2615
   -18.7643 -18.7498 -18.7269 -18.7089 -18.7035 -18.6667 -18.6558 -18.6547
   -18.6457 -18.6436 -18.6293 -18.6201 -18.6018 -18.5939 -13.3459 -10.4269
    -5.3595  -4.4832  -4.1121  -2.6724  -2.2792  -1.7537  -0.4626   0.2454
     0.7763   1.6832   3.0500   4.1355   4.3957   5.0046

          k = 0.2444-0.1411 0.0000 ( 15393 PWs)   bands (ev):

   -67.0670 -67.0388 -34.1521 -33.8187 -33.6560 -33.4766 -33.4390 -33.2086
   -18.7628 -18.7512 -18.7276 -18.7073 -18.7042 -18.6717 -18.6598 -18.6503
   -18.6474 -18.6404 -18.6296 -18.6147 -18.6018 -18.5985 -13.6629 -10.6170
    -5.2990  -4.8567  -3.7392  -2.4179  -1.9030  -1.4393  -0.5132   0.2338
     0.5942   1.6770   2.8798   3.3862   4.1256   4.9142

          k = 0.2444-0.0471 0.0000 ( 15382 PWs)   bands (ev):

   -67.0730 -67.0437 -34.1132 -33.7706 -33.6607 -33.4392 -33.4129 -33.1917
   -18.7620 -18.7513 -18.7284 -18.7063 -18.7047 -18.6744 -18.6630 -18.6513
   -18.6465 -18.6379 -18.6298 -18.6110 -18.6047 -18.5979 -13.8743 -10.6567
    -5.5002  -4.7757  -3.3407  -2.6474  -1.9247  -1.2165  -0.5513   0.3713
     0.8015   1.5721   2.5234   3.1965   4.0435   4.6616

          k = 0.2444 0.0470 0.0000 ( 15378 PWs)   bands (ev):

   -67.0734 -67.0436 -34.0922 -33.7506 -33.6635 -33.4642 -33.4281 -33.1810
   -18.7628 -18.7493 -18.7291 -18.7069 -18.7048 -18.6738 -18.6643 -18.6530
   -18.6464 -18.6366 -18.6297 -18.6115 -18.6067 -18.5951 -13.9174 -10.5790
    -5.7018  -4.4826  -3.3110  -3.0579  -2.0529  -0.9959  -0.5129   0.4285
     0.9663   1.5876   2.4251   3.2408   3.8019   4.3484

          k = 0.3258 0.1882 0.0000 ( 15347 PWs)   bands (ev):

   -67.0533 -67.0252 -34.1067 -33.9185 -33.7134 -33.6389 -33.5323 -33.2280
   -18.7650 -18.7472 -18.7282 -18.7099 -18.7054 -18.6662 -18.6624 -18.6533
   -18.6468 -18.6405 -18.6280 -18.6203 -18.5997 -18.5951 -13.2534 -10.0510
    -5.8615  -4.8895  -4.4094  -3.4853  -1.9179  -1.1422  -0.4379   0.2536
     1.3347   2.3444   3.4858   3.9095   4.3444   4.7420

          k = 0.3258 0.2822 0.0000 ( 15302 PWs)   bands (ev):

   -67.0458 -67.0185 -34.1234 -33.9576 -33.7725 -33.6435 -33.5748 -33.2729
   -18.7650 -18.7475 -18.7286 -18.7115 -18.7045 -18.6667 -18.6612 -18.6529
   -18.6487 -18.6371 -18.6285 -18.6217 -18.5981 -18.5954 -12.9487  -9.8568
    -6.0748  -5.0243  -4.5721  -3.6982  -2.0877  -1.2749  -0.5089   0.5421
     1.5738   2.4386   3.9233   4.1442   4.8940   5.2388

          k = 0.3258 0.3763 0.0000 ( 15276 PWs)   bands (ev):

   -67.0379 -67.0118 -34.1286 -33.9874 -33.7999 -33.6699 -33.6113 -33.3652
   -18.7630 -18.7499 -18.7284 -18.7129 -18.7038 -18.6660 -18.6634 -18.6512
   -18.6503 -18.6355 -18.6272 -18.6204 -18.6030 -18.5932 -12.5954  -9.6689
    -6.2232  -5.0157  -4.5147  -3.9147  -2.7381  -1.3677  -0.3570   0.7034
     1.7503   2.6036   3.5634   4.4375   5.4949   6.0202

          k = 0.3258 0.4704 0.0000 ( 15246 PWs)   bands (ev):

   -67.0319 -67.0069 -34.1449 -34.0003 -33.7893 -33.6990 -33.6144 -33.4812
   -18.7599 -18.7537 -18.7274 -18.7139 -18.7032 -18.6674 -18.6648 -18.6509
   -18.6486 -18.6353 -18.6279 -18.6158 -18.6084 -18.5917 -12.3359  -9.5220
    -6.1608  -4.9644  -4.3657  -4.0401  -3.3788  -1.5901   0.1828   0.5973
     1.7466   2.8082   3.4035   4.7749   5.2609   6.1121

          k = 0.3258 0.5645 0.0000 ( 15284 PWs)   bands (ev):

   -67.0293 -67.0052 -34.2393 -33.9201 -33.7810 -33.6572 -33.6289 -33.5701
   -18.7604 -18.7538 -18.7262 -18.7142 -18.7028 -18.6694 -18.6639 -18.6498
   -18.6484 -18.6376 -18.6281 -18.6127 -18.6110 -18.5895 -12.2921  -9.4283
    -5.7967  -5.2310  -4.5553  -3.8412  -3.2152  -2.0015   0.3708   0.5930
     1.6495   2.8130   3.6491   4.4284   5.0746   5.6476

          k = 0.3258 0.6586 0.0000 ( 15244 PWs)   bands (ev):

   -67.0308 -67.0071 -34.3338 -33.8020 -33.7883 -33.7013 -33.5909 -33.5292
   -18.7645 -18.7502 -18.7252 -18.7138 -18.7030 -18.6687 -18.6613 -18.6508
   -18.6493 -18.6408 -18.6284 -18.6135 -18.6087 -18.5868 -12.4461  -9.4534
    -5.9330  -5.0716  -4.2868  -3.6123  -3.0608  -2.2110   0.1123   0.5864
     1.2911   2.5736   3.9539   4.5835   5.1719   5.6862

          k = 0.3258-0.3764 0.0000 ( 15277 PWs)   bands (ev):

   -67.0361 -67.0120 -34.3773 -33.8257 -33.7344 -33.6576 -33.5929 -33.4038
   -18.7673 -18.7480 -18.7251 -18.7122 -18.7035 -18.6658 -18.6577 -18.6538
   -18.6507 -18.6431 -18.6284 -18.6155 -18.6053 -18.5856 -12.6868  -9.6876
    -6.1454  -4.5903  -4.0424  -3.6019  -2.7469  -2.1343  -0.1716   0.4441
     1.0696   2.4985   3.8231   4.4681   5.5450   5.8718

          k = 0.3258-0.2823 0.0000 ( 15304 PWs)   bands (ev):

   -67.0436 -67.0188 -34.3568 -33.8444 -33.7208 -33.6167 -33.5385 -33.3036
   -18.7679 -18.7476 -18.7258 -18.7101 -18.7040 -18.6635 -18.6568 -18.6552
   -18.6509 -18.6436 -18.6272 -18.6185 -18.6019 -18.5881 -12.9359 -10.0296
    -6.0096  -4.6135  -4.0913  -3.0979  -2.4430  -1.8954  -0.2442   0.2161
     0.9953   2.3930   3.5193   4.5319   5.2167   5.6034

          k = 0.3258-0.1882 0.0000 ( 15343 PWs)   bands (ev):

   -67.0515 -67.0255 -34.2856 -33.8530 -33.6737 -33.6162 -33.4897 -33.2522
   -18.7664 -18.7489 -18.7265 -18.7082 -18.7045 -18.6651 -18.6567 -18.6549
   -18.6497 -18.6434 -18.6252 -18.6197 -18.6002 -18.5939 -13.1649 -10.2895
    -5.7210  -4.5619  -4.2834  -2.6548  -2.3015  -1.7661  -0.1746   0.1745
     0.6585   2.2916   3.3538   4.3536   4.6605   5.2015

          k = 0.3258-0.0941 0.0000 ( 15357 PWs)   bands (ev):

   -67.0575 -67.0303 -34.1991 -33.8449 -33.6557 -33.5746 -33.4927 -33.2481
   -18.7636 -18.7509 -18.7269 -18.7072 -18.7049 -18.6673 -18.6571 -18.6539
   -18.6494 -18.6434 -18.6248 -18.6165 -18.6016 -18.5992 -13.3505 -10.3867
    -5.4048  -4.5943  -4.2115  -2.6915  -2.3327  -1.6652  -0.4545   0.3370
     0.6963   2.1025   3.0988   3.8526   4.4648   5.1225

          k = 0.3258-0.0000 0.0000 ( 15363 PWs)   bands (ev):

   -67.0601 -67.0320 -34.1363 -33.8327 -33.6631 -33.5521 -33.5161 -33.2514
   -18.7622 -18.7514 -18.7272 -18.7074 -18.7052 -18.6677 -18.6591 -18.6533
   -18.6498 -18.6429 -18.6249 -18.6147 -18.6044 -18.5991 -13.4522 -10.3458
    -5.2777  -4.7561  -3.9607  -3.2476  -2.0944  -1.3535  -0.8847   0.5345
     0.9315   1.8392   3.0194   3.5927   4.3314   4.7241

          k = 0.3258 0.0941 0.0000 ( 15359 PWs)   bands (ev):

   -67.0585 -67.0302 -34.1074 -33.8621 -33.6733 -33.5978 -33.5234 -33.2315
   -18.7636 -18.7491 -18.7276 -18.7084 -18.7056 -18.6660 -18.6628 -18.6529
   -18.6482 -18.6423 -18.6258 -18.6174 -18.6034 -18.5962 -13.4274 -10.2213
    -5.5795  -4.6842  -4.1423  -3.4956  -1.7347  -1.2618  -0.8568   0.4430
     1.1740   2.0175   3.0233   3.5483   4.3637   4.4725

          k = 0.4073 0.2352 0.0000 ( 15279 PWs)   bands (ev):

   -67.0424 -67.0153 -34.2031 -33.9533 -33.8246 -33.6335 -33.5560 -33.2597
   -18.7665 -18.7479 -18.7275 -18.7118 -18.7049 -18.6686 -18.6600 -18.6537
   -18.6516 -18.6361 -18.6285 -18.6164 -18.5970 -18.5947 -12.8488  -9.7348
    -6.3399  -5.2148  -4.7872  -3.6603  -1.9445  -1.2488  -0.3710   0.7371
     1.4582   2.8494   4.1015   4.4926   5.0377   5.6108

          k = 0.4073 0.3293 0.0000 ( 15278 PWs)   bands (ev):

   -67.0382 -67.0117 -34.2141 -33.9643 -33.8449 -33.6348 -33.5870 -33.2988
   -18.7660 -18.7485 -18.7274 -18.7130 -18.7045 -18.6684 -18.6609 -18.6550
   -18.6501 -18.6360 -18.6271 -18.6163 -18.5983 -18.5938 -12.6601  -9.6162
    -6.4943  -5.1702  -4.8562  -3.8140  -2.1450  -1.2917  -0.5021   0.9454
     1.8050   2.8354   3.9179   4.7494   5.4119   6.1676

          k = 0.4072 0.4234 0.0000 ( 15268 PWs)   bands (ev):

   -67.0344 -67.0087 -34.2001 -33.9610 -33.8286 -33.6717 -33.6086 -33.3865
   -18.7634 -18.7510 -18.7263 -18.7145 -18.7041 -18.6661 -18.6629 -18.6560
   -18.6497 -18.6355 -18.6255 -18.6159 -18.6026 -18.5939 -12.4657  -9.5384
    -6.4098  -5.0052  -4.6769  -4.0106  -2.7636  -1.3677  -0.3446   0.9422
     1.9467   2.8934   3.4169   4.6793   5.6126   6.3646

          k = 0.4072 0.5175 0.0000 ( 15244 PWs)   bands (ev):

   -67.0318 -67.0069 -34.2208 -33.9242 -33.7921 -33.6994 -33.6059 -33.4880
   -18.7609 -18.7536 -18.7248 -18.7153 -18.7039 -18.6661 -18.6634 -18.6547
   -18.6499 -18.6362 -18.6248 -18.6144 -18.6069 -18.5935 -12.3634  -9.5133
    -6.0961  -4.8998  -4.3829  -4.0775  -3.3743  -1.5744   0.1253   0.6114
     1.7696   2.7948   3.2936   4.4719   5.5005   6.1127

          k = 0.4072 0.6115 0.0000 ( 15248 PWs)   bands (ev):

   -67.0311 -67.0070 -34.3106 -33.8321 -33.7873 -33.7040 -33.5948 -33.5113
   -18.7633 -18.7518 -18.7241 -18.7148 -18.7038 -18.6668 -18.6625 -18.6529
   -18.6506 -18.6390 -18.6252 -18.6119 -18.6085 -18.5911 -12.4067  -9.5039
    -5.9183  -5.0622  -4.2827  -3.8314  -3.1806  -2.0123   0.1824   0.6337
     1.1852   2.9359   3.5849   4.5914   5.3295   6.1028

          k = 0.4072 0.7056 0.0000 ( 15272 PWs)   bands (ev):

   -67.0327 -67.0089 -34.4007 -33.8333 -33.7603 -33.6796 -33.5916 -33.4179
   -18.7674 -18.7487 -18.7247 -18.7127 -18.7041 -18.6657 -18.6613 -18.6534
   -18.6518 -18.6416 -18.6259 -18.6119 -18.6054 -18.5875 -12.5504  -9.5267
    -6.3708  -4.7970  -4.1622  -3.5821  -2.8849  -2.0635  -0.1262   0.5372
     1.1254   3.2002   3.7490   4.9711   5.4569   6.1874

          k = 0.4073-0.3293 0.0000 ( 15276 PWs)   bands (ev):

   -67.0359 -67.0121 -34.4412 -33.8555 -33.7806 -33.6144 -33.5636 -33.3266
   -18.7697 -18.7470 -18.7258 -18.7102 -18.7045 -18.6640 -18.6599 -18.6546
   -18.6532 -18.6425 -18.6258 -18.6135 -18.6018 -18.5858 -12.7078  -9.6633
    -6.6159  -4.7063  -4.1587  -3.4750  -2.4031  -1.8131  -0.4056   0.4192
     1.3534   2.9767   4.0019   4.9545   5.6592   6.1848

          k = 0.4073-0.2352 0.0000 ( 15283 PWs)   bands (ev):

   -67.0401 -67.0157 -34.4166 -33.8566 -33.7729 -33.6135 -33.5257 -33.2838
   -18.7695 -18.7472 -18.7265 -18.7088 -18.7048 -18.6631 -18.6589 -18.6551
   -18.6542 -18.6422 -18.6248 -18.6153 -18.6002 -18.5882 -12.8290  -9.8812
    -6.4400  -4.7929  -4.1420  -3.2575  -2.0970  -1.8513  -0.4626   0.5049
     1.1286   2.7528   4.1264   5.1201   5.2901   5.6728

          k = 0.4073-0.1412 0.0000 ( 15302 PWs)   bands (ev):

   -67.0439 -67.0187 -34.3393 -33.8508 -33.7292 -33.6199 -33.5402 -33.2958
   -18.7669 -18.7491 -18.7264 -18.7087 -18.7047 -18.6626 -18.6580 -18.6560
   -18.6539 -18.6419 -18.6226 -18.6169 -18.6012 -18.5937 -12.9127 -10.0373
    -6.0011  -4.7518  -4.0994  -3.1358  -2.3357  -2.0937  -0.2467   0.4869
     0.7439   2.6860   3.8836   4.5302   5.0646   5.5941

          k = 0.4073-0.0471 0.0000 ( 15300 PWs)   bands (ev):

   -67.0465 -67.0205 -34.2456 -33.8487 -33.6938 -33.6233 -33.5780 -33.3294
   -18.7634 -18.7516 -18.7261 -18.7096 -18.7047 -18.6615 -18.6586 -18.6561
   -18.6545 -18.6415 -18.6199 -18.6184 -18.6027 -18.5987 -12.9717 -10.0607
    -5.5949  -4.5830  -4.2545  -3.3561  -2.7761  -1.7456  -0.4424   0.6051
     0.7004   2.4023   3.4838   4.1028   4.9424   5.6744

          k = 0.4073 0.0470 0.0000 ( 15300 PWs)   bands (ev):

   -67.0471 -67.0204 -34.1832 -33.8743 -33.7133 -33.6308 -33.5873 -33.3190
   -18.7626 -18.7516 -18.7260 -18.7104 -18.7051 -18.6611 -18.6596 -18.6575
   -18.6539 -18.6397 -18.6225 -18.6174 -18.6015 -18.5997 -12.9985  -9.9821
    -5.5936  -4.7062  -4.4877  -3.6708  -2.3843  -1.3206  -0.8026   0.5943
     1.1517   2.3139   3.1513   3.9664   4.8892   5.5765

          k = 0.4073 0.1411 0.0000 ( 15304 PWs)   bands (ev):

   -67.0456 -67.0185 -34.1770 -33.9225 -33.7700 -33.6358 -33.5656 -33.2751
   -18.7649 -18.7492 -18.7267 -18.7110 -18.7053 -18.6657 -18.6599 -18.6548
   -18.6529 -18.6374 -18.6268 -18.6165 -18.5991 -18.5967 -12.9654  -9.8622
    -5.9877  -5.0384  -4.5967  -3.7301  -1.7674  -1.3783  -0.7085   0.6996
     1.3934   2.5503   3.5249   3.9400   4.9576   5.5278

          k =-0.4887-0.2822 0.0000 ( 15258 PWs)   bands (ev):

   -67.0383 -67.0117 -34.2471 -33.9660 -33.8588 -33.6282 -33.5643 -33.2712
   -18.7671 -18.7482 -18.7273 -18.7125 -18.7047 -18.6697 -18.6599 -18.6562
   -18.6499 -18.6361 -18.6272 -18.6143 -18.5967 -18.5937 -12.6914  -9.5953
    -6.6015  -5.2335  -5.0013  -3.7274  -2.0025  -1.2524  -0.3869   0.8762
     1.7886   2.9560   4.1392   5.0922   5.4148   6.0744

          k =-0.4887-0.1881 0.0000 ( 15278 PWs)   bands (ev):

   -67.0382 -67.0118 -34.2319 -33.9529 -33.8424 -33.6324 -33.5850 -33.2997
   -18.7659 -18.7491 -18.7268 -18.7128 -18.7047 -18.6679 -18.6603 -18.6566
   -18.6509 -18.6358 -18.6267 -18.6146 -18.5981 -18.5948 -12.6699  -9.6125
    -6.4670  -5.1625  -4.8731  -3.8398  -2.0415  -1.3037  -0.5845   1.0174
     1.7221   2.9334   3.8212   4.4998   5.6745   6.0072

          k =-0.4887-0.0941 0.0000 ( 15276 PWs)   bands (ev):

   -67.0377 -67.0118 -34.2158 -33.9168 -33.7948 -33.6620 -33.6051 -33.3696
   -18.7632 -18.7516 -18.7256 -18.7133 -18.7047 -18.6638 -18.6610 -18.6574
   -18.6528 -18.6361 -18.6244 -18.6154 -18.6017 -18.5966 -12.6275  -9.6643
    -6.1183  -4.9866  -4.5800  -3.9106  -2.6471  -1.3540  -0.4705   0.7999
     1.6686   2.6944   3.2158   4.2499   5.5770   6.3343

          k =-0.4887 0.0000 0.0000 ( 15266 PWs)   bands (ev):

   -67.0371 -67.0119 -34.2583 -33.8580 -33.7577 -33.6805 -33.6016 -33.4244
   -18.7623 -18.7527 -18.7249 -18.7130 -18.7044 -18.6632 -18.6601 -18.6563
   -18.6540 -18.6382 -18.6219 -18.6157 -18.6048 -18.5962 -12.6094  -9.7242
    -5.8247  -4.8949  -4.2108  -3.7249  -3.2593  -1.6531  -0.1155   0.4842
     1.1758   2.7609   3.1861   4.3179   5.5586   6.4014

          k =-0.4887 0.0941 0.0000 ( 15276 PWs)   bands (ev):

   -67.0365 -67.0120 -34.3510 -33.8393 -33.7497 -33.6604 -33.5935 -33.3907
   -18.7657 -18.7501 -18.7253 -18.7115 -18.7045 -18.6636 -18.6605 -18.6548
   -18.6538 -18.6405 -18.6230 -18.6136 -18.6045 -18.5927 -12.6392  -9.7349
    -6.0789  -4.8586  -3.9435  -3.6970  -2.8463  -2.0845  -0.0997   0.5258
     0.8969   3.0180   3.6647   4.5726   5.6500   6.2047

          k =-0.4887 0.1882 0.0000 ( 15276 PWs)   bands (ev):

   -67.0361 -67.0120 -34.4348 -33.8589 -33.7825 -33.6157 -33.5640 -33.3241
   -18.7693 -18.7476 -18.7262 -18.7097 -18.7047 -18.6635 -18.6609 -18.6552
   -18.6535 -18.6418 -18.6243 -18.6127 -18.6016 -18.5880 -12.6918  -9.6829
    -6.5922  -4.8038  -4.1190  -3.4564  -2.3958  -1.9220  -0.3759   0.5046
     1.2379   3.0331   4.2335   5.0894   5.6083   6.1331

          k =-0.4887-0.8468 0.0000 ( 15262 PWs)   bands (ev):

   -67.0359 -67.0121 -34.4673 -33.8732 -33.7935 -33.6091 -33.5383 -33.2953
   -18.7707 -18.7467 -18.7266 -18.7089 -18.7049 -18.6634 -18.6610 -18.6558
   -18.6530 -18.6423 -18.6246 -18.6126 -18.6002 -18.5859 -12.7173  -9.6441
    -6.8212  -4.7819  -4.2035  -3.4867  -2.1052  -1.6971  -0.6123   0.5544
     1.5082   2.8286   4.5969   5.3277   5.5112   6.1579

     the Fermi energy is     0.7496 ev

!    total energy              =   -1438.15017151 Ry
     estimated scf accuracy    <          6.8E-13 Ry
     smearing contrib. (-TS)   =       0.00000223 Ry
     internal energy E=F+TS    =   -1438.15017375 Ry

     The total energy is F=E-TS. E is the sum of the following terms:
     one-electron contribution =  -12048.38760827 Ry
     hartree contribution      =    6057.15780940 Ry
     xc contribution           =    -144.19578380 Ry
     ewald contribution        =    4742.17674160 Ry
     one-center paw contrib.   =     -44.90133268 Ry

     convergence has been achieved in  24 iterations

     negative rho (up, down):  6.225E-05 0.000E+00

     Forces acting on atoms (cartesian axes, Ry/au):

     atom    1 type  2   force =    -0.11752489    0.08649563   -0.14039235
     atom    2 type  1   force =     0.05433953    0.02920773    0.03954128
     atom    3 type  1   force =    -0.14852856   -0.03861091   -0.16017515
     atom    4 type  3   force =     0.21171393   -0.07709244    0.26102621

     Total force =     0.416507     Total SCF correction =     0.000005


     Computing stress (Cartesian axis) and pressure


     negative rho (up, down):  6.225E-05 0.000E+00
          total   stress  (Ry/bohr**3)                   (kbar)     P=       69.50
   0.00041349  -0.00024236   0.00039512           60.83      -35.65       58.12
  -0.00024236   0.00043080  -0.00039766          -35.65       63.37      -58.50
   0.00039512  -0.00039766   0.00057307           58.12      -58.50       84.30


     BFGS Geometry Optimization
     Energy error            =      0.0E+00 Ry
     Gradient error          =      2.6E-01 Ry/Bohr
     Cell gradient error     =      6.3E+01 kbar

     number of scf cycles    =   1
     number of bfgs steps    =   0

     enthalpy           new  =   -1438.1501715134 Ry

     new trust radius        =       0.3448198319 bohr
     new conv_thr            =            1.0E-12 Ry

     new unit-cell volume =   1581.85574 a.u.^3 (   234.40684 Ang^3 )
     density =      2.87590 g/cm^3

CELL_PARAMETERS (alat=  5.55000000)
   1.033636577  -0.006127491   0.000000000
  -0.522123034   0.898295159   0.000000000
   0.000000000   0.000000000  10.000000000

ATOMIC_POSITIONS (crystal)
C             0.0000000000        0.0000000000        0.0000000000    0   0   0
Ta            0.5309853692        0.3053334758       -0.0492875445
Ta           -0.0298925669        0.5948406341        0.0471139613
S             0.2886670933        0.2856604565        0.1047031750



     Writing output data file /scratch/as3359/Ta2CO_loop/Ta.save/
     NEW-OLD atomic charge density approx. for the potential

     negative rho (up, down):  7.008E-05 0.000E+00
     extrapolated charge   65.32749, renormalised to   64.00000

     total cpu time spent up to now is      437.8 secs

     Self-consistent Calculation

     iteration #  1     ecut=    70.00 Ry     beta= 0.70
     Davidson diagonalization with overlap
     c_bands:  5 eigenvalues not converged
     c_bands:  2 eigenvalues not converged
     c_bands:  3 eigenvalues not converged
     c_bands:  1 eigenvalues not converged
     c_bands:  4 eigenvalues not converged
     c_bands:  3 eigenvalues not converged
     c_bands:  4 eigenvalues not converged
     c_bands:  2 eigenvalues not converged
     c_bands:  2 eigenvalues not converged
     c_bands:  1 eigenvalues not converged
     c_bands:  3 eigenvalues not converged
     c_bands:  2 eigenvalues not converged
     c_bands:  4 eigenvalues not converged
     c_bands:  5 eigenvalues not converged
     c_bands:  1 eigenvalues not converged
     c_bands:  3 eigenvalues not converged
     c_bands:  4 eigenvalues not converged
     c_bands:  1 eigenvalues not converged
     c_bands:  1 eigenvalues not converged
     c_bands:  1 eigenvalues not converged
     c_bands:  4 eigenvalues not converged
     c_bands:  2 eigenvalues not converged
     c_bands:  3 eigenvalues not converged
     c_bands:  1 eigenvalues not converged
     c_bands:  5 eigenvalues not converged
     c_bands:  5 eigenvalues not converged
     c_bands:  4 eigenvalues not converged
     c_bands:  2 eigenvalues not converged
     c_bands:  3 eigenvalues not converged
     c_bands:  1 eigenvalues not converged
     c_bands:  2 eigenvalues not converged
     c_bands:  3 eigenvalues not converged
     c_bands:  2 eigenvalues not converged
     c_bands:  2 eigenvalues not converged
     c_bands:  2 eigenvalues not converged
     c_bands:  3 eigenvalues not converged
     c_bands:  4 eigenvalues not converged
     c_bands:  4 eigenvalues not converged
     c_bands:  3 eigenvalues not converged
     c_bands:  3 eigenvalues not converged
     c_bands:  2 eigenvalues not converged
     c_bands:  2 eigenvalues not converged
     c_bands:  2 eigenvalues not converged
     c_bands:  2 eigenvalues not converged
     c_bands:  1 eigenvalues not converged
     c_bands:  3 eigenvalues not converged
     c_bands:  4 eigenvalues not converged
     c_bands:  2 eigenvalues not converged
     c_bands:  2 eigenvalues not converged
     c_bands:  3 eigenvalues not converged
     c_bands:  1 eigenvalues not converged
     c_bands:  2 eigenvalues not converged
     c_bands:  2 eigenvalues not converged
     c_bands:  2 eigenvalues not converged
     c_bands:  2 eigenvalues not converged
     c_bands:  2 eigenvalues not converged
     c_bands:  3 eigenvalues not converged
     c_bands:  2 eigenvalues not converged
     c_bands:  2 eigenvalues not converged
     c_bands:  1 eigenvalues not converged
     c_bands:  2 eigenvalues not converged
     c_bands:  1 eigenvalues not converged
     c_bands:  1 eigenvalues not converged
     c_bands:  1 eigenvalues not converged
     c_bands:  2 eigenvalues not converged
     ethr =  1.00E-06,  avg # of iterations = 60.5

     total cpu time spent up to now is      649.7 secs

     total energy              =   11503.59786554 Ry
     estimated scf accuracy    <   14107.19532809 Ry

     iteration #  2     ecut=    70.00 Ry     beta= 0.70
     Davidson diagonalization with overlap
     c_bands:  1 eigenvalues not converged
     c_bands:  2 eigenvalues not converged
     c_bands:  1 eigenvalues not converged
     c_bands:  1 eigenvalues not converged
     c_bands:  1 eigenvalues not converged
     ethr =  1.00E-02,  avg # of iterations = 54.3

     negative rho (up, down):  1.173E-04 0.000E+00

     total cpu time spent up to now is      801.7 secs

     total energy              =   -3879.58231215 Ry
     estimated scf accuracy    <    7986.24158571 Ry

     iteration #  3     ecut=    70.00 Ry     beta= 0.70
     Davidson diagonalization with overlap
     c_bands:  2 eigenvalues not converged
     c_bands:  5 eigenvalues not converged
     c_bands:  5 eigenvalues not converged
     c_bands:  5 eigenvalues not converged
     c_bands:  5 eigenvalues not converged
     c_bands:  5 eigenvalues not converged
     c_bands:  2 eigenvalues not converged
     c_bands:  1 eigenvalues not converged
     c_bands:  1 eigenvalues not converged
     c_bands:  1 eigenvalues not converged
     c_bands:  5 eigenvalues not converged
     c_bands:  2 eigenvalues not converged
     c_bands:  5 eigenvalues not converged
     c_bands:  5 eigenvalues not converged
     c_bands:  5 eigenvalues not converged
     c_bands:  5 eigenvalues not converged
     c_bands:  5 eigenvalues not converged
     c_bands:  1 eigenvalues not converged
     c_bands:  5 eigenvalues not converged
     c_bands:  2 eigenvalues not converged
     c_bands:  4 eigenvalues not converged
     c_bands:  2 eigenvalues not converged
     c_bands:  5 eigenvalues not converged
     c_bands:  5 eigenvalues not converged
     c_bands:  3 eigenvalues not converged
     c_bands:  5 eigenvalues not converged
     c_bands:  5 eigenvalues not converged
     c_bands:  2 eigenvalues not converged
     c_bands:  1 eigenvalues not converged
     c_bands:  5 eigenvalues not converged
     c_bands:  4 eigenvalues not converged
     c_bands:  5 eigenvalues not converged
     c_bands:  3 eigenvalues not converged
     c_bands:  5 eigenvalues not converged
     c_bands:  1 eigenvalues not converged
     c_bands:  1 eigenvalues not converged
     c_bands:  1 eigenvalues not converged
     c_bands:  3 eigenvalues not converged
     c_bands:  2 eigenvalues not converged
     c_bands:  1 eigenvalues not converged
     c_bands:  1 eigenvalues not converged
     c_bands:  2 eigenvalues not converged
     c_bands:  3 eigenvalues not converged
     c_bands:  3 eigenvalues not converged
     ethr =  1.00E-02,  avg # of iterations = 31.9

     negative rho (up, down):  6.816E-05 0.000E+00

     total cpu time spent up to now is      867.0 secs

     WARNING: integrated charge=    64.00006197, expected=    64.00000000

     total energy              =   -3245.05716428 Ry
     estimated scf accuracy    <    2805.97753889 Ry

     iteration #  4     ecut=    70.00 Ry     beta= 0.70
     Davidson diagonalization with overlap
     c_bands:  1 eigenvalues not converged
     c_bands:  1 eigenvalues not converged
     c_bands:  2 eigenvalues not converged
     c_bands:  4 eigenvalues not converged
     c_bands:  5 eigenvalues not converged
     c_bands:  2 eigenvalues not converged
     c_bands:  1 eigenvalues not converged
     c_bands:  1 eigenvalues not converged
     c_bands:  3 eigenvalues not converged
     c_bands:  1 eigenvalues not converged
     c_bands:  2 eigenvalues not converged
     c_bands:  5 eigenvalues not converged
     c_bands:  1 eigenvalues not converged
     c_bands:  1 eigenvalues not converged
     c_bands:  1 eigenvalues not converged
     c_bands:  1 eigenvalues not converged
     c_bands:  3 eigenvalues not converged
     c_bands:  1 eigenvalues not converged
     c_bands:  4 eigenvalues not converged
     c_bands:  4 eigenvalues not converged
     c_bands:  1 eigenvalues not converged
     c_bands:  1 eigenvalues not converged
     c_bands:  4 eigenvalues not converged
     c_bands:  1 eigenvalues not converged
     c_bands:  2 eigenvalues not converged
     c_bands:  1 eigenvalues not converged
     c_bands:  3 eigenvalues not converged
     c_bands:  4 eigenvalues not converged
     c_bands:  4 eigenvalues not converged
     c_bands:  1 eigenvalues not converged
     c_bands:  1 eigenvalues not converged
     c_bands:  5 eigenvalues not converged
     c_bands:  4 eigenvalues not converged
     c_bands:  4 eigenvalues not converged
     c_bands:  3 eigenvalues not converged
     c_bands:  3 eigenvalues not converged
     c_bands:  3 eigenvalues not converged
     c_bands:  3 eigenvalues not converged
     c_bands:  1 eigenvalues not converged
     ethr =  1.00E-02,  avg # of iterations = 18.8

     negative rho (up, down):  6.201E-05 0.000E+00

     total cpu time spent up to now is      909.8 secs

     WARNING: integrated charge=    64.00005362, expected=    64.00000000

     total energy              =   -2388.76747121 Ry
     estimated scf accuracy    <    2025.07831959 Ry

     iteration #  5     ecut=    70.00 Ry     beta= 0.70
     Davidson diagonalization with overlap
     ethr =  1.00E-02,  avg # of iterations = 11.1

     negative rho (up, down):  8.591E-05 0.000E+00

     total cpu time spent up to now is      931.5 secs

     WARNING: integrated charge=    64.00003060, expected=    64.00000000

     total energy              =   -1830.28246555 Ry
     estimated scf accuracy    <    1063.48203967 Ry

     iteration #  6     ecut=    70.00 Ry     beta= 0.70
     Davidson diagonalization with overlap
     c_bands:  1 eigenvalues not converged
     c_bands:  1 eigenvalues not converged
     c_bands:  1 eigenvalues not converged
     c_bands:  1 eigenvalues not converged
     c_bands:  1 eigenvalues not converged
     c_bands:  3 eigenvalues not converged
     c_bands:  1 eigenvalues not converged
     c_bands:  1 eigenvalues not converged
     c_bands:  1 eigenvalues not converged
     c_bands:  1 eigenvalues not converged
     c_bands:  1 eigenvalues not converged
     c_bands:  3 eigenvalues not converged
     c_bands:  1 eigenvalues not converged
     c_bands:  1 eigenvalues not converged
     c_bands:  2 eigenvalues not converged
     c_bands:  1 eigenvalues not converged
     c_bands:  1 eigenvalues not converged
     c_bands:  1 eigenvalues not converged
     c_bands:  1 eigenvalues not converged
     c_bands:  1 eigenvalues not converged
     c_bands:  2 eigenvalues not converged
     c_bands:  2 eigenvalues not converged
     c_bands:  1 eigenvalues not converged
     c_bands:  2 eigenvalues not converged
     c_bands:  1 eigenvalues not converged
     c_bands:  1 eigenvalues not converged
     c_bands:  1 eigenvalues not converged
     c_bands:  1 eigenvalues not converged
     ethr =  1.00E-02,  avg # of iterations = 18.3

     negative rho (up, down):  9.521E-07 0.000E+00

     total cpu time spent up to now is      970.8 secs

     WARNING: integrated charge=    64.00002021, expected=    64.00000000

     total energy              =   -1908.19206534 Ry
     estimated scf accuracy    <     478.39310377 Ry

     iteration #  7     ecut=    70.00 Ry     beta= 0.70
     Davidson diagonalization with overlap
     ethr =  1.00E-02,  avg # of iterations =  2.8

     total cpu time spent up to now is      984.5 secs

     WARNING: integrated charge=    64.00001721, expected=    64.00000000

     total energy              =   -1899.73431217 Ry
     estimated scf accuracy    <     515.67788574 Ry

     iteration #  8     ecut=    70.00 Ry     beta= 0.70
     Davidson diagonalization with overlap
     ethr =  1.00E-02,  avg # of iterations =  6.8

     negative rho (up, down):  2.393E-05 0.000E+00

     total cpu time spent up to now is     1001.7 secs

     WARNING: integrated charge=    63.99999121, expected=    64.00000000

     total energy              =   -1645.61010193 Ry
     estimated scf accuracy    <     533.67005163 Ry

     iteration #  9     ecut=    70.00 Ry     beta= 0.70
     Davidson diagonalization with overlap
     ethr =  1.00E-02,  avg # of iterations = 11.7

     negative rho (up, down):  5.433E-08 0.000E+00

     total cpu time spent up to now is     1021.9 secs

     WARNING: integrated charge=    63.99999262, expected=    64.00000000

     total energy              =   -1623.38861796 Ry
     estimated scf accuracy    <     232.41956839 Ry

     iteration # 10     ecut=    70.00 Ry     beta= 0.70
     Davidson diagonalization with overlap
     ethr =  1.00E-02,  avg # of iterations =  1.2

     negative rho (up, down):  2.293E-03 0.000E+00

     total cpu time spent up to now is     1034.4 secs

     WARNING: integrated charge=    63.99997050, expected=    64.00000000

     total energy              =   -1424.84357492 Ry
     estimated scf accuracy    <     203.90549169 Ry

     iteration # 11     ecut=    70.00 Ry     beta= 0.70
     Davidson diagonalization with overlap
     c_bands:  1 eigenvalues not converged
     ethr =  1.00E-02,  avg # of iterations = 16.5

     negative rho (up, down):  1.469E-01 0.000E+00

     total cpu time spent up to now is     1094.1 secs

     WARNING: integrated charge=    63.99996806, expected=    64.00000000

     total energy              =   -1659.35136742 Ry
     estimated scf accuracy    <    7026.00058565 Ry

     iteration # 12     ecut=    70.00 Ry     beta= 0.70
     Davidson diagonalization with overlap
     ethr =  1.00E-02,  avg # of iterations =  7.4

     negative rho (up, down):  3.556E-01 0.000E+00

     total cpu time spent up to now is     1114.0 secs

     WARNING: integrated charge=    63.99998720, expected=    64.00000000

     total energy              =   -1566.16742201 Ry
     estimated scf accuracy    <    9701.11547842 Ry

     iteration # 13     ecut=    70.00 Ry     beta= 0.70
     Davidson diagonalization with overlap
     ethr =  1.00E-02,  avg # of iterations =  7.7

     negative rho (up, down):  4.070E-01 0.000E+00

     total cpu time spent up to now is     1132.5 secs

     WARNING: integrated charge=    63.99998634, expected=    64.00000000

     total energy              =   -1484.14987974 Ry
     estimated scf accuracy    <    7572.68701559 Ry

     iteration # 14     ecut=    70.00 Ry     beta= 0.70
     Davidson diagonalization with overlap
     ethr =  1.00E-02,  avg # of iterations = 11.4

     negative rho (up, down):  5.194E-01 0.000E+00

     total cpu time spent up to now is     1166.6 secs

     WARNING: integrated charge=    63.99999074, expected=    64.00000000

     total energy              =   -1281.34060459 Ry
     estimated scf accuracy    <    4172.49016782 Ry

     iteration # 15     ecut=    70.00 Ry     beta= 0.70
     Davidson diagonalization with overlap
     ethr =  1.00E-02,  avg # of iterations = 15.7

     negative rho (up, down):  5.150E-01 0.000E+00

     total cpu time spent up to now is     1204.1 secs

     WARNING: integrated charge=    63.99999090, expected=    64.00000000

     total energy              =   -1458.16317170 Ry
     estimated scf accuracy    <      83.71618162 Ry

     iteration # 16     ecut=    70.00 Ry     beta= 0.70
     Davidson diagonalization with overlap
     ethr =  1.00E-02,  avg # of iterations =  1.1

     negative rho (up, down):  1.301E+00 0.000E+00

     total cpu time spent up to now is     1216.6 secs

     total energy              =   -1515.04632231 Ry
     estimated scf accuracy    <      83.34957832 Ry

     iteration # 17     ecut=    70.00 Ry     beta= 0.70
     Davidson diagonalization with overlap
     ethr =  1.00E-02,  avg # of iterations = 14.1

     negative rho (up, down):  1.385E+00 0.000E+00

     total cpu time spent up to now is     1247.2 secs

     total energy              =   -1488.99583721 Ry
     estimated scf accuracy    <     115.35056337 Ry

     iteration # 18     ecut=    70.00 Ry     beta= 0.70
     Davidson diagonalization with overlap
     ethr =  1.00E-02,  avg # of iterations =  2.3

     negative rho (up, down):  1.386E+00 0.000E+00

     total cpu time spent up to now is     1260.8 secs

     total energy              =   -1473.44760282 Ry
     estimated scf accuracy    <      56.82933535 Ry

     iteration # 19     ecut=    70.00 Ry     beta= 0.70
     Davidson diagonalization with overlap
     ethr =  1.00E-02,  avg # of iterations =  2.3

     negative rho (up, down):  1.510E+00 0.000E+00

     total cpu time spent up to now is     1274.1 secs

     total energy              =   -1472.49122145 Ry
     estimated scf accuracy    <      41.20379180 Ry

     iteration # 20     ecut=    70.00 Ry     beta= 0.70
     Davidson diagonalization with overlap
     ethr =  1.00E-02,  avg # of iterations =  1.5

     negative rho (up, down):  1.576E+00 0.000E+00

     total cpu time spent up to now is     1286.9 secs

     total energy              =   -1477.40961913 Ry
     estimated scf accuracy    <      36.94416082 Ry

     iteration # 21     ecut=    70.00 Ry     beta= 0.70
     Davidson diagonalization with overlap
     ethr =  1.00E-02,  avg # of iterations =  1.0

     negative rho (up, down):  1.602E+00 0.000E+00

     total cpu time spent up to now is     1299.3 secs

     total energy              =   -1475.52495114 Ry
     estimated scf accuracy    <      44.64699117 Ry

     iteration # 22     ecut=    70.00 Ry     beta= 0.70
     Davidson diagonalization with overlap
     ethr =  1.00E-02,  avg # of iterations =  1.0

     negative rho (up, down):  2.681E+00 0.000E+00

     total cpu time spent up to now is     1311.8 secs

     total energy              =   -1441.85255588 Ry
     estimated scf accuracy    <      39.50535549 Ry

     iteration # 23     ecut=    70.00 Ry     beta= 0.70
     Davidson diagonalization with overlap
     c_bands:  1 eigenvalues not converged
     ethr =  1.00E-02,  avg # of iterations = 13.5

     negative rho (up, down):  2.165E+00 0.000E+00

     total cpu time spent up to now is     1349.1 secs

     total energy              =   -1424.57842841 Ry
     estimated scf accuracy    <    2253.94189407 Ry

     iteration # 24     ecut=    70.00 Ry     beta= 0.70
     Davidson diagonalization with overlap
     ethr =  1.00E-02,  avg # of iterations =  7.5

     negative rho (up, down):  2.898E+00 0.000E+00

     total cpu time spent up to now is     1369.8 secs

     total energy              =   -1464.87385737 Ry
     estimated scf accuracy    <     292.40319772 Ry

     iteration # 25     ecut=    70.00 Ry     beta= 0.70
     Davidson diagonalization with overlap
     ethr =  1.00E-02,  avg # of iterations =  5.5

     negative rho (up, down):  1.349E+00 0.000E+00

     total cpu time spent up to now is     1387.5 secs

     total energy              =   -1424.49558150 Ry
     estimated scf accuracy    <     280.49163277 Ry

     iteration # 26     ecut=    70.00 Ry     beta= 0.70
     Davidson diagonalization with overlap
     ethr =  1.00E-02,  avg # of iterations =  9.5

     negative rho (up, down):  2.210E+00 0.000E+00

     total cpu time spent up to now is     1411.8 secs

     total energy              =   -1446.25490870 Ry
     estimated scf accuracy    <      38.76959839 Ry

     iteration # 27     ecut=    70.00 Ry     beta= 0.70
     Davidson diagonalization with overlap
     ethr =  1.00E-02,  avg # of iterations =  6.9

     negative rho (up, down):  1.250E-02 0.000E+00

     total cpu time spent up to now is     1429.6 secs

     total energy              =   -1420.76151282 Ry
     estimated scf accuracy    <     265.47909099 Ry

     iteration # 28     ecut=    70.00 Ry     beta= 0.70
     Davidson diagonalization with overlap
     ethr =  1.00E-02,  avg # of iterations =  7.4

     negative rho (up, down):  5.009E-01 0.000E+00

     total cpu time spent up to now is     1449.9 secs

     total energy              =   -1438.76706186 Ry
     estimated scf accuracy    <      79.44706637 Ry

     iteration # 29     ecut=    70.00 Ry     beta= 0.70
     Davidson diagonalization with overlap
     ethr =  1.00E-02,  avg # of iterations =  3.5

     negative rho (up, down):  5.989E-01 0.000E+00

     total cpu time spent up to now is     1466.2 secs

     total energy              =   -1442.54435573 Ry
     estimated scf accuracy    <       7.64346830 Ry

     iteration # 30     ecut=    70.00 Ry     beta= 0.70
     Davidson diagonalization with overlap
     ethr =  1.00E-02,  avg # of iterations =  1.6

     negative rho (up, down):  4.144E-01 0.000E+00

     total cpu time spent up to now is     1479.1 secs

     total energy              =   -1441.90259213 Ry
     estimated scf accuracy    <       7.11965577 Ry

     iteration # 31     ecut=    70.00 Ry     beta= 0.70
     Davidson diagonalization with overlap
     ethr =  1.00E-02,  avg # of iterations =  1.0

     negative rho (up, down):  4.081E-01 0.000E+00

     total cpu time spent up to now is     1491.5 secs

     total energy              =   -1442.13413605 Ry
     estimated scf accuracy    <       6.30585813 Ry

     iteration # 32     ecut=    70.00 Ry     beta= 0.70
     Davidson diagonalization with overlap
     ethr =  9.85E-03,  avg # of iterations =  1.0

     negative rho (up, down):  1.869E-01 0.000E+00

     total cpu time spent up to now is     1504.0 secs

     total energy              =   -1438.97667163 Ry
     estimated scf accuracy    <       6.20711458 Ry

     iteration # 33     ecut=    70.00 Ry     beta= 0.70
     Davidson diagonalization with overlap
     ethr =  9.70E-03,  avg # of iterations =  3.1

     negative rho (up, down):  1.356E-01 0.000E+00

     total cpu time spent up to now is     1519.4 secs

     total energy              =   -1439.12268094 Ry
     estimated scf accuracy    <       6.70210571 Ry

     iteration # 34     ecut=    70.00 Ry     beta= 0.70
     Davidson diagonalization with overlap
     ethr =  9.70E-03,  avg # of iterations =  1.0

     negative rho (up, down):  1.165E-03 0.000E+00

     total cpu time spent up to now is     1531.8 secs

     total energy              =   -1438.38841256 Ry
     estimated scf accuracy    <       4.50532277 Ry

     iteration # 35     ecut=    70.00 Ry     beta= 0.70
     Davidson diagonalization with overlap
     ethr =  7.04E-03,  avg # of iterations =  2.5

     negative rho (up, down):  3.711E-03 0.000E+00

     total cpu time spent up to now is     1545.3 secs

     total energy              =   -1438.35291196 Ry
     estimated scf accuracy    <       4.73346806 Ry

     iteration # 36     ecut=    70.00 Ry     beta= 0.70
     Davidson diagonalization with overlap
     ethr =  7.04E-03,  avg # of iterations =  1.2

     negative rho (up, down):  4.791E-02 0.000E+00

     total cpu time spent up to now is     1557.8 secs

     total energy              =   -1437.98018820 Ry
     estimated scf accuracy    <       1.68280776 Ry

     iteration # 37     ecut=    70.00 Ry     beta= 0.70
     Davidson diagonalization with overlap
     ethr =  2.63E-03,  avg # of iterations =  2.5

     negative rho (up, down):  2.573E-02 0.000E+00

     total cpu time spent up to now is     1572.2 secs

     total energy              =   -1438.15533571 Ry
     estimated scf accuracy    <       0.91044862 Ry

     iteration # 38     ecut=    70.00 Ry     beta= 0.70
     Davidson diagonalization with overlap
     ethr =  1.42E-03,  avg # of iterations =  2.8

     negative rho (up, down):  3.105E-03 0.000E+00

     total cpu time spent up to now is     1585.6 secs

     total energy              =   -1438.22334671 Ry
     estimated scf accuracy    <       0.06471394 Ry

     iteration # 39     ecut=    70.00 Ry     beta= 0.70
     Davidson diagonalization with overlap
     ethr =  1.01E-04,  avg # of iterations =  7.9

     negative rho (up, down):  4.108E-06 0.000E+00

     total cpu time spent up to now is     1603.0 secs

     total energy              =   -1438.23312629 Ry
     estimated scf accuracy    <       0.01116568 Ry

     iteration # 40     ecut=    70.00 Ry     beta= 0.70
     Davidson diagonalization with overlap
     ethr =  1.74E-05,  avg # of iterations =  2.9

     negative rho (up, down):  2.954E-04 0.000E+00

     total cpu time spent up to now is     1617.6 secs

     total energy              =   -1438.23417734 Ry
     estimated scf accuracy    <       0.00326888 Ry

     iteration # 41     ecut=    70.00 Ry     beta= 0.70
     Davidson diagonalization with overlap
     ethr =  5.11E-06,  avg # of iterations =  2.4

     negative rho (up, down):  9.051E-05 0.000E+00

     total cpu time spent up to now is     1631.3 secs

     total energy              =   -1438.23440871 Ry
     estimated scf accuracy    <       0.00032715 Ry

     iteration # 42     ecut=    70.00 Ry     beta= 0.70
     Davidson diagonalization with overlap
     ethr =  5.11E-07,  avg # of iterations =  3.6

     negative rho (up, down):  3.422E-05 0.000E+00

     total cpu time spent up to now is     1646.0 secs

     total energy              =   -1438.23448361 Ry
     estimated scf accuracy    <       0.00024575 Ry

     iteration # 43     ecut=    70.00 Ry     beta= 0.70
     Davidson diagonalization with overlap
     ethr =  3.84E-07,  avg # of iterations =  2.0

     negative rho (up, down):  6.263E-05 0.000E+00
[...]

          k = 0.2354 0.5829 0.0000 ( 16870 PWs)   bands (ev):

   -67.9636 -67.8477 -34.8323 -34.6790 -34.6209 -34.4171 -34.3791 -34.2612
   -19.6352 -19.6258 -19.6168 -19.6155 -19.6129 -19.6093 -19.6011 -19.5703
   -19.5608 -19.5582 -19.5227 -19.5143 -19.4927 -19.4740 -12.1529 -11.1114
    -6.2023  -5.2451  -4.8201  -3.9823  -3.6707  -3.0549  -0.8164  -0.1334
     1.6945   2.5077   2.8936   3.3847   4.4374   5.4541

          k = 0.2323-0.4043 0.0000 ( 16815 PWs)   bands (ev):

   -67.9668 -67.8501 -34.8327 -34.6460 -34.6155 -34.4002 -34.3572 -34.2348
   -19.6326 -19.6267 -19.6191 -19.6165 -19.6131 -19.6087 -19.6012 -19.5716
   -19.5606 -19.5563 -19.5238 -19.5140 -19.4897 -19.4769 -12.3352 -11.2548
    -6.0894  -5.1836  -4.7013  -4.0793  -3.5642  -2.8753  -0.9718  -0.3503
     1.4451   2.2389   2.9043   3.9526   4.4080   5.3139

          k = 0.2326-0.3145 0.0000 ( 16795 PWs)   bands (ev):

   -67.9723 -67.8544 -34.8163 -34.6613 -34.5357 -34.3894 -34.3174 -34.1880
   -19.6302 -19.6269 -19.6240 -19.6165 -19.6123 -19.6071 -19.6030 -19.5739
   -19.5598 -19.5535 -19.5250 -19.5143 -19.4848 -19.4816 -12.6603 -11.4509
    -5.9893  -5.0398  -4.5540  -4.3065  -3.3021  -2.4428  -1.1850  -0.4502
     1.2013   1.9143   2.9425   3.7260   4.1469   4.9187

          k = 0.2329-0.2248 0.0000 ( 16789 PWs)   bands (ev):

   -67.9787 -67.8592 -34.7954 -34.6559 -34.4508 -34.3734 -34.2889 -34.1380
   -19.6331 -19.6284 -19.6217 -19.6159 -19.6116 -19.6068 -19.6049 -19.5765
   -19.5581 -19.5511 -19.5255 -19.5155 -19.4877 -19.4787 -13.0343 -11.6286
    -5.9749  -5.0543  -4.5226  -4.0972  -2.9671  -1.9610  -1.3073  -0.6240
     1.1634   1.8978   2.5006   3.2325   3.5089   4.3707

          k = 0.2332-0.1350 0.0000 ( 16790 PWs)   bands (ev):

   -67.9842 -67.8635 -34.7941 -34.6109 -34.3945 -34.3559 -34.2604 -34.1085
   -19.6371 -19.6294 -19.6174 -19.6154 -19.6114 -19.6100 -19.6038 -19.5786
   -19.5563 -19.5493 -19.5254 -19.5173 -19.4926 -19.4740 -13.3484 -11.7580
    -5.9965  -5.2558  -4.1313  -4.0068  -2.6657  -1.5117  -1.4596  -0.6698
     1.1176   1.4842   2.4016   2.8354   3.0736   4.2521

          k = 0.2334-0.0453 0.0000 ( 16782 PWs)   bands (ev):

   -67.9874 -67.8659 -34.8004 -34.5598 -34.4001 -34.3291 -34.2278 -34.1046
   -19.6397 -19.6279 -19.6195 -19.6138 -19.6121 -19.6081 -19.6044 -19.5797
   -19.5552 -19.5483 -19.5250 -19.5187 -19.4955 -19.4714 -13.5239 -11.8256
    -5.9967  -5.3557  -4.1665  -3.6617  -2.5479  -1.6496  -0.9237  -0.7304
     0.5069   1.4109   2.2394   2.9033   3.3285   3.8730

          k = 0.2337 0.0445 0.0000 ( 16779 PWs)   bands (ev):

   -67.9873 -67.8658 -34.8004 -34.5601 -34.4004 -34.3293 -34.2287 -34.1041
   -19.6398 -19.6276 -19.6197 -19.6138 -19.6121 -19.6086 -19.6040 -19.5796
   -19.5556 -19.5478 -19.5251 -19.5186 -19.4955 -19.4714 -13.5230 -11.8250
    -5.9951  -5.3530  -4.1718  -3.6602  -2.5481  -1.6570  -0.9155  -0.7349
     0.5070   1.4085   2.2362   2.9033   3.3342   3.8702

          k = 0.3120 0.1789 0.0000 ( 16802 PWs)   bands (ev):

   -67.9753 -67.8566 -34.8256 -34.6845 -34.4308 -34.4256 -34.3071 -34.1343
   -19.6341 -19.6261 -19.6249 -19.6138 -19.6122 -19.6059 -19.6034 -19.5750
   -19.5619 -19.5497 -19.5263 -19.5140 -19.4848 -19.4811 -12.8692 -11.5182
    -6.3058  -4.9877  -4.4428  -4.0795  -3.2086  -1.8835  -1.5715  -0.4225
     1.6369   2.3908   2.6768   3.1810   3.2397   4.5630

          k = 0.3123 0.2687 0.0000 ( 16776 PWs)   bands (ev):

   -67.9709 -67.8532 -34.8591 -34.6870 -34.4885 -34.4282 -34.3219 -34.1626
   -19.6335 -19.6289 -19.6229 -19.6142 -19.6118 -19.6045 -19.6030 -19.5733
   -19.5635 -19.5510 -19.5261 -19.5129 -19.4849 -19.4807 -12.6369 -11.3543
    -6.4871  -5.0460  -4.2798  -4.2354  -3.4270  -2.1906  -1.4728  -0.2240
     1.7580   2.2947   3.0296   3.6370   3.9040   4.5901

          k = 0.3125 0.3584 0.0000 ( 16845 PWs)   bands (ev):

   -67.9665 -67.8499 -34.8665 -34.6736 -34.5636 -34.4277 -34.3436 -34.2135
   -19.6329 -19.6301 -19.6194 -19.6140 -19.6131 -19.6064 -19.6013 -19.5714
   -19.5640 -19.5533 -19.5250 -19.5131 -19.4892 -19.4768 -12.3759 -11.1938
    -6.4673  -5.1005  -4.5230  -4.1085  -3.5708  -2.6805  -1.2389  -0.1189
     1.7535   2.3418   3.0367   3.9959   4.3353   5.0999

          k = 0.3128 0.4482 0.0000 ( 16876 PWs)   bands (ev):

   -67.9634 -67.8476 -34.8355 -34.6786 -34.6216 -34.4169 -34.3805 -34.2597
   -19.6353 -19.6257 -19.6171 -19.6156 -19.6130 -19.6086 -19.6013 -19.5699
   -19.5631 -19.5561 -19.5231 -19.5143 -19.4927 -19.4740 -12.1493 -11.1088
    -6.2049  -5.2481  -4.8231  -3.9898  -3.6694  -3.0554  -0.8202  -0.1322
     1.7012   2.5096   2.8990   3.3994   4.4348   5.4570

          k = 0.3131 0.5379 0.0000 ( 16906 PWs)   bands (ev):

   -67.9623 -67.8467 -34.7853 -34.7408 -34.6120 -34.4093 -34.4056 -34.2774
   -19.6361 -19.6210 -19.6208 -19.6135 -19.6132 -19.6103 -19.6015 -19.5694
   -19.5613 -19.5586 -19.5218 -19.5153 -19.4940 -19.4730 -12.0534 -11.0945
    -5.8975  -5.4302  -5.0618  -3.9007  -3.6578  -3.2298  -0.5531  -0.1014
     1.6391   2.5847   2.6009   3.1255   4.4867   5.7903

          k = 0.3134 0.6277 0.0000 ( 16870 PWs)   bands (ev):

   -67.9635 -67.8476 -34.8326 -34.6794 -34.6211 -34.4169 -34.3797 -34.2608
   -19.6352 -19.6258 -19.6170 -19.6156 -19.6127 -19.6093 -19.6011 -19.5702
   -19.5616 -19.5576 -19.5228 -19.5143 -19.4927 -19.4740 -12.1521 -11.1107
    -6.2028  -5.2455  -4.8200  -3.9839  -3.6684  -3.0577  -0.8175  -0.1324
     1.6953   2.5095   2.8967   3.3841   4.4374   5.4531

          k = 0.3103-0.3595 0.0000 ( 16837 PWs)   bands (ev):

   -67.9667 -67.8501 -34.8635 -34.6726 -34.5638 -34.4274 -34.3421 -34.2152
   -19.6328 -19.6301 -19.6194 -19.6140 -19.6129 -19.6072 -19.6009 -19.5718
   -19.5624 -19.5547 -19.5246 -19.5130 -19.4893 -19.4768 -12.3804 -11.1969
    -6.4666  -5.0967  -4.5137  -4.1058  -3.5685  -2.6788  -1.2379  -0.1187
     1.7499   2.3369   3.0357   3.9769   4.3367   5.0942

          k = 0.3106-0.2698 0.0000 ( 16786 PWs)   bands (ev):

   -67.9711 -67.8534 -34.8566 -34.6864 -34.4876 -34.4277 -34.3204 -34.1639
   -19.6337 -19.6286 -19.6231 -19.6138 -19.6118 -19.6051 -19.6026 -19.5738
   -19.5620 -19.5523 -19.5257 -19.5129 -19.4849 -19.4807 -12.6418 -11.3574
    -6.4895  -5.0435  -4.2710  -4.2301  -3.4254  -2.1885  -1.4673  -0.2248
     1.7568   2.2888   3.0254   3.6306   3.8996   4.5915

          k = 0.3109-0.1800 0.0000 ( 16798 PWs)   bands (ev):

   -67.9755 -67.8568 -34.8242 -34.6842 -34.4301 -34.4242 -34.3059 -34.1352
   -19.6342 -19.6266 -19.6248 -19.6133 -19.6121 -19.6055 -19.6041 -19.5754
   -19.5607 -19.5508 -19.5258 -19.5140 -19.4848 -19.4811 -12.8733 -11.5206
    -6.3107  -4.9870  -4.4463  -4.0625  -3.2078  -1.8915  -1.5530  -0.4238
     1.6299   2.3932   2.6685   3.1852   3.2382   4.5663

          k = 0.3112-0.0903 0.0000 ( 16784 PWs)   bands (ev):

   -67.9786 -67.8592 -34.7964 -34.6571 -34.4512 -34.3737 -34.2900 -34.1361
   -19.6330 -19.6285 -19.6219 -19.6155 -19.6117 -19.6071 -19.6047 -19.5763
   -19.5592 -19.5500 -19.5254 -19.5157 -19.4877 -19.4787 -13.0315 -11.6276
    -5.9773  -5.0527  -4.5272  -4.0984  -2.9669  -1.9584  -1.3131  -0.6233
     1.1492   1.9044   2.5082   3.2387   3.5124   4.3709

          k = 0.3114-0.0005 0.0000 ( 16800 PWs)   bands (ev):

   -67.9797 -67.8600 -34.7886 -34.6324 -34.4723 -34.3508 -34.2807 -34.1447
   -19.6325 -19.6279 -19.6210 -19.6182 -19.6104 -19.6075 -19.6055 -19.5765
   -19.5588 -19.5496 -19.5252 -19.5165 -19.4888 -19.4779 -13.0870 -11.6626
    -5.6576  -5.3104  -4.5338  -4.0733  -2.9325  -2.0075  -1.0836  -0.6968
     0.7500   1.6856   2.4835   3.4945   3.6010   4.3657

          k = 0.3117 0.0892 0.0000 ( 16793 PWs)   bands (ev):

   -67.9785 -67.8591 -34.7968 -34.6574 -34.4517 -34.3746 -34.2909 -34.1355
   -19.6331 -19.6279 -19.6220 -19.6158 -19.6122 -19.6072 -19.6042 -19.5761
   -19.5600 -19.5493 -19.5258 -19.5156 -19.4877 -19.4787 -13.0292 -11.6263
    -5.9723  -5.0528  -4.5256  -4.1071  -2.9680  -1.9665  -1.3096  -0.6256
     1.1519   1.9076   2.5036   3.2366   3.5142   4.3704

          k = 0.3900 0.2237 0.0000 ( 16828 PWs)   bands (ev):

   -67.9688 -67.8517 -34.9014 -34.7016 -34.4628 -34.4569 -34.3329 -34.1540
   -19.6355 -19.6309 -19.6220 -19.6141 -19.6094 -19.6034 -19.6017 -19.5728
   -19.5652 -19.5509 -19.5267 -19.5116 -19.4860 -19.4789 -12.5778 -11.2057
    -6.8804  -5.0325  -4.2568  -4.1748  -3.5260  -2.0340  -1.5556   0.0568
     2.0226   2.7653   3.1673   3.7901   3.8112   4.6708

          k = 0.3903 0.3134 0.0000 ( 16840 PWs)   bands (ev):

   -67.9665 -67.8499 -34.9136 -34.6996 -34.4993 -34.4535 -34.3409 -34.1776
   -19.6346 -19.6329 -19.6207 -19.6135 -19.6098 -19.6042 -19.6006 -19.5718
   -19.5657 -19.5519 -19.5262 -19.5114 -19.4882 -19.4768 -12.4578 -11.0834
    -6.9684  -4.9948  -4.3595  -4.2412  -3.5194  -2.2303  -1.5238   0.2013
     2.1993   2.5101   3.4219   4.0193   4.2378   4.7401

          k = 0.3905 0.4032 0.0000 ( 16840 PWs)   bands (ev):

   -67.9645 -67.8484 -34.8868 -34.6806 -34.5688 -34.4408 -34.3527 -34.2235
   -19.6345 -19.6307 -19.6187 -19.6129 -19.6124 -19.6062 -19.6008 -19.5706
   -19.5650 -19.5538 -19.5248 -19.5126 -19.4909 -19.4750 -12.2902 -11.0601
    -6.6975  -5.0804  -4.4870  -4.1986  -3.5830  -2.7015  -1.2569   0.0991
     2.0404   2.4857   3.2826   3.7088   4.2863   5.3439

          k = 0.3908 0.4929 0.0000 ( 16868 PWs)   bands (ev):

   -67.9634 -67.8475 -34.8361 -34.6786 -34.6219 -34.4170 -34.3805 -34.2593
   -19.6353 -19.6257 -19.6171 -19.6157 -19.6130 -19.6086 -19.6012 -19.5699
   -19.5634 -19.5558 -19.5231 -19.5143 -19.4927 -19.4740 -12.1490 -11.1077
    -6.2071  -5.2490  -4.8216  -3.9902  -3.6688  -3.0558  -0.8209  -0.1336
     1.6997   2.5063   2.8992   3.4110   4.4349   5.4598

          k = 0.3911 0.5827 0.0000 ( 16868 PWs)   bands (ev):

   -67.9634 -67.8476 -34.8349 -34.6789 -34.6215 -34.4170 -34.3800 -34.2599
   -19.6352 -19.6258 -19.6171 -19.6154 -19.6131 -19.6089 -19.6011 -19.5700
   -19.5627 -19.5564 -19.5229 -19.5144 -19.4927 -19.4740 -12.1505 -11.1087
    -6.2077  -5.2486  -4.8181  -3.9876  -3.6648  -3.0581  -0.8200  -0.1364
     1.6946   2.5031   2.8984   3.4122   4.4353   5.4633

          k = 0.3914 0.6724 0.0000 ( 16856 PWs)   bands (ev):

   -67.9647 -67.8485 -34.8845 -34.6797 -34.5686 -34.4410 -34.3510 -34.2246
   -19.6344 -19.6309 -19.6184 -19.6129 -19.6122 -19.6069 -19.6005 -19.5711
   -19.5637 -19.5549 -19.5244 -19.5127 -19.4909 -19.4750 -12.2940 -11.0631
    -6.6982  -5.0778  -4.4803  -4.1921  -3.5786  -2.7009  -1.2569   0.0947
     2.0315   2.4795   3.2805   3.7052   4.2900   5.3447

          k = 0.3883-0.3148 0.0000 ( 16846 PWs)   bands (ev):

   -67.9667 -67.8501 -34.9112 -34.6985 -34.4986 -34.4537 -34.3391 -34.1786
   -19.6349 -19.6326 -19.6206 -19.6133 -19.6098 -19.6049 -19.6003 -19.5724
   -19.5643 -19.5531 -19.5256 -19.5115 -19.4883 -19.4768 -12.4627 -11.0876
    -6.9700  -4.9930  -4.3472  -4.2344  -3.5184  -2.2301  -1.5172   0.1971
     2.1924   2.5014   3.4205   4.0162   4.2338   4.7352

          k = 0.3886-0.2250 0.0000 ( 16836 PWs)   bands (ev):

   -67.9691 -67.8519 -34.8992 -34.7008 -34.4625 -34.4558 -34.3315 -34.1547
   -19.6357 -19.6307 -19.6221 -19.6138 -19.6093 -19.6041 -19.6014 -19.5734
   -19.5639 -19.5520 -19.5260 -19.5117 -19.4861 -19.4789 -12.5827 -11.2094
    -6.8839  -5.0310  -4.2549  -4.1565  -3.5267  -2.0440  -1.5357   0.0531
     2.0125   2.7549   3.1634   3.7909   3.8138   4.6722

          k = 0.3889-0.1353 0.0000 ( 16778 PWs)   bands (ev):

   -67.9710 -67.8534 -34.8582 -34.6870 -34.4885 -34.4268 -34.3209 -34.1628
   -19.6336 -19.6288 -19.6231 -19.6138 -19.6116 -19.6051 -19.6026 -19.5737
   -19.5626 -19.5517 -19.5256 -19.5131 -19.4849 -19.4807 -12.6400 -11.3560
    -6.4935  -5.0444  -4.2779  -4.2247  -3.4265  -2.1854  -1.4720  -0.2240
     1.7459   2.2820   3.0287   3.6546   3.9078   4.5932

          k = 0.3892-0.0456 0.0000 ( 16793 PWs)   bands (ev):

   -67.9722 -67.8542 -34.8193 -34.6629 -34.5353 -34.3907 -34.3185 -34.1851
   -19.6298 -19.6275 -19.6242 -19.6160 -19.6125 -19.6069 -19.6031 -19.5736
   -19.5616 -19.5518 -19.5250 -19.5145 -19.4848 -19.4816 -12.6556 -11.4487
    -5.9963  -5.0433  -4.5528  -4.3099  -3.3017  -2.4426  -1.1890  -0.4562
     1.1959   1.9136   2.9475   3.7504   4.1577   4.9192

          k = 0.3894 0.0442 0.0000 ( 16790 PWs)   bands (ev):

   -67.9721 -67.8542 -34.8198 -34.6629 -34.5356 -34.3912 -34.3191 -34.1848
   -19.6298 -19.6275 -19.6240 -19.6162 -19.6128 -19.6066 -19.6031 -19.5735
   -19.5620 -19.5514 -19.5252 -19.5145 -19.4848 -19.4816 -12.6542 -11.4480
    -5.9928  -5.0445  -4.5572  -4.3098  -3.3028  -2.4467  -1.1847  -0.4588
     1.1975   1.9175   2.9476   3.7445   4.1591   4.9183

          k = 0.3897 0.1339 0.0000 ( 16782 PWs)   bands (ev):

   -67.9709 -67.8532 -34.8596 -34.6872 -34.4891 -34.4279 -34.3220 -34.1622
   -19.6334 -19.6289 -19.6229 -19.6142 -19.6119 -19.6046 -19.6027 -19.5733
   -19.5637 -19.5509 -19.5261 -19.5130 -19.4849 -19.4807 -12.6363 -11.3537
    -6.4887  -5.0458  -4.2806  -4.2350  -3.4269  -2.1900  -1.4740  -0.2233
     1.7519   2.2931   3.0294   3.6461   3.9058   4.5926

          k =-0.4680-0.2684 0.0000 ( 16838 PWs)   bands (ev):

   -67.9664 -67.8499 -34.9333 -34.7107 -34.4668 -34.4660 -34.3446 -34.1612
   -19.6361 -19.6331 -19.6213 -19.6133 -19.6085 -19.6033 -19.6001 -19.5721
   -19.5664 -19.5514 -19.5268 -19.5107 -19.4878 -19.4768 -12.4953 -11.0301
    -7.1681  -4.9414  -4.4114  -4.2174  -3.5156  -2.0367  -1.5465   0.3440
     2.1913   2.7513   3.5153   4.1556   4.2572   4.6744

          k =-0.4677-0.1787 0.0000 ( 16844 PWs)   bands (ev):

   -67.9665 -67.8499 -34.9139 -34.6997 -34.4996 -34.4532 -34.3410 -34.1775
   -19.6346 -19.6329 -19.6207 -19.6135 -19.6099 -19.6042 -19.6006 -19.5718
   -19.5658 -19.5519 -19.5262 -19.5114 -19.4882 -19.4768 -12.4577 -11.0830
    -6.9692  -4.9943  -4.3626  -4.2387  -3.5197  -2.2296  -1.5244   0.2015
     2.1962   2.5098   3.4163   4.0254   4.2457   4.7394

          k =-0.4674-0.0889 0.0000 ( 16845 PWs)   bands (ev):

   -67.9665 -67.8499 -34.8672 -34.6740 -34.5637 -34.4277 -34.3438 -34.2130
   -19.6328 -19.6302 -19.6194 -19.6141 -19.6131 -19.6065 -19.6011 -19.5713
   -19.5643 -19.5531 -19.5250 -19.5131 -19.4892 -19.4768 -12.3754 -11.1926
    -6.4700  -5.1002  -4.5245  -4.1073  -3.5703  -2.6804  -1.2404  -0.1194
     1.7496   2.3383   3.0360   4.0106   4.3381   5.1036

          k =-0.4672 0.0008 0.0000 ( 16818 PWs)   bands (ev):

   -67.9666 -67.8500 -34.8369 -34.6493 -34.6128 -34.4019 -34.3577 -34.2321
   -19.6326 -19.6269 -19.6194 -19.6160 -19.6135 -19.6081 -19.6013 -19.5712
   -19.5630 -19.5541 -19.5240 -19.5142 -19.4897 -19.4768 -12.3303 -11.2511
    -6.0976  -5.1892  -4.7038  -4.0804  -3.5599  -2.8795  -0.9741  -0.3596
     1.4470   2.2356   2.9109   3.9916   4.4099   5.3263

          k =-0.4669 0.0906 0.0000 ( 16836 PWs)   bands (ev):

   -67.9666 -67.8500 -34.8659 -34.6737 -34.5634 -34.4273 -34.3427 -34.2137
   -19.6327 -19.6304 -19.6194 -19.6139 -19.6128 -19.6070 -19.6010 -19.5717
   -19.5634 -19.5538 -19.5246 -19.5132 -19.4893 -19.4768 -12.3781 -11.1944
    -6.4730  -5.0985  -4.5182  -4.1030  -3.5680  -2.6774  -1.2432  -0.1211
     1.7430   2.3302   3.0366   4.0184   4.3371   5.1066

          k =-0.4666 0.1803 0.0000 ( 16844 PWs)   bands (ev):

   -67.9667 -67.8500 -34.9118 -34.6988 -34.4991 -34.4531 -34.3393 -34.1782
   -19.6348 -19.6328 -19.6206 -19.6133 -19.6097 -19.6049 -19.6003 -19.5724
   -19.5645 -19.5529 -19.5256 -19.5115 -19.4883 -19.4768 -12.4622 -11.0867
    -6.9719  -4.9924  -4.3586  -4.2240  -3.5192  -2.2289  -1.5191   0.1972
     2.1868   2.4984   3.4102   4.0339   4.2488   4.7357

          k =-0.4696-0.8069 0.0000 ( 16830 PWs)   bands (ev):

   -67.9667 -67.8501 -34.9310 -34.7095 -34.4671 -34.4649 -34.3428 -34.1618
   -19.6364 -19.6329 -19.6211 -19.6132 -19.6084 -19.6040 -19.5998 -19.5727
   -19.5651 -19.5524 -19.5261 -19.5108 -19.4878 -19.4768 -12.5003 -11.0347
    -7.1706  -4.9405  -4.4067  -4.1988  -3.5163  -2.0480  -1.5260   0.3391
     2.1795   2.7423   3.5083   4.1558   4.2585   4.6711

     the Fermi energy is     0.2016 ev

!    total energy              =   -1438.47519078 Ry
     estimated scf accuracy    <          3.8E-15 Ry
     smearing contrib. (-TS)   =      -0.00002093 Ry
     internal energy E=F+TS    =   -1438.47516986 Ry

     The total energy is F=E-TS. E is the sum of the following terms:
     one-electron contribution =  -11692.90689421 Ry
     hartree contribution      =    5877.41336215 Ry
     xc contribution           =    -143.95479017 Ry
     ewald contribution        =    4565.85419716 Ry
     one-center paw contrib.   =     -44.88104480 Ry

     convergence has been achieved in  26 iterations

     negative rho (up, down):  6.514E-05 0.000E+00

     Forces acting on atoms (cartesian axes, Ry/au):

     atom    1 type  2   force =     0.00085514    0.00071869   -0.00147882
     atom    2 type  1   force =    -0.00093449   -0.00065014    0.00047346
     atom    3 type  1   force =     0.00009843    0.00081211    0.00086277
     atom    4 type  3   force =    -0.00001907   -0.00088067    0.00014260

     Total force =     0.001931     Total SCF correction =     0.000001


     Computing stress (Cartesian axis) and pressure


     negative rho (up, down):  6.514E-05 0.000E+00
          total   stress  (Ry/bohr**3)                   (kbar)     P=        0.43
   0.00000785   0.00000020   0.00000127            1.16        0.03        0.19
   0.00000020   0.00000362  -0.00000087            0.03        0.53       -0.13
   0.00000127  -0.00000087  -0.00000271            0.19       -0.13       -0.40


     Writing output data file /scratch/as3359/Ta2CO_loop/Ta.save/
 
     init_run     :     76.21s CPU     47.80s WALL (       2 calls)
     electrons    :  43923.09s CPU  22658.21s WALL (      42 calls)
     update_pot   :   1228.54s CPU    755.56s WALL (      40 calls)
     forces       :    835.13s CPU    424.52s WALL (      42 calls)
     stress       :   2234.69s CPU   1138.24s WALL (      42 calls)

     Called by init_run:
     wfcinit      :     20.26s CPU     10.41s WALL (       2 calls)
     potinit      :     16.83s CPU      8.47s WALL (       2 calls)
     hinit0       :     35.32s CPU     26.61s WALL (       2 calls)

     Called by electrons:
     c_bands      :  35126.88s CPU  17833.59s WALL (    1193 calls)
     sum_band     :   6490.86s CPU   3484.84s WALL (    1193 calls)
     v_of_rho     :    323.50s CPU    168.75s WALL (    1234 calls)
     newd         :   1931.37s CPU   1147.80s WALL (    1234 calls)
     PAW_pot      :     41.19s CPU     21.06s WALL (    1274 calls)
     mix_rho      :     52.84s CPU     27.34s WALL (    1193 calls)

     Called by c_bands:
     init_us_2    :    613.73s CPU    307.80s WALL (  185888 calls)
     cegterg      :  32940.90s CPU  16732.81s WALL (   91410 calls)

     Called by *egterg:
     cdiaghg      :   1357.92s CPU    693.20s WALL (  530017 calls)
     h_psi        :  24794.86s CPU  12637.01s WALL (  534153 calls)
     s_psi        :   1119.62s CPU    561.33s WALL (  534153 calls)
     g_psi        :    217.75s CPU    109.40s WALL (  442595 calls)

     Called by h_psi:
     h_psi:calbec :   1075.24s CPU    540.93s WALL (  534153 calls)
     vloc_psi     :  22342.15s CPU  11405.27s WALL (  534153 calls)
     add_vuspsi   :   1180.90s CPU    592.30s WALL (  534153 calls)

     General routines
     calbec       :   1395.41s CPU    701.94s WALL (  640935 calls)
     fft          :    166.31s CPU     88.15s WALL (   17049 calls)
     ffts         :      6.62s CPU      3.39s WALL (    2427 calls)
     fftw         :  22218.12s CPU  11345.19s WALL (25509806 calls)
     interpolate  :     16.95s CPU      8.92s WALL (    1234 calls)
 
     Parallel routines
 
     PWSCF        :     13h26m CPU      6h57m WALL

 
   This run was terminated on:   4:16:37  22Apr2022            

=------------------------------------------------------------------------------=
   JOB DONE.
=------------------------------------------------------------------------------=
