
     Program PWSCF v.6.8 starts on 22Apr2022 at  4:33: 7 

     This program is part of the open-source Quantum ESPRESSO suite
     for quantum simulation of materials; please cite
         "P. Giannozzi et al., J. Phys.:Condens. Matter 21 395502 (2009);
         "P. Giannozzi et al., J. Phys.:Condens. Matter 29 465901 (2017);
         "P. Giannozzi et al., J. Chem. Phys. 152 154105 (2020);
          URL http://www.quantum-espresso.org", 
     in publications or presentations arising from this work. More details at
     http://www.quantum-espresso.org/quote

     Parallel version (MPI & OpenMP), running on       4 processor cores
     Number of MPI processes:                 2
     Threads/MPI process:                     2

     MPI processes distributed on     1 nodes
     R & G space division:  proc/nbgrp/npool/nimage =       2
     124232 MiB available memory on the printing compute node when the environment starts
 
     Waiting for input...
     Reading input from standard input

     Current dimensions of program PWSCF are:
     Max number of different atomic species (ntypx) = 10
     Max number of k-points (npk) =  40000
     Max angular momentum in pseudopotentials (lmaxx) =  4
     file Ta.pbesol-spfn-rrkjus_psl.1.0.0.UPF: wavefunction(s)  5S 5P renormalized
     file S.pbesol-nl-kjpaw_psl.1.0.0.UPF: wavefunction(s)  3S renormalized

     Subspace diagonalization in iterative solution of the eigenvalue problem:
     a serial algorithm will be used

 
     Parallelization info
     --------------------
     sticks:   dense  smooth     PW     G-vecs:    dense   smooth      PW
     Min         856     336    105               265452    67176   11965
     Max         857     337    106               265455    67219   11976
     Sum        1713     673    211               530907   134395   23941
 
     Using Slab Decomposition
 


     bravais-lattice index     =            0
     lattice parameter (alat)  =       5.5500  a.u.
     unit-cell volume          =    1699.0018 (a.u.)^3
     number of atoms/cell      =            4
     number of atomic types    =            3
     number of electrons       =        64.00
     number of Kohn-Sham states=           38
     kinetic-energy cutoff     =      70.0000  Ry
     charge density cutoff     =     700.0000  Ry
     scf convergence threshold =      1.0E-12
     mixing beta               =       0.7000
     number of iterations used =            8  plain     mixing
     Exchange-correlation= SLA  PW   PSX  PSC
                           (   1   4  10   8   0   0   0)

     celldm(1)=   5.550000  celldm(2)=   0.000000  celldm(3)=   0.000000
     celldm(4)=   0.000000  celldm(5)=   0.000000  celldm(6)=   0.000000

     crystal axes: (cart. coord. in units of alat)
               a(1) = (   1.070291  -0.003288   0.000000 )  
               a(2) = (  -0.533526   0.930205   0.000000 )  
               a(3) = (   0.000000   0.000000  10.000000 )  

     reciprocal axes: (cart. coord. in units 2 pi/alat)
               b(1) = (  0.935974  0.536835  0.000000 )  
               b(2) = (  0.003308  1.076929  0.000000 )  
               b(3) = (  0.000000  0.000000  0.100000 )  


     PseudoPot. # 1 for Ta read from file:
     /shared/home/as3359/pseudo/Ta.pbesol-spfn-rrkjus_psl.1.0.0.UPF
     MD5 check sum: f099565ffaca9b150a52e9412a28e20b
     Pseudo is Ultrasoft + core correction, Zval = 27.0
     Generated using &quot;atomic&quot; code by A. Dal Corso  v.6.3
     Using radial grid of 1273 points,  8 beta functions with: 
                l(1) =   0
                l(2) =   0
                l(3) =   1
                l(4) =   1
                l(5) =   2
                l(6) =   2
                l(7) =   3
                l(8) =   3
     Q(r) pseudized with 0 coefficients 


     PseudoPot. # 2 for C  read from file:
     /shared/home/as3359/pseudo/C.pbesol-n-rrkjus_psl.1.0.0.UPF
     MD5 check sum: 05995be603a8a7c99da3dc4413f31573
     Pseudo is Ultrasoft + core correction, Zval =  4.0
     Generated using &quot;atomic&quot; code by A. Dal Corso  v.6.3MaX
     Using radial grid of 1073 points,  4 beta functions with: 
                l(1) =   0
                l(2) =   0
                l(3) =   1
                l(4) =   1
     Q(r) pseudized with 0 coefficients 


     PseudoPot. # 3 for S  read from file:
     /shared/home/as3359/pseudo/S.pbesol-nl-kjpaw_psl.1.0.0.UPF
     MD5 check sum: bf3db50ec3f960682bbc396f1aadd1dd
     Pseudo is Projector augmented-wave + core cor, Zval =  6.0
     Generated using &quot;atomic&quot; code by A. Dal Corso  v.6.3
     Shape of augmentation charge: PSQ
     Using radial grid of 1151 points,  4 beta functions with: 
                l(1) =   0
                l(2) =   0
                l(3) =   1
                l(4) =   1
     Q(r) pseudized with 0 coefficients 


     atomic species   valence    mass     pseudopotential
        Ta            27.00   180.94788     Ta( 1.00)
        C              4.00    12.01070     C ( 1.00)
        S              6.00    32.06500     S ( 1.00)

     No symmetry found



   Cartesian axes

     site n.     atom                  positions (alat units)
         1           C   tau(   1) = (   0.0001541   0.0001295  -0.0002665  )
         2           Ta  tau(   2) = (   0.5365170   0.3085634  -0.3899267  )
         3           Ta  tau(   3) = (   0.0012366   0.6192060   0.4285633  )
         4           S   tau(   4) = (   0.5351086   0.3081437   0.9859537  )

     number of k points=    74  Marzari-Vanderbilt smearing, width (Ry)=  0.0010
                       cart. coord. in units 2pi/alat
        k(    1) = (   0.0000000   0.0000000   0.0000000), wk =   0.0138889
        k(    2) = (   0.0002757   0.0897441   0.0000000), wk =   0.0277778
        k(    3) = (   0.0005514   0.1794882   0.0000000), wk =   0.0277778
        k(    4) = (   0.0008270   0.2692322   0.0000000), wk =   0.0277778
        k(    5) = (   0.0011027   0.3589763   0.0000000), wk =   0.0277778
        k(    6) = (   0.0013784   0.4487204   0.0000000), wk =   0.0277778
        k(    7) = (  -0.0016541  -0.5384645   0.0000000), wk =   0.0138889
        k(    8) = (   0.0779979   0.0447362   0.0000000), wk =   0.0277778
        k(    9) = (   0.0782735   0.1344803   0.0000000), wk =   0.0277778
        k(   10) = (   0.0785492   0.2242244   0.0000000), wk =   0.0277778
        k(   11) = (   0.0788249   0.3139685   0.0000000), wk =   0.0277778
        k(   12) = (   0.0791006   0.4037125   0.0000000), wk =   0.0277778
        k(   13) = (   0.0793763   0.4934566   0.0000000), wk =   0.0277778
        k(   14) = (   0.0763438  -0.4937282   0.0000000), wk =   0.0277778
        k(   15) = (   0.0766195  -0.4039842   0.0000000), wk =   0.0277778
        k(   16) = (   0.0768951  -0.3142401   0.0000000), wk =   0.0277778
        k(   17) = (   0.0771708  -0.2244960   0.0000000), wk =   0.0277778
        k(   18) = (   0.0774465  -0.1347519   0.0000000), wk =   0.0277778
        k(   19) = (   0.0777222  -0.0450078   0.0000000), wk =   0.0277778
        k(   20) = (   0.1559957   0.0894725   0.0000000), wk =   0.0277778
        k(   21) = (   0.1562714   0.1792165   0.0000000), wk =   0.0277778
        k(   22) = (   0.1565471   0.2689606   0.0000000), wk =   0.0277778
        k(   23) = (   0.1568228   0.3587047   0.0000000), wk =   0.0277778
        k(   24) = (   0.1570984   0.4484488   0.0000000), wk =   0.0277778
        k(   25) = (   0.1573741   0.5381928   0.0000000), wk =   0.0277778
        k(   26) = (   0.1543416  -0.4489920   0.0000000), wk =   0.0277778
        k(   27) = (   0.1546173  -0.3592479   0.0000000), wk =   0.0277778
        k(   28) = (   0.1548930  -0.2695038   0.0000000), wk =   0.0277778
        k(   29) = (   0.1551687  -0.1797598   0.0000000), wk =   0.0277778
        k(   30) = (   0.1554444  -0.0900157   0.0000000), wk =   0.0277778
        k(   31) = (   0.1557200  -0.0002716   0.0000000), wk =   0.0277778
        k(   32) = (   0.2339936   0.1342087   0.0000000), wk =   0.0277778
        k(   33) = (   0.2342693   0.2239528   0.0000000), wk =   0.0277778
        k(   34) = (   0.2345449   0.3136969   0.0000000), wk =   0.0277778
        k(   35) = (   0.2348206   0.4034409   0.0000000), wk =   0.0277778
        k(   36) = (   0.2350963   0.4931850   0.0000000), wk =   0.0277778
        k(   37) = (   0.2353720   0.5829291   0.0000000), wk =   0.0277778
        k(   38) = (   0.2323395  -0.4042558   0.0000000), wk =   0.0277778
        k(   39) = (   0.2326152  -0.3145117   0.0000000), wk =   0.0277778
        k(   40) = (   0.2328909  -0.2247676   0.0000000), wk =   0.0277778
        k(   41) = (   0.2331665  -0.1350235   0.0000000), wk =   0.0277778
        k(   42) = (   0.2334422  -0.0452795   0.0000000), wk =   0.0277778
        k(   43) = (   0.2337179   0.0444646   0.0000000), wk =   0.0277778
        k(   44) = (   0.3119914   0.1789449   0.0000000), wk =   0.0277778
        k(   45) = (   0.3122671   0.2686890   0.0000000), wk =   0.0277778
        k(   46) = (   0.3125428   0.3584331   0.0000000), wk =   0.0277778
        k(   47) = (   0.3128185   0.4481772   0.0000000), wk =   0.0277778
        k(   48) = (   0.3130942   0.5379212   0.0000000), wk =   0.0277778
        k(   49) = (   0.3133698   0.6276653   0.0000000), wk =   0.0277778
        k(   50) = (   0.3103374  -0.3595195   0.0000000), wk =   0.0277778
        k(   51) = (   0.3106130  -0.2697755   0.0000000), wk =   0.0277778
        k(   52) = (   0.3108887  -0.1800314   0.0000000), wk =   0.0277778
        k(   53) = (   0.3111644  -0.0902873   0.0000000), wk =   0.0277778
        k(   54) = (   0.3114401  -0.0005432   0.0000000), wk =   0.0277778
        k(   55) = (   0.3117158   0.0892009   0.0000000), wk =   0.0277778
        k(   56) = (   0.3899893   0.2236812   0.0000000), wk =   0.0277778
        k(   57) = (   0.3902650   0.3134252   0.0000000), wk =   0.0277778
        k(   58) = (   0.3905407   0.4031693   0.0000000), wk =   0.0277778
        k(   59) = (   0.3908163   0.4929134   0.0000000), wk =   0.0277778
        k(   60) = (   0.3910920   0.5826575   0.0000000), wk =   0.0277778
        k(   61) = (   0.3913677   0.6724015   0.0000000), wk =   0.0277778
        k(   62) = (   0.3883352  -0.3147833   0.0000000), wk =   0.0277778
        k(   63) = (   0.3886109  -0.2250392   0.0000000), wk =   0.0277778
        k(   64) = (   0.3888866  -0.1352951   0.0000000), wk =   0.0277778
        k(   65) = (   0.3891623  -0.0455511   0.0000000), wk =   0.0277778
        k(   66) = (   0.3894379   0.0441930   0.0000000), wk =   0.0277778
        k(   67) = (   0.3897136   0.1339371   0.0000000), wk =   0.0277778
        k(   68) = (  -0.4679872  -0.2684174   0.0000000), wk =   0.0138889
        k(   69) = (  -0.4677115  -0.1786733   0.0000000), wk =   0.0277778
        k(   70) = (  -0.4674358  -0.0889292   0.0000000), wk =   0.0277778
        k(   71) = (  -0.4671601   0.0008148   0.0000000), wk =   0.0277778
        k(   72) = (  -0.4668844   0.0905589   0.0000000), wk =   0.0277778
        k(   73) = (  -0.4666088   0.1803030   0.0000000), wk =   0.0277778
        k(   74) = (  -0.4696413  -0.8068819   0.0000000), wk =   0.0138889

     Dense  grid:   530907 G-vectors     FFT dimensions: (  54,  54, 480)

     Smooth grid:   134395 G-vectors     FFT dimensions: (  32,  32, 300)

     Estimated max dynamical RAM per process >       2.85 GB

     Estimated total dynamical RAM >       5.71 GB

     Initial potential from superposition of free atoms

     starting charge   63.99838, renormalised to   64.00000

     negative rho (up, down):  5.051E-05 0.000E+00
     Starting wfcs are   42 randomized atomic wfcs
     Checking if some PAW data can be deallocated... 

     total cpu time spent up to now is       15.9 secs

     Self-consistent Calculation

     iteration #  1     ecut=    70.00 Ry     beta= 0.70
     Davidson diagonalization with overlap
     ethr =  1.00E-02,  avg # of iterations =  2.5

     negative rho (up, down):  7.848E-06 0.000E+00

     total cpu time spent up to now is       31.1 secs

     total energy              =   -1437.72959409 Ry
     estimated scf accuracy    <       1.17582341 Ry

     iteration #  2     ecut=    70.00 Ry     beta= 0.70
     Davidson diagonalization with overlap
     ethr =  1.84E-03,  avg # of iterations = 10.4

     negative rho (up, down):  2.347E-05 0.000E+00

     total cpu time spent up to now is       55.8 secs

     total energy              =   -1432.50545718 Ry
     estimated scf accuracy    <     100.92485333 Ry

     iteration #  3     ecut=    70.00 Ry     beta= 0.70
     Davidson diagonalization with overlap
     ethr =  1.84E-03,  avg # of iterations =  9.1

     negative rho (up, down):  1.278E-05 0.000E+00

     total cpu time spent up to now is       79.8 secs

     total energy              =   -1437.11353716 Ry
     estimated scf accuracy    <      20.66838178 Ry

     iteration #  4     ecut=    70.00 Ry     beta= 0.70
     Davidson diagonalization with overlap
     ethr =  1.84E-03,  avg # of iterations =  6.9

     negative rho (up, down):  3.752E-06 0.000E+00

     total cpu time spent up to now is       98.9 secs

     total energy              =   -1438.40669195 Ry
     estimated scf accuracy    <       1.00122960 Ry

     iteration #  5     ecut=    70.00 Ry     beta= 0.70
     Davidson diagonalization with overlap
     ethr =  1.56E-03,  avg # of iterations =  2.1

     negative rho (up, down):  1.001E-05 0.000E+00

     total cpu time spent up to now is      113.2 secs

     total energy              =   -1438.48352419 Ry
     estimated scf accuracy    <       0.08321015 Ry

     iteration #  6     ecut=    70.00 Ry     beta= 0.70
     Davidson diagonalization with overlap
     ethr =  1.30E-04,  avg # of iterations =  3.4
     Minimization algorithm failed to find Fermi energy: reverting to bisection
     Possible cause: smearing is larger than the electronic band-gap.

     negative rho (up, down):  1.437E-05 0.000E+00

     total cpu time spent up to now is      128.6 secs

     total energy              =   -1438.48251715 Ry
     estimated scf accuracy    <       0.06893267 Ry

     iteration #  7     ecut=    70.00 Ry     beta= 0.70
     Davidson diagonalization with overlap
     ethr =  1.08E-04,  avg # of iterations =  1.3

     negative rho (up, down):  2.131E-05 0.000E+00

     total cpu time spent up to now is      142.0 secs

     total energy              =   -1438.47875607 Ry
     estimated scf accuracy    <       0.02391858 Ry

     iteration #  8     ecut=    70.00 Ry     beta= 0.70
     Davidson diagonalization with overlap
     ethr =  3.74E-05,  avg # of iterations =  2.8

     negative rho (up, down):  2.590E-05 0.000E+00

     total cpu time spent up to now is      156.5 secs

     total energy              =   -1438.47662626 Ry
     estimated scf accuracy    <       0.01258281 Ry

     iteration #  9     ecut=    70.00 Ry     beta= 0.70
     Davidson diagonalization with overlap
     ethr =  1.97E-05,  avg # of iterations =  2.0

     negative rho (up, down):  3.356E-05 0.000E+00

     total cpu time spent up to now is      170.4 secs

     total energy              =   -1438.47510936 Ry
     estimated scf accuracy    <       0.00666111 Ry

     iteration # 10     ecut=    70.00 Ry     beta= 0.70
     Davidson diagonalization with overlap
     ethr =  1.04E-05,  avg # of iterations =  3.0

     negative rho (up, down):  8.180E-04 0.000E+00

     total cpu time spent up to now is      185.1 secs

     total energy              =   -1438.47502623 Ry
     estimated scf accuracy    <       0.00174696 Ry

     iteration # 11     ecut=    70.00 Ry     beta= 0.70
     Davidson diagonalization with overlap
     ethr =  2.73E-06,  avg # of iterations =  4.9

     negative rho (up, down):  4.636E-05 0.000E+00

     total cpu time spent up to now is      201.2 secs

     total energy              =   -1438.47518170 Ry
     estimated scf accuracy    <       0.00007856 Ry

     iteration # 12     ecut=    70.00 Ry     beta= 0.70
     Davidson diagonalization with overlap
     ethr =  1.23E-07,  avg # of iterations =  2.8

     negative rho (up, down):  5.103E-05 0.000E+00

     total cpu time spent up to now is      216.8 secs

     total energy              =   -1438.47519474 Ry
     estimated scf accuracy    <       0.00000809 Ry

     iteration # 13     ecut=    70.00 Ry     beta= 0.70
     Davidson diagonalization with overlap
     ethr =  1.26E-08,  avg # of iterations =  2.6

     negative rho (up, down):  6.241E-05 0.000E+00

     total cpu time spent up to now is      233.0 secs

     total energy              =   -1438.47519623 Ry
     estimated scf accuracy    <       0.00000156 Ry

     iteration # 14     ecut=    70.00 Ry     beta= 0.70
     Davidson diagonalization with overlap
     ethr =  2.44E-09,  avg # of iterations =  2.5

     negative rho (up, down):  6.199E-05 0.000E+00

     total cpu time spent up to now is      248.1 secs

     total energy              =   -1438.47519643 Ry
     estimated scf accuracy    <       0.00000040 Ry

     iteration # 15     ecut=    70.00 Ry     beta= 0.70
     Davidson diagonalization with overlap
     ethr =  6.18E-10,  avg # of iterations =  2.0

     negative rho (up, down):  6.572E-05 0.000E+00

     total cpu time spent up to now is      262.5 secs

     total energy              =   -1438.47519649 Ry
     estimated scf accuracy    <       0.00000022 Ry

     iteration # 16     ecut=    70.00 Ry     beta= 0.70
     Davidson diagonalization with overlap
     ethr =  3.38E-10,  avg # of iterations =  1.4

     negative rho (up, down):  6.446E-05 0.000E+00

     total cpu time spent up to now is      276.1 secs

     total energy              =   -1438.47519650 Ry
     estimated scf accuracy    <       0.00000007 Ry

     iteration # 17     ecut=    70.00 Ry     beta= 0.70
     Davidson diagonalization with overlap
     ethr =  1.07E-10,  avg # of iterations =  2.0

     negative rho (up, down):  6.517E-05 0.000E+00

     total cpu time spent up to now is      290.6 secs

     total energy              =   -1438.47519650 Ry
     estimated scf accuracy    <       0.00000006 Ry

     iteration # 18     ecut=    70.00 Ry     beta= 0.70
     Davidson diagonalization with overlap
     ethr =  8.95E-11,  avg # of iterations =  1.2

     negative rho (up, down):  6.515E-05 0.000E+00

     total cpu time spent up to now is      304.1 secs

     total energy              =   -1438.47519651 Ry
     estimated scf accuracy    <          6.5E-10 Ry

     iteration # 19     ecut=    70.00 Ry     beta= 0.70
     Davidson diagonalization with overlap
     ethr =  1.02E-12,  avg # of iterations =  4.2

     negative rho (up, down):  6.514E-05 0.000E+00

     total cpu time spent up to now is      322.4 secs

     total energy              =   -1438.47519651 Ry
     estimated scf accuracy    <          2.2E-10 Ry

     iteration # 20     ecut=    70.00 Ry     beta= 0.70
     Davidson diagonalization with overlap
     ethr =  3.51E-13,  avg # of iterations =  2.0

     negative rho (up, down):  6.513E-05 0.000E+00

     total cpu time spent up to now is      337.6 secs

     total energy              =   -1438.47519651 Ry
     estimated scf accuracy    <          2.6E-11 Ry

     iteration # 21     ecut=    70.00 Ry     beta= 0.70
     Davidson diagonalization with overlap
     ethr =  1.00E-13,  avg # of iterations =  2.0

     negative rho (up, down):  6.511E-05 0.000E+00

     total cpu time spent up to now is      352.0 secs

     total energy              =   -1438.47519651 Ry
     estimated scf accuracy    <          1.8E-12 Ry

     iteration # 22     ecut=    70.00 Ry     beta= 0.70
     Davidson diagonalization with overlap
     ethr =  1.00E-13,  avg # of iterations =  1.0

     negative rho (up, down):  6.510E-05 0.000E+00

     total cpu time spent up to now is      365.3 secs

     End of self-consistent calculation

          k = 0.0000 0.0000 0.0000 ( 16709 PWs)   bands (ev):

   -68.0019 -67.8760 -34.8581 -34.3333 -34.3223 -34.3213 -34.0562 -34.0526
   -19.6538 -19.6252 -19.6251 -19.6207 -19.6040 -19.6034 -19.5988 -19.5851
   -19.5474 -19.5449 -19.5226 -19.5225 -19.5074 -19.4579 -14.3067 -12.1201
    -7.1272  -4.2469  -4.2222  -3.2531  -0.9896  -0.9628  -0.6317  -0.1220
     0.1762   0.1992   2.7642   2.7921   3.0825   3.0905

          k = 0.0003 0.0897 0.0000 ( 16692 PWs)   bands (ev):

   -67.9996 -67.8742 -34.8476 -34.3818 -34.3311 -34.3139 -34.0856 -34.0628
   -19.6515 -19.6259 -19.6240 -19.6196 -19.6048 -19.6040 -19.6010 -19.5840
   -19.5478 -19.5459 -19.5229 -19.5217 -19.5053 -19.4600 -14.1823 -12.0700
    -6.9400  -4.5968  -4.1704  -3.0826  -1.5245  -1.0675  -0.7115  -0.1673
     0.2935   0.3095   2.6615   2.7784   2.8867   3.1931

          k = 0.0006 0.1795 0.0000 ( 16732 PWs)   bands (ev):

   -67.9933 -67.8693 -34.8204 -34.4855 -34.3575 -34.3210 -34.1692 -34.0822
   -19.6454 -19.6278 -19.6210 -19.6162 -19.6083 -19.6074 -19.6036 -19.5812
   -19.5501 -19.5477 -19.5236 -19.5194 -19.4995 -19.4656 -13.8362 -11.9383
    -6.4332  -5.1200  -4.0566  -3.3048  -2.2359  -1.3177  -0.9334  -0.5301
     0.6200   0.7270   2.3678   2.8087   2.8912   3.7287

          k = 0.0008 0.2692 0.0000 ( 16798 PWs)   bands (ev):

   -67.9846 -67.8627 -34.7938 -34.6110 -34.3932 -34.3552 -34.2590 -34.1087
   -19.6373 -19.6299 -19.6178 -19.6156 -19.6118 -19.6105 -19.6041 -19.5778
   -19.5545 -19.5491 -19.5242 -19.5163 -19.4917 -19.4730 -13.3514 -11.7580
    -5.9996  -5.2577  -4.1345  -3.9994  -2.6727  -1.5047  -1.4580  -0.6676
     1.1165   1.4884   2.4011   2.8403   3.0676   4.2586

          k = 0.0011 0.3590 0.0000 ( 16802 PWs)   bands (ev):

   -67.9759 -67.8560 -34.8238 -34.6839 -34.4286 -34.4230 -34.3050 -34.1351
   -19.6345 -19.6271 -19.6251 -19.6138 -19.6124 -19.6060 -19.6044 -19.5747
   -19.5589 -19.5505 -19.5246 -19.5131 -19.4839 -19.4801 -12.8776 -11.5205
    -6.3134  -4.9879  -4.4511  -4.0543  -3.2134  -1.8872  -1.5456  -0.4237
     1.6281   2.3953   2.6650   3.1889   3.2354   4.5712

          k = 0.0014 0.4487 0.0000 ( 16832 PWs)   bands (ev):

   -67.9695 -67.8511 -34.8985 -34.6999 -34.4617 -34.4542 -34.3306 -34.1545
   -19.6361 -19.6310 -19.6225 -19.6144 -19.6096 -19.6045 -19.6020 -19.5727
   -19.5621 -19.5516 -19.5247 -19.5107 -19.4851 -19.4780 -12.5871 -11.2105
    -6.8851  -5.0334  -4.2572  -4.1476  -3.5324  -2.0388  -1.5281   0.0507
     2.0095   2.7513   3.1639   3.7900   3.8135   4.6744

          k =-0.0017-0.5385 0.0000 ( 16826 PWs)   bands (ev):

   -67.9672 -67.8493 -34.9302 -34.7082 -34.4666 -34.4635 -34.3418 -34.1616
   -19.6368 -19.6332 -19.6214 -19.6138 -19.6086 -19.6044 -19.6004 -19.5720
   -19.5632 -19.5521 -19.5248 -19.5098 -19.4869 -19.4759 -12.5045 -11.0368
    -7.1708  -4.9452  -4.4056  -4.1895  -3.5224  -2.0430  -1.5183   0.3354
     2.1756   2.7395   3.5082   4.1579   4.2556   4.6695

          k = 0.0780 0.0447 0.0000 ( 16695 PWs)   bands (ev):

   -67.9996 -67.8742 -34.8476 -34.3816 -34.3320 -34.3136 -34.0888 -34.0599
   -19.6515 -19.6256 -19.6241 -19.6197 -19.6052 -19.6037 -19.6010 -19.5840
   -19.5486 -19.5452 -19.5229 -19.5217 -19.5053 -19.4600 -14.1817 -12.0697
    -6.9391  -4.5812  -4.1913  -3.0786  -1.5046  -1.0899  -0.7132  -0.1617
     0.2741   0.3220   2.6596   2.8044   2.8662   3.1848

          k = 0.0783 0.1345 0.0000 ( 16696 PWs)   bands (ev):

   -67.9952 -67.8708 -34.8286 -34.4511 -34.3556 -34.3145 -34.1431 -34.0769
   -19.6473 -19.6266 -19.6225 -19.6173 -19.6078 -19.6046 -19.6041 -19.5820
   -19.5502 -19.5463 -19.5234 -19.5202 -19.5013 -19.4639 -13.9457 -11.9788
    -6.5845  -4.9849  -4.1261  -3.1144  -2.0643  -1.4304  -0.6661  -0.2556
     0.0368   0.8094   2.4628   2.7335   3.0564   3.4029

          k = 0.0785 0.2242 0.0000 ( 16780 PWs)   bands (ev):

   -67.9877 -67.8651 -34.8002 -34.5596 -34.3994 -34.3285 -34.2258 -34.1054
   -19.6401 -19.6284 -19.6198 -19.6142 -19.6126 -19.6085 -19.6047 -19.5789
   -19.5534 -19.5480 -19.5240 -19.5176 -19.4946 -19.4704 -13.5266 -11.8257
    -5.9993  -5.3567  -4.1611  -3.6643  -2.5536  -1.6452  -0.9241  -0.7278
     0.5141   1.4097   2.2371   2.9068   3.3242   3.8777

          k = 0.0788 0.3140 0.0000 ( 16799 PWs)   bands (ev):

   -67.9791 -67.8584 -34.7958 -34.6567 -34.4500 -34.3725 -34.2888 -34.1367
   -19.6332 -19.6291 -19.6223 -19.6157 -19.6121 -19.6076 -19.6051 -19.5755
   -19.5573 -19.5498 -19.5243 -19.5147 -19.4868 -19.4777 -13.0356 -11.6275
    -5.9793  -5.0544  -4.5278  -4.0941  -2.9729  -1.9519  -1.3104  -0.6213
     1.1541   1.9009   2.5077   3.2382   3.5101   4.3741

          k = 0.0791 0.4037 0.0000 ( 16788 PWs)   bands (ev):

   -67.9715 -67.8526 -34.8572 -34.6863 -34.4870 -34.4259 -34.3199 -34.1631
   -19.6340 -19.6291 -19.6235 -19.6143 -19.6119 -19.6055 -19.6033 -19.5730
   -19.5608 -19.5515 -19.5244 -19.5121 -19.4840 -19.4798 -12.6444 -11.3567
    -6.4942  -5.0454  -4.2766  -4.2228  -3.4313  -2.1789  -1.4671  -0.2246
     1.7486   2.2809   3.0262   3.6498   3.9056   4.5951

          k = 0.0794 0.4935 0.0000 ( 16844 PWs)   bands (ev):

   -67.9672 -67.8493 -34.9109 -34.6976 -34.4976 -34.4527 -34.3382 -34.1783
   -19.6352 -19.6331 -19.6209 -19.6139 -19.6099 -19.6053 -19.6009 -19.5717
   -19.5627 -19.5526 -19.5243 -19.5106 -19.4873 -19.4759 -12.4661 -11.0886
    -6.9717  -4.9954  -4.3536  -4.2219  -3.5245  -2.2226  -1.5138   0.1942
     2.1862   2.4963   3.4098   4.0313   4.2448   4.7339

          k = 0.0763-0.4937 0.0000 ( 16838 PWs)   bands (ev):

   -67.9672 -67.8493 -34.9105 -34.6974 -34.4974 -34.4530 -34.3381 -34.1785
   -19.6352 -19.6330 -19.6209 -19.6139 -19.6100 -19.6054 -19.6008 -19.5717
   -19.5625 -19.5527 -19.5243 -19.5105 -19.4873 -19.4759 -12.4666 -11.0890
    -6.9707  -4.9954  -4.3458  -4.2291  -3.5241  -2.2230  -1.5128   0.1941
     2.1882   2.4995   3.4146   4.0195   4.2390   4.7320

          k = 0.0766-0.4040 0.0000 ( 16796 PWs)   bands (ev):

   -67.9716 -67.8526 -34.8563 -34.6859 -34.4864 -34.4265 -34.3196 -34.1638
   -19.6340 -19.6290 -19.6235 -19.6143 -19.6122 -19.6055 -19.6031 -19.5731
   -19.5603 -19.5519 -19.5244 -19.5120 -19.4840 -19.4798 -12.6457 -11.3574
    -6.4920  -5.0443  -4.2720  -4.2262  -3.4306  -2.1812  -1.4640  -0.2248
     1.7529   2.2866   3.0227   3.6358   3.8999   4.5955

          k = 0.0769-0.3142 0.0000 ( 16797 PWs)   bands (ev):

   -67.9791 -67.8584 -34.7952 -34.6559 -34.4496 -34.3725 -34.2879 -34.1379
   -19.6333 -19.6290 -19.6221 -19.6162 -19.6121 -19.6072 -19.6053 -19.5757
   -19.5565 -19.5506 -19.5243 -19.5145 -19.4868 -19.4777 -13.0372 -11.6283
    -5.9779  -5.0549  -4.5253  -4.0926  -2.9721  -1.9565  -1.3048  -0.6214
     1.1601   1.8989   2.5027   3.2349   3.5056   4.3764

          k = 0.0772-0.2245 0.0000 ( 16782 PWs)   bands (ev):

   -67.9878 -67.8651 -34.8002 -34.5583 -34.3996 -34.3285 -34.2237 -34.1072
   -19.6401 -19.6284 -19.6204 -19.6138 -19.6121 -19.6086 -19.6049 -19.5790
   -19.5521 -19.5493 -19.5240 -19.5175 -19.4946 -19.4704 -13.5280 -11.8266
    -6.0003  -5.3577  -4.1555  -3.6654  -2.5533  -1.6473  -0.9171  -0.7313
     0.5217   1.4040   2.2350   2.9163   3.3188   3.8743

          k = 0.0774-0.1348 0.0000 ( 16718 PWs)   bands (ev):

   -67.9953 -67.8709 -34.8287 -34.4502 -34.3558 -34.3146 -34.1403 -34.0792
   -19.6473 -19.6267 -19.6229 -19.6169 -19.6072 -19.6047 -19.6044 -19.5821
   -19.5487 -19.5478 -19.5234 -19.5201 -19.5013 -19.4639 -13.9466 -11.9796
    -6.5856  -4.9908  -4.1151  -3.1182  -2.0675  -1.4274  -0.6630  -0.2618
     0.0488   0.8062   2.4611   2.7493   3.0521   3.3941

          k = 0.0777-0.0450 0.0000 ( 16700 PWs)   bands (ev):

   -67.9996 -67.8742 -34.8476 -34.3814 -34.3319 -34.3137 -34.0868 -34.0617
   -19.6515 -19.6258 -19.6241 -19.6196 -19.6048 -19.6040 -19.6011 -19.5840
   -19.5481 -19.5456 -19.5229 -19.5217 -19.5053 -19.4600 -14.1820 -12.0699
    -6.9396  -4.5916  -4.1775  -3.0811  -1.5167  -1.0764  -0.7111  -0.1659
     0.2889   0.3110   2.6614   2.7889   2.8825   3.1840

          k = 0.1560 0.0895 0.0000 ( 16720 PWs)   bands (ev):

   -67.9932 -67.8692 -34.8201 -34.4858 -34.3588 -34.3210 -34.1729 -34.0797
   -19.6454 -19.6273 -19.6211 -19.6165 -19.6082 -19.6080 -19.6032 -19.5810
   -19.5519 -19.5460 -19.5238 -19.5194 -19.4995 -19.4656 -13.8338 -11.9372
    -6.4299  -5.1094  -4.0773  -3.2980  -2.2237  -1.3411  -0.9324  -0.5219
     0.6253   0.7069   2.3646   2.7933   2.9142   3.7198

          k = 0.1563 0.1792 0.0000 ( 16783 PWs)   bands (ev):

   -67.9877 -67.8650 -34.8000 -34.5596 -34.4003 -34.3287 -34.2275 -34.1045
   -19.6401 -19.6280 -19.6200 -19.6142 -19.6126 -19.6090 -19.6044 -19.5787
   -19.5542 -19.5472 -19.5242 -19.5176 -19.4946 -19.4704 -13.5248 -11.8249
    -5.9961  -5.3526  -4.1684  -3.6629  -2.5513  -1.6554  -0.9152  -0.7344
     0.5135   1.4058   2.2333   2.9038   3.3348   3.8708

          k = 0.1565 0.2690 0.0000 ( 16806 PWs)   bands (ev):

   -67.9801 -67.8592 -34.7880 -34.6317 -34.4718 -34.3498 -34.2794 -34.1455
   -19.6329 -19.6284 -19.6213 -19.6185 -19.6108 -19.6080 -19.6059 -19.5757
   -19.5571 -19.5493 -19.5242 -19.5154 -19.4879 -19.4769 -13.0902 -11.6624
    -5.6569  -5.3124  -4.5310  -4.0736  -2.9368  -2.0044  -1.0855  -0.6908
     0.7556   1.6812   2.4829   3.4945   3.5981   4.3652

          k = 0.1568 0.3587 0.0000 ( 16789 PWs)   bands (ev):

   -67.9726 -67.8534 -34.8180 -34.6622 -34.5345 -34.3895 -34.3177 -34.1860
   -19.6303 -19.6277 -19.6246 -19.6163 -19.6129 -19.6072 -19.6037 -19.5728
   -19.5598 -19.5516 -19.5239 -19.5135 -19.4839 -19.4806 -12.6594 -11.4490
    -5.9948  -5.0429  -4.5520  -4.3100  -3.3071  -2.4370  -1.1881  -0.4519
     1.1985   1.9132   2.9453   3.7453   4.1522   4.9208

          k = 0.1571 0.4484 0.0000 ( 16832 PWs)   bands (ev):

   -67.9671 -67.8492 -34.8647 -34.6725 -34.5626 -34.4266 -34.3416 -34.2144
   -19.6331 -19.6308 -19.6197 -19.6144 -19.6131 -19.6074 -19.6016 -19.5709
   -19.5615 -19.5536 -19.5234 -19.5122 -19.4883 -19.4759 -12.3816 -11.1959
    -6.4712  -5.0986  -4.5140  -4.1051  -3.5727  -2.6720  -1.2399  -0.1209
     1.7447   2.3306   3.0338   4.0085   4.3346   5.1027

          k = 0.1574 0.5382 0.0000 ( 16862 PWs)   bands (ev):

   -67.9651 -67.8477 -34.8837 -34.6785 -34.5677 -34.4406 -34.3499 -34.2251
   -19.6347 -19.6313 -19.6187 -19.6134 -19.6125 -19.6074 -19.6010 -19.5703
   -19.5618 -19.5546 -19.5231 -19.5117 -19.4900 -19.4741 -12.2971 -11.0645
    -6.6974  -5.0779  -4.4785  -4.1911  -3.5824  -2.6961  -1.2538   0.0924
     2.0305   2.4776   3.2760   3.7035   4.2913   5.3419

          k = 0.1543-0.4490 0.0000 ( 16836 PWs)   bands (ev):

   -67.9672 -67.8493 -34.8632 -34.6718 -34.5629 -34.4267 -34.3411 -34.2155
   -19.6332 -19.6305 -19.6197 -19.6144 -19.6134 -19.6077 -19.6014 -19.5710
   -19.5607 -19.5543 -19.5234 -19.5121 -19.4883 -19.4759 -12.3834 -11.1970
    -6.4680  -5.0965  -4.5109  -4.1066  -3.5730  -2.6735  -1.2365  -0.1194
     1.7481   2.3337   3.0326   3.9829   4.3364   5.0947

          k = 0.1546-0.3592 0.0000 ( 16807 PWs)   bands (ev):

   -67.9727 -67.8535 -34.8161 -34.6612 -34.5348 -34.3888 -34.3167 -34.1880
   -19.6306 -19.6272 -19.6245 -19.6169 -19.6127 -19.6075 -19.6034 -19.5730
   -19.5584 -19.5529 -19.5239 -19.5133 -19.4838 -19.4807 -12.6624 -11.4504
    -5.9913  -5.0391  -4.5526  -4.3077  -3.3054  -2.4402  -1.1846  -0.4485
     1.2008   1.9130   2.9412   3.7303   4.1461   4.9216

          k = 0.1549-0.2695 0.0000 ( 16812 PWs)   bands (ev):

   -67.9803 -67.8593 -34.7873 -34.6300 -34.4718 -34.3491 -34.2772 -34.1481
   -19.6328 -19.6285 -19.6210 -19.6190 -19.6104 -19.6075 -19.6065 -19.5759
   -19.5554 -19.5509 -19.5242 -19.5152 -19.4879 -19.4770 -13.0932 -11.6641
    -5.6568  -5.3137  -4.5257  -4.0714  -2.9347  -2.0059  -1.0848  -0.6855
     0.7608   1.6760   2.4801   3.4971   3.5901   4.3642

          k = 0.1552-0.1798 0.0000 ( 16786 PWs)   bands (ev):

   -67.9878 -67.8651 -34.8001 -34.5582 -34.4002 -34.3285 -34.2244 -34.1069
   -19.6401 -19.6283 -19.6204 -19.6138 -19.6121 -19.6086 -19.6050 -19.5789
   -19.5527 -19.5488 -19.5241 -19.5175 -19.4946 -19.4704 -13.5271 -11.8265
    -5.9988  -5.3563  -4.1579  -3.6655  -2.5512  -1.6502  -0.9161  -0.7338
     0.5218   1.4026   2.2340   2.9139   3.3250   3.8696

          k = 0.1554-0.0900 0.0000 ( 16732 PWs)   bands (ev):

   -67.9932 -67.8693 -34.8203 -34.4853 -34.3585 -34.3209 -34.1706 -34.0814
   -19.6454 -19.6277 -19.6211 -19.6162 -19.6082 -19.6074 -19.6037 -19.5812
   -19.5509 -19.5469 -19.5237 -19.5194 -19.4995 -19.4656 -13.8350 -11.9382
    -6.4316  -5.1165  -4.0634  -3.3033  -2.2292  -1.3265  -0.9323  -0.5299
     0.6211   0.7205   2.3670   2.8044   2.9002   3.7219

          k = 0.1557-0.0003 0.0000 ( 16691 PWs)   bands (ev):

   -67.9952 -67.8708 -34.8285 -34.4511 -34.3560 -34.3146 -34.1447 -34.0757
   -19.6473 -19.6265 -19.6226 -19.6173 -19.6077 -19.6047 -19.6041 -19.5820
   -19.5507 -19.5458 -19.5234 -19.5202 -19.5013 -19.4639 -13.9449 -11.9787
    -6.5834  -4.9819  -4.1312  -3.1137  -2.0584  -1.4359  -0.6649  -0.2538
     0.0304   0.8074   2.4646   2.7328   3.0600   3.3964

          k = 0.2340 0.1342 0.0000 ( 16788 PWs)   bands (ev):

   -67.9844 -67.8625 -34.7936 -34.6119 -34.3951 -34.3563 -34.2621 -34.1067
   -19.6376 -19.6291 -19.6178 -19.6159 -19.6123 -19.6109 -19.6036 -19.5773
   -19.5564 -19.5472 -19.5247 -19.5162 -19.4917 -19.4731 -13.3464 -11.7560
    -5.9921  -5.2513  -4.1285  -4.0211  -2.6666  -1.5301  -1.4513  -0.6679
     1.1212   1.4739   2.4029   2.8274   3.0850   4.2510

          k = 0.2343 0.2240 0.0000 ( 16795 PWs)   bands (ev):

   -67.9789 -67.8582 -34.7960 -34.6570 -34.4514 -34.3741 -34.2905 -34.1357
   -19.6336 -19.6282 -19.6223 -19.6162 -19.6126 -19.6077 -19.6046 -19.5751
   -19.5587 -19.5486 -19.5248 -19.5146 -19.4868 -19.4777 -13.0312 -11.6259
    -5.9712  -5.0534  -4.5239  -4.1074  -2.9707  -1.9651  -1.3089  -0.6254
     1.1580   1.9040   2.5015   3.2330   3.5147   4.3697

          k = 0.2345 0.3137 0.0000 ( 16796 PWs)   bands (ev):

   -67.9725 -67.8533 -34.8184 -34.6624 -34.5352 -34.3904 -34.3186 -34.1854
   -19.6304 -19.6277 -19.6242 -19.6166 -19.6132 -19.6069 -19.6037 -19.5726
   -19.5605 -19.5509 -19.5242 -19.5134 -19.4838 -19.4806 -12.6569 -11.4481
    -5.9896  -5.0446  -4.5565  -4.3097  -3.3066  -2.4450  -1.1838  -0.4561
     1.2015   1.9180   2.9463   3.7368   4.1542   4.9164

          k = 0.2348 0.4034 0.0000 ( 16820 PWs)   bands (ev):

   -67.9670 -67.8491 -34.8353 -34.6482 -34.6130 -34.4008 -34.3574 -34.2328
   -19.6330 -19.6273 -19.6197 -19.6163 -19.6139 -19.6085 -19.6019 -19.5704
   -19.5613 -19.5537 -19.5229 -19.5131 -19.4888 -19.4759 -12.3328 -11.2522
    -6.0935  -5.1880  -4.7036  -4.0818  -3.5643  -2.8761  -0.9733  -0.3556
     1.4490   2.2379   2.9086   3.9785   4.4070   5.3187

          k = 0.2351 0.4932 0.0000 ( 16874 PWs)   bands (ev):

   -67.9638 -67.8467 -34.8337 -34.6783 -34.6211 -34.4165 -34.3792 -34.2605
   -19.6356 -19.6263 -19.6173 -19.6156 -19.6136 -19.6094 -19.6017 -19.5691
   -19.5609 -19.5562 -19.5218 -19.5134 -19.4918 -19.4731 -12.1526 -11.1099
    -6.2051  -5.2464  -4.8200  -3.9868  -3.6678  -3.0559  -0.8181  -0.1354
     1.6948   2.5053   2.8959   3.4023   4.4354   5.4598

          k = 0.2354 0.5829 0.0000 ( 16870 PWs)   bands (ev):

   -67.9639 -67.8468 -34.8322 -34.6786 -34.6209 -34.4164 -34.3789 -34.2612
   -19.6355 -19.6262 -19.6172 -19.6158 -19.6133 -19.6098 -19.6015 -19.5692
   -19.5598 -19.5572 -19.5217 -19.5133 -19.4918 -19.4731 -12.1539 -11.1107
    -6.2030  -5.2440  -4.8200  -3.9836  -3.6707  -3.0562  -0.8168  -0.1329
     1.6947   2.5079   2.8946   3.3863   4.4372   5.4526

          k = 0.2323-0.4043 0.0000 ( 16815 PWs)   bands (ev):

   -67.9671 -67.8492 -34.8326 -34.6459 -34.6151 -34.3997 -34.3569 -34.2348
   -19.6330 -19.6271 -19.6194 -19.6169 -19.6134 -19.6091 -19.6016 -19.5706
   -19.5596 -19.5553 -19.5229 -19.5130 -19.4888 -19.4759 -12.3362 -11.2540
    -6.0902  -5.1828  -4.7008  -4.0808  -3.5644  -2.8769  -0.9722  -0.3499
     1.4472   2.2381   2.9050   3.9545   4.4073   5.3113

          k = 0.2326-0.3145 0.0000 ( 16795 PWs)   bands (ev):

   -67.9727 -67.8535 -34.8161 -34.6613 -34.5353 -34.3891 -34.3172 -34.1878
   -19.6306 -19.6272 -19.6243 -19.6169 -19.6127 -19.6075 -19.6034 -19.5729
   -19.5588 -19.5525 -19.5240 -19.5133 -19.4838 -19.4806 -12.6612 -11.4504
    -5.9894  -5.0398  -4.5533  -4.3075  -3.3041  -2.4440  -1.1842  -0.4503
     1.2026   1.9145   2.9421   3.7277   4.1469   4.9186

          k = 0.2329-0.2248 0.0000 ( 16789 PWs)   bands (ev):

   -67.9790 -67.8584 -34.7951 -34.6559 -34.4504 -34.3731 -34.2887 -34.1376
   -19.6334 -19.6288 -19.6220 -19.6163 -19.6121 -19.6072 -19.6053 -19.5755
   -19.5571 -19.5500 -19.5245 -19.5145 -19.4868 -19.4777 -13.0350 -11.6283
    -5.9746  -5.0542  -4.5235  -4.0972  -2.9696  -1.9617  -1.3064  -0.6234
     1.1623   1.8996   2.5008   3.2327   3.5090   4.3726

          k = 0.2332-0.1350 0.0000 ( 16790 PWs)   bands (ev):

   -67.9845 -67.8626 -34.7937 -34.6110 -34.3944 -34.3555 -34.2602 -34.1081
   -19.6374 -19.6297 -19.6178 -19.6158 -19.6118 -19.6104 -19.6042 -19.5776
   -19.5553 -19.5483 -19.5244 -19.5163 -19.4917 -19.4731 -13.3490 -11.7579
    -5.9961  -5.2552  -4.1333  -4.0062  -2.6680  -1.5139  -1.4578  -0.6687
     1.1179   1.4833   2.4021   2.8354   3.0747   4.2539

          k = 0.2334-0.0453 0.0000 ( 16782 PWs)   bands (ev):

   -67.9877 -67.8650 -34.8001 -34.5599 -34.4001 -34.3288 -34.2277 -34.1041
   -19.6401 -19.6283 -19.6198 -19.6142 -19.6126 -19.6086 -19.6048 -19.5787
   -19.5542 -19.5473 -19.5240 -19.5177 -19.4946 -19.4705 -13.5245 -11.8255
    -5.9966  -5.3547  -4.1660  -3.6638  -2.5497  -1.6504  -0.9234  -0.7295
     0.5082   1.4097   2.2377   2.9046   3.3290   3.8735

          k = 0.2337 0.0445 0.0000 ( 16779 PWs)   bands (ev):

   -67.9876 -67.8650 -34.8000 -34.5601 -34.4005 -34.3289 -34.2287 -34.1035
   -19.6401 -19.6279 -19.6200 -19.6142 -19.6126 -19.6090 -19.6044 -19.5786
   -19.5546 -19.5469 -19.5242 -19.5176 -19.4946 -19.4705 -13.5236 -11.8248
    -5.9950  -5.3519  -4.1710  -3.6624  -2.5495  -1.6578  -0.9154  -0.7336
     0.5074   1.4071   2.2349   2.9039   3.3335   3.8713

          k = 0.3120 0.1789 0.0000 ( 16802 PWs)   bands (ev):

   -67.9756 -67.8557 -34.8251 -34.6845 -34.4310 -34.4252 -34.3070 -34.1337
   -19.6346 -19.6265 -19.6253 -19.6143 -19.6127 -19.6063 -19.6038 -19.5740
   -19.5609 -19.5487 -19.5253 -19.5130 -19.4838 -19.4801 -12.8701 -11.5175
    -6.3055  -4.9882  -4.4424  -4.0783  -3.2104  -1.8815  -1.5730  -0.4224
     1.6351   2.3900   2.6769   3.1812   3.2397   4.5641

          k = 0.3123 0.2687 0.0000 ( 16776 PWs)   bands (ev):

   -67.9712 -67.8523 -34.8586 -34.6870 -34.4884 -34.4281 -34.3217 -34.1621
   -19.6339 -19.6292 -19.6232 -19.6147 -19.6123 -19.6048 -19.6034 -19.5723
   -19.5625 -19.5500 -19.5251 -19.5119 -19.4839 -19.4798 -12.6378 -11.3537
    -6.4868  -5.0465  -4.2789  -4.2345  -3.4287  -2.1903  -1.4727  -0.2239
     1.7562   2.2951   3.0293   3.6374   3.9031   4.5912

          k = 0.3125 0.3584 0.0000 ( 16845 PWs)   bands (ev):

   -67.9669 -67.8490 -34.8660 -34.6736 -34.5635 -34.4275 -34.3434 -34.2131
   -19.6333 -19.6305 -19.6198 -19.6145 -19.6136 -19.6068 -19.6017 -19.5704
   -19.5630 -19.5523 -19.5240 -19.5121 -19.4883 -19.4759 -12.3769 -11.1933
    -6.4670  -5.1003  -4.5227  -4.1082  -3.5722  -2.6807  -1.2382  -0.1189
     1.7534   2.3411   3.0370   3.9969   4.3349   5.0979

          k = 0.3128 0.4482 0.0000 ( 16876 PWs)   bands (ev):

   -67.9637 -67.8466 -34.8350 -34.6787 -34.6215 -34.4167 -34.3801 -34.2595
   -19.6356 -19.6261 -19.6175 -19.6161 -19.6133 -19.6090 -19.6017 -19.5689
   -19.5621 -19.5551 -19.5221 -19.5133 -19.4917 -19.4731 -12.1503 -11.1082
    -6.2047  -5.2471  -4.8238  -3.9900  -3.6705  -3.0554  -0.8197  -0.1319
     1.7006   2.5094   2.8996   3.4004   4.4347   5.4552

          k = 0.3131 0.5379 0.0000 ( 16906 PWs)   bands (ev):

   -67.9626 -67.8458 -34.7851 -34.7407 -34.6120 -34.4091 -34.4050 -34.2774
   -19.6365 -19.6214 -19.6212 -19.6139 -19.6136 -19.6107 -19.6020 -19.5684
   -19.5602 -19.5576 -19.5208 -19.5143 -19.4931 -19.4721 -12.0545 -11.0939
    -5.8982  -5.4283  -5.0625  -3.9014  -3.6589  -3.2299  -0.5533  -0.1004
     1.6371   2.5875   2.6011   3.1256   4.4867   5.7907

          k = 0.3134 0.6277 0.0000 ( 16870 PWs)   bands (ev):

   -67.9638 -67.8467 -34.8325 -34.6790 -34.6210 -34.4165 -34.3793 -34.2608
   -19.6356 -19.6262 -19.6174 -19.6160 -19.6131 -19.6097 -19.6015 -19.5691
   -19.5606 -19.5565 -19.5219 -19.5133 -19.4918 -19.4731 -12.1531 -11.1100
    -6.2033  -5.2442  -4.8204  -3.9849  -3.6692  -3.0582  -0.8177  -0.1319
     1.6958   2.5091   2.8975   3.3856   4.4372   5.4511

          k = 0.3103-0.3595 0.0000 ( 16837 PWs)   bands (ev):

   -67.9671 -67.8492 -34.8635 -34.6723 -34.5635 -34.4270 -34.3419 -34.2150
   -19.6333 -19.6305 -19.6197 -19.6145 -19.6133 -19.6076 -19.6014 -19.5708
   -19.5614 -19.5537 -19.5236 -19.5120 -19.4883 -19.4759 -12.3814 -11.1963
    -6.4668  -5.0964  -4.5136  -4.1063  -3.5705  -2.6794  -1.2374  -0.1188
     1.7510   2.3369   3.0359   3.9788   4.3362   5.0926

          k = 0.3106-0.2698 0.0000 ( 16786 PWs)   bands (ev):

   -67.9714 -67.8525 -34.8565 -34.6862 -34.4872 -34.4274 -34.3203 -34.1636
   -19.6341 -19.6290 -19.6234 -19.6143 -19.6123 -19.6055 -19.6030 -19.5728
   -19.5610 -19.5513 -19.5247 -19.5119 -19.4840 -19.4798 -12.6426 -11.3569
    -6.4895  -5.0440  -4.2713  -4.2292  -3.4282  -2.1880  -1.4675  -0.2247
     1.7560   2.2908   3.0251   3.6321   3.8994   4.5926

          k = 0.3109-0.1800 0.0000 ( 16798 PWs)   bands (ev):

   -67.9758 -67.8559 -34.8240 -34.6842 -34.4300 -34.4237 -34.3058 -34.1347
   -19.6346 -19.6269 -19.6251 -19.6138 -19.6125 -19.6060 -19.6045 -19.5744
   -19.5597 -19.5498 -19.5249 -19.5130 -19.4838 -19.4801 -12.8740 -11.5202
    -6.3103  -4.9878  -4.4464  -4.0620  -3.2106  -1.8889  -1.5553  -0.4236
     1.6300   2.3931   2.6696   3.1853   3.2388   4.5676

          k = 0.3112-0.0903 0.0000 ( 16784 PWs)   bands (ev):

   -67.9789 -67.8583 -34.7960 -34.6572 -34.4511 -34.3733 -34.2900 -34.1357
   -19.6333 -19.6289 -19.6223 -19.6159 -19.6121 -19.6076 -19.6051 -19.5753
   -19.5582 -19.5490 -19.5245 -19.5147 -19.4868 -19.4777 -13.0323 -11.6272
    -5.9766  -5.0528  -4.5281  -4.0980  -2.9697  -1.9580  -1.3128  -0.6228
     1.1503   1.9038   2.5071   3.2402   3.5123   4.3712

          k = 0.3114-0.0005 0.0000 ( 16800 PWs)   bands (ev):

   -67.9800 -67.8591 -34.7882 -34.6325 -34.4723 -34.3504 -34.2808 -34.1441
   -19.6329 -19.6283 -19.6214 -19.6186 -19.6109 -19.6080 -19.6058 -19.5755
   -19.5578 -19.5486 -19.5243 -19.5155 -19.4878 -19.4770 -13.0878 -11.6622
    -5.6568  -5.3101  -4.5341  -4.0737  -2.9349  -2.0076  -1.0842  -0.6947
     0.7505   1.6846   2.4828   3.4955   3.6006   4.3645

          k = 0.3117 0.0892 0.0000 ( 16793 PWs)   bands (ev):

   -67.9788 -67.8582 -34.7963 -34.6574 -34.4517 -34.3743 -34.2910 -34.1350
   -19.6335 -19.6282 -19.6223 -19.6162 -19.6126 -19.6077 -19.6045 -19.5751
   -19.5590 -19.5483 -19.5248 -19.5146 -19.4867 -19.4777 -13.0301 -11.6257
    -5.9719  -5.0525  -4.5260  -4.1066  -2.9700  -1.9662  -1.3097  -0.6249
     1.1520   1.9062   2.5029   3.2372   3.5135   4.3706

          k = 0.3900 0.2237 0.0000 ( 16828 PWs)   bands (ev):

   -67.9691 -67.8508 -34.9009 -34.7016 -34.4625 -34.4569 -34.3328 -34.1535
   -19.6359 -19.6313 -19.6224 -19.6146 -19.6099 -19.6037 -19.6022 -19.5718
   -19.5642 -19.5499 -19.5257 -19.5106 -19.4850 -19.4780 -12.5786 -11.2053
    -6.8799  -5.0333  -4.2561  -4.1737  -3.5274  -2.0317  -1.5573   0.0566
     2.0201   2.7650   3.1679   3.7910   3.8113   4.6713

          k = 0.3903 0.3134 0.0000 ( 16840 PWs)   bands (ev):

   -67.9668 -67.8490 -34.9132 -34.6996 -34.4993 -34.4534 -34.3407 -34.1772
   -19.6350 -19.6332 -19.6211 -19.6139 -19.6103 -19.6045 -19.6011 -19.5708
   -19.5647 -19.5509 -19.5252 -19.5104 -19.4873 -19.4758 -12.4586 -11.0831
    -6.9679  -4.9955  -4.3588  -4.2405  -3.5207  -2.2294  -1.5237   0.2011
     2.1969   2.5107   3.4222   4.0201   4.2383   4.7392

          k = 0.3905 0.4032 0.0000 ( 16840 PWs)   bands (ev):

   -67.9648 -67.8475 -34.8863 -34.6806 -34.5687 -34.4407 -34.3524 -34.2230
   -19.6349 -19.6311 -19.6191 -19.6133 -19.6129 -19.6066 -19.6012 -19.5696
   -19.5639 -19.5528 -19.5238 -19.5116 -19.4899 -19.4740 -12.2910 -11.0598
    -6.6969  -5.0803  -4.4872  -4.1980  -3.5843  -2.7014  -1.2559   0.0988
     2.0407   2.4840   3.2838   3.7093   4.2862   5.3418

          k = 0.3908 0.4929 0.0000 ( 16868 PWs)   bands (ev):

   -67.9637 -67.8466 -34.8357 -34.6786 -34.6218 -34.4168 -34.3802 -34.2590
   -19.6356 -19.6261 -19.6176 -19.6161 -19.6134 -19.6089 -19.6016 -19.5688
   -19.5624 -19.5548 -19.5221 -19.5133 -19.4917 -19.4730 -12.1499 -11.1073
    -6.2066  -5.2482  -4.8224  -3.9906  -3.6696  -3.0558  -0.8203  -0.1333
     1.6993   2.5065   2.8995   3.4114   4.4348   5.4580

          k = 0.3911 0.5827 0.0000 ( 16868 PWs)   bands (ev):

   -67.9638 -67.8467 -34.8347 -34.6787 -34.6215 -34.4166 -34.3798 -34.2596
   -19.6356 -19.6262 -19.6176 -19.6157 -19.6135 -19.6092 -19.6015 -19.5690
   -19.5617 -19.5554 -19.5219 -19.5134 -19.4918 -19.4731 -12.1514 -11.1083
    -6.2074  -5.2477  -4.8191  -3.9886  -3.6653  -3.0583  -0.8197  -0.1358
     1.6946   2.5037   2.8986   3.4126   4.4354   5.4611

          k = 0.3914 0.6724 0.0000 ( 16856 PWs)   bands (ev):

   -67.9650 -67.8476 -34.8844 -34.6795 -34.5684 -34.4406 -34.3509 -34.2243
   -19.6348 -19.6313 -19.6189 -19.6134 -19.6126 -19.6073 -19.6009 -19.5700
   -19.5627 -19.5539 -19.5234 -19.5117 -19.4900 -19.4741 -12.2948 -11.0627
    -6.6980  -5.0776  -4.4806  -4.1925  -3.5805  -2.7011  -1.2561   0.0947
     2.0326   2.4790   3.2812   3.7058   4.2903   5.3420

          k = 0.3883-0.3148 0.0000 ( 16846 PWs)   bands (ev):

   -67.9670 -67.8492 -34.9111 -34.6982 -34.4983 -34.4534 -34.3390 -34.1782
   -19.6353 -19.6330 -19.6210 -19.6137 -19.6102 -19.6052 -19.6007 -19.5714
   -19.5633 -19.5521 -19.5247 -19.5104 -19.4873 -19.4759 -12.4634 -11.0873
    -6.9699  -4.9936  -4.3472  -4.2339  -3.5209  -2.2291  -1.5175   0.1968
     2.1914   2.5036   3.4209   4.0170   4.2352   4.7340

          k = 0.3886-0.2250 0.0000 ( 16836 PWs)   bands (ev):

   -67.9694 -67.8510 -34.8991 -34.7006 -34.4621 -34.4556 -34.3314 -34.1543
   -19.6361 -19.6311 -19.6225 -19.6143 -19.6097 -19.6044 -19.6018 -19.5723
   -19.5629 -19.5510 -19.5251 -19.5106 -19.4851 -19.4780 -12.5834 -11.2092
    -6.8836  -5.0319  -4.2546  -4.1560  -3.5294  -2.0411  -1.5381   0.0530
     2.0123   2.7561   3.1649   3.7917   3.8134   4.6727

          k = 0.3889-0.1353 0.0000 ( 16778 PWs)   bands (ev):

   -67.9714 -67.8525 -34.8579 -34.6868 -34.4883 -34.4265 -34.3209 -34.1624
   -19.6340 -19.6292 -19.6235 -19.6143 -19.6120 -19.6055 -19.6031 -19.5727
   -19.5616 -19.5507 -19.5246 -19.5121 -19.4840 -19.4798 -12.6407 -11.3557
    -6.4931  -5.0452  -4.2769  -4.2250  -3.4292  -2.1848  -1.4718  -0.2240
     1.7468   2.2827   3.0285   3.6543   3.9077   4.5939

          k = 0.3892-0.0456 0.0000 ( 16793 PWs)   bands (ev):

   -67.9725 -67.8533 -34.8190 -34.6629 -34.5352 -34.3904 -34.3186 -34.1846
   -19.6302 -19.6279 -19.6246 -19.6163 -19.6130 -19.6073 -19.6035 -19.5726
   -19.5606 -19.5508 -19.5240 -19.5135 -19.4839 -19.4806 -12.6564 -11.4482
    -5.9954  -5.0440  -4.5529  -4.3095  -3.3043  -2.4425  -1.1887  -0.4552
     1.1966   1.9140   2.9470   3.7495   4.1584   4.9179

          k = 0.3894 0.0442 0.0000 ( 16790 PWs)   bands (ev):

   -67.9724 -67.8533 -34.8193 -34.6630 -34.5355 -34.3909 -34.3191 -34.1842
   -19.6302 -19.6279 -19.6244 -19.6166 -19.6133 -19.6070 -19.6035 -19.5725
   -19.5610 -19.5504 -19.5242 -19.5135 -19.4838 -19.4806 -12.6551 -11.4474
    -5.9921  -5.0451  -4.5567  -4.3093  -3.3051  -2.4467  -1.1848  -0.4576
     1.1979   1.9174   2.9471   3.7437   4.1596   4.9165

          k = 0.3897 0.1339 0.0000 ( 16782 PWs)   bands (ev):

   -67.9712 -67.8523 -34.8591 -34.6872 -34.4890 -34.4277 -34.3219 -34.1616
   -19.6338 -19.6293 -19.6233 -19.6147 -19.6124 -19.6050 -19.6031 -19.5723
   -19.5627 -19.5499 -19.5251 -19.5120 -19.4839 -19.4797 -12.6372 -11.3532
    -6.4882  -5.0465  -4.2797  -4.2341  -3.4288  -2.1895  -1.4740  -0.2234
     1.7513   2.2926   3.0291   3.6458   3.9055   4.5930

          k =-0.4680-0.2684 0.0000 ( 16838 PWs)   bands (ev):

   -67.9668 -67.8489 -34.9329 -34.7107 -34.4668 -34.4659 -34.3444 -34.1607
   -19.6365 -19.6334 -19.6217 -19.6137 -19.6090 -19.6036 -19.6006 -19.5710
   -19.5653 -19.5504 -19.5258 -19.5097 -19.4868 -19.4758 -12.4960 -11.0299
    -7.1675  -4.9427  -4.4105  -4.2162  -3.5167  -2.0342  -1.5482   0.3438
     2.1888   2.7512   3.5170   4.1559   4.2575   4.6741

          k =-0.4677-0.1787 0.0000 ( 16844 PWs)   bands (ev):

   -67.9668 -67.8490 -34.9134 -34.6997 -34.4996 -34.4531 -34.3408 -34.1770
   -19.6349 -19.6333 -19.6211 -19.6139 -19.6103 -19.6045 -19.6010 -19.5708
   -19.5647 -19.5509 -19.5252 -19.5104 -19.4873 -19.4758 -12.4584 -11.0827
    -6.9686  -4.9952  -4.3614  -4.2383  -3.5209  -2.2288  -1.5243   0.2012
     2.1949   2.5093   3.4173   4.0260   4.2450   4.7393

          k =-0.4674-0.0889 0.0000 ( 16845 PWs)   bands (ev):

   -67.9668 -67.8490 -34.8668 -34.6741 -34.5636 -34.4275 -34.3436 -34.2125
   -19.6332 -19.6306 -19.6198 -19.6146 -19.6136 -19.6069 -19.6016 -19.5703
   -19.5632 -19.5521 -19.5240 -19.5121 -19.4883 -19.4758 -12.3762 -11.1922
    -6.4694  -5.1005  -4.5238  -4.1072  -3.5717  -2.6804  -1.2398  -0.1194
     1.7501   2.3379   3.0359   4.0109   4.3376   5.1017

          k =-0.4672 0.0008 0.0000 ( 16818 PWs)   bands (ev):

   -67.9669 -67.8490 -34.8365 -34.6494 -34.6126 -34.4015 -34.3577 -34.2317
   -19.6330 -19.6273 -19.6199 -19.6163 -19.6140 -19.6085 -19.6017 -19.5702
   -19.5620 -19.5530 -19.5230 -19.5132 -19.4888 -19.4759 -12.3311 -11.2507
    -6.0969  -5.1893  -4.7038  -4.0810  -3.5610  -2.8797  -0.9742  -0.3586
     1.4479   2.2363   2.9101   3.9916   4.4099   5.3225

          k =-0.4669 0.0906 0.0000 ( 16836 PWs)   bands (ev):

   -67.9670 -67.8491 -34.8657 -34.6735 -34.5633 -34.4269 -34.3426 -34.2133
   -19.6331 -19.6308 -19.6198 -19.6144 -19.6133 -19.6073 -19.6014 -19.5707
   -19.5624 -19.5528 -19.5236 -19.5122 -19.4883 -19.4759 -12.3789 -11.1941
    -6.4725  -5.0987  -4.5179  -4.1039  -3.5697  -2.6776  -1.2424  -0.1208
     1.7444   2.3306   3.0360   4.0184   4.3371   5.1045

          k =-0.4666 0.1803 0.0000 ( 16844 PWs)   bands (ev):

   -67.9670 -67.8491 -34.9117 -34.6986 -34.4988 -34.4527 -34.3393 -34.1778
   -19.6352 -19.6331 -19.6210 -19.6138 -19.6101 -19.6052 -19.6007 -19.5713
   -19.5635 -19.5519 -19.5247 -19.5105 -19.4873 -19.4758 -12.4628 -11.0866
    -6.9716  -4.9933  -4.3576  -4.2245  -3.5216  -2.2281  -1.5192   0.1970
     2.1875   2.4990   3.4112   4.0346   4.2477   4.7361

          k =-0.4696-0.8069 0.0000 ( 16830 PWs)   bands (ev):

   -67.9670 -67.8492 -34.9309 -34.7093 -34.4668 -34.4647 -34.3427 -34.1614
   -19.6368 -19.6332 -19.6215 -19.6137 -19.6088 -19.6043 -19.6002 -19.5717
   -19.5641 -19.5514 -19.5251 -19.5097 -19.4869 -19.4758 -12.5009 -11.0346
    -7.1703  -4.9418  -4.4063  -4.1982  -3.5188  -2.0450  -1.5285   0.3388
     2.1793   2.7436   3.5107   4.1559   4.2589   4.6707

     the Fermi energy is     0.2015 ev

!    total energy              =   -1438.47519651 Ry
     estimated scf accuracy    <          8.2E-13 Ry
     smearing contrib. (-TS)   =      -0.00002090 Ry
     internal energy E=F+TS    =   -1438.47517561 Ry

     The total energy is F=E-TS. E is the sum of the following terms:
     one-electron contribution =  -11692.76526121 Ry
     hartree contribution      =    5877.34298272 Ry
     xc contribution           =    -143.95495968 Ry
     ewald contribution        =    4565.78312073 Ry
     one-center paw contrib.   =     -44.88105816 Ry

     convergence has been achieved in  22 iterations

     negative rho (up, down):  6.510E-05 0.000E+00

     Forces acting on atoms (cartesian axes, Ry/au):

     atom    1 type  2   force =     0.00036225    0.00039641   -0.00084892
     atom    2 type  1   force =    -0.00057933   -0.00037157    0.00014372
     atom    3 type  1   force =     0.00022340    0.00068777    0.00037714
     atom    4 type  3   force =    -0.00000632   -0.00071261    0.00032806

     Total force =     0.001669     Total SCF correction =     0.000011


     Computing stress (Cartesian axis) and pressure


     negative rho (up, down):  6.510E-05 0.000E+00
          total   stress  (Ry/bohr**3)                   (kbar)     P=        0.45
   0.00000762   0.00000025   0.00000103            1.12        0.04        0.15
   0.00000025   0.00000398  -0.00000086            0.04        0.59       -0.13
   0.00000103  -0.00000086  -0.00000237            0.15       -0.13       -0.35


     Writing output data file /scratch/as3359/Ta2CO_loop/Ta.save/
 
     init_run     :     26.18s CPU     15.68s WALL (       1 calls)
     electrons    :    674.25s CPU    349.43s WALL (       1 calls)
     forces       :     12.79s CPU      6.56s WALL (       1 calls)
     stress       :     39.13s CPU     20.15s WALL (       1 calls)

     Called by init_run:
     wfcinit      :     10.52s CPU      5.40s WALL (       1 calls)
     potinit      :      4.21s CPU      2.13s WALL (       1 calls)
     hinit0       :      9.31s CPU      6.92s WALL (       1 calls)

     Called by electrons:
     c_bands      :    497.93s CPU    252.68s WALL (      22 calls)
     sum_band     :    127.54s CPU     68.49s WALL (      22 calls)
     v_of_rho     :      7.29s CPU      3.88s WALL (      23 calls)
     newd         :     40.97s CPU     24.16s WALL (      23 calls)
     PAW_pot      :      0.76s CPU      0.39s WALL (      23 calls)
     mix_rho      :      1.10s CPU      0.59s WALL (      22 calls)

     Called by c_bands:
     init_us_2    :     12.58s CPU      6.31s WALL (    3478 calls)
     cegterg      :    453.66s CPU    230.40s WALL (    1628 calls)

     Called by *egterg:
     cdiaghg      :     16.56s CPU      8.48s WALL (    6951 calls)
     h_psi        :    352.85s CPU    179.69s WALL (    7025 calls)
     s_psi        :     16.93s CPU      8.49s WALL (    7025 calls)
     g_psi        :      2.91s CPU      1.46s WALL (    5323 calls)

     Called by h_psi:
     h_psi:calbec :     16.11s CPU      8.10s WALL (    7025 calls)
     vloc_psi     :    315.34s CPU    160.85s WALL (    7025 calls)
     add_vuspsi   :     18.44s CPU      9.24s WALL (    7025 calls)

     General routines
     calbec       :     22.91s CPU     11.52s WALL (    9023 calls)
     fft          :      5.99s CPU      3.41s WALL (     322 calls)
     ffts         :      0.13s CPU      0.08s WALL (      45 calls)
     fftw         :    329.28s CPU    168.01s WALL (  364764 calls)
     interpolate  :      0.44s CPU      0.25s WALL (      23 calls)
 
     Parallel routines
 
     PWSCF        :  12m35.29s CPU   6m34.66s WALL

 
   This run was terminated on:   4:39:42  22Apr2022            

=------------------------------------------------------------------------------=
   JOB DONE.
=------------------------------------------------------------------------------=
