
     Program PWSCF v.6.8 starts on 22Apr2022 at  4:16:38 

     This program is part of the open-source Quantum ESPRESSO suite
     for quantum simulation of materials; please cite
         "P. Giannozzi et al., J. Phys.:Condens. Matter 21 395502 (2009);
         "P. Giannozzi et al., J. Phys.:Condens. Matter 29 465901 (2017);
         "P. Giannozzi et al., J. Chem. Phys. 152 154105 (2020);
          URL http://www.quantum-espresso.org", 
     in publications or presentations arising from this work. More details at
     http://www.quantum-espresso.org/quote

     Parallel version (MPI & OpenMP), running on       4 processor cores
     Number of MPI processes:                 2
     Threads/MPI process:                     2

     MPI processes distributed on     1 nodes
     R & G space division:  proc/nbgrp/npool/nimage =       2
     124229 MiB available memory on the printing compute node when the environment starts
 
     Reading input from Ta2CS.relax.in
Warning: card  &CELL ignored
Warning: card     CELL_DYNAMICS='BFGS', CELL_DOFREE ='2DXY' ignored
Warning: card  / ignored

     Current dimensions of program PWSCF are:
     Max number of different atomic species (ntypx) = 10
     Max number of k-points (npk) =  40000
     Max angular momentum in pseudopotentials (lmaxx) =  4
     file Ta.pbesol-spfn-rrkjus_psl.1.0.0.UPF: wavefunction(s)  5S 5P renormalized
     file S.pbesol-nl-kjpaw_psl.1.0.0.UPF: wavefunction(s)  3S renormalized

     Subspace diagonalization in iterative solution of the eigenvalue problem:
     a serial algorithm will be used

 
     Parallelization info
     --------------------
     sticks:   dense  smooth     PW     G-vecs:    dense   smooth      PW
     Min         856     336    105               265452    67176   11965
     Max         857     337    106               265455    67219   11976
     Sum        1713     673    211               530907   134395   23941
 
     Using Slab Decomposition
 


     bravais-lattice index     =            0
     lattice parameter (alat)  =       5.5500  a.u.
     unit-cell volume          =    1699.0018 (a.u.)^3
     number of atoms/cell      =            4
     number of atomic types    =            3
     number of electrons       =        64.00
     number of Kohn-Sham states=           38
     kinetic-energy cutoff     =      70.0000  Ry
     charge density cutoff     =     700.0000  Ry
     scf convergence threshold =      1.0E-12
     mixing beta               =       0.7000
     number of iterations used =            8  plain     mixing
     energy convergence thresh.=      1.0E-04
     force convergence thresh. =      1.0E-03
     Exchange-correlation= SLA  PW   PSX  PSC
                           (   1   4  10   8   0   0   0)
     nstep                     =           50


     celldm(1)=   5.550000  celldm(2)=   0.000000  celldm(3)=   0.000000
     celldm(4)=   0.000000  celldm(5)=   0.000000  celldm(6)=   0.000000

     crystal axes: (cart. coord. in units of alat)
               a(1) = (   1.070291  -0.003288   0.000000 )  
               a(2) = (  -0.533526   0.930205   0.000000 )  
               a(3) = (   0.000000   0.000000  10.000000 )  

     reciprocal axes: (cart. coord. in units 2 pi/alat)
               b(1) = (  0.935974  0.536835  0.000000 )  
               b(2) = (  0.003308  1.076929  0.000000 )  
               b(3) = (  0.000000  0.000000  0.100000 )  


     PseudoPot. # 1 for Ta read from file:
     /shared/home/as3359/pseudo/Ta.pbesol-spfn-rrkjus_psl.1.0.0.UPF
     MD5 check sum: f099565ffaca9b150a52e9412a28e20b
     Pseudo is Ultrasoft + core correction, Zval = 27.0
     Generated using &quot;atomic&quot; code by A. Dal Corso  v.6.3
     Using radial grid of 1273 points,  8 beta functions with: 
                l(1) =   0
                l(2) =   0
                l(3) =   1
                l(4) =   1
                l(5) =   2
                l(6) =   2
                l(7) =   3
                l(8) =   3
     Q(r) pseudized with 0 coefficients 


     PseudoPot. # 2 for C  read from file:
     /shared/home/as3359/pseudo/C.pbesol-n-rrkjus_psl.1.0.0.UPF
     MD5 check sum: 05995be603a8a7c99da3dc4413f31573
     Pseudo is Ultrasoft + core correction, Zval =  4.0
     Generated using &quot;atomic&quot; code by A. Dal Corso  v.6.3MaX
     Using radial grid of 1073 points,  4 beta functions with: 
                l(1) =   0
                l(2) =   0
                l(3) =   1
                l(4) =   1
     Q(r) pseudized with 0 coefficients 


     PseudoPot. # 3 for S  read from file:
     /shared/home/as3359/pseudo/S.pbesol-nl-kjpaw_psl.1.0.0.UPF
     MD5 check sum: bf3db50ec3f960682bbc396f1aadd1dd
     Pseudo is Projector augmented-wave + core cor, Zval =  6.0
     Generated using &quot;atomic&quot; code by A. Dal Corso  v.6.3
     Shape of augmentation charge: PSQ
     Using radial grid of 1151 points,  4 beta functions with: 
                l(1) =   0
                l(2) =   0
                l(3) =   1
                l(4) =   1
     Q(r) pseudized with 0 coefficients 


     atomic species   valence    mass     pseudopotential
        Ta            27.00   180.94788     Ta( 1.00)
        C              4.00    12.01070     C ( 1.00)
        S              6.00    32.06500     S ( 1.00)

     No symmetry found



   Cartesian axes

     site n.     atom                  positions (alat units)
         1           C   tau(   1) = (   0.0000000   0.0000000   0.0000000  )
         2           Ta  tau(   2) = (   0.5366854   0.3086805  -0.3900114  )
         3           Ta  tau(   3) = (   0.0012189   0.6190597   0.4284072  )
         4           S   tau(   4) = (   0.5351120   0.3083024   0.9859281  )

     number of k points=    74  Marzari-Vanderbilt smearing, width (Ry)=  0.0010
                       cart. coord. in units 2pi/alat
        k(    1) = (   0.0000000   0.0000000   0.0000000), wk =   0.0138889
        k(    2) = (   0.0002757   0.0897441   0.0000000), wk =   0.0277778
        k(    3) = (   0.0005514   0.1794882   0.0000000), wk =   0.0277778
        k(    4) = (   0.0008270   0.2692322   0.0000000), wk =   0.0277778
        k(    5) = (   0.0011027   0.3589763   0.0000000), wk =   0.0277778
        k(    6) = (   0.0013784   0.4487204   0.0000000), wk =   0.0277778
        k(    7) = (  -0.0016541  -0.5384645   0.0000000), wk =   0.0138889
        k(    8) = (   0.0779979   0.0447362   0.0000000), wk =   0.0277778
        k(    9) = (   0.0782735   0.1344803   0.0000000), wk =   0.0277778
        k(   10) = (   0.0785492   0.2242244   0.0000000), wk =   0.0277778
        k(   11) = (   0.0788249   0.3139685   0.0000000), wk =   0.0277778
        k(   12) = (   0.0791006   0.4037125   0.0000000), wk =   0.0277778
        k(   13) = (   0.0793763   0.4934566   0.0000000), wk =   0.0277778
        k(   14) = (   0.0763438  -0.4937282   0.0000000), wk =   0.0277778
        k(   15) = (   0.0766195  -0.4039842   0.0000000), wk =   0.0277778
        k(   16) = (   0.0768951  -0.3142401   0.0000000), wk =   0.0277778
        k(   17) = (   0.0771708  -0.2244960   0.0000000), wk =   0.0277778
        k(   18) = (   0.0774465  -0.1347519   0.0000000), wk =   0.0277778
        k(   19) = (   0.0777222  -0.0450078   0.0000000), wk =   0.0277778
        k(   20) = (   0.1559957   0.0894725   0.0000000), wk =   0.0277778
        k(   21) = (   0.1562714   0.1792165   0.0000000), wk =   0.0277778
        k(   22) = (   0.1565471   0.2689606   0.0000000), wk =   0.0277778
        k(   23) = (   0.1568228   0.3587047   0.0000000), wk =   0.0277778
        k(   24) = (   0.1570984   0.4484488   0.0000000), wk =   0.0277778
        k(   25) = (   0.1573741   0.5381928   0.0000000), wk =   0.0277778
        k(   26) = (   0.1543416  -0.4489920   0.0000000), wk =   0.0277778
        k(   27) = (   0.1546173  -0.3592479   0.0000000), wk =   0.0277778
        k(   28) = (   0.1548930  -0.2695038   0.0000000), wk =   0.0277778
        k(   29) = (   0.1551687  -0.1797598   0.0000000), wk =   0.0277778
        k(   30) = (   0.1554444  -0.0900157   0.0000000), wk =   0.0277778
        k(   31) = (   0.1557200  -0.0002716   0.0000000), wk =   0.0277778
        k(   32) = (   0.2339936   0.1342087   0.0000000), wk =   0.0277778
        k(   33) = (   0.2342693   0.2239528   0.0000000), wk =   0.0277778
        k(   34) = (   0.2345449   0.3136969   0.0000000), wk =   0.0277778
        k(   35) = (   0.2348206   0.4034409   0.0000000), wk =   0.0277778
        k(   36) = (   0.2350963   0.4931850   0.0000000), wk =   0.0277778
        k(   37) = (   0.2353720   0.5829291   0.0000000), wk =   0.0277778
        k(   38) = (   0.2323395  -0.4042558   0.0000000), wk =   0.0277778
        k(   39) = (   0.2326152  -0.3145117   0.0000000), wk =   0.0277778
        k(   40) = (   0.2328909  -0.2247676   0.0000000), wk =   0.0277778
        k(   41) = (   0.2331665  -0.1350235   0.0000000), wk =   0.0277778
        k(   42) = (   0.2334422  -0.0452795   0.0000000), wk =   0.0277778
        k(   43) = (   0.2337179   0.0444646   0.0000000), wk =   0.0277778
        k(   44) = (   0.3119914   0.1789449   0.0000000), wk =   0.0277778
        k(   45) = (   0.3122671   0.2686890   0.0000000), wk =   0.0277778
        k(   46) = (   0.3125428   0.3584331   0.0000000), wk =   0.0277778
        k(   47) = (   0.3128185   0.4481772   0.0000000), wk =   0.0277778
        k(   48) = (   0.3130942   0.5379212   0.0000000), wk =   0.0277778
        k(   49) = (   0.3133698   0.6276653   0.0000000), wk =   0.0277778
        k(   50) = (   0.3103374  -0.3595195   0.0000000), wk =   0.0277778
        k(   51) = (   0.3106130  -0.2697755   0.0000000), wk =   0.0277778
        k(   52) = (   0.3108887  -0.1800314   0.0000000), wk =   0.0277778
        k(   53) = (   0.3111644  -0.0902873   0.0000000), wk =   0.0277778
        k(   54) = (   0.3114401  -0.0005432   0.0000000), wk =   0.0277778
        k(   55) = (   0.3117158   0.0892009   0.0000000), wk =   0.0277778
        k(   56) = (   0.3899893   0.2236812   0.0000000), wk =   0.0277778
        k(   57) = (   0.3902650   0.3134252   0.0000000), wk =   0.0277778
        k(   58) = (   0.3905407   0.4031693   0.0000000), wk =   0.0277778
        k(   59) = (   0.3908163   0.4929134   0.0000000), wk =   0.0277778
        k(   60) = (   0.3910920   0.5826575   0.0000000), wk =   0.0277778
        k(   61) = (   0.3913677   0.6724015   0.0000000), wk =   0.0277778
        k(   62) = (   0.3883352  -0.3147833   0.0000000), wk =   0.0277778
        k(   63) = (   0.3886109  -0.2250392   0.0000000), wk =   0.0277778
        k(   64) = (   0.3888866  -0.1352951   0.0000000), wk =   0.0277778
        k(   65) = (   0.3891623  -0.0455511   0.0000000), wk =   0.0277778
        k(   66) = (   0.3894379   0.0441930   0.0000000), wk =   0.0277778
        k(   67) = (   0.3897136   0.1339371   0.0000000), wk =   0.0277778
        k(   68) = (  -0.4679872  -0.2684174   0.0000000), wk =   0.0138889
        k(   69) = (  -0.4677115  -0.1786733   0.0000000), wk =   0.0277778
        k(   70) = (  -0.4674358  -0.0889292   0.0000000), wk =   0.0277778
        k(   71) = (  -0.4671601   0.0008148   0.0000000), wk =   0.0277778
        k(   72) = (  -0.4668844   0.0905589   0.0000000), wk =   0.0277778
        k(   73) = (  -0.4666088   0.1803030   0.0000000), wk =   0.0277778
        k(   74) = (  -0.4696413  -0.8068819   0.0000000), wk =   0.0138889

     Dense  grid:   530907 G-vectors     FFT dimensions: (  54,  54, 480)

     Smooth grid:   134395 G-vectors     FFT dimensions: (  32,  32, 300)

     Estimated max dynamical RAM per process >       2.85 GB

     Estimated total dynamical RAM >       5.71 GB

     Initial potential from superposition of free atoms

     starting charge   63.99838, renormalised to   64.00000

     negative rho (up, down):  5.053E-05 0.000E+00
     Starting wfcs are   42 randomized atomic wfcs
     Checking if some PAW data can be deallocated... 

     total cpu time spent up to now is       16.9 secs

     Self-consistent Calculation

     iteration #  1     ecut=    70.00 Ry     beta= 0.70
     Davidson diagonalization with overlap
     ethr =  1.00E-02,  avg # of iterations =  2.5

     negative rho (up, down):  7.864E-06 0.000E+00

     total cpu time spent up to now is       31.6 secs

     total energy              =   -1437.72974013 Ry
     estimated scf accuracy    <       1.17564560 Ry

     iteration #  2     ecut=    70.00 Ry     beta= 0.70
     Davidson diagonalization with overlap
     ethr =  1.84E-03,  avg # of iterations = 10.4

     negative rho (up, down):  2.345E-05 0.000E+00

     total cpu time spent up to now is       55.5 secs

     total energy              =   -1432.50819652 Ry
     estimated scf accuracy    <     100.83567180 Ry

     iteration #  3     ecut=    70.00 Ry     beta= 0.70
     Davidson diagonalization with overlap
     ethr =  1.84E-03,  avg # of iterations =  9.1

     negative rho (up, down):  1.284E-05 0.000E+00

     total cpu time spent up to now is       79.0 secs

     total energy              =   -1437.11351950 Ry
     estimated scf accuracy    <      20.67777459 Ry

     iteration #  4     ecut=    70.00 Ry     beta= 0.70
     Davidson diagonalization with overlap
     ethr =  1.84E-03,  avg # of iterations =  6.8

     negative rho (up, down):  3.760E-06 0.000E+00

     total cpu time spent up to now is       97.7 secs

     total energy              =   -1438.40645005 Ry
     estimated scf accuracy    <       1.00086541 Ry

     iteration #  5     ecut=    70.00 Ry     beta= 0.70
     Davidson diagonalization with overlap
     ethr =  1.56E-03,  avg # of iterations =  2.1

     negative rho (up, down):  9.993E-06 0.000E+00

     total cpu time spent up to now is      111.8 secs

     total energy              =   -1438.48350306 Ry
     estimated scf accuracy    <       0.08328634 Ry

     iteration #  6     ecut=    70.00 Ry     beta= 0.70
     Davidson diagonalization with overlap
     ethr =  1.30E-04,  avg # of iterations =  3.5

     negative rho (up, down):  1.442E-05 0.000E+00

     total cpu time spent up to now is      126.9 secs

     total energy              =   -1438.48253137 Ry
     estimated scf accuracy    <       0.06877533 Ry

     iteration #  7     ecut=    70.00 Ry     beta= 0.70
     Davidson diagonalization with overlap
     ethr =  1.07E-04,  avg # of iterations =  1.3

     negative rho (up, down):  2.142E-05 0.000E+00

     total cpu time spent up to now is      140.2 secs

     total energy              =   -1438.47873238 Ry
     estimated scf accuracy    <       0.02406020 Ry

     iteration #  8     ecut=    70.00 Ry     beta= 0.70
     Davidson diagonalization with overlap
     ethr =  3.76E-05,  avg # of iterations =  2.5

     negative rho (up, down):  2.595E-05 0.000E+00

     total cpu time spent up to now is      154.3 secs

     total energy              =   -1438.47663628 Ry
     estimated scf accuracy    <       0.01249302 Ry

     iteration #  9     ecut=    70.00 Ry     beta= 0.70
     Davidson diagonalization with overlap
     ethr =  1.95E-05,  avg # of iterations =  2.1

     negative rho (up, down):  3.373E-05 0.000E+00

     total cpu time spent up to now is      168.0 secs

     total energy              =   -1438.47509160 Ry
     estimated scf accuracy    <       0.00666271 Ry

     iteration # 10     ecut=    70.00 Ry     beta= 0.70
     Davidson diagonalization with overlap
     ethr =  1.04E-05,  avg # of iterations =  3.1

     negative rho (up, down):  7.615E-04 0.000E+00

     total cpu time spent up to now is      182.5 secs

     total energy              =   -1438.47502600 Ry
     estimated scf accuracy    <       0.00170580 Ry

     iteration # 11     ecut=    70.00 Ry     beta= 0.70
     Davidson diagonalization with overlap
     ethr =  2.67E-06,  avg # of iterations =  4.9

     negative rho (up, down):  4.659E-05 0.000E+00

     total cpu time spent up to now is      198.1 secs

     total energy              =   -1438.47517608 Ry
     estimated scf accuracy    <       0.00009974 Ry

     iteration # 12     ecut=    70.00 Ry     beta= 0.70
     Davidson diagonalization with overlap
     ethr =  1.56E-07,  avg # of iterations =  2.5

     negative rho (up, down):  5.099E-05 0.000E+00

     total cpu time spent up to now is      213.3 secs

     total energy              =   -1438.47518906 Ry
     estimated scf accuracy    <       0.00000803 Ry

     iteration # 13     ecut=    70.00 Ry     beta= 0.70
     Davidson diagonalization with overlap
     ethr =  1.25E-08,  avg # of iterations =  2.7

     negative rho (up, down):  6.300E-05 0.000E+00

     total cpu time spent up to now is      229.3 secs

     total energy              =   -1438.47519051 Ry
     estimated scf accuracy    <       0.00000137 Ry

     iteration # 14     ecut=    70.00 Ry     beta= 0.70
     Davidson diagonalization with overlap
     ethr =  2.14E-09,  avg # of iterations =  2.9

     negative rho (up, down):  6.236E-05 0.000E+00

     total cpu time spent up to now is      244.3 secs

     total energy              =   -1438.47519071 Ry
     estimated scf accuracy    <       0.00000037 Ry

     iteration # 15     ecut=    70.00 Ry     beta= 0.70
     Davidson diagonalization with overlap
     ethr =  5.76E-10,  avg # of iterations =  2.0

     negative rho (up, down):  6.554E-05 0.000E+00

     total cpu time spent up to now is      258.4 secs

     total energy              =   -1438.47519077 Ry
     estimated scf accuracy    <       0.00000016 Ry

     iteration # 16     ecut=    70.00 Ry     beta= 0.70
     Davidson diagonalization with overlap
     ethr =  2.55E-10,  avg # of iterations =  1.5

     negative rho (up, down):  6.461E-05 0.000E+00

     total cpu time spent up to now is      271.9 secs

     total energy              =   -1438.47519078 Ry
     estimated scf accuracy    <       0.00000003 Ry

     iteration # 17     ecut=    70.00 Ry     beta= 0.70
     Davidson diagonalization with overlap
     ethr =  4.89E-11,  avg # of iterations =  2.1

     negative rho (up, down):  6.523E-05 0.000E+00

     total cpu time spent up to now is      286.6 secs

     total energy              =   -1438.47519078 Ry
     estimated scf accuracy    <       0.00000004 Ry

     iteration # 18     ecut=    70.00 Ry     beta= 0.70
     Davidson diagonalization with overlap
     ethr =  4.89E-11,  avg # of iterations =  1.9

     negative rho (up, down):  6.518E-05 0.000E+00

     total cpu time spent up to now is      300.3 secs

     total energy              =   -1438.47519078 Ry
     estimated scf accuracy    <          7.4E-10 Ry

     iteration # 19     ecut=    70.00 Ry     beta= 0.70
     Davidson diagonalization with overlap
     ethr =  1.16E-12,  avg # of iterations =  3.8

     negative rho (up, down):  6.518E-05 0.000E+00

     total cpu time spent up to now is      317.3 secs

     total energy              =   -1438.47519078 Ry
     estimated scf accuracy    <          1.2E-10 Ry

     iteration # 20     ecut=    70.00 Ry     beta= 0.70
     Davidson diagonalization with overlap
     ethr =  1.81E-13,  avg # of iterations =  2.1

     negative rho (up, down):  6.516E-05 0.000E+00

     total cpu time spent up to now is      332.8 secs

     total energy              =   -1438.47519078 Ry
     estimated scf accuracy    <          1.3E-11 Ry

     iteration # 21     ecut=    70.00 Ry     beta= 0.70
     Davidson diagonalization with overlap
     ethr =  1.00E-13,  avg # of iterations =  2.0

     negative rho (up, down):  6.514E-05 0.000E+00

     total cpu time spent up to now is      347.0 secs

     total energy              =   -1438.47519078 Ry
     estimated scf accuracy    <          1.7E-12 Ry

     iteration # 22     ecut=    70.00 Ry     beta= 0.70
     Davidson diagonalization with overlap
     ethr =  1.00E-13,  avg # of iterations =  1.0

     negative rho (up, down):  6.514E-05 0.000E+00

     total cpu time spent up to now is      360.1 secs

     End of self-consistent calculation

          k = 0.0000 0.0000 0.0000 ( 16709 PWs)   bands (ev):

   -68.0016 -67.8769 -34.8585 -34.3335 -34.3223 -34.3213 -34.0566 -34.0532
   -19.6535 -19.6248 -19.6247 -19.6204 -19.6036 -19.6030 -19.5985 -19.5861
   -19.5484 -19.5458 -19.5235 -19.5235 -19.5083 -19.4589 -14.3065 -12.1196
    -7.1275  -4.2481  -4.2227  -3.2517  -0.9860  -0.9591  -0.6327  -0.1222
     0.1762   0.1983   2.7614   2.7940   3.0816   3.0880

          k = 0.0003 0.0897 0.0000 ( 16692 PWs)   bands (ev):

   -67.9993 -67.8751 -34.8480 -34.3818 -34.3310 -34.3141 -34.0861 -34.0632
   -19.6512 -19.6255 -19.6236 -19.6192 -19.6045 -19.6036 -19.6006 -19.5850
   -19.5488 -19.5469 -19.5239 -19.5226 -19.5062 -19.4610 -14.1821 -12.0696
    -6.9402  -4.5977  -4.1710  -3.0807  -1.5225  -1.0645  -0.7119  -0.1674
     0.2922   0.3098   2.6605   2.7758   2.8876   3.1918

          k = 0.0006 0.1795 0.0000 ( 16732 PWs)   bands (ev):

   -67.9930 -67.8702 -34.8208 -34.4855 -34.3575 -34.3212 -34.1697 -34.0826
   -19.6451 -19.6273 -19.6206 -19.6159 -19.6079 -19.6071 -19.6032 -19.5822
   -19.5511 -19.5487 -19.5246 -19.5204 -19.5004 -19.4666 -13.8359 -11.9380
    -6.4334  -5.1209  -4.0571  -3.3015  -2.2356  -1.3158  -0.9330  -0.5309
     0.6192   0.7274   2.3671   2.8081   2.8886   3.7285

          k = 0.0008 0.2692 0.0000 ( 16798 PWs)   bands (ev):

   -67.9843 -67.8635 -34.7942 -34.6110 -34.3932 -34.3556 -34.2592 -34.1090
   -19.6370 -19.6295 -19.6174 -19.6153 -19.6115 -19.6101 -19.6037 -19.5787
   -19.5555 -19.5500 -19.5252 -19.5173 -19.4927 -19.4740 -13.3510 -11.7579
    -6.0001  -5.2579  -4.1323  -3.9998  -2.6714  -1.5032  -1.4585  -0.6680
     1.1157   1.4891   2.3993   2.8397   3.0653   4.2583

          k = 0.0011 0.3590 0.0000 ( 16802 PWs)   bands (ev):

   -67.9756 -67.8569 -34.8241 -34.6840 -34.4286 -34.4235 -34.3051 -34.1355
   -19.6342 -19.6267 -19.6247 -19.6134 -19.6121 -19.6057 -19.6040 -19.5757
   -19.5599 -19.5515 -19.5256 -19.5141 -19.4848 -19.4811 -12.8771 -11.5206
    -6.3137  -4.9868  -4.4512  -4.0547  -3.2115  -1.8880  -1.5439  -0.4237
     1.6274   2.3952   2.6619   3.1888   3.2340   4.5708

          k = 0.0014 0.4487 0.0000 ( 16832 PWs)   bands (ev):

   -67.9692 -67.8520 -34.8987 -34.7001 -34.4624 -34.4542 -34.3305 -34.1548
   -19.6357 -19.6307 -19.6221 -19.6140 -19.6092 -19.6041 -19.6016 -19.5737
   -19.5631 -19.5526 -19.5257 -19.5117 -19.4860 -19.4790 -12.5865 -11.2106
    -6.8850  -5.0329  -4.2572  -4.1480  -3.5306  -2.0395  -1.5263   0.0509
     2.0085   2.7488   3.1626   3.7882   3.8144   4.6743

          k =-0.0017-0.5385 0.0000 ( 16826 PWs)   bands (ev):

   -67.9669 -67.8502 -34.9304 -34.7084 -34.4673 -34.4635 -34.3416 -34.1619
   -19.6364 -19.6328 -19.6211 -19.6134 -19.6082 -19.6040 -19.6000 -19.5730
   -19.5643 -19.5531 -19.5257 -19.5108 -19.4878 -19.4768 -12.5039 -11.0368
    -7.1707  -4.9447  -4.4055  -4.1899  -3.5208  -2.0436  -1.5165   0.3357
     2.1744   2.7374   3.5064   4.1583   4.2545   4.6699

          k = 0.0780 0.0447 0.0000 ( 16695 PWs)   bands (ev):

   -67.9993 -67.8751 -34.8479 -34.3817 -34.3318 -34.3138 -34.0891 -34.0605
   -19.6512 -19.6252 -19.6237 -19.6194 -19.6048 -19.6033 -19.6006 -19.5849
   -19.5496 -19.5461 -19.5239 -19.5227 -19.5062 -19.4610 -14.1814 -12.0693
    -6.9394  -4.5819  -4.1925  -3.0765  -1.5022  -1.0869  -0.7144  -0.1636
     0.2744   0.3233   2.6581   2.8059   2.8658   3.1827

          k = 0.0783 0.1345 0.0000 ( 16696 PWs)   bands (ev):

   -67.9949 -67.8717 -34.8289 -34.4512 -34.3555 -34.3147 -34.1435 -34.0774
   -19.6470 -19.6262 -19.6221 -19.6169 -19.6074 -19.6042 -19.6037 -19.5829
   -19.5512 -19.5473 -19.5244 -19.5212 -19.5023 -19.4648 -13.9454 -11.9786
    -6.5847  -4.9858  -4.1270  -3.1113  -2.0638  -1.4286  -0.6673  -0.2557
     0.0367   0.8104   2.4625   2.7315   3.0560   3.4031

          k = 0.0785 0.2242 0.0000 ( 16780 PWs)   bands (ev):

   -67.9874 -67.8659 -34.8006 -34.5596 -34.3994 -34.3288 -34.2261 -34.1058
   -19.6397 -19.6280 -19.6194 -19.6139 -19.6122 -19.6082 -19.6043 -19.5798
   -19.5544 -19.5490 -19.5249 -19.5186 -19.4955 -19.4714 -13.5261 -11.8256
    -5.9995  -5.3575  -4.1612  -3.6620  -2.5526  -1.6442  -0.9245  -0.7285
     0.5140   1.4103   2.2367   2.9049   3.3226   3.8787

          k = 0.0788 0.3140 0.0000 ( 16799 PWs)   bands (ev):

   -67.9787 -67.8593 -34.7962 -34.6567 -34.4501 -34.3729 -34.2888 -34.1371
   -19.6329 -19.6287 -19.6219 -19.6153 -19.6117 -19.6073 -19.6047 -19.5765
   -19.5583 -19.5508 -19.5253 -19.5157 -19.4877 -19.4787 -13.0350 -11.6276
    -5.9799  -5.0540  -4.5268  -4.0946  -2.9709  -1.9512  -1.3108  -0.6215
     1.1537   1.8998   2.5082   3.2358   3.5099   4.3740

          k = 0.0791 0.4037 0.0000 ( 16788 PWs)   bands (ev):

   -67.9712 -67.8535 -34.8575 -34.6864 -34.4872 -34.4264 -34.3199 -34.1634
   -19.6336 -19.6288 -19.6232 -19.6139 -19.6115 -19.6050 -19.6029 -19.5740
   -19.5618 -19.5525 -19.5254 -19.5131 -19.4849 -19.4808 -12.6438 -11.3568
    -6.4943  -5.0448  -4.2772  -4.2226  -3.4296  -2.1781  -1.4671  -0.2245
     1.7478   2.2785   3.0264   3.6490   3.9055   4.5946

          k = 0.0794 0.4935 0.0000 ( 16844 PWs)   bands (ev):

   -67.9669 -67.8502 -34.9111 -34.6978 -34.4978 -34.4533 -34.3381 -34.1786
   -19.6348 -19.6327 -19.6205 -19.6135 -19.6095 -19.6049 -19.6005 -19.5727
   -19.5637 -19.5535 -19.5253 -19.5116 -19.4883 -19.4768 -12.4655 -11.0887
    -6.9716  -4.9951  -4.3539  -4.2216  -3.5230  -2.2220  -1.5135   0.1944
     2.1852   2.4945   3.4093   4.0299   4.2452   4.7337

          k = 0.0763-0.4937 0.0000 ( 16838 PWs)   bands (ev):

   -67.9669 -67.8502 -34.9107 -34.6976 -34.4976 -34.4537 -34.3380 -34.1788
   -19.6348 -19.6326 -19.6205 -19.6135 -19.6096 -19.6049 -19.6004 -19.5727
   -19.5636 -19.5537 -19.5253 -19.5115 -19.4883 -19.4768 -12.4660 -11.0892
    -6.9705  -4.9952  -4.3456  -4.2294  -3.5225  -2.2224  -1.5122   0.1944
     2.1877   2.4971   3.4140   4.0181   4.2381   4.7325

          k = 0.0766-0.4040 0.0000 ( 16796 PWs)   bands (ev):

   -67.9712 -67.8535 -34.8565 -34.6861 -34.4867 -34.4269 -34.3196 -34.1641
   -19.6336 -19.6286 -19.6231 -19.6139 -19.6118 -19.6051 -19.6027 -19.5741
   -19.5613 -19.5529 -19.5254 -19.5130 -19.4849 -19.4808 -12.6451 -11.3576
    -6.4919  -5.0437  -4.2715  -4.2271  -3.4286  -2.1806  -1.4636  -0.2246
     1.7526   2.2838   3.0228   3.6340   3.8991   4.5953

          k = 0.0769-0.3142 0.0000 ( 16797 PWs)   bands (ev):

   -67.9788 -67.8593 -34.7955 -34.6559 -34.4499 -34.3729 -34.2881 -34.1382
   -19.6329 -19.6286 -19.6217 -19.6159 -19.6117 -19.6068 -19.6048 -19.5766
   -19.5575 -19.5516 -19.5253 -19.5155 -19.4877 -19.4787 -13.0366 -11.6284
    -5.9783  -5.0545  -4.5246  -4.0923  -2.9703  -1.9558  -1.3050  -0.6215
     1.1603   1.8966   2.5026   3.2338   3.5039   4.3760

          k = 0.0772-0.2245 0.0000 ( 16782 PWs)   bands (ev):

   -67.9875 -67.8660 -34.8006 -34.5582 -34.3999 -34.3286 -34.2242 -34.1075
   -19.6397 -19.6279 -19.6200 -19.6134 -19.6117 -19.6083 -19.6045 -19.5799
   -19.5531 -19.5503 -19.5250 -19.5185 -19.4955 -19.4714 -13.5276 -11.8265
    -6.0005  -5.3585  -4.1557  -3.6624  -2.5525  -1.6460  -0.9174  -0.7323
     0.5226   1.4030   2.2332   2.9164   3.3167   3.8739

          k = 0.0774-0.1348 0.0000 ( 16718 PWs)   bands (ev):

   -67.9950 -67.8718 -34.8290 -34.4501 -34.3560 -34.3146 -34.1409 -34.0795
   -19.6470 -19.6262 -19.6225 -19.6165 -19.6068 -19.6043 -19.6040 -19.5830
   -19.5497 -19.5488 -19.5244 -19.5211 -19.5023 -19.4648 -13.9464 -11.9792
    -6.5857  -4.9919  -4.1156  -3.1151  -2.0665  -1.4256  -0.6634  -0.2630
     0.0500   0.8055   2.4597   2.7486   3.0525   3.3914

          k = 0.0777-0.0450 0.0000 ( 16700 PWs)   bands (ev):

   -67.9993 -67.8751 -34.8480 -34.3813 -34.3320 -34.3138 -34.0873 -34.0622
   -19.6512 -19.6254 -19.6237 -19.6192 -19.6043 -19.6037 -19.6007 -19.5849
   -19.5491 -19.5466 -19.5239 -19.5227 -19.5062 -19.4610 -14.1818 -12.0695
    -6.9398  -4.5925  -4.1782  -3.0792  -1.5145  -1.0734  -0.7114  -0.1671
     0.2896   0.3102   2.6607   2.7880   2.8840   3.1804

          k = 0.1560 0.0895 0.0000 ( 16720 PWs)   bands (ev):

   -67.9929 -67.8701 -34.8205 -34.4859 -34.3586 -34.3212 -34.1731 -34.0803
   -19.6451 -19.6269 -19.6207 -19.6161 -19.6079 -19.6076 -19.6028 -19.5820
   -19.5529 -19.5469 -19.5247 -19.5204 -19.5005 -19.4666 -13.8333 -11.9371
    -6.4301  -5.1103  -4.0785  -3.2952  -2.2227  -1.3391  -0.9331  -0.5243
     0.6267   0.7079   2.3641   2.7934   2.9155   3.7176

          k = 0.1563 0.1792 0.0000 ( 16783 PWs)   bands (ev):

   -67.9874 -67.8659 -34.8004 -34.5597 -34.4003 -34.3290 -34.2276 -34.1050
   -19.6398 -19.6276 -19.6196 -19.6139 -19.6122 -19.6086 -19.6040 -19.5797
   -19.5553 -19.5482 -19.5251 -19.5186 -19.4955 -19.4714 -13.5242 -11.8251
    -5.9962  -5.3536  -4.1689  -3.6610  -2.5502  -1.6540  -0.9165  -0.7355
     0.5148   1.4067   2.2326   2.9029   3.3366   3.8692

          k = 0.1565 0.2690 0.0000 ( 16806 PWs)   bands (ev):

   -67.9798 -67.8601 -34.7884 -34.6317 -34.4719 -34.3501 -34.2795 -34.1460
   -19.6325 -19.6280 -19.6210 -19.6181 -19.6104 -19.6076 -19.6055 -19.5767
   -19.5581 -19.5502 -19.5252 -19.5164 -19.4888 -19.4779 -13.0894 -11.6628
    -5.6573  -5.3129  -4.5302  -4.0735  -2.9349  -2.0034  -1.0860  -0.6921
     0.7562   1.6807   2.4832   3.4936   3.5982   4.3656

          k = 0.1568 0.3587 0.0000 ( 16789 PWs)   bands (ev):

   -67.9723 -67.8543 -34.8184 -34.6623 -34.5347 -34.3899 -34.3177 -34.1864
   -19.6299 -19.6273 -19.6242 -19.6159 -19.6125 -19.6068 -19.6034 -19.5738
   -19.5608 -19.5526 -19.5248 -19.5145 -19.4848 -19.4816 -12.6586 -11.4494
    -5.9952  -5.0426  -4.5520  -4.3102  -3.3056  -2.4359  -1.1884  -0.4525
     1.1978   1.9125   2.9455   3.7454   4.1514   4.9213

          k = 0.1571 0.4484 0.0000 ( 16832 PWs)   bands (ev):

   -67.9668 -67.8501 -34.8649 -34.6727 -34.5627 -34.4272 -34.3416 -34.2147
   -19.6327 -19.6304 -19.6194 -19.6140 -19.6128 -19.6070 -19.6013 -19.5719
   -19.5625 -19.5545 -19.5243 -19.5132 -19.4892 -19.4769 -12.3808 -11.1963
    -6.4712  -5.0988  -4.5143  -4.1041  -3.5721  -2.6706  -1.2401  -0.1211
     1.7435   2.3299   3.0338   4.0081   4.3339   5.1045

          k = 0.1574 0.5382 0.0000 ( 16862 PWs)   bands (ev):

   -67.9648 -67.8486 -34.8838 -34.6788 -34.5678 -34.4413 -34.3498 -34.2253
   -19.6343 -19.6309 -19.6183 -19.6130 -19.6122 -19.6070 -19.6006 -19.5713
   -19.5628 -19.5556 -19.5241 -19.5128 -19.4909 -19.4750 -12.2962 -11.0649
    -6.6972  -5.0782  -4.4786  -4.1906  -3.5814  -2.6948  -1.2540   0.0924
     2.0296   2.4772   3.2750   3.7025   4.2906   5.3440

          k = 0.1543-0.4490 0.0000 ( 16836 PWs)   bands (ev):

   -67.9668 -67.8502 -34.8633 -34.6720 -34.5632 -34.4273 -34.3412 -34.2156
   -19.6328 -19.6302 -19.6193 -19.6140 -19.6130 -19.6072 -19.6010 -19.5720
   -19.5617 -19.5553 -19.5244 -19.5131 -19.4892 -19.4769 -12.3825 -11.1975
    -6.4675  -5.0966  -4.5113  -4.1059  -3.5721  -2.6720  -1.2364  -0.1193
     1.7465   2.3331   3.0322   3.9813   4.3363   5.0958

          k = 0.1546-0.3592 0.0000 ( 16807 PWs)   bands (ev):

   -67.9724 -67.8544 -34.8163 -34.6612 -34.5352 -34.3892 -34.3169 -34.1882
   -19.6301 -19.6269 -19.6241 -19.6165 -19.6124 -19.6071 -19.6030 -19.5740
   -19.5594 -19.5539 -19.5249 -19.5143 -19.4848 -19.4816 -12.6616 -11.4509
    -5.9912  -5.0388  -4.5535  -4.3066  -3.3039  -2.4387  -1.1851  -0.4481
     1.1990   1.9125   2.9416   3.7284   4.1458   4.9215

          k = 0.1549-0.2695 0.0000 ( 16812 PWs)   bands (ev):

   -67.9800 -67.8602 -34.7876 -34.6298 -34.4723 -34.3493 -34.2776 -34.1484
   -19.6325 -19.6281 -19.6207 -19.6186 -19.6101 -19.6071 -19.6061 -19.5769
   -19.5564 -19.5519 -19.5251 -19.5163 -19.4888 -19.4779 -13.0926 -11.6643
    -5.6573  -5.3139  -4.5251  -4.0702  -2.9330  -2.0045  -1.0866  -0.6852
     0.7611   1.6742   2.4802   3.4972   3.5886   4.3635

          k = 0.1552-0.1798 0.0000 ( 16786 PWs)   bands (ev):

   -67.9875 -67.8660 -34.8005 -34.5580 -34.4005 -34.3286 -34.2248 -34.1072
   -19.6398 -19.6279 -19.6200 -19.6135 -19.6117 -19.6082 -19.6047 -19.5799
   -19.5536 -19.5498 -19.5250 -19.5185 -19.4955 -19.4714 -13.5266 -11.8265
    -5.9988  -5.3573  -4.1581  -3.6629  -2.5498  -1.6484  -0.9175  -0.7350
     0.5234   1.4019   2.2323   2.9143   3.3251   3.8670

          k = 0.1554-0.0900 0.0000 ( 16732 PWs)   bands (ev):

   -67.9929 -67.8702 -34.8206 -34.4851 -34.3585 -34.3212 -34.1710 -34.0818
   -19.6451 -19.6273 -19.6207 -19.6158 -19.6079 -19.6070 -19.6034 -19.5821
   -19.5519 -19.5479 -19.5246 -19.5204 -19.5004 -19.4666 -13.8346 -11.9380
    -6.4317  -5.1175  -4.0641  -3.3006  -2.2280  -1.3240  -0.9322  -0.5322
     0.6206   0.7215   2.3667   2.8049   2.8991   3.7194

          k = 0.1557-0.0003 0.0000 ( 16691 PWs)   bands (ev):

   -67.9949 -67.8717 -34.8288 -34.4511 -34.3559 -34.3149 -34.1449 -34.0763
   -19.6470 -19.6261 -19.6222 -19.6169 -19.6073 -19.6043 -19.6037 -19.5829
   -19.5517 -19.5468 -19.5244 -19.5212 -19.5023 -19.4648 -13.9445 -11.9785
    -6.5836  -4.9828  -4.1323  -3.1110  -2.0568  -1.4347  -0.6654  -0.2538
     0.0292   0.8082   2.4658   2.7329   3.0607   3.3935

          k = 0.2340 0.1342 0.0000 ( 16788 PWs)   bands (ev):

   -67.9841 -67.8634 -34.7941 -34.6119 -34.3949 -34.3567 -34.2622 -34.1073
   -19.6372 -19.6288 -19.6174 -19.6155 -19.6119 -19.6105 -19.6032 -19.5783
   -19.5575 -19.5482 -19.5257 -19.5172 -19.4926 -19.4740 -13.3457 -11.7564
    -5.9923  -5.2522  -4.1268  -4.0223  -2.6650  -1.5286  -1.4525  -0.6690
     1.1224   1.4751   2.4026   2.8273   3.0859   4.2494

          k = 0.2343 0.2240 0.0000 ( 16795 PWs)   bands (ev):

   -67.9786 -67.8591 -34.7965 -34.6570 -34.4515 -34.3744 -34.2906 -34.1362
   -19.6332 -19.6279 -19.6219 -19.6157 -19.6122 -19.6073 -19.6042 -19.5761
   -19.5597 -19.5496 -19.5258 -19.5156 -19.4877 -19.4787 -13.0303 -11.6265
    -5.9714  -5.0540  -4.5232  -4.1083  -2.9689  -1.9644  -1.3096  -0.6262
     1.1595   1.9041   2.5016   3.2323   3.5168   4.3681

          k = 0.2345 0.3137 0.0000 ( 16796 PWs)   bands (ev):

   -67.9722 -67.8542 -34.8188 -34.6624 -34.5354 -34.3906 -34.3187 -34.1858
   -19.6300 -19.6273 -19.6239 -19.6161 -19.6128 -19.6065 -19.6034 -19.5736
   -19.5615 -19.5519 -19.5252 -19.5144 -19.4848 -19.4816 -12.6559 -11.4488
    -5.9898  -5.0448  -4.5569  -4.3099  -3.3050  -2.4441  -1.1841  -0.4571
     1.2018   1.9180   2.9465   3.7371   4.1539   4.9174

          k = 0.2348 0.4034 0.0000 ( 16820 PWs)   bands (ev):

   -67.9667 -67.8500 -34.8357 -34.6482 -34.6131 -34.4012 -34.3576 -34.2331
   -19.6327 -19.6269 -19.6193 -19.6159 -19.6135 -19.6081 -19.6015 -19.5714
   -19.5624 -19.5547 -19.5239 -19.5141 -19.4897 -19.4769 -12.3318 -11.2528
    -6.0936  -5.1887  -4.7036  -4.0809  -3.5641  -2.8750  -0.9731  -0.3566
     1.4484   2.2379   2.9085   3.9778   4.4069   5.3219

          k = 0.2351 0.4932 0.0000 ( 16874 PWs)   bands (ev):

   -67.9635 -67.8476 -34.8339 -34.6785 -34.6210 -34.4171 -34.3793 -34.2606
   -19.6352 -19.6259 -19.6169 -19.6152 -19.6132 -19.6090 -19.6013 -19.5702
   -19.5619 -19.5572 -19.5227 -19.5144 -19.4927 -19.4740 -12.1516 -11.1105
    -6.2049  -5.2474  -4.8197  -3.9857  -3.6678  -3.0548  -0.8181  -0.1361
     1.6953   2.5046   2.8953   3.4011   4.4353   5.4616

          k = 0.2354 0.5829 0.0000 ( 16870 PWs)   bands (ev):

   -67.9636 -67.8477 -34.8323 -34.6790 -34.6209 -34.4171 -34.3791 -34.2612
   -19.6352 -19.6258 -19.6169 -19.6155 -19.6129 -19.6093 -19.6011 -19.5703
   -19.5608 -19.5582 -19.5227 -19.5143 -19.4927 -19.4740 -12.1529 -11.1114
    -6.2023  -5.2451  -4.8201  -3.9823  -3.6707  -3.0549  -0.8164  -0.1334
     1.6945   2.5077   2.8936   3.3847   4.4374   5.4541

          k = 0.2323-0.4043 0.0000 ( 16815 PWs)   bands (ev):

   -67.9668 -67.8501 -34.8327 -34.6460 -34.6155 -34.4002 -34.3572 -34.2348
   -19.6326 -19.6267 -19.6191 -19.6165 -19.6131 -19.6087 -19.6012 -19.5716
   -19.5606 -19.5563 -19.5238 -19.5140 -19.4897 -19.4769 -12.3352 -11.2548
    -6.0894  -5.1836  -4.7013  -4.0793  -3.5642  -2.8753  -0.9718  -0.3503
     1.4451   2.2389   2.9043   3.9526   4.4080   5.3139

          k = 0.2326-0.3145 0.0000 ( 16795 PWs)   bands (ev):

   -67.9723 -67.8544 -34.8163 -34.6613 -34.5357 -34.3894 -34.3174 -34.1880
   -19.6302 -19.6269 -19.6240 -19.6165 -19.6123 -19.6071 -19.6030 -19.5739
   -19.5598 -19.5535 -19.5250 -19.5143 -19.4848 -19.4816 -12.6603 -11.4509
    -5.9893  -5.0398  -4.5540  -4.3065  -3.3021  -2.4428  -1.1850  -0.4502
     1.2013   1.9143   2.9425   3.7260   4.1469   4.9187

          k = 0.2329-0.2248 0.0000 ( 16789 PWs)   bands (ev):

   -67.9787 -67.8592 -34.7954 -34.6559 -34.4508 -34.3734 -34.2889 -34.1380
   -19.6331 -19.6284 -19.6217 -19.6159 -19.6116 -19.6068 -19.6049 -19.5765
   -19.5581 -19.5511 -19.5255 -19.5155 -19.4877 -19.4787 -13.0343 -11.6286
    -5.9749  -5.0543  -4.5226  -4.0972  -2.9671  -1.9610  -1.3073  -0.6240
     1.1634   1.8978   2.5006   3.2325   3.5089   4.3707

          k = 0.2332-0.1350 0.0000 ( 16790 PWs)   bands (ev):

   -67.9842 -67.8635 -34.7941 -34.6109 -34.3945 -34.3559 -34.2604 -34.1085
   -19.6371 -19.6294 -19.6174 -19.6154 -19.6114 -19.6100 -19.6039 -19.5786
   -19.5563 -19.5493 -19.5254 -19.5173 -19.4926 -19.4740 -13.3484 -11.7580
    -5.9965  -5.2558  -4.1313  -4.0068  -2.6657  -1.5117  -1.4596  -0.6698
     1.1176   1.4842   2.4016   2.8354   3.0736   4.2521

          k = 0.2334-0.0453 0.0000 ( 16782 PWs)   bands (ev):

   -67.9874 -67.8659 -34.8004 -34.5598 -34.4001 -34.3291 -34.2278 -34.1046
   -19.6397 -19.6279 -19.6195 -19.6138 -19.6121 -19.6081 -19.6044 -19.5797
   -19.5552 -19.5483 -19.5250 -19.5187 -19.4955 -19.4714 -13.5239 -11.8256
    -5.9967  -5.3557  -4.1665  -3.6617  -2.5479  -1.6496  -0.9237  -0.7304
     0.5069   1.4109   2.2394   2.9033   3.3285   3.8730

          k = 0.2337 0.0445 0.0000 ( 16779 PWs)   bands (ev):

   -67.9873 -67.8658 -34.8004 -34.5601 -34.4004 -34.3293 -34.2287 -34.1041
   -19.6398 -19.6276 -19.6197 -19.6138 -19.6121 -19.6086 -19.6040 -19.5796
   -19.5556 -19.5478 -19.5251 -19.5186 -19.4955 -19.4714 -13.5230 -11.8250
    -5.9951  -5.3530  -4.1718  -3.6602  -2.5481  -1.6570  -0.9155  -0.7349
     0.5070   1.4085   2.2362   2.9033   3.3342   3.8702

          k = 0.3120 0.1789 0.0000 ( 16802 PWs)   bands (ev):

   -67.9753 -67.8566 -34.8256 -34.6845 -34.4308 -34.4256 -34.3071 -34.1343
   -19.6341 -19.6261 -19.6249 -19.6138 -19.6122 -19.6059 -19.6034 -19.5750
   -19.5619 -19.5497 -19.5263 -19.5140 -19.4848 -19.4811 -12.8692 -11.5182
    -6.3058  -4.9877  -4.4428  -4.0795  -3.2086  -1.8835  -1.5715  -0.4225
     1.6369   2.3908   2.6768   3.1810   3.2397   4.5630

          k = 0.3123 0.2687 0.0000 ( 16776 PWs)   bands (ev):

   -67.9709 -67.8532 -34.8591 -34.6870 -34.4885 -34.4282 -34.3219 -34.1626
   -19.6335 -19.6289 -19.6229 -19.6142 -19.6118 -19.6045 -19.6030 -19.5733
   -19.5635 -19.5510 -19.5261 -19.5129 -19.4849 -19.4807 -12.6369 -11.3543
    -6.4871  -5.0460  -4.2798  -4.2354  -3.4270  -2.1906  -1.4728  -0.2240
     1.7580   2.2947   3.0296   3.6370   3.9040   4.5901

          k = 0.3125 0.3584 0.0000 ( 16845 PWs)   bands (ev):

   -67.9665 -67.8499 -34.8665 -34.6736 -34.5636 -34.4277 -34.3436 -34.2135
   -19.6329 -19.6301 -19.6194 -19.6140 -19.6131 -19.6064 -19.6013 -19.5714
   -19.5640 -19.5533 -19.5250 -19.5131 -19.4892 -19.4768 -12.3759 -11.1938
    -6.4673  -5.1005  -4.5230  -4.1085  -3.5708  -2.6805  -1.2389  -0.1189
     1.7535   2.3418   3.0367   3.9959   4.3353   5.0999

          k = 0.3128 0.4482 0.0000 ( 16876 PWs)   bands (ev):

   -67.9634 -67.8476 -34.8355 -34.6786 -34.6216 -34.4169 -34.3805 -34.2597
   -19.6353 -19.6257 -19.6171 -19.6156 -19.6130 -19.6086 -19.6013 -19.5699
   -19.5631 -19.5561 -19.5231 -19.5143 -19.4927 -19.4740 -12.1493 -11.1088
    -6.2049  -5.2481  -4.8231  -3.9898  -3.6694  -3.0554  -0.8202  -0.1322
     1.7012   2.5096   2.8990   3.3994   4.4348   5.4570

          k = 0.3131 0.5379 0.0000 ( 16906 PWs)   bands (ev):

   -67.9623 -67.8467 -34.7853 -34.7408 -34.6120 -34.4093 -34.4056 -34.2774
   -19.6361 -19.6210 -19.6208 -19.6135 -19.6132 -19.6103 -19.6015 -19.5694
   -19.5613 -19.5586 -19.5218 -19.5153 -19.4940 -19.4730 -12.0534 -11.0945
    -5.8975  -5.4302  -5.0618  -3.9007  -3.6578  -3.2298  -0.5531  -0.1014
     1.6391   2.5847   2.6009   3.1255   4.4867   5.7903

          k = 0.3134 0.6277 0.0000 ( 16870 PWs)   bands (ev):

   -67.9635 -67.8476 -34.8326 -34.6794 -34.6211 -34.4169 -34.3797 -34.2608
   -19.6352 -19.6258 -19.6170 -19.6156 -19.6127 -19.6093 -19.6011 -19.5702
   -19.5616 -19.5576 -19.5228 -19.5143 -19.4927 -19.4740 -12.1521 -11.1107
    -6.2028  -5.2455  -4.8200  -3.9839  -3.6684  -3.0577  -0.8175  -0.1324
     1.6953   2.5095   2.8967   3.3841   4.4374   5.4531

          k = 0.3103-0.3595 0.0000 ( 16837 PWs)   bands (ev):

   -67.9667 -67.8501 -34.8635 -34.6726 -34.5638 -34.4274 -34.3421 -34.2152
   -19.6329 -19.6301 -19.6194 -19.6140 -19.6129 -19.6072 -19.6009 -19.5718
   -19.5624 -19.5547 -19.5246 -19.5130 -19.4893 -19.4768 -12.3804 -11.1969
    -6.4666  -5.0967  -4.5137  -4.1058  -3.5685  -2.6788  -1.2379  -0.1187
     1.7499   2.3369   3.0357   3.9769   4.3367   5.0942

          k = 0.3106-0.2698 0.0000 ( 16786 PWs)   bands (ev):

   -67.9711 -67.8534 -34.8567 -34.6864 -34.4876 -34.4277 -34.3204 -34.1639
   -19.6337 -19.6286 -19.6231 -19.6138 -19.6119 -19.6051 -19.6026 -19.5738
   -19.5620 -19.5523 -19.5257 -19.5129 -19.4849 -19.4807 -12.6418 -11.3574
    -6.4895  -5.0435  -4.2710  -4.2301  -3.4254  -2.1885  -1.4673  -0.2248
     1.7568   2.2888   3.0254   3.6306   3.8996   4.5915

          k = 0.3109-0.1800 0.0000 ( 16798 PWs)   bands (ev):

   -67.9755 -67.8568 -34.8242 -34.6842 -34.4301 -34.4242 -34.3059 -34.1352
   -19.6342 -19.6266 -19.6248 -19.6133 -19.6121 -19.6055 -19.6041 -19.5754
   -19.5607 -19.5508 -19.5258 -19.5141 -19.4848 -19.4811 -12.8733 -11.5206
    -6.3107  -4.9870  -4.4463  -4.0625  -3.2078  -1.8915  -1.5530  -0.4238
     1.6299   2.3932   2.6685   3.1852   3.2382   4.5663

          k = 0.3112-0.0903 0.0000 ( 16784 PWs)   bands (ev):

   -67.9786 -67.8592 -34.7964 -34.6571 -34.4512 -34.3737 -34.2900 -34.1361
   -19.6330 -19.6285 -19.6219 -19.6155 -19.6117 -19.6071 -19.6047 -19.5763
   -19.5592 -19.5500 -19.5254 -19.5157 -19.4877 -19.4787 -13.0315 -11.6276
    -5.9773  -5.0527  -4.5272  -4.0984  -2.9669  -1.9584  -1.3131  -0.6233
     1.1492   1.9044   2.5082   3.2387   3.5124   4.3709

          k = 0.3114-0.0005 0.0000 ( 16800 PWs)   bands (ev):

   -67.9797 -67.8600 -34.7886 -34.6324 -34.4723 -34.3508 -34.2807 -34.1447
   -19.6325 -19.6279 -19.6210 -19.6182 -19.6104 -19.6075 -19.6055 -19.5765
   -19.5588 -19.5496 -19.5252 -19.5165 -19.4888 -19.4779 -13.0870 -11.6626
    -5.6576  -5.3104  -4.5338  -4.0733  -2.9325  -2.0075  -1.0836  -0.6968
     0.7500   1.6856   2.4835   3.4945   3.6010   4.3657

          k = 0.3117 0.0892 0.0000 ( 16793 PWs)   bands (ev):

   -67.9785 -67.8591 -34.7968 -34.6574 -34.4517 -34.3746 -34.2909 -34.1355
   -19.6331 -19.6279 -19.6220 -19.6158 -19.6122 -19.6072 -19.6042 -19.5761
   -19.5600 -19.5493 -19.5258 -19.5156 -19.4877 -19.4787 -13.0292 -11.6263
    -5.9723  -5.0528  -4.5256  -4.1071  -2.9680  -1.9665  -1.3096  -0.6256
     1.1519   1.9076   2.5036   3.2366   3.5142   4.3704

          k = 0.3900 0.2237 0.0000 ( 16828 PWs)   bands (ev):

   -67.9688 -67.8517 -34.9014 -34.7016 -34.4628 -34.4569 -34.3329 -34.1540
   -19.6355 -19.6309 -19.6220 -19.6141 -19.6094 -19.6034 -19.6017 -19.5728
   -19.5652 -19.5509 -19.5267 -19.5116 -19.4860 -19.4789 -12.5778 -11.2057
    -6.8804  -5.0325  -4.2568  -4.1748  -3.5260  -2.0340  -1.5556   0.0568
     2.0226   2.7653   3.1673   3.7901   3.8112   4.6708

          k = 0.3903 0.3134 0.0000 ( 16840 PWs)   bands (ev):

   -67.9665 -67.8499 -34.9136 -34.6996 -34.4994 -34.4535 -34.3409 -34.1776
   -19.6346 -19.6329 -19.6207 -19.6135 -19.6098 -19.6042 -19.6006 -19.5718
   -19.5657 -19.5519 -19.5262 -19.5114 -19.4882 -19.4768 -12.4578 -11.0834
    -6.9684  -4.9948  -4.3595  -4.2412  -3.5194  -2.2303  -1.5238   0.2013
     2.1993   2.5101   3.4219   4.0193   4.2378   4.7401

          k = 0.3905 0.4032 0.0000 ( 16840 PWs)   bands (ev):

   -67.9645 -67.8484 -34.8868 -34.6806 -34.5688 -34.4408 -34.3527 -34.2235
   -19.6345 -19.6307 -19.6187 -19.6129 -19.6124 -19.6062 -19.6008 -19.5706
   -19.5650 -19.5538 -19.5248 -19.5126 -19.4909 -19.4750 -12.2902 -11.0601
    -6.6975  -5.0804  -4.4870  -4.1986  -3.5830  -2.7015  -1.2569   0.0991
     2.0404   2.4857   3.2826   3.7088   4.2863   5.3439

          k = 0.3908 0.4929 0.0000 ( 16868 PWs)   bands (ev):

   -67.9634 -67.8475 -34.8361 -34.6786 -34.6219 -34.4170 -34.3805 -34.2593
   -19.6353 -19.6257 -19.6171 -19.6157 -19.6130 -19.6086 -19.6012 -19.5699
   -19.5634 -19.5558 -19.5231 -19.5143 -19.4927 -19.4740 -12.1490 -11.1077
    -6.2071  -5.2490  -4.8216  -3.9902  -3.6688  -3.0558  -0.8209  -0.1336
     1.6997   2.5063   2.8992   3.4110   4.4349   5.4598

          k = 0.3911 0.5827 0.0000 ( 16868 PWs)   bands (ev):

   -67.9634 -67.8476 -34.8349 -34.6789 -34.6215 -34.4170 -34.3800 -34.2599
   -19.6352 -19.6258 -19.6171 -19.6154 -19.6131 -19.6089 -19.6011 -19.5700
   -19.5627 -19.5564 -19.5229 -19.5144 -19.4927 -19.4740 -12.1505 -11.1087
    -6.2077  -5.2486  -4.8181  -3.9876  -3.6648  -3.0581  -0.8200  -0.1364
     1.6946   2.5031   2.8984   3.4122   4.4353   5.4633

          k = 0.3914 0.6724 0.0000 ( 16856 PWs)   bands (ev):

   -67.9647 -67.8485 -34.8845 -34.6797 -34.5686 -34.4410 -34.3510 -34.2246
   -19.6344 -19.6309 -19.6184 -19.6130 -19.6122 -19.6069 -19.6005 -19.5711
   -19.5637 -19.5549 -19.5244 -19.5127 -19.4909 -19.4750 -12.2940 -11.0631
    -6.6982  -5.0778  -4.4803  -4.1921  -3.5786  -2.7009  -1.2569   0.0947
     2.0315   2.4795   3.2805   3.7052   4.2900   5.3447

          k = 0.3883-0.3148 0.0000 ( 16846 PWs)   bands (ev):

   -67.9667 -67.8501 -34.9112 -34.6985 -34.4986 -34.4537 -34.3391 -34.1786
   -19.6349 -19.6326 -19.6206 -19.6133 -19.6098 -19.6049 -19.6003 -19.5724
   -19.5643 -19.5531 -19.5256 -19.5115 -19.4883 -19.4768 -12.4627 -11.0876
    -6.9700  -4.9930  -4.3472  -4.2344  -3.5184  -2.2301  -1.5172   0.1971
     2.1924   2.5014   3.4205   4.0162   4.2338   4.7352

          k = 0.3886-0.2250 0.0000 ( 16836 PWs)   bands (ev):

   -67.9691 -67.8519 -34.8992 -34.7008 -34.4625 -34.4558 -34.3315 -34.1547
   -19.6357 -19.6307 -19.6221 -19.6138 -19.6093 -19.6041 -19.6014 -19.5734
   -19.5639 -19.5520 -19.5260 -19.5117 -19.4861 -19.4789 -12.5827 -11.2094
    -6.8839  -5.0310  -4.2549  -4.1565  -3.5267  -2.0440  -1.5357   0.0531
     2.0125   2.7549   3.1634   3.7909   3.8138   4.6722

          k = 0.3889-0.1353 0.0000 ( 16778 PWs)   bands (ev):

   -67.9710 -67.8534 -34.8582 -34.6870 -34.4885 -34.4268 -34.3209 -34.1628
   -19.6336 -19.6288 -19.6231 -19.6138 -19.6116 -19.6051 -19.6026 -19.5737
   -19.5626 -19.5517 -19.5256 -19.5131 -19.4849 -19.4807 -12.6400 -11.3560
    -6.4935  -5.0444  -4.2780  -4.2247  -3.4265  -2.1854  -1.4720  -0.2240
     1.7459   2.2820   3.0287   3.6546   3.9078   4.5932

          k = 0.3892-0.0456 0.0000 ( 16793 PWs)   bands (ev):

   -67.9722 -67.8542 -34.8193 -34.6629 -34.5353 -34.3907 -34.3185 -34.1851
   -19.6298 -19.6275 -19.6242 -19.6160 -19.6125 -19.6069 -19.6031 -19.5736
   -19.5616 -19.5518 -19.5250 -19.5145 -19.4848 -19.4816 -12.6556 -11.4487
    -5.9963  -5.0433  -4.5528  -4.3099  -3.3017  -2.4426  -1.1890  -0.4562
     1.1959   1.9136   2.9474   3.7504   4.1577   4.9192

          k = 0.3894 0.0442 0.0000 ( 16790 PWs)   bands (ev):

   -67.9721 -67.8542 -34.8198 -34.6629 -34.5356 -34.3912 -34.3191 -34.1848
   -19.6298 -19.6275 -19.6240 -19.6162 -19.6128 -19.6066 -19.6031 -19.5735
   -19.5620 -19.5514 -19.5252 -19.5145 -19.4848 -19.4816 -12.6542 -11.4480
    -5.9928  -5.0445  -4.5572  -4.3098  -3.3028  -2.4467  -1.1847  -0.4588
     1.1975   1.9175   2.9476   3.7445   4.1591   4.9183

          k = 0.3897 0.1339 0.0000 ( 16782 PWs)   bands (ev):

   -67.9709 -67.8532 -34.8596 -34.6872 -34.4891 -34.4279 -34.3220 -34.1622
   -19.6334 -19.6289 -19.6229 -19.6142 -19.6119 -19.6046 -19.6027 -19.5733
   -19.5637 -19.5509 -19.5261 -19.5130 -19.4849 -19.4807 -12.6363 -11.3537
    -6.4887  -5.0458  -4.2806  -4.2350  -3.4269  -2.1900  -1.4740  -0.2233
     1.7519   2.2931   3.0294   3.6461   3.9058   4.5926

          k =-0.4680-0.2684 0.0000 ( 16838 PWs)   bands (ev):

   -67.9664 -67.8499 -34.9333 -34.7107 -34.4668 -34.4660 -34.3446 -34.1612
   -19.6361 -19.6331 -19.6213 -19.6133 -19.6085 -19.6033 -19.6001 -19.5721
   -19.5664 -19.5514 -19.5268 -19.5107 -19.4878 -19.4768 -12.4953 -11.0301
    -7.1681  -4.9414  -4.4114  -4.2174  -3.5156  -2.0367  -1.5465   0.3440
     2.1913   2.7513   3.5153   4.1556   4.2573   4.6744

          k =-0.4677-0.1787 0.0000 ( 16844 PWs)   bands (ev):

   -67.9665 -67.8499 -34.9139 -34.6997 -34.4996 -34.4532 -34.3410 -34.1775
   -19.6346 -19.6329 -19.6207 -19.6135 -19.6099 -19.6042 -19.6006 -19.5718
   -19.5658 -19.5519 -19.5262 -19.5114 -19.4882 -19.4768 -12.4577 -11.0830
    -6.9692  -4.9943  -4.3626  -4.2387  -3.5197  -2.2296  -1.5244   0.2015
     2.1962   2.5098   3.4163   4.0254   4.2457   4.7394

          k =-0.4674-0.0889 0.0000 ( 16845 PWs)   bands (ev):

   -67.9665 -67.8499 -34.8672 -34.6740 -34.5637 -34.4277 -34.3438 -34.2130
   -19.6328 -19.6302 -19.6194 -19.6141 -19.6131 -19.6065 -19.6011 -19.5713
   -19.5643 -19.5531 -19.5250 -19.5131 -19.4892 -19.4768 -12.3754 -11.1926
    -6.4700  -5.1002  -4.5245  -4.1073  -3.5703  -2.6804  -1.2404  -0.1194
     1.7496   2.3383   3.0360   4.0106   4.3381   5.1036

          k =-0.4672 0.0008 0.0000 ( 16818 PWs)   bands (ev):

   -67.9666 -67.8500 -34.8369 -34.6493 -34.6128 -34.4019 -34.3577 -34.2321
   -19.6326 -19.6269 -19.6194 -19.6160 -19.6135 -19.6081 -19.6013 -19.5712
   -19.5630 -19.5541 -19.5240 -19.5142 -19.4897 -19.4768 -12.3303 -11.2511
    -6.0976  -5.1892  -4.7038  -4.0804  -3.5599  -2.8795  -0.9741  -0.3596
     1.4470   2.2356   2.9109   3.9916   4.4099   5.3263

          k =-0.4669 0.0906 0.0000 ( 16836 PWs)   bands (ev):

   -67.9666 -67.8500 -34.8659 -34.6737 -34.5634 -34.4273 -34.3427 -34.2137
   -19.6327 -19.6304 -19.6194 -19.6139 -19.6128 -19.6070 -19.6010 -19.5717
   -19.5634 -19.5538 -19.5246 -19.5132 -19.4893 -19.4768 -12.3781 -11.1944
    -6.4730  -5.0985  -4.5182  -4.1030  -3.5680  -2.6774  -1.2432  -0.1211
     1.7430   2.3302   3.0366   4.0184   4.3371   5.1066

          k =-0.4666 0.1803 0.0000 ( 16844 PWs)   bands (ev):

   -67.9667 -67.8500 -34.9118 -34.6988 -34.4991 -34.4531 -34.3393 -34.1782
   -19.6348 -19.6328 -19.6206 -19.6133 -19.6097 -19.6049 -19.6003 -19.5724
   -19.5645 -19.5529 -19.5256 -19.5115 -19.4883 -19.4768 -12.4622 -11.0867
    -6.9719  -4.9924  -4.3586  -4.2240  -3.5192  -2.2289  -1.5191   0.1972
     2.1868   2.4984   3.4102   4.0339   4.2488   4.7357

          k =-0.4696-0.8069 0.0000 ( 16830 PWs)   bands (ev):

   -67.9667 -67.8501 -34.9310 -34.7095 -34.4671 -34.4649 -34.3428 -34.1618
   -19.6364 -19.6329 -19.6211 -19.6132 -19.6084 -19.6040 -19.5998 -19.5727
   -19.5651 -19.5525 -19.5261 -19.5108 -19.4878 -19.4768 -12.5003 -11.0347
    -7.1706  -4.9405  -4.4067  -4.1988  -3.5163  -2.0480  -1.5260   0.3391
     2.1795   2.7423   3.5083   4.1558   4.2585   4.6711

     the Fermi energy is     0.2016 ev

!    total energy              =   -1438.47519078 Ry
     estimated scf accuracy    <          6.0E-13 Ry
     smearing contrib. (-TS)   =      -0.00002093 Ry
     internal energy E=F+TS    =   -1438.47516986 Ry

     The total energy is F=E-TS. E is the sum of the following terms:
     one-electron contribution =  -11692.90679737 Ry
     hartree contribution      =    5877.41333468 Ry
     xc contribution           =    -143.95479065 Ry
     ewald contribution        =    4565.85412823 Ry
     one-center paw contrib.   =     -44.88104475 Ry

     convergence has been achieved in  22 iterations

     negative rho (up, down):  6.514E-05 0.000E+00

     Forces acting on atoms (cartesian axes, Ry/au):

     atom    1 type  2   force =     0.00085511    0.00071865   -0.00147908
     atom    2 type  1   force =    -0.00093449   -0.00065013    0.00047032
     atom    3 type  1   force =     0.00009841    0.00081214    0.00086653
     atom    4 type  3   force =    -0.00001904   -0.00088066    0.00014223

     Total force =     0.002677     Total SCF correction =     0.000010


     Computing stress (Cartesian axis) and pressure


     negative rho (up, down):  6.514E-05 0.000E+00
          total   stress  (Ry/bohr**3)                   (kbar)     P=        0.43
   0.00000786   0.00000020   0.00000127            1.16        0.03        0.19
   0.00000020   0.00000364  -0.00000087            0.03        0.53       -0.13
   0.00000127  -0.00000087  -0.00000270            0.19       -0.13       -0.40


     BFGS Geometry Optimization
     Energy error            =      0.0E+00 Ry
     Gradient error          =      1.5E-03 Ry/Bohr

     number of scf cycles    =   1
     number of bfgs steps    =   0

     energy             new  =   -1438.4751907838 Ry

     new trust radius        =       0.0018534719 bohr
     new conv_thr            =            1.0E-12 Ry


ATOMIC_POSITIONS (alat)
C             0.0001540745        0.0001294869       -0.0002665010
Ta            0.5365170241        0.3085633586       -0.3899266576
Ta            0.0012366323        0.6192060320        0.4285633317
S             0.5351085692        0.3081437225        0.9859537268



     Writing output data file /scratch/as3359/Ta2CO_loop/Ta.save/
     NEW-OLD atomic charge density approx. for the potential

     negative rho (up, down):  6.511E-05 0.000E+00

     total cpu time spent up to now is      394.0 secs

     Self-consistent Calculation

     iteration #  1     ecut=    70.00 Ry     beta= 0.70
     Davidson diagonalization with overlap
     ethr =  1.00E-06,  avg # of iterations =  2.2

     Threshold (ethr) on eigenvalues was too large:
     Diagonalizing with lowered threshold

     Davidson diagonalization with overlap
     ethr =  3.13E-09,  avg # of iterations =  5.5

     negative rho (up, down):  6.511E-05 0.000E+00

     total cpu time spent up to now is      430.3 secs

     total energy              =   -1438.47519539 Ry
     estimated scf accuracy    <       0.00000184 Ry

     iteration #  2     ecut=    70.00 Ry     beta= 0.70
     Davidson diagonalization with overlap
     ethr =  2.87E-09,  avg # of iterations =  5.1

     negative rho (up, down):  6.512E-05 0.000E+00

     total cpu time spent up to now is      447.6 secs

     total energy              =   -1438.47518572 Ry
     estimated scf accuracy    <       0.00029638 Ry

     iteration #  3     ecut=    70.00 Ry     beta= 0.70
     Davidson diagonalization with overlap
     ethr =  2.87E-09,  avg # of iterations =  4.8

     negative rho (up, down):  6.511E-05 0.000E+00

     total cpu time spent up to now is      464.1 secs

     total energy              =   -1438.47519605 Ry
     estimated scf accuracy    <       0.00000243 Ry

     iteration #  4     ecut=    70.00 Ry     beta= 0.70
     Davidson diagonalization with overlap
     ethr =  2.87E-09,  avg # of iterations =  2.6

     negative rho (up, down):  6.511E-05 0.000E+00

     total cpu time spent up to now is      479.0 secs

     total energy              =   -1438.47519636 Ry
     estimated scf accuracy    <       0.00000120 Ry

     iteration #  5     ecut=    70.00 Ry     beta= 0.70
     Davidson diagonalization with overlap
     ethr =  1.87E-09,  avg # of iterations =  2.0

     negative rho (up, down):  6.510E-05 0.000E+00

     total cpu time spent up to now is      493.3 secs

     total energy              =   -1438.47519649 Ry
     estimated scf accuracy    <       0.00000005 Ry

     iteration #  6     ecut=    70.00 Ry     beta= 0.70
     Davidson diagonalization with overlap
     ethr =  7.18E-11,  avg # of iterations =  2.7

     negative rho (up, down):  6.510E-05 0.000E+00

     total cpu time spent up to now is      508.3 secs

     total energy              =   -1438.47519651 Ry
     estimated scf accuracy    <          4.2E-09 Ry

     iteration #  7     ecut=    70.00 Ry     beta= 0.70
     Davidson diagonalization with overlap
     ethr =  6.51E-12,  avg # of iterations =  2.9

     negative rho (up, down):  6.510E-05 0.000E+00

     total cpu time spent up to now is      524.3 secs

     total energy              =   -1438.47519651 Ry
     estimated scf accuracy    <          5.5E-10 Ry

     iteration #  8     ecut=    70.00 Ry     beta= 0.70
     Davidson diagonalization with overlap
     ethr =  8.57E-13,  avg # of iterations =  2.4

     negative rho (up, down):  6.510E-05 0.000E+00

     total cpu time spent up to now is      539.4 secs

     total energy              =   -1438.47519651 Ry
     estimated scf accuracy    <          6.9E-11 Ry

     iteration #  9     ecut=    70.00 Ry     beta= 0.70
     Davidson diagonalization with overlap
     ethr =  1.08E-13,  avg # of iterations =  2.2

     negative rho (up, down):  6.510E-05 0.000E+00

     total cpu time spent up to now is      554.6 secs

     total energy              =   -1438.47519651 Ry
     estimated scf accuracy    <          1.3E-11 Ry

     iteration # 10     ecut=    70.00 Ry     beta= 0.70
     Davidson diagonalization with overlap
     ethr =  1.00E-13,  avg # of iterations =  2.0

     negative rho (up, down):  6.510E-05 0.000E+00

     total cpu time spent up to now is      569.2 secs

     End of self-consistent calculation

          k = 0.0000 0.0000 0.0000 ( 16709 PWs)   bands (ev):

   -68.0019 -67.8760 -34.8581 -34.3333 -34.3223 -34.3213 -34.0562 -34.0526
   -19.6538 -19.6253 -19.6251 -19.6207 -19.6040 -19.6034 -19.5988 -19.5851
   -19.5474 -19.5449 -19.5226 -19.5225 -19.5074 -19.4579 -14.3067 -12.1201
    -7.1272  -4.2469  -4.2222  -3.2531  -0.9896  -0.9628  -0.6317  -0.1220
     0.1762   0.1992   2.7642   2.7921   3.0825   3.0905

          k = 0.0003 0.0897 0.0000 ( 16692 PWs)   bands (ev):

   -67.9996 -67.8742 -34.8476 -34.3818 -34.3311 -34.3139 -34.0856 -34.0628
   -19.6515 -19.6259 -19.6240 -19.6196 -19.6048 -19.6040 -19.6010 -19.5840
   -19.5478 -19.5459 -19.5229 -19.5217 -19.5053 -19.4600 -14.1823 -12.0700
    -6.9400  -4.5968  -4.1704  -3.0826  -1.5245  -1.0675  -0.7115  -0.1673
     0.2935   0.3095   2.6615   2.7784   2.8867   3.1931

          k = 0.0006 0.1795 0.0000 ( 16732 PWs)   bands (ev):

   -67.9933 -67.8693 -34.8204 -34.4855 -34.3575 -34.3210 -34.1692 -34.0822
   -19.6454 -19.6278 -19.6210 -19.6162 -19.6083 -19.6074 -19.6036 -19.5812
   -19.5501 -19.5477 -19.5236 -19.5194 -19.4995 -19.4656 -13.8362 -11.9383
    -6.4332  -5.1200  -4.0566  -3.3048  -2.2359  -1.3177  -0.9334  -0.5301
     0.6200   0.7270   2.3678   2.8087   2.8912   3.7287

          k = 0.0008 0.2692 0.0000 ( 16798 PWs)   bands (ev):

   -67.9846 -67.8627 -34.7938 -34.6110 -34.3932 -34.3552 -34.2590 -34.1087
   -19.6373 -19.6299 -19.6178 -19.6157 -19.6118 -19.6105 -19.6041 -19.5778
   -19.5545 -19.5491 -19.5242 -19.5163 -19.4917 -19.4730 -13.3514 -11.7580
    -5.9996  -5.2577  -4.1345  -3.9994  -2.6727  -1.5047  -1.4580  -0.6676
     1.1165   1.4884   2.4011   2.8403   3.0676   4.2586

          k = 0.0011 0.3590 0.0000 ( 16802 PWs)   bands (ev):

   -67.9759 -67.8560 -34.8238 -34.6839 -34.4286 -34.4230 -34.3050 -34.1351
   -19.6345 -19.6271 -19.6251 -19.6138 -19.6124 -19.6061 -19.6044 -19.5747
   -19.5589 -19.5505 -19.5246 -19.5131 -19.4839 -19.4801 -12.8776 -11.5205
    -6.3134  -4.9879  -4.4511  -4.0543  -3.2134  -1.8872  -1.5456  -0.4237
     1.6281   2.3953   2.6650   3.1889   3.2354   4.5712

          k = 0.0014 0.4487 0.0000 ( 16832 PWs)   bands (ev):

   -67.9695 -67.8511 -34.8985 -34.6999 -34.4617 -34.4542 -34.3306 -34.1545
   -19.6361 -19.6310 -19.6225 -19.6144 -19.6096 -19.6045 -19.6020 -19.5727
   -19.5621 -19.5516 -19.5247 -19.5107 -19.4851 -19.4780 -12.5871 -11.2105
    -6.8851  -5.0334  -4.2572  -4.1476  -3.5324  -2.0388  -1.5281   0.0507
     2.0095   2.7513   3.1639   3.7900   3.8135   4.6744

          k =-0.0017-0.5385 0.0000 ( 16826 PWs)   bands (ev):

   -67.9672 -67.8493 -34.9302 -34.7082 -34.4666 -34.4635 -34.3418 -34.1616
   -19.6368 -19.6332 -19.6214 -19.6138 -19.6086 -19.6044 -19.6004 -19.5720
   -19.5632 -19.5521 -19.5248 -19.5098 -19.4869 -19.4759 -12.5045 -11.0368
    -7.1708  -4.9452  -4.4056  -4.1895  -3.5224  -2.0430  -1.5183   0.3354
     2.1756   2.7395   3.5082   4.1579   4.2556   4.6695

          k = 0.0780 0.0447 0.0000 ( 16695 PWs)   bands (ev):

   -67.9996 -67.8742 -34.8476 -34.3816 -34.3320 -34.3136 -34.0888 -34.0599
   -19.6516 -19.6256 -19.6241 -19.6197 -19.6052 -19.6037 -19.6010 -19.5840
   -19.5486 -19.5451 -19.5229 -19.5217 -19.5053 -19.4600 -14.1817 -12.0697
    -6.9391  -4.5812  -4.1913  -3.0786  -1.5046  -1.0899  -0.7132  -0.1617
     0.2741   0.3220   2.6596   2.8044   2.8662   3.1848

          k = 0.0783 0.1345 0.0000 ( 16696 PWs)   bands (ev):

   -67.9952 -67.8708 -34.8286 -34.4511 -34.3556 -34.3145 -34.1431 -34.0769
   -19.6473 -19.6266 -19.6225 -19.6173 -19.6078 -19.6046 -19.6041 -19.5820
   -19.5502 -19.5463 -19.5234 -19.5202 -19.5013 -19.4639 -13.9457 -11.9788
    -6.5845  -4.9849  -4.1261  -3.1144  -2.0643  -1.4304  -0.6661  -0.2556
     0.0368   0.8094   2.4628   2.7335   3.0564   3.4029

          k = 0.0785 0.2242 0.0000 ( 16780 PWs)   bands (ev):

   -67.9877 -67.8651 -34.8002 -34.5596 -34.3994 -34.3285 -34.2258 -34.1054
   -19.6401 -19.6284 -19.6198 -19.6142 -19.6126 -19.6085 -19.6047 -19.5789
   -19.5534 -19.5480 -19.5240 -19.5176 -19.4946 -19.4704 -13.5266 -11.8257
    -5.9993  -5.3567  -4.1611  -3.6643  -2.5536  -1.6452  -0.9241  -0.7278
     0.5141   1.4097   2.2371   2.9068   3.3242   3.8777

          k = 0.0788 0.3140 0.0000 ( 16799 PWs)   bands (ev):

   -67.9791 -67.8584 -34.7958 -34.6567 -34.4500 -34.3725 -34.2888 -34.1367
   -19.6332 -19.6291 -19.6223 -19.6157 -19.6121 -19.6076 -19.6051 -19.5755
   -19.5573 -19.5498 -19.5243 -19.5147 -19.4868 -19.4777 -13.0356 -11.6275
    -5.9793  -5.0544  -4.5278  -4.0941  -2.9729  -1.9519  -1.3104  -0.6213
     1.1541   1.9009   2.5077   3.2382   3.5101   4.3741

          k = 0.0791 0.4037 0.0000 ( 16788 PWs)   bands (ev):

   -67.9715 -67.8526 -34.8572 -34.6862 -34.4870 -34.4259 -34.3199 -34.1631
   -19.6340 -19.6291 -19.6235 -19.6143 -19.6119 -19.6055 -19.6033 -19.5730
   -19.5608 -19.5515 -19.5244 -19.5121 -19.4840 -19.4798 -12.6444 -11.3567
    -6.4942  -5.0454  -4.2766  -4.2228  -3.4313  -2.1789  -1.4671  -0.2246
     1.7486   2.2809   3.0262   3.6498   3.9056   4.5951

          k = 0.0794 0.4935 0.0000 ( 16844 PWs)   bands (ev):

   -67.9672 -67.8493 -34.9109 -34.6976 -34.4976 -34.4527 -34.3382 -34.1783
   -19.6352 -19.6331 -19.6209 -19.6139 -19.6099 -19.6053 -19.6009 -19.5717
   -19.5627 -19.5526 -19.5243 -19.5106 -19.4873 -19.4759 -12.4661 -11.0886
    -6.9717  -4.9954  -4.3536  -4.2219  -3.5245  -2.2226  -1.5138   0.1942
     2.1862   2.4963   3.4098   4.0313   4.2448   4.7339

          k = 0.0763-0.4937 0.0000 ( 16838 PWs)   bands (ev):

   -67.9672 -67.8493 -34.9105 -34.6974 -34.4974 -34.4530 -34.3381 -34.1785
   -19.6352 -19.6330 -19.6209 -19.6139 -19.6100 -19.6054 -19.6008 -19.5717
   -19.5625 -19.5527 -19.5243 -19.5105 -19.4873 -19.4759 -12.4666 -11.0890
    -6.9707  -4.9954  -4.3458  -4.2291  -3.5241  -2.2230  -1.5128   0.1941
     2.1882   2.4995   3.4146   4.0195   4.2390   4.7320

          k = 0.0766-0.4040 0.0000 ( 16796 PWs)   bands (ev):

   -67.9716 -67.8526 -34.8563 -34.6859 -34.4864 -34.4265 -34.3196 -34.1638
   -19.6340 -19.6290 -19.6235 -19.6143 -19.6122 -19.6055 -19.6031 -19.5731
   -19.5603 -19.5519 -19.5244 -19.5120 -19.4840 -19.4798 -12.6457 -11.3574
    -6.4920  -5.0443  -4.2720  -4.2262  -3.4306  -2.1812  -1.4640  -0.2248
     1.7529   2.2866   3.0227   3.6358   3.8999   4.5955

          k = 0.0769-0.3142 0.0000 ( 16797 PWs)   bands (ev):

   -67.9791 -67.8584 -34.7952 -34.6559 -34.4496 -34.3725 -34.2879 -34.1379
   -19.6333 -19.6290 -19.6221 -19.6162 -19.6121 -19.6072 -19.6053 -19.5757
   -19.5565 -19.5506 -19.5243 -19.5145 -19.4868 -19.4777 -13.0372 -11.6283
    -5.9779  -5.0549  -4.5253  -4.0926  -2.9721  -1.9565  -1.3048  -0.6214
     1.1601   1.8989   2.5027   3.2349   3.5056   4.3764

          k = 0.0772-0.2245 0.0000 ( 16782 PWs)   bands (ev):

   -67.9878 -67.8651 -34.8002 -34.5583 -34.3996 -34.3285 -34.2237 -34.1072
   -19.6401 -19.6284 -19.6204 -19.6138 -19.6121 -19.6086 -19.6050 -19.5790
   -19.5521 -19.5493 -19.5240 -19.5175 -19.4946 -19.4704 -13.5280 -11.8266
    -6.0003  -5.3577  -4.1555  -3.6654  -2.5533  -1.6473  -0.9171  -0.7313
     0.5217   1.4040   2.2350   2.9163   3.3188   3.8743

          k = 0.0774-0.1348 0.0000 ( 16718 PWs)   bands (ev):

   -67.9953 -67.8709 -34.8287 -34.4502 -34.3558 -34.3146 -34.1403 -34.0792
   -19.6473 -19.6267 -19.6229 -19.6169 -19.6072 -19.6047 -19.6044 -19.5821
   -19.5487 -19.5478 -19.5234 -19.5201 -19.5013 -19.4639 -13.9466 -11.9796
    -6.5856  -4.9908  -4.1151  -3.1182  -2.0675  -1.4274  -0.6630  -0.2618
     0.0488   0.8062   2.4611   2.7493   3.0521   3.3941

          k = 0.0777-0.0450 0.0000 ( 16700 PWs)   bands (ev):

   -67.9996 -67.8742 -34.8476 -34.3814 -34.3319 -34.3137 -34.0868 -34.0617
   -19.6516 -19.6258 -19.6241 -19.6196 -19.6048 -19.6040 -19.6011 -19.5840
   -19.5481 -19.5456 -19.5229 -19.5217 -19.5053 -19.4600 -14.1820 -12.0699
    -6.9396  -4.5916  -4.1775  -3.0811  -1.5167  -1.0764  -0.7111  -0.1659
     0.2889   0.3110   2.6614   2.7889   2.8825   3.1840

          k = 0.1560 0.0895 0.0000 ( 16720 PWs)   bands (ev):

   -67.9932 -67.8692 -34.8201 -34.4858 -34.3588 -34.3210 -34.1729 -34.0797
   -19.6454 -19.6273 -19.6211 -19.6165 -19.6083 -19.6080 -19.6032 -19.5810
   -19.5519 -19.5460 -19.5238 -19.5194 -19.4995 -19.4656 -13.8338 -11.9372
    -6.4299  -5.1094  -4.0773  -3.2980  -2.2237  -1.3411  -0.9324  -0.5219
     0.6253   0.7069   2.3646   2.7933   2.9142   3.7198

          k = 0.1563 0.1792 0.0000 ( 16783 PWs)   bands (ev):

   -67.9877 -67.8650 -34.8000 -34.5596 -34.4003 -34.3287 -34.2275 -34.1045
   -19.6401 -19.6280 -19.6200 -19.6143 -19.6126 -19.6090 -19.6044 -19.5787
   -19.5542 -19.5472 -19.5242 -19.5176 -19.4946 -19.4704 -13.5248 -11.8249
    -5.9961  -5.3526  -4.1684  -3.6629  -2.5513  -1.6554  -0.9152  -0.7344
     0.5135   1.4058   2.2333   2.9038   3.3348   3.8708

          k = 0.1565 0.2690 0.0000 ( 16806 PWs)   bands (ev):

   -67.9801 -67.8592 -34.7880 -34.6317 -34.4718 -34.3498 -34.2794 -34.1455
   -19.6329 -19.6284 -19.6213 -19.6185 -19.6108 -19.6080 -19.6059 -19.5757
   -19.5571 -19.5493 -19.5242 -19.5154 -19.4879 -19.4769 -13.0902 -11.6624
    -5.6569  -5.3124  -4.5310  -4.0736  -2.9368  -2.0044  -1.0855  -0.6908
     0.7556   1.6812   2.4829   3.4945   3.5981   4.3652

          k = 0.1568 0.3587 0.0000 ( 16789 PWs)   bands (ev):

   -67.9726 -67.8534 -34.8180 -34.6622 -34.5345 -34.3895 -34.3177 -34.1860
   -19.6303 -19.6277 -19.6246 -19.6163 -19.6129 -19.6072 -19.6037 -19.5728
   -19.5598 -19.5516 -19.5239 -19.5135 -19.4838 -19.4806 -12.6594 -11.4490
    -5.9948  -5.0429  -4.5520  -4.3100  -3.3071  -2.4370  -1.1881  -0.4519
     1.1985   1.9132   2.9453   3.7453   4.1522   4.9208

          k = 0.1571 0.4484 0.0000 ( 16832 PWs)   bands (ev):

   -67.9671 -67.8492 -34.8647 -34.6725 -34.5626 -34.4266 -34.3416 -34.2144
   -19.6331 -19.6308 -19.6197 -19.6144 -19.6132 -19.6074 -19.6016 -19.5709
   -19.5615 -19.5536 -19.5234 -19.5122 -19.4883 -19.4759 -12.3816 -11.1959
    -6.4712  -5.0986  -4.5140  -4.1051  -3.5727  -2.6720  -1.2399  -0.1209
     1.7447   2.3306   3.0338   4.0085   4.3346   5.1027

          k = 0.1574 0.5382 0.0000 ( 16862 PWs)   bands (ev):

   -67.9651 -67.8477 -34.8837 -34.6785 -34.5677 -34.4406 -34.3499 -34.2251
   -19.6347 -19.6313 -19.6187 -19.6134 -19.6125 -19.6074 -19.6010 -19.5703
   -19.5618 -19.5546 -19.5231 -19.5117 -19.4900 -19.4741 -12.2971 -11.0645
    -6.6974  -5.0779  -4.4785  -4.1911  -3.5824  -2.6961  -1.2538   0.0924
     2.0305   2.4776   3.2760   3.7035   4.2913   5.3419

          k = 0.1543-0.4490 0.0000 ( 16836 PWs)   bands (ev):

   -67.9672 -67.8493 -34.8632 -34.6718 -34.5629 -34.4267 -34.3411 -34.2155
   -19.6332 -19.6306 -19.6197 -19.6144 -19.6134 -19.6077 -19.6014 -19.5710
   -19.5607 -19.5543 -19.5234 -19.5121 -19.4883 -19.4759 -12.3834 -11.1970
    -6.4680  -5.0965  -4.5109  -4.1066  -3.5730  -2.6735  -1.2365  -0.1194
     1.7481   2.3337   3.0326   3.9829   4.3364   5.0947

          k = 0.1546-0.3592 0.0000 ( 16807 PWs)   bands (ev):

   -67.9727 -67.8535 -34.8161 -34.6612 -34.5348 -34.3888 -34.3167 -34.1880
   -19.6306 -19.6272 -19.6245 -19.6169 -19.6127 -19.6075 -19.6034 -19.5730
   -19.5584 -19.5529 -19.5239 -19.5133 -19.4838 -19.4807 -12.6624 -11.4504
    -5.9913  -5.0391  -4.5526  -4.3077  -3.3054  -2.4402  -1.1846  -0.4485
     1.2008   1.9130   2.9412   3.7304   4.1461   4.9216

          k = 0.1549-0.2695 0.0000 ( 16812 PWs)   bands (ev):

   -67.9803 -67.8593 -34.7873 -34.6300 -34.4718 -34.3491 -34.2772 -34.1481
   -19.6328 -19.6285 -19.6210 -19.6190 -19.6105 -19.6075 -19.6065 -19.5759
   -19.5554 -19.5509 -19.5242 -19.5152 -19.4879 -19.4769 -13.0932 -11.6641
    -5.6568  -5.3137  -4.5257  -4.0714  -2.9347  -2.0059  -1.0848  -0.6855
     0.7608   1.6760   2.4801   3.4971   3.5901   4.3642

          k = 0.1552-0.1798 0.0000 ( 16786 PWs)   bands (ev):

   -67.9878 -67.8651 -34.8001 -34.5582 -34.4002 -34.3285 -34.2244 -34.1069
   -19.6401 -19.6283 -19.6204 -19.6138 -19.6121 -19.6086 -19.6050 -19.5789
   -19.5527 -19.5488 -19.5241 -19.5175 -19.4946 -19.4704 -13.5271 -11.8265
    -5.9987  -5.3563  -4.1579  -3.6655  -2.5512  -1.6502  -0.9161  -0.7338
     0.5218   1.4026   2.2340   2.9139   3.3250   3.8696

          k = 0.1554-0.0900 0.0000 ( 16732 PWs)   bands (ev):

   -67.9932 -67.8693 -34.8203 -34.4853 -34.3585 -34.3209 -34.1706 -34.0814
   -19.6454 -19.6277 -19.6211 -19.6162 -19.6083 -19.6074 -19.6037 -19.5812
   -19.5509 -19.5469 -19.5237 -19.5194 -19.4995 -19.4656 -13.8350 -11.9382
    -6.4316  -5.1165  -4.0634  -3.3033  -2.2292  -1.3265  -0.9323  -0.5299
     0.6211   0.7205   2.3670   2.8044   2.9002   3.7219

          k = 0.1557-0.0003 0.0000 ( 16691 PWs)   bands (ev):

   -67.9952 -67.8708 -34.8285 -34.4511 -34.3560 -34.3146 -34.1447 -34.0757
   -19.6473 -19.6265 -19.6226 -19.6173 -19.6077 -19.6047 -19.6041 -19.5820
   -19.5507 -19.5458 -19.5234 -19.5202 -19.5013 -19.4639 -13.9449 -11.9787
    -6.5834  -4.9819  -4.1312  -3.1137  -2.0584  -1.4359  -0.6649  -0.2538
     0.0304   0.8074   2.4646   2.7328   3.0600   3.3964

          k = 0.2340 0.1342 0.0000 ( 16788 PWs)   bands (ev):

   -67.9844 -67.8625 -34.7936 -34.6119 -34.3951 -34.3563 -34.2621 -34.1067
   -19.6376 -19.6291 -19.6178 -19.6159 -19.6123 -19.6109 -19.6036 -19.5773
   -19.5564 -19.5472 -19.5247 -19.5162 -19.4917 -19.4731 -13.3464 -11.7560
    -5.9921  -5.2513  -4.1285  -4.0211  -2.6666  -1.5301  -1.4513  -0.6679
     1.1212   1.4739   2.4029   2.8274   3.0850   4.2510

          k = 0.2343 0.2240 0.0000 ( 16795 PWs)   bands (ev):

   -67.9789 -67.8582 -34.7960 -34.6570 -34.4514 -34.3741 -34.2905 -34.1357
   -19.6336 -19.6282 -19.6223 -19.6162 -19.6126 -19.6077 -19.6046 -19.5751
   -19.5587 -19.5486 -19.5248 -19.5146 -19.4868 -19.4777 -13.0312 -11.6259
    -5.9712  -5.0534  -4.5239  -4.1074  -2.9707  -1.9651  -1.3089  -0.6254
     1.1580   1.9040   2.5015   3.2330   3.5147   4.3697

          k = 0.2345 0.3137 0.0000 ( 16796 PWs)   bands (ev):

   -67.9725 -67.8533 -34.8184 -34.6624 -34.5352 -34.3904 -34.3186 -34.1854
   -19.6304 -19.6277 -19.6242 -19.6166 -19.6132 -19.6069 -19.6037 -19.5726
   -19.5605 -19.5509 -19.5242 -19.5134 -19.4838 -19.4806 -12.6569 -11.4481
    -5.9896  -5.0446  -4.5565  -4.3097  -3.3066  -2.4450  -1.1838  -0.4561
     1.2015   1.9180   2.9463   3.7368   4.1542   4.9164

          k = 0.2348 0.4034 0.0000 ( 16820 PWs)   bands (ev):

   -67.9670 -67.8491 -34.8353 -34.6482 -34.6130 -34.4008 -34.3574 -34.2328
   -19.6330 -19.6273 -19.6197 -19.6163 -19.6139 -19.6085 -19.6019 -19.5704
   -19.5613 -19.5537 -19.5229 -19.5131 -19.4887 -19.4759 -12.3328 -11.2522
    -6.0935  -5.1880  -4.7036  -4.0818  -3.5643  -2.8761  -0.9733  -0.3556
     1.4490   2.2379   2.9086   3.9785   4.4070   5.3186

          k = 0.2351 0.4932 0.0000 ( 16874 PWs)   bands (ev):

   -67.9638 -67.8467 -34.8337 -34.6783 -34.6211 -34.4165 -34.3792 -34.2605
   -19.6356 -19.6263 -19.6173 -19.6156 -19.6136 -19.6094 -19.6017 -19.5691
   -19.5609 -19.5562 -19.5218 -19.5134 -19.4918 -19.4731 -12.1526 -11.1099
    -6.2051  -5.2464  -4.8200  -3.9868  -3.6678  -3.0559  -0.8181  -0.1354
     1.6948   2.5053   2.8959   3.4023   4.4354   5.4598

          k = 0.2354 0.5829 0.0000 ( 16870 PWs)   bands (ev):

   -67.9639 -67.8468 -34.8322 -34.6786 -34.6209 -34.4164 -34.3789 -34.2612
   -19.6355 -19.6262 -19.6172 -19.6159 -19.6133 -19.6098 -19.6015 -19.5692
   -19.5598 -19.5572 -19.5217 -19.5133 -19.4918 -19.4731 -12.1539 -11.1107
    -6.2030  -5.2440  -4.8200  -3.9836  -3.6707  -3.0562  -0.8168  -0.1329
     1.6947   2.5079   2.8946   3.3863   4.4372   5.4526

          k = 0.2323-0.4043 0.0000 ( 16815 PWs)   bands (ev):

   -67.9671 -67.8492 -34.8326 -34.6459 -34.6151 -34.3997 -34.3569 -34.2348
   -19.6330 -19.6271 -19.6195 -19.6169 -19.6135 -19.6091 -19.6016 -19.5706
   -19.5596 -19.5553 -19.5228 -19.5130 -19.4888 -19.4759 -12.3362 -11.2540
    -6.0902  -5.1828  -4.7008  -4.0808  -3.5644  -2.8769  -0.9722  -0.3499
     1.4472   2.2381   2.9050   3.9545   4.4073   5.3113

          k = 0.2326-0.3145 0.0000 ( 16795 PWs)   bands (ev):

   -67.9727 -67.8535 -34.8161 -34.6612 -34.5353 -34.3891 -34.3172 -34.1878
   -19.6306 -19.6272 -19.6243 -19.6169 -19.6127 -19.6075 -19.6034 -19.5729
   -19.5588 -19.5525 -19.5240 -19.5133 -19.4838 -19.4806 -12.6612 -11.4504
    -5.9894  -5.0398  -4.5533  -4.3075  -3.3041  -2.4440  -1.1842  -0.4503
     1.2026   1.9145   2.9421   3.7277   4.1469   4.9186

          k = 0.2329-0.2248 0.0000 ( 16789 PWs)   bands (ev):

   -67.9790 -67.8584 -34.7951 -34.6559 -34.4504 -34.3731 -34.2887 -34.1376
   -19.6334 -19.6288 -19.6220 -19.6163 -19.6121 -19.6072 -19.6053 -19.5755
   -19.5571 -19.5500 -19.5245 -19.5145 -19.4868 -19.4777 -13.0350 -11.6283
    -5.9746  -5.0542  -4.5235  -4.0972  -2.9696  -1.9617  -1.3064  -0.6234
     1.1623   1.8996   2.5008   3.2327   3.5090   4.3726

          k = 0.2332-0.1350 0.0000 ( 16790 PWs)   bands (ev):

   -67.9845 -67.8626 -34.7937 -34.6110 -34.3944 -34.3555 -34.2602 -34.1081
   -19.6374 -19.6297 -19.6178 -19.6158 -19.6118 -19.6104 -19.6042 -19.5776
   -19.5553 -19.5483 -19.5244 -19.5163 -19.4917 -19.4731 -13.3490 -11.7579
    -5.9961  -5.2552  -4.1333  -4.0062  -2.6680  -1.5139  -1.4578  -0.6687
     1.1179   1.4833   2.4021   2.8354   3.0747   4.2539

          k = 0.2334-0.0453 0.0000 ( 16782 PWs)   bands (ev):

   -67.9877 -67.8650 -34.8001 -34.5599 -34.4001 -34.3288 -34.2277 -34.1041
   -19.6401 -19.6283 -19.6198 -19.6142 -19.6126 -19.6086 -19.6048 -19.5787
   -19.5542 -19.5473 -19.5240 -19.5177 -19.4946 -19.4704 -13.5245 -11.8255
    -5.9966  -5.3547  -4.1660  -3.6638  -2.5497  -1.6504  -0.9234  -0.7295
     0.5082   1.4097   2.2377   2.9046   3.3290   3.8735

          k = 0.2337 0.0445 0.0000 ( 16779 PWs)   bands (ev):

   -67.9876 -67.8650 -34.8000 -34.5601 -34.4005 -34.3289 -34.2287 -34.1035
   -19.6401 -19.6279 -19.6201 -19.6142 -19.6126 -19.6090 -19.6044 -19.5786
   -19.5546 -19.5469 -19.5242 -19.5176 -19.4946 -19.4704 -13.5236 -11.8248
    -5.9950  -5.3519  -4.1710  -3.6624  -2.5495  -1.6578  -0.9154  -0.7336
     0.5074   1.4071   2.2349   2.9039   3.3335   3.8713

          k = 0.3120 0.1789 0.0000 ( 16802 PWs)   bands (ev):

   -67.9756 -67.8557 -34.8251 -34.6845 -34.4310 -34.4252 -34.3070 -34.1337
   -19.6346 -19.6265 -19.6253 -19.6143 -19.6127 -19.6063 -19.6038 -19.5740
   -19.5609 -19.5487 -19.5253 -19.5130 -19.4838 -19.4801 -12.8701 -11.5175
    -6.3055  -4.9882  -4.4424  -4.0783  -3.2104  -1.8815  -1.5730  -0.4224
     1.6351   2.3900   2.6769   3.1812   3.2397   4.5641

          k = 0.3123 0.2687 0.0000 ( 16776 PWs)   bands (ev):

   -67.9712 -67.8523 -34.8586 -34.6870 -34.4884 -34.4281 -34.3217 -34.1621
   -19.6339 -19.6292 -19.6232 -19.6147 -19.6123 -19.6048 -19.6034 -19.5723
   -19.5625 -19.5500 -19.5251 -19.5119 -19.4839 -19.4797 -12.6378 -11.3537
    -6.4868  -5.0465  -4.2789  -4.2345  -3.4287  -2.1903  -1.4727  -0.2239
     1.7562   2.2951   3.0293   3.6374   3.9031   4.5912

          k = 0.3125 0.3584 0.0000 ( 16845 PWs)   bands (ev):

   -67.9669 -67.8490 -34.8660 -34.6736 -34.5635 -34.4275 -34.3434 -34.2131
   -19.6333 -19.6305 -19.6198 -19.6145 -19.6136 -19.6068 -19.6017 -19.5704
   -19.5629 -19.5523 -19.5240 -19.5121 -19.4883 -19.4759 -12.3769 -11.1933
    -6.4670  -5.1003  -4.5227  -4.1082  -3.5722  -2.6807  -1.2382  -0.1189
     1.7534   2.3411   3.0370   3.9969   4.3349   5.0979

          k = 0.3128 0.4482 0.0000 ( 16876 PWs)   bands (ev):

   -67.9637 -67.8466 -34.8350 -34.6787 -34.6215 -34.4167 -34.3801 -34.2595
   -19.6356 -19.6261 -19.6175 -19.6161 -19.6133 -19.6090 -19.6017 -19.5689
   -19.5621 -19.5551 -19.5221 -19.5133 -19.4917 -19.4731 -12.1503 -11.1082
    -6.2047  -5.2471  -4.8238  -3.9900  -3.6705  -3.0554  -0.8197  -0.1319
     1.7006   2.5094   2.8996   3.4004   4.4347   5.4552

          k = 0.3131 0.5379 0.0000 ( 16906 PWs)   bands (ev):

   -67.9626 -67.8458 -34.7851 -34.7407 -34.6120 -34.4091 -34.4050 -34.2774
   -19.6365 -19.6214 -19.6212 -19.6139 -19.6136 -19.6107 -19.6020 -19.5684
   -19.5602 -19.5576 -19.5208 -19.5143 -19.4931 -19.4721 -12.0545 -11.0939
    -5.8982  -5.4283  -5.0625  -3.9014  -3.6589  -3.2299  -0.5533  -0.1004
     1.6371   2.5875   2.6011   3.1256   4.4867   5.7906

          k = 0.3134 0.6277 0.0000 ( 16870 PWs)   bands (ev):

   -67.9638 -67.8467 -34.8325 -34.6790 -34.6210 -34.4165 -34.3793 -34.2608
   -19.6356 -19.6262 -19.6174 -19.6160 -19.6131 -19.6097 -19.6015 -19.5691
   -19.5606 -19.5565 -19.5219 -19.5133 -19.4918 -19.4731 -12.1531 -11.1100
    -6.2033  -5.2442  -4.8204  -3.9849  -3.6692  -3.0582  -0.8177  -0.1319
     1.6958   2.5091   2.8975   3.3856   4.4372   5.4511

          k = 0.3103-0.3595 0.0000 ( 16837 PWs)   bands (ev):

   -67.9671 -67.8492 -34.8635 -34.6723 -34.5635 -34.4270 -34.3419 -34.2150
   -19.6333 -19.6305 -19.6197 -19.6145 -19.6133 -19.6076 -19.6014 -19.5708
   -19.5614 -19.5537 -19.5236 -19.5120 -19.4883 -19.4759 -12.3814 -11.1963
    -6.4668  -5.0964  -4.5136  -4.1063  -3.5705  -2.6794  -1.2374  -0.1188
     1.7510   2.3369   3.0359   3.9788   4.3362   5.0926

          k = 0.3106-0.2698 0.0000 ( 16786 PWs)   bands (ev):

   -67.9714 -67.8525 -34.8565 -34.6862 -34.4872 -34.4274 -34.3203 -34.1636
   -19.6341 -19.6290 -19.6234 -19.6143 -19.6123 -19.6055 -19.6030 -19.5728
   -19.5610 -19.5513 -19.5247 -19.5119 -19.4840 -19.4798 -12.6426 -11.3569
    -6.4895  -5.0440  -4.2713  -4.2292  -3.4282  -2.1880  -1.4675  -0.2247
     1.7560   2.2908   3.0251   3.6321   3.8994   4.5926

          k = 0.3109-0.1800 0.0000 ( 16798 PWs)   bands (ev):

   -67.9758 -67.8559 -34.8240 -34.6842 -34.4300 -34.4237 -34.3058 -34.1347
   -19.6346 -19.6269 -19.6252 -19.6138 -19.6125 -19.6060 -19.6045 -19.5744
   -19.5597 -19.5498 -19.5249 -19.5130 -19.4838 -19.4801 -12.8740 -11.5202
    -6.3103  -4.9878  -4.4464  -4.0619  -3.2106  -1.8889  -1.5553  -0.4236
     1.6300   2.3931   2.6696   3.1853   3.2388   4.5676

          k = 0.3112-0.0903 0.0000 ( 16784 PWs)   bands (ev):

   -67.9789 -67.8583 -34.7960 -34.6572 -34.4511 -34.3733 -34.2899 -34.1357
   -19.6333 -19.6289 -19.6223 -19.6159 -19.6121 -19.6076 -19.6051 -19.5753
   -19.5582 -19.5490 -19.5245 -19.5147 -19.4868 -19.4777 -13.0323 -11.6272
    -5.9766  -5.0528  -4.5281  -4.0980  -2.9697  -1.9580  -1.3128  -0.6228
     1.1503   1.9038   2.5071   3.2402   3.5123   4.3712

          k = 0.3114-0.0005 0.0000 ( 16800 PWs)   bands (ev):

   -67.9800 -67.8591 -34.7882 -34.6325 -34.4723 -34.3504 -34.2808 -34.1441
   -19.6329 -19.6283 -19.6214 -19.6186 -19.6109 -19.6080 -19.6058 -19.5755
   -19.5578 -19.5486 -19.5243 -19.5155 -19.4878 -19.4770 -13.0878 -11.6622
    -5.6568  -5.3101  -4.5341  -4.0737  -2.9349  -2.0076  -1.0842  -0.6947
     0.7505   1.6846   2.4828   3.4955   3.6006   4.3645

          k = 0.3117 0.0892 0.0000 ( 16793 PWs)   bands (ev):

   -67.9788 -67.8582 -34.7963 -34.6574 -34.4517 -34.3743 -34.2910 -34.1350
   -19.6335 -19.6282 -19.6223 -19.6162 -19.6126 -19.6077 -19.6045 -19.5751
   -19.5590 -19.5483 -19.5248 -19.5146 -19.4867 -19.4777 -13.0301 -11.6257
    -5.9719  -5.0525  -4.5260  -4.1066  -2.9700  -1.9662  -1.3097  -0.6249
     1.1520   1.9062   2.5029   3.2372   3.5135   4.3706

          k = 0.3900 0.2237 0.0000 ( 16828 PWs)   bands (ev):

   -67.9691 -67.8508 -34.9009 -34.7016 -34.4625 -34.4569 -34.3328 -34.1535
   -19.6359 -19.6313 -19.6224 -19.6146 -19.6099 -19.6037 -19.6022 -19.5718
   -19.5642 -19.5499 -19.5257 -19.5106 -19.4850 -19.4780 -12.5786 -11.2053
    -6.8799  -5.0333  -4.2561  -4.1737  -3.5274  -2.0317  -1.5573   0.0566
     2.0201   2.7650   3.1679   3.7910   3.8113   4.6713

          k = 0.3903 0.3134 0.0000 ( 16840 PWs)   bands (ev):

   -67.9668 -67.8490 -34.9132 -34.6996 -34.4993 -34.4534 -34.3407 -34.1772
   -19.6350 -19.6332 -19.6211 -19.6139 -19.6103 -19.6045 -19.6011 -19.5708
   -19.5647 -19.5509 -19.5252 -19.5104 -19.4873 -19.4758 -12.4586 -11.0831
    -6.9679  -4.9955  -4.3588  -4.2405  -3.5207  -2.2294  -1.5237   0.2011
     2.1969   2.5107   3.4222   4.0201   4.2383   4.7392

          k = 0.3905 0.4032 0.0000 ( 16840 PWs)   bands (ev):

   -67.9648 -67.8475 -34.8863 -34.6806 -34.5687 -34.4407 -34.3524 -34.2230
   -19.6349 -19.6311 -19.6191 -19.6133 -19.6129 -19.6066 -19.6012 -19.5696
   -19.5639 -19.5528 -19.5238 -19.5116 -19.4899 -19.4740 -12.2910 -11.0598
    -6.6969  -5.0803  -4.4872  -4.1980  -3.5843  -2.7014  -1.2559   0.0988
     2.0407   2.4840   3.2838   3.7093   4.2862   5.3417

          k = 0.3908 0.4929 0.0000 ( 16868 PWs)   bands (ev):

   -67.9637 -67.8466 -34.8357 -34.6786 -34.6218 -34.4168 -34.3802 -34.2590
   -19.6356 -19.6261 -19.6176 -19.6161 -19.6134 -19.6089 -19.6016 -19.5688
   -19.5624 -19.5548 -19.5221 -19.5133 -19.4917 -19.4730 -12.1499 -11.1073
    -6.2066  -5.2482  -4.8224  -3.9906  -3.6696  -3.0558  -0.8203  -0.1333
     1.6993   2.5065   2.8995   3.4114   4.4348   5.4580

          k = 0.3911 0.5827 0.0000 ( 16868 PWs)   bands (ev):

   -67.9638 -67.8467 -34.8347 -34.6787 -34.6215 -34.4166 -34.3798 -34.2596
   -19.6356 -19.6262 -19.6176 -19.6157 -19.6135 -19.6093 -19.6016 -19.5690
   -19.5617 -19.5554 -19.5219 -19.5134 -19.4918 -19.4731 -12.1514 -11.1083
    -6.2074  -5.2477  -4.8191  -3.9886  -3.6653  -3.0583  -0.8197  -0.1358
     1.6946   2.5037   2.8986   3.4126   4.4354   5.4611

          k = 0.3914 0.6724 0.0000 ( 16856 PWs)   bands (ev):

   -67.9650 -67.8476 -34.8844 -34.6795 -34.5684 -34.4406 -34.3509 -34.2243
   -19.6348 -19.6313 -19.6189 -19.6134 -19.6126 -19.6073 -19.6009 -19.5700
   -19.5627 -19.5539 -19.5234 -19.5117 -19.4900 -19.4741 -12.2948 -11.0627
    -6.6980  -5.0776  -4.4806  -4.1925  -3.5805  -2.7011  -1.2561   0.0947
     2.0326   2.4790   3.2812   3.7058   4.2903   5.3420

          k = 0.3883-0.3148 0.0000 ( 16846 PWs)   bands (ev):

   -67.9670 -67.8492 -34.9111 -34.6982 -34.4983 -34.4534 -34.3390 -34.1782
   -19.6353 -19.6330 -19.6210 -19.6137 -19.6102 -19.6052 -19.6007 -19.5714
   -19.5633 -19.5521 -19.5247 -19.5104 -19.4873 -19.4759 -12.4634 -11.0873
    -6.9699  -4.9936  -4.3472  -4.2339  -3.5209  -2.2291  -1.5175   0.1968
     2.1914   2.5036   3.4209   4.0170   4.2352   4.7340

          k = 0.3886-0.2250 0.0000 ( 16836 PWs)   bands (ev):

   -67.9694 -67.8510 -34.8991 -34.7006 -34.4621 -34.4556 -34.3314 -34.1543
   -19.6361 -19.6311 -19.6225 -19.6143 -19.6097 -19.6045 -19.6018 -19.5723
   -19.5629 -19.5510 -19.5251 -19.5106 -19.4851 -19.4780 -12.5834 -11.2092
    -6.8836  -5.0319  -4.2546  -4.1560  -3.5294  -2.0411  -1.5381   0.0530
     2.0123   2.7561   3.1649   3.7917   3.8134   4.6727

          k = 0.3889-0.1353 0.0000 ( 16778 PWs)   bands (ev):

   -67.9714 -67.8525 -34.8579 -34.6868 -34.4883 -34.4265 -34.3209 -34.1624
   -19.6340 -19.6292 -19.6235 -19.6143 -19.6120 -19.6055 -19.6031 -19.5727
   -19.5616 -19.5507 -19.5246 -19.5121 -19.4840 -19.4798 -12.6407 -11.3557
    -6.4930  -5.0452  -4.2769  -4.2250  -3.4292  -2.1848  -1.4718  -0.2240
     1.7468   2.2827   3.0285   3.6543   3.9077   4.5939

          k = 0.3892-0.0456 0.0000 ( 16793 PWs)   bands (ev):

   -67.9725 -67.8533 -34.8190 -34.6629 -34.5352 -34.3904 -34.3186 -34.1846
   -19.6302 -19.6279 -19.6246 -19.6163 -19.6130 -19.6073 -19.6035 -19.5726
   -19.5606 -19.5508 -19.5240 -19.5135 -19.4839 -19.4806 -12.6564 -11.4482
    -5.9954  -5.0440  -4.5529  -4.3095  -3.3043  -2.4425  -1.1887  -0.4552
     1.1966   1.9140   2.9470   3.7495   4.1584   4.9179

          k = 0.3894 0.0442 0.0000 ( 16790 PWs)   bands (ev):

   -67.9724 -67.8533 -34.8193 -34.6630 -34.5355 -34.3909 -34.3191 -34.1842
   -19.6302 -19.6279 -19.6244 -19.6166 -19.6133 -19.6070 -19.6035 -19.5725
   -19.5610 -19.5504 -19.5242 -19.5135 -19.4838 -19.4806 -12.6551 -11.4474
    -5.9921  -5.0451  -4.5567  -4.3093  -3.3051  -2.4467  -1.1848  -0.4576
     1.1979   1.9174   2.9471   3.7437   4.1596   4.9165

          k = 0.3897 0.1339 0.0000 ( 16782 PWs)   bands (ev):

   -67.9712 -67.8523 -34.8591 -34.6872 -34.4890 -34.4277 -34.3219 -34.1616
   -19.6338 -19.6293 -19.6233 -19.6147 -19.6124 -19.6050 -19.6031 -19.5723
   -19.5627 -19.5499 -19.5251 -19.5120 -19.4839 -19.4797 -12.6372 -11.3532
    -6.4882  -5.0465  -4.2797  -4.2341  -3.4288  -2.1895  -1.4740  -0.2234
     1.7513   2.2926   3.0291   3.6458   3.9055   4.5930

          k =-0.4680-0.2684 0.0000 ( 16838 PWs)   bands (ev):

   -67.9668 -67.8489 -34.9329 -34.7107 -34.4668 -34.4659 -34.3444 -34.1607
   -19.6365 -19.6334 -19.6217 -19.6138 -19.6090 -19.6036 -19.6006 -19.5710
   -19.5653 -19.5504 -19.5258 -19.5097 -19.4868 -19.4758 -12.4960 -11.0299
    -7.1675  -4.9427  -4.4105  -4.2162  -3.5167  -2.0342  -1.5482   0.3438
     2.1888   2.7512   3.5170   4.1559   4.2575   4.6741

          k =-0.4677-0.1787 0.0000 ( 16844 PWs)   bands (ev):

   -67.9668 -67.8490 -34.9134 -34.6997 -34.4996 -34.4531 -34.3408 -34.1770
   -19.6349 -19.6333 -19.6211 -19.6139 -19.6103 -19.6045 -19.6010 -19.5708
   -19.5647 -19.5509 -19.5252 -19.5104 -19.4873 -19.4758 -12.4584 -11.0827
    -6.9686  -4.9952  -4.3613  -4.2383  -3.5209  -2.2288  -1.5243   0.2012
     2.1949   2.5093   3.4173   4.0260   4.2450   4.7393

          k =-0.4674-0.0889 0.0000 ( 16845 PWs)   bands (ev):

   -67.9668 -67.8490 -34.8668 -34.6741 -34.5636 -34.4275 -34.3436 -34.2125
   -19.6332 -19.6306 -19.6198 -19.6146 -19.6136 -19.6069 -19.6016 -19.5703
   -19.5632 -19.5521 -19.5240 -19.5121 -19.4883 -19.4758 -12.3762 -11.1922
    -6.4694  -5.1005  -4.5238  -4.1072  -3.5717  -2.6804  -1.2398  -0.1194
     1.7501   2.3379   3.0359   4.0109   4.3376   5.1017

          k =-0.4672 0.0008 0.0000 ( 16818 PWs)   bands (ev):

   -67.9669 -67.8490 -34.8365 -34.6494 -34.6126 -34.4015 -34.3577 -34.2317
   -19.6330 -19.6273 -19.6199 -19.6163 -19.6140 -19.6085 -19.6017 -19.5702
   -19.5620 -19.5530 -19.5230 -19.5132 -19.4888 -19.4759 -12.3311 -11.2507
    -6.0969  -5.1893  -4.7038  -4.0810  -3.5610  -2.8797  -0.9742  -0.3586
     1.4479   2.2363   2.9101   3.9916   4.4099   5.3225

          k =-0.4669 0.0906 0.0000 ( 16836 PWs)   bands (ev):

   -67.9670 -67.8491 -34.8657 -34.6735 -34.5633 -34.4269 -34.3426 -34.2133
   -19.6331 -19.6308 -19.6198 -19.6144 -19.6133 -19.6074 -19.6015 -19.5707
   -19.5624 -19.5528 -19.5236 -19.5122 -19.4883 -19.4759 -12.3789 -11.1941
    -6.4725  -5.0987  -4.5179  -4.1039  -3.5697  -2.6776  -1.2424  -0.1208
     1.7444   2.3306   3.0360   4.0184   4.3371   5.1045

          k =-0.4666 0.1803 0.0000 ( 16844 PWs)   bands (ev):

   -67.9670 -67.8491 -34.9117 -34.6986 -34.4988 -34.4527 -34.3393 -34.1778
   -19.6352 -19.6331 -19.6210 -19.6138 -19.6101 -19.6052 -19.6007 -19.5713
   -19.5635 -19.5519 -19.5247 -19.5105 -19.4873 -19.4758 -12.4628 -11.0866
    -6.9716  -4.9933  -4.3576  -4.2245  -3.5216  -2.2281  -1.5192   0.1971
     2.1875   2.4990   3.4112   4.0346   4.2477   4.7361

          k =-0.4696-0.8069 0.0000 ( 16830 PWs)   bands (ev):

   -67.9670 -67.8492 -34.9309 -34.7093 -34.4668 -34.4647 -34.3427 -34.1614
   -19.6368 -19.6332 -19.6215 -19.6137 -19.6088 -19.6043 -19.6002 -19.5717
   -19.5641 -19.5514 -19.5251 -19.5097 -19.4869 -19.4758 -12.5009 -11.0346
    -7.1703  -4.9418  -4.4063  -4.1982  -3.5188  -2.0450  -1.5285   0.3388
     2.1793   2.7436   3.5107   4.1559   4.2589   4.6707

     the Fermi energy is     0.2015 ev

!    total energy              =   -1438.47519651 Ry
     estimated scf accuracy    <          7.7E-13 Ry
     smearing contrib. (-TS)   =      -0.00002090 Ry
     internal energy E=F+TS    =   -1438.47517561 Ry

     The total energy is F=E-TS. E is the sum of the following terms:
     one-electron contribution =  -11692.76522669 Ry
     hartree contribution      =    5877.34294857 Ry
     xc contribution           =    -143.95495995 Ry
     ewald contribution        =    4565.78312063 Ry
     one-center paw contrib.   =     -44.88105816 Ry

     convergence has been achieved in  10 iterations

     negative rho (up, down):  6.510E-05 0.000E+00

     Forces acting on atoms (cartesian axes, Ry/au):

     atom    1 type  2   force =     0.00036226    0.00039643   -0.00084975
     atom    2 type  1   force =    -0.00057934   -0.00037204    0.00014878
     atom    3 type  1   force =     0.00022341    0.00068817    0.00037382
     atom    4 type  3   force =    -0.00000633   -0.00071255    0.00032715

     Total force =     0.001669     Total SCF correction =     0.000006


     Computing stress (Cartesian axis) and pressure


     negative rho (up, down):  6.510E-05 0.000E+00
          total   stress  (Ry/bohr**3)                   (kbar)     P=        0.45
   0.00000761   0.00000025   0.00000103            1.12        0.04        0.15
   0.00000025   0.00000398  -0.00000086            0.04        0.59       -0.13
   0.00000103  -0.00000086  -0.00000237            0.15       -0.13       -0.35

     Energy error            =      5.7E-06 Ry
     Gradient error          =      8.5E-04 Ry/Bohr

     bfgs converged in   2 scf cycles and   1 bfgs steps
     (criteria: energy <  1.0E-04 Ry, force <  1.0E-03 Ry/Bohr)

     End of BFGS Geometry Optimization

     Final energy             =   -1438.4751965069 Ry

     File /scratch/as3359/Ta2CO_loop/Ta.bfgs deleted, as requested
Begin final coordinates

ATOMIC_POSITIONS (alat)
C             0.0001540745        0.0001294869       -0.0002665010
Ta            0.5365170241        0.3085633586       -0.3899266576
Ta            0.0012366323        0.6192060320        0.4285633317
S             0.5351085692        0.3081437225        0.9859537268
End final coordinates



     Writing output data file /scratch/as3359/Ta2CO_loop/Ta.save/
 
     init_run     :     27.10s CPU     16.61s WALL (       1 calls)
     electrons    :   1000.47s CPU    518.48s WALL (       2 calls)
     update_pot   :     11.67s CPU      5.84s WALL (       1 calls)
     forces       :     25.51s CPU     13.11s WALL (       2 calls)
     stress       :     77.98s CPU     40.15s WALL (       2 calls)

     Called by init_run:
     wfcinit      :     10.20s CPU      5.25s WALL (       1 calls)
     potinit      :      4.64s CPU      2.37s WALL (       1 calls)
     hinit0       :     10.19s CPU      7.78s WALL (       1 calls)

     Called by electrons:
     c_bands      :    741.02s CPU    376.09s WALL (      33 calls)
     sum_band     :    189.06s CPU    101.59s WALL (      33 calls)
     v_of_rho     :     10.75s CPU      5.69s WALL (      34 calls)
     newd         :     60.06s CPU     35.45s WALL (      34 calls)
     PAW_pot      :      1.14s CPU      0.59s WALL (      35 calls)
     mix_rho      :      1.49s CPU      0.80s WALL (      33 calls)

     Called by c_bands:
     init_us_2    :     19.20s CPU      9.63s WALL (    5328 calls)
     cegterg      :    674.79s CPU    342.76s WALL (    2442 calls)

     Called by *egterg:
     cdiaghg      :     24.41s CPU     12.48s WALL (   10220 calls)
     h_psi        :    519.40s CPU    264.60s WALL (   10442 calls)
     s_psi        :     25.48s CPU     12.78s WALL (   10442 calls)
     g_psi        :      4.42s CPU      2.22s WALL (    7926 calls)

     Called by h_psi:
     h_psi:calbec :     23.84s CPU     11.98s WALL (   10442 calls)
     vloc_psi     :    463.30s CPU    236.43s WALL (   10442 calls)
     add_vuspsi   :     27.76s CPU     13.91s WALL (   10442 calls)

     General routines
     calbec       :     34.70s CPU     17.44s WALL (   13698 calls)
     fft          :      8.43s CPU      5.12s WALL (     490 calls)
     ffts         :      0.19s CPU      0.11s WALL (      67 calls)
     fftw         :    481.55s CPU    245.78s WALL (  547530 calls)
     interpolate  :      0.61s CPU      0.33s WALL (      34 calls)
 
     Parallel routines
 
     PWSCF        :  19m 8.23s CPU   9m58.50s WALL

 
   This run was terminated on:   4:26:36  22Apr2022            

=------------------------------------------------------------------------------=
   JOB DONE.
=------------------------------------------------------------------------------=
