
     Program PWSCF v.6.8 starts on  7Apr2022 at 14:24:57 

     This program is part of the open-source Quantum ESPRESSO suite
     for quantum simulation of materials; please cite
         "P. Giannozzi et al., J. Phys.:Condens. Matter 21 395502 (2009);
         "P. Giannozzi et al., J. Phys.:Condens. Matter 29 465901 (2017);
         "P. Giannozzi et al., J. Chem. Phys. 152 154105 (2020);
          URL http://www.quantum-espresso.org", 
     in publications or presentations arising from this work. More details at
     http://www.quantum-espresso.org/quote

     Parallel version (MPI & OpenMP), running on       4 processor cores
     Number of MPI processes:                 2
     Threads/MPI process:                     2

     MPI processes distributed on     1 nodes
     R & G space division:  proc/nbgrp/npool/nimage =       2
     125214 MiB available memory on the printing compute node when the environment starts
 
     Reading input from Ta2C.scf.10.in
Warning: card  &CELL ignored
Warning: card     CELL_DYNAMICS='BFGS' ignored
Warning: card  / ignored

     Current dimensions of program PWSCF are:
     Max number of different atomic species (ntypx) = 10
     Max number of k-points (npk) =  40000
     Max angular momentum in pseudopotentials (lmaxx) =  4
     Message from routine iosys:
     restart disabled: needed files not found
     file Ta.pbesol-spfn-rrkjus_psl.1.0.0.UPF: wavefunction(s)  5S 5P renormalized

     Subspace diagonalization in iterative solution of the eigenvalue problem:
     a serial algorithm will be used

 
     Parallelization info
     --------------------
     sticks:   dense  smooth     PW     G-vecs:    dense   smooth      PW
     Min         684     684    205               197288   197288   31815
     Max         685     685    206               197321   197321   31818
     Sum        1369    1369    411               394609   394609   63633
 
     Using Slab Decomposition
 


     bravais-lattice index     =            0
     lattice parameter (alat)  =       5.5500  a.u.
     unit-cell volume          =    1588.7844 (a.u.)^3
     number of atoms/cell      =            3
     number of atomic types    =            2
     number of electrons       =        58.00
     number of Kohn-Sham states=           29
     kinetic-energy cutoff     =     150.0000  Ry
     charge density cutoff     =     600.0000  Ry
     scf convergence threshold =      1.0E-12
     mixing beta               =       0.7000
     number of iterations used =            8  plain     mixing
     Exchange-correlation= PBESOL
                           (   1   4  10   8   0   0   0)

     celldm(1)=   5.550000  celldm(2)=   0.000000  celldm(3)=   0.000000
     celldm(4)=   0.000000  celldm(5)=   0.000000  celldm(6)=   0.000000

     crystal axes: (cart. coord. in units of alat)
               a(1) = (   1.034114   0.000203   0.000000 )  
               a(2) = (  -0.516207   0.898604   0.000000 )  
               a(3) = (   0.000000   0.000000  10.000000 )  

     reciprocal axes: (cart. coord. in units 2 pi/alat)
               b(1) = (  0.966902  0.555441  0.000000 )  
               b(2) = ( -0.000219  1.112711  0.000000 )  
               b(3) = (  0.000000  0.000000  0.100000 )  


     PseudoPot. # 1 for Ta read from file:
     /shared/home/as3359/pseudo/Ta.pbesol-spfn-rrkjus_psl.1.0.0.UPF
     MD5 check sum: f099565ffaca9b150a52e9412a28e20b
     Pseudo is Ultrasoft + core correction, Zval = 27.0
     Generated using &quot;atomic&quot; code by A. Dal Corso  v.6.3
     Using radial grid of 1273 points,  8 beta functions with: 
                l(1) =   0
                l(2) =   0
                l(3) =   1
                l(4) =   1
                l(5) =   2
                l(6) =   2
                l(7) =   3
                l(8) =   3
     Q(r) pseudized with 0 coefficients 


     PseudoPot. # 2 for C  read from file:
     /shared/home/as3359/pseudo/C.pbesol-n-rrkjus_psl.1.0.0.UPF
     MD5 check sum: 05995be603a8a7c99da3dc4413f31573
     Pseudo is Ultrasoft + core correction, Zval =  4.0
     Generated using &quot;atomic&quot; code by A. Dal Corso  v.6.3MaX
     Using radial grid of 1073 points,  4 beta functions with: 
                l(1) =   0
                l(2) =   0
                l(3) =   1
                l(4) =   1
     Q(r) pseudized with 0 coefficients 


     atomic species   valence    mass     pseudopotential
        Ta            27.00   180.94788     Ta( 1.00)
        C              4.00    12.01070     C ( 1.00)

     No symmetry found



   Cartesian axes

     site n.     atom                  positions (alat units)
         1           C   tau(   1) = (   0.0000000   0.0000000   0.0000000  )
         2           Ta  tau(   2) = (   0.5174615   0.3004190  -0.4127129  )
         3           Ta  tau(   3) = (   0.0007158   0.5986355   0.4125272  )

     number of k points=    52
                       cart. coord. in units 2pi/alat
        k(    1) = (   0.0000000   0.0000000   0.0000000), wk =   0.0200000
        k(    2) = (  -0.0000219   0.1112711   0.0000000), wk =   0.0400000
        k(    3) = (  -0.0000437   0.2225422   0.0000000), wk =   0.0400000
        k(    4) = (  -0.0000656   0.3338133   0.0000000), wk =   0.0400000
        k(    5) = (  -0.0000874   0.4450844   0.0000000), wk =   0.0400000
        k(    6) = (   0.0001093  -0.5563556   0.0000000), wk =   0.0200000
        k(    7) = (   0.0966902   0.0555441   0.0000000), wk =   0.0400000
        k(    8) = (   0.0966684   0.1668152   0.0000000), wk =   0.0400000
        k(    9) = (   0.0966465   0.2780863   0.0000000), wk =   0.0400000
        k(   10) = (   0.0966246   0.3893574   0.0000000), wk =   0.0400000
        k(   11) = (   0.0966028   0.5006285   0.0000000), wk =   0.0400000
        k(   12) = (   0.0967995  -0.5008115   0.0000000), wk =   0.0400000
        k(   13) = (   0.0967777  -0.3895404   0.0000000), wk =   0.0400000
        k(   14) = (   0.0967558  -0.2782692   0.0000000), wk =   0.0400000
        k(   15) = (   0.0967339  -0.1669981   0.0000000), wk =   0.0400000
        k(   16) = (   0.0967121  -0.0557270   0.0000000), wk =   0.0400000
        k(   17) = (   0.1933804   0.1110882   0.0000000), wk =   0.0400000
        k(   18) = (   0.1933586   0.2223593   0.0000000), wk =   0.0400000
        k(   19) = (   0.1933367   0.3336304   0.0000000), wk =   0.0400000
        k(   20) = (   0.1933149   0.4449015   0.0000000), wk =   0.0400000
        k(   21) = (   0.1932930   0.5561726   0.0000000), wk =   0.0400000
        k(   22) = (   0.1934897  -0.4452674   0.0000000), wk =   0.0400000
        k(   23) = (   0.1934679  -0.3339963   0.0000000), wk =   0.0400000
        k(   24) = (   0.1934460  -0.2227252   0.0000000), wk =   0.0400000
        k(   25) = (   0.1934242  -0.1114540   0.0000000), wk =   0.0400000
        k(   26) = (   0.1934023  -0.0001829   0.0000000), wk =   0.0400000
        k(   27) = (   0.2900707   0.1666323   0.0000000), wk =   0.0400000
        k(   28) = (   0.2900488   0.2779034   0.0000000), wk =   0.0400000
        k(   29) = (   0.2900269   0.3891745   0.0000000), wk =   0.0400000
        k(   30) = (   0.2900051   0.5004456   0.0000000), wk =   0.0400000
        k(   31) = (   0.2899832   0.6117167   0.0000000), wk =   0.0400000
        k(   32) = (   0.2901800  -0.3897233   0.0000000), wk =   0.0400000
        k(   33) = (   0.2901581  -0.2784522   0.0000000), wk =   0.0400000
        k(   34) = (   0.2901362  -0.1671811   0.0000000), wk =   0.0400000
        k(   35) = (   0.2901144  -0.0559099   0.0000000), wk =   0.0400000
        k(   36) = (   0.2900925   0.0553612   0.0000000), wk =   0.0400000
        k(   37) = (   0.3867609   0.2221764   0.0000000), wk =   0.0400000
        k(   38) = (   0.3867390   0.3334475   0.0000000), wk =   0.0400000
        k(   39) = (   0.3867172   0.4447186   0.0000000), wk =   0.0400000
        k(   40) = (   0.3866953   0.5559897   0.0000000), wk =   0.0400000
        k(   41) = (   0.3866734   0.6672608   0.0000000), wk =   0.0400000
        k(   42) = (   0.3868702  -0.3341792   0.0000000), wk =   0.0400000
        k(   43) = (   0.3868483  -0.2229081   0.0000000), wk =   0.0400000
        k(   44) = (   0.3868265  -0.1116370   0.0000000), wk =   0.0400000
        k(   45) = (   0.3868046  -0.0003659   0.0000000), wk =   0.0400000
        k(   46) = (   0.3867827   0.1109053   0.0000000), wk =   0.0400000
        k(   47) = (  -0.4834511  -0.2777205   0.0000000), wk =   0.0200000
        k(   48) = (  -0.4834730  -0.1664494   0.0000000), wk =   0.0400000
        k(   49) = (  -0.4834948  -0.0551782   0.0000000), wk =   0.0400000
        k(   50) = (  -0.4835167   0.0560929   0.0000000), wk =   0.0400000
        k(   51) = (  -0.4835385   0.1673640   0.0000000), wk =   0.0400000
        k(   52) = (  -0.4833418  -0.8340760   0.0000000), wk =   0.0200000

     Dense  grid:   394609 G-vectors     FFT dimensions: (  45,  45, 450)

     Estimated max dynamical RAM per process >       2.43 GB

     Estimated total dynamical RAM >       4.86 GB
     Cannot read rho : file not found

     Initial potential from superposition of free atoms

     starting charge   57.99842, renormalised to   58.00000

     negative rho (up, down):  9.930E-05 0.000E+00
     Message from routine qexsd_readschema :
     xml data file /scratch/as3359/Ta2C_ct_kpts/Ta2C.save/data-file-schema.xml not fo
     Cannot read wfcs: file not found
     Starting wfcs are   38 randomized atomic wfcs

     total cpu time spent up to now is       19.8 secs

     Self-consistent Calculation

     iteration #  1     ecut=   150.00 Ry     beta= 0.70
     Davidson diagonalization with overlap
     ethr =  1.00E-05,  avg # of iterations = 12.3

     negative rho (up, down):  9.437E-05 0.000E+00

     total cpu time spent up to now is       90.2 secs

     total energy              =   -1372.47004370 Ry
     estimated scf accuracy    <       1.29911312 Ry

     iteration #  2     ecut=   150.00 Ry     beta= 0.70
     Davidson diagonalization with overlap
     ethr =  2.24E-03,  avg # of iterations =  7.8

     total cpu time spent up to now is      133.7 secs

     total energy              =   -1371.65461825 Ry
     estimated scf accuracy    <       9.77299767 Ry

     iteration #  3     ecut=   150.00 Ry     beta= 0.70
     Davidson diagonalization with overlap
     ethr =  2.24E-03,  avg # of iterations =  5.8

     total cpu time spent up to now is      173.6 secs

     total energy              =   -1373.16502521 Ry
     estimated scf accuracy    <       0.14340991 Ry

     iteration #  4     ecut=   150.00 Ry     beta= 0.70
     Davidson diagonalization with overlap
     ethr =  2.47E-04,  avg # of iterations =  5.6

     total cpu time spent up to now is      208.8 secs

     total energy              =   -1373.24977562 Ry
     estimated scf accuracy    <       0.04389769 Ry

     iteration #  5     ecut=   150.00 Ry     beta= 0.70
     Davidson diagonalization with overlap
     ethr =  7.57E-05,  avg # of iterations =  3.7

     total cpu time spent up to now is      240.2 secs

     total energy              =   -1373.24856605 Ry
     estimated scf accuracy    <       0.02406811 Ry

     iteration #  6     ecut=   150.00 Ry     beta= 0.70
     Davidson diagonalization with overlap
     ethr =  4.15E-05,  avg # of iterations =  6.9

     total cpu time spent up to now is      277.2 secs

     total energy              =   -1373.24441946 Ry
     estimated scf accuracy    <       0.12122428 Ry

     iteration #  7     ecut=   150.00 Ry     beta= 0.70
     Davidson diagonalization with overlap
     ethr =  4.15E-05,  avg # of iterations =  6.2

     total cpu time spent up to now is      312.8 secs

     total energy              =   -1373.25102965 Ry
     estimated scf accuracy    <       0.00197062 Ry

     iteration #  8     ecut=   150.00 Ry     beta= 0.70
     Davidson diagonalization with overlap
     ethr =  3.40E-06,  avg # of iterations =  6.6

     negative rho (up, down):  1.640E-07 0.000E+00

     total cpu time spent up to now is      350.1 secs

     total energy              =   -1373.25070481 Ry
     estimated scf accuracy    <       0.00376867 Ry

     iteration #  9     ecut=   150.00 Ry     beta= 0.70
     Davidson diagonalization with overlap
     ethr =  3.40E-06,  avg # of iterations =  4.3

     negative rho (up, down):  3.956E-06 0.000E+00

     total cpu time spent up to now is      382.8 secs

     total energy              =   -1373.25109231 Ry
     estimated scf accuracy    <       0.00014529 Ry

     iteration # 10     ecut=   150.00 Ry     beta= 0.70
     Davidson diagonalization with overlap
     ethr =  2.50E-07,  avg # of iterations =  7.7

     negative rho (up, down):  2.426E-04 0.000E+00

     total cpu time spent up to now is      421.8 secs

     total energy              =   -1373.25115357 Ry
     estimated scf accuracy    <       0.00011074 Ry

     iteration # 11     ecut=   150.00 Ry     beta= 0.70
     Davidson diagonalization with overlap
     ethr =  1.91E-07,  avg # of iterations =  2.0

     negative rho (up, down):  7.896E-05 0.000E+00

     total cpu time spent up to now is      451.3 secs

     total energy              =   -1373.25114814 Ry
     estimated scf accuracy    <       0.00005137 Ry

     iteration # 12     ecut=   150.00 Ry     beta= 0.70
     Davidson diagonalization with overlap
     ethr =  8.86E-08,  avg # of iterations =  3.0

     negative rho (up, down):  1.039E-04 0.000E+00

     total cpu time spent up to now is      482.1 secs

     total energy              =   -1373.25115064 Ry
     estimated scf accuracy    <       0.00000845 Ry

     iteration # 13     ecut=   150.00 Ry     beta= 0.70
     Davidson diagonalization with overlap
     ethr =  1.46E-08,  avg # of iterations =  6.7

     negative rho (up, down):  1.035E-04 0.000E+00

     total cpu time spent up to now is      519.2 secs

     total energy              =   -1373.25115318 Ry
     estimated scf accuracy    <       0.00000177 Ry

     iteration # 14     ecut=   150.00 Ry     beta= 0.70
     Davidson diagonalization with overlap
     ethr =  3.06E-09,  avg # of iterations =  3.2

     negative rho (up, down):  1.030E-04 0.000E+00

     total cpu time spent up to now is      550.1 secs

     total energy              =   -1373.25115312 Ry
     estimated scf accuracy    <       0.00000076 Ry

     iteration # 15     ecut=   150.00 Ry     beta= 0.70
     Davidson diagonalization with overlap
     ethr =  1.32E-09,  avg # of iterations =  6.3

     negative rho (up, down):  1.035E-04 0.000E+00

     total cpu time spent up to now is      587.3 secs

     total energy              =   -1373.25115334 Ry
     estimated scf accuracy    <       0.00000026 Ry

     iteration # 16     ecut=   150.00 Ry     beta= 0.70
     Davidson diagonalization with overlap
     ethr =  4.46E-10,  avg # of iterations =  1.6

     negative rho (up, down):  1.040E-04 0.000E+00

     total cpu time spent up to now is      615.1 secs

     total energy              =   -1373.25115332 Ry
     estimated scf accuracy    <       0.00000025 Ry

     iteration # 17     ecut=   150.00 Ry     beta= 0.70
     Davidson diagonalization with overlap
     ethr =  4.24E-10,  avg # of iterations =  1.8

     negative rho (up, down):  1.041E-04 0.000E+00

     total cpu time spent up to now is      643.4 secs

     total energy              =   -1373.25115331 Ry
     estimated scf accuracy    <       0.00000013 Ry

     iteration # 18     ecut=   150.00 Ry     beta= 0.70
     Davidson diagonalization with overlap
     ethr =  2.18E-10,  avg # of iterations =  2.8

     negative rho (up, down):  1.040E-04 0.000E+00

     total cpu time spent up to now is      673.1 secs

     total energy              =   -1373.25115331 Ry
     estimated scf accuracy    <       0.00000004 Ry

     iteration # 19     ecut=   150.00 Ry     beta= 0.70
     Davidson diagonalization with overlap
     ethr =  6.04E-11,  avg # of iterations =  5.3

     negative rho (up, down):  1.043E-04 0.000E+00

     total cpu time spent up to now is      707.6 secs

     total energy              =   -1373.25115332 Ry
     estimated scf accuracy    <          6.2E-09 Ry

     iteration # 20     ecut=   150.00 Ry     beta= 0.70
     Davidson diagonalization with overlap
     c_bands:  1 eigenvalues not converged
     c_bands:  1 eigenvalues not converged
     ethr =  1.08E-11,  avg # of iterations =  6.3

     negative rho (up, down):  1.043E-04 0.000E+00

     total cpu time spent up to now is      744.3 secs

     total energy              =   -1373.25115332 Ry
     estimated scf accuracy    <       0.00000002 Ry

     iteration # 21     ecut=   150.00 Ry     beta= 0.70
     Davidson diagonalization with overlap
     ethr =  1.08E-11,  avg # of iterations =  1.1

     negative rho (up, down):  1.043E-04 0.000E+00

     total cpu time spent up to now is      771.0 secs

     total energy              =   -1373.25115332 Ry
     estimated scf accuracy    <       0.00000002 Ry

     iteration # 22     ecut=   150.00 Ry     beta= 0.70
     Davidson diagonalization with overlap
     ethr =  1.08E-11,  avg # of iterations =  1.2

     negative rho (up, down):  1.043E-04 0.000E+00

     total cpu time spent up to now is      797.6 secs

     total energy              =   -1373.25115332 Ry
     estimated scf accuracy    <       0.00000001 Ry

     iteration # 23     ecut=   150.00 Ry     beta= 0.70
     Davidson diagonalization with overlap
     ethr =  1.08E-11,  avg # of iterations =  5.2

     negative rho (up, down):  1.043E-04 0.000E+00

     total cpu time spent up to now is      830.8 secs

     total energy              =   -1373.25115332 Ry
     estimated scf accuracy    <          1.8E-10 Ry

     iteration # 24     ecut=   150.00 Ry     beta= 0.70
     Davidson diagonalization with overlap
     ethr =  3.14E-13,  avg # of iterations =  9.7

     negative rho (up, down):  1.043E-04 0.000E+00

     total cpu time spent up to now is      880.7 secs

     total energy              =   -1373.25115332 Ry
     estimated scf accuracy    <       0.00000002 Ry

     iteration # 25     ecut=   150.00 Ry     beta= 0.70
     Davidson diagonalization with overlap
     ethr =  3.14E-13,  avg # of iterations = 11.4

     negative rho (up, down):  1.043E-04 0.000E+00

     total cpu time spent up to now is      931.1 secs

     total energy              =   -1373.25115332 Ry
     estimated scf accuracy    <          8.0E-11 Ry

     iteration # 26     ecut=   150.00 Ry     beta= 0.70
     Davidson diagonalization with overlap
     ethr =  1.38E-13,  avg # of iterations =  7.3

     negative rho (up, down):  1.043E-04 0.000E+00

     total cpu time spent up to now is      970.7 secs

     total energy              =   -1373.25115332 Ry
     estimated scf accuracy    <          6.8E-10 Ry

     iteration # 27     ecut=   150.00 Ry     beta= 0.70
     Davidson diagonalization with overlap
     ethr =  1.38E-13,  avg # of iterations =  5.5

     negative rho (up, down):  1.043E-04 0.000E+00

     total cpu time spent up to now is     1004.0 secs

     total energy              =   -1373.25115332 Ry
     estimated scf accuracy    <          2.0E-10 Ry

     iteration # 28     ecut=   150.00 Ry     beta= 0.70
     Davidson diagonalization with overlap
     ethr =  1.38E-13,  avg # of iterations =  4.3

     negative rho (up, down):  1.043E-04 0.000E+00

     total cpu time spent up to now is     1035.5 secs

     total energy              =   -1373.25115332 Ry
     estimated scf accuracy    <          3.5E-11 Ry

     iteration # 29     ecut=   150.00 Ry     beta= 0.70
     Davidson diagonalization with overlap
     ethr =  1.00E-13,  avg # of iterations =  5.8

     negative rho (up, down):  1.043E-04 0.000E+00

     total cpu time spent up to now is     1070.1 secs

     total energy              =   -1373.25115332 Ry
     estimated scf accuracy    <          6.7E-11 Ry

     iteration # 30     ecut=   150.00 Ry     beta= 0.70
     Davidson diagonalization with overlap
     ethr =  1.00E-13,  avg # of iterations =  1.0

     negative rho (up, down):  1.043E-04 0.000E+00

     total cpu time spent up to now is     1096.6 secs

     total energy              =   -1373.25115332 Ry
     estimated scf accuracy    <          5.8E-11 Ry

     iteration # 31     ecut=   150.00 Ry     beta= 0.70
     Davidson diagonalization with overlap
     ethr =  1.00E-13,  avg # of iterations =  3.0

     negative rho (up, down):  1.043E-04 0.000E+00

     total cpu time spent up to now is     1125.6 secs

     total energy              =   -1373.25115332 Ry
     estimated scf accuracy    <          7.5E-12 Ry

     iteration # 32     ecut=   150.00 Ry     beta= 0.70
     Davidson diagonalization with overlap
     ethr =  1.00E-13,  avg # of iterations =  1.0

     negative rho (up, down):  1.043E-04 0.000E+00

     total cpu time spent up to now is     1151.9 secs

     total energy              =   -1373.25115332 Ry
     estimated scf accuracy    <          5.9E-12 Ry

     iteration # 33     ecut=   150.00 Ry     beta= 0.70
     Davidson diagonalization with overlap
     ethr =  1.00E-13,  avg # of iterations =  1.3

     negative rho (up, down):  1.043E-04 0.000E+00

     total cpu time spent up to now is     1178.8 secs

     total energy              =   -1373.25115332 Ry
     estimated scf accuracy    <          1.4E-12 Ry

     iteration # 34     ecut=   150.00 Ry     beta= 0.70
     Davidson diagonalization with overlap
     ethr =  1.00E-13,  avg # of iterations =  1.0

     negative rho (up, down):  1.043E-04 0.000E+00

     total cpu time spent up to now is     1205.1 secs

     End of self-consistent calculation

          k = 0.0000 0.0000 0.0000 ( 49405 PWs)   bands (ev):

   -68.1843 -68.1367 -35.2267 -34.6238 -34.2905 -34.2868 -34.2255 -34.2204
   -19.8454 -19.8317 -19.8041 -19.8040 -19.7971 -19.7970 -19.7697 -19.7694
   -19.7608 -19.7607 -19.7479 -19.7424 -19.6812 -19.6797 -13.1745  -7.5640
    -4.2873  -4.2442  -1.8444  -0.8516  -0.6631

          k =-0.0000 0.1113 0.0000 ( 49311 PWs)   bands (ev):

   -68.1789 -68.1332 -35.2085 -34.6313 -34.3575 -34.3097 -34.2881 -34.2293
   -19.8432 -19.8303 -19.8063 -19.8047 -19.7978 -19.7957 -19.7717 -19.7687
   -19.7612 -19.7598 -19.7438 -19.7386 -19.6852 -19.6838 -13.0127  -7.2507
    -4.7339  -4.1975  -1.7204  -1.0889  -0.4933

          k =-0.0000 0.2225 0.0000 ( 49222 PWs)   bands (ev):

   -68.1643 -68.1245 -35.1616 -34.6789 -34.5040 -34.4459 -34.3649 -34.2565
   -19.8380 -19.8268 -19.8113 -19.8062 -19.7999 -19.7931 -19.7759 -19.7666
   -19.7622 -19.7569 -19.7332 -19.7286 -19.6953 -19.6943 -12.6103  -6.5023
    -5.5099  -4.1352  -1.9350  -1.4510  -0.9813

          k =-0.0001 0.3338 0.0000 ( 49246 PWs)   bands (ev):

   -68.1455 -68.1144 -35.1111 -34.8372 -34.6258 -34.5795 -34.4286 -34.2937
   -19.8332 -19.8220 -19.8162 -19.8082 -19.8033 -19.7916 -19.7793 -19.7633
   -19.7632 -19.7530 -19.7199 -19.7163 -19.7074 -19.7058 -12.1665  -6.5638
    -5.3004  -4.1692  -2.7627  -1.3165  -0.7569

          k =-0.0001 0.4451 0.0000 ( 49278 PWs)   bands (ev):

   -68.1290 -68.1075 -35.0949 -35.0001 -34.7269 -34.6153 -34.4780 -34.3252
   -19.8320 -19.8185 -19.8175 -19.8099 -19.8069 -19.7917 -19.7803 -19.7639
   -19.7598 -19.7494 -19.7170 -19.7141 -19.7086 -19.7063 -11.8636  -7.0087
    -4.9165  -4.2629  -3.3340  -0.5044  -0.1770

          k = 0.0001-0.5564 0.0000 ( 49320 PWs)   bands (ev):

   -68.1220 -68.1056 -35.1034 -35.0627 -34.7461 -34.6311 -34.4964 -34.3374
   -19.8322 -19.8186 -19.8163 -19.8106 -19.8082 -19.7920 -19.7803 -19.7641
   -19.7585 -19.7479 -19.7206 -19.7170 -19.7041 -19.7026 -11.7636  -7.1667
    -4.8625  -4.3095  -3.5262   0.1456   0.1774

          k = 0.0967 0.0555 0.0000 ( 49320 PWs)   bands (ev):

   -68.1788 -68.1332 -35.2083 -34.6312 -34.3562 -34.3121 -34.2858 -34.2324
   -19.8432 -19.8303 -19.8064 -19.8047 -19.7978 -19.7956 -19.7715 -19.7689
   -19.7613 -19.7597 -19.7438 -19.7386 -19.6852 -19.6839 -13.0118  -7.2494
    -4.7132  -4.2228  -1.7182  -1.0873  -0.4774

          k = 0.0967 0.1668 0.0000 ( 49229 PWs)   bands (ev):

   -68.1688 -68.1271 -35.1757 -34.6551 -34.4483 -34.4287 -34.3230 -34.2638
   -19.8393 -19.8279 -19.8092 -19.8068 -19.7985 -19.7941 -19.7746 -19.7676
   -19.7615 -19.7582 -19.7365 -19.7317 -19.6922 -19.6912 -12.7297  -6.6854
    -5.2970  -4.2524  -1.6142  -1.3292  -0.9825

          k = 0.0966 0.2781 0.0000 ( 49215 PWs)   bands (ev):

   -68.1521 -68.1178 -35.1254 -34.7505 -34.5898 -34.5470 -34.3983 -34.3088
   -19.8336 -19.8242 -19.8136 -19.8097 -19.8003 -19.7926 -19.7784 -19.7658
   -19.7609 -19.7555 -19.7245 -19.7206 -19.7033 -19.7025 -12.3059  -6.1428
    -5.6323  -4.4364  -2.1628  -1.3017  -0.9605

          k = 0.0966 0.3894 0.0000 ( 49284 PWs)   bands (ev):

   -68.1342 -68.1094 -35.0882 -34.9141 -34.6995 -34.6086 -34.4730 -34.3505
   -19.8301 -19.8196 -19.8171 -19.8111 -19.8038 -19.7923 -19.7805 -19.7643
   -19.7598 -19.7520 -19.7146 -19.7131 -19.7117 -19.7093 -11.9353  -6.6519
    -4.9751  -4.5971  -2.7753  -0.7768  -0.6969

          k = 0.0966 0.5006 0.0000 ( 49320 PWs)   bands (ev):

   -68.1219 -68.1055 -35.0825 -35.0285 -34.7338 -34.6501 -34.5132 -34.3767
   -19.8300 -19.8184 -19.8161 -19.8108 -19.8073 -19.7928 -19.7809 -19.7635
   -19.7590 -19.7494 -19.7213 -19.7185 -19.7042 -19.7026 -11.7394  -6.9558
    -4.7923  -4.6729  -3.0568  -0.1412  -0.0630

          k = 0.0968-0.5008 0.0000 ( 49329 PWs)   bands (ev):

   -68.1218 -68.1055 -35.0828 -35.0288 -34.7343 -34.6498 -34.5131 -34.3766
   -19.8300 -19.8184 -19.8161 -19.8108 -19.8072 -19.7928 -19.7810 -19.7635
   -19.7589 -19.7494 -19.7213 -19.7185 -19.7042 -19.7026 -11.7392  -6.9564
    -4.7936  -4.6714  -3.0583  -0.1413  -0.0636

          k = 0.0968-0.3895 0.0000 ( 49296 PWs)   bands (ev):

   -68.1342 -68.1094 -35.0884 -34.9150 -34.7006 -34.6085 -34.4726 -34.3503
   -19.8301 -19.8196 -19.8171 -19.8111 -19.8038 -19.7923 -19.7806 -19.7644
   -19.7596 -19.7520 -19.7146 -19.7132 -19.7117 -19.7092 -11.9345  -6.6533
    -4.9747  -4.5970  -2.7790  -0.7766  -0.6966

          k = 0.0968-0.2783 0.0000 ( 49213 PWs)   bands (ev):

   -68.1520 -68.1177 -35.1253 -34.7511 -34.5904 -34.5477 -34.3983 -34.3089
   -19.8336 -19.8242 -19.8136 -19.8097 -19.8003 -19.7926 -19.7784 -19.7658
   -19.7609 -19.7555 -19.7245 -19.7205 -19.7034 -19.7026 -12.3048  -6.1430
    -5.6316  -4.4372  -2.1656  -1.3013  -0.9595

          k = 0.0967-0.1670 0.0000 ( 49221 PWs)   bands (ev):

   -68.1687 -68.1271 -35.1755 -34.6550 -34.4485 -34.4288 -34.3238 -34.2646
   -19.8393 -19.8279 -19.8092 -19.8069 -19.7984 -19.7942 -19.7746 -19.7676
   -19.7614 -19.7582 -19.7364 -19.7317 -19.6923 -19.6913 -12.7287  -6.6837
    -5.2933  -4.2581  -1.6130  -1.3271  -0.9814

          k = 0.0967-0.0557 0.0000 ( 49327 PWs)   bands (ev):

   -68.1788 -68.1332 -35.2083 -34.6311 -34.3551 -34.3136 -34.2846 -34.2339
   -19.8432 -19.8303 -19.8063 -19.8048 -19.7977 -19.7958 -19.7715 -19.7689
   -19.7612 -19.7597 -19.7438 -19.7386 -19.6852 -19.6839 -13.0114  -7.2486
    -4.7043  -4.2334  -1.7171  -1.0862  -0.4683

          k = 0.1934 0.1111 0.0000 ( 49255 PWs)   bands (ev):

   -68.1640 -68.1243 -35.1610 -34.6786 -34.5042 -34.4446 -34.3683 -34.2601
   -19.8378 -19.8267 -19.8115 -19.8062 -19.8000 -19.7931 -19.7759 -19.7667
   -19.7624 -19.7568 -19.7331 -19.7286 -19.6954 -19.6944 -12.6075  -6.4976
    -5.4963  -4.1621  -1.9222  -1.4537  -0.9797

          k = 0.1934 0.2224 0.0000 ( 49238 PWs)   bands (ev):

   -68.1519 -68.1176 -35.1250 -34.7498 -34.5908 -34.5461 -34.4004 -34.3113
   -19.8334 -19.8242 -19.8137 -19.8096 -19.8004 -19.7926 -19.7785 -19.7657
   -19.7610 -19.7554 -19.7244 -19.7205 -19.7034 -19.7026 -12.3040  -6.1360
    -5.6300  -4.4513  -2.1529  -1.3039  -0.9684

          k = 0.1933 0.3336 0.0000 ( 49255 PWs)   bands (ev):

   -68.1360 -68.1101 -35.0845 -34.8418 -34.7185 -34.5905 -34.4645 -34.3985
   -19.8273 -19.8219 -19.8143 -19.8141 -19.8014 -19.7933 -19.7808 -19.7651
   -19.7573 -19.7552 -19.7145 -19.7136 -19.7123 -19.7102 -11.9546  -6.2423
    -5.1669  -4.8918  -2.0849  -1.4614  -0.3596

          k = 0.1933 0.4449 0.0000 ( 49292 PWs)   bands (ev):

   -68.1217 -68.1054 -35.0534 -34.9377 -34.7652 -34.6467 -34.5343 -34.4612
   -19.8246 -19.8196 -19.8156 -19.8123 -19.8045 -19.7947 -19.7821 -19.7633
   -19.7576 -19.7533 -19.7222 -19.7211 -19.7043 -19.7025 -11.6994  -6.4733
    -5.2647  -4.6417  -2.1136  -0.9118  -0.5135

          k = 0.1933 0.5562 0.0000 ( 49336 PWs)   bands (ev):

   -68.1150 -68.1047 -35.0240 -35.0010 -34.7471 -34.7037 -34.5527 -34.4846
   -19.8251 -19.8184 -19.8147 -19.8102 -19.8072 -19.7954 -19.7825 -19.7613
   -19.7597 -19.7520 -19.7256 -19.7239 -19.7006 -19.6996 -11.6092  -6.5825
    -5.3191  -4.5526  -2.1910  -0.3999  -0.3399

          k = 0.1935-0.4453 0.0000 ( 49312 PWs)   bands (ev):

   -68.1215 -68.1054 -35.0540 -34.9389 -34.7660 -34.6468 -34.5340 -34.4609
   -19.8246 -19.8196 -19.8156 -19.8124 -19.8045 -19.7947 -19.7821 -19.7634
   -19.7574 -19.7533 -19.7222 -19.7211 -19.7042 -19.7025 -11.6985  -6.4756
    -5.2651  -4.6422  -2.1158  -0.9171  -0.5125

          k = 0.1935-0.3340 0.0000 ( 49265 PWs)   bands (ev):

   -68.1358 -68.1100 -35.0846 -34.8431 -34.7197 -34.5911 -34.4647 -34.3987
   -19.8273 -19.8219 -19.8143 -19.8142 -19.8014 -19.7934 -19.7808 -19.7652
   -19.7572 -19.7551 -19.7145 -19.7137 -19.7123 -19.7101 -11.9529  -6.2440
    -5.1666  -4.8931  -2.0892  -1.4628  -0.3609

          k = 0.1934-0.2227 0.0000 ( 49244 PWs)   bands (ev):

   -68.1517 -68.1175 -35.1247 -34.7499 -34.5917 -34.5465 -34.4015 -34.3127
   -19.8334 -19.8242 -19.8137 -19.8096 -19.8003 -19.7927 -19.7785 -19.7658
   -19.7610 -19.7553 -19.7244 -19.7204 -19.7035 -19.7028 -12.3021  -6.1337
    -5.6270  -4.4581  -2.1519  -1.3044  -0.9699

          k = 0.1934-0.1115 0.0000 ( 49259 PWs)   bands (ev):

   -68.1639 -68.1242 -35.1608 -34.6782 -34.5041 -34.4440 -34.3702 -34.2619
   -19.8377 -19.8267 -19.8114 -19.8063 -19.7998 -19.7932 -19.7759 -19.7667
   -19.7624 -19.7568 -19.7330 -19.7285 -19.6955 -19.6945 -12.6061  -6.4952
    -5.4903  -4.1725  -1.9165  -1.4545  -0.9790

          k = 0.1934-0.0002 0.0000 ( 49228 PWs)   bands (ev):

   -68.1685 -68.1269 -35.1751 -34.6552 -34.4494 -34.4287 -34.3248 -34.2666
   -19.8392 -19.8278 -19.8094 -19.8068 -19.7985 -19.7941 -19.7746 -19.7677
   -19.7616 -19.7580 -19.7363 -19.7316 -19.6924 -19.6914 -12.7265  -6.6808
    -5.2833  -4.2749  -1.6111  -1.3218  -0.9787

          k = 0.2901 0.1666 0.0000 ( 49267 PWs)   bands (ev):

   -68.1450 -68.1141 -35.1103 -34.8375 -34.6265 -34.5797 -34.4331 -34.2981
   -19.8329 -19.8220 -19.8164 -19.8081 -19.8034 -19.7916 -19.7794 -19.7635
   -19.7631 -19.7528 -19.7196 -19.7161 -19.7077 -19.7060 -12.1619  -6.5567
    -5.2965  -4.1990  -2.7540  -1.3170  -0.7552

          k = 0.2900 0.2779 0.0000 ( 49308 PWs)   bands (ev):

   -68.1338 -68.1092 -35.0879 -34.9139 -34.6995 -34.6091 -34.4772 -34.3542
   -19.8299 -19.8196 -19.8172 -19.8110 -19.8039 -19.7924 -19.7807 -19.7643
   -19.7599 -19.7519 -19.7149 -19.7132 -19.7117 -19.7091 -11.9318  -6.6460
    -4.9766  -4.6189  -2.7688  -0.7729  -0.6979

          k = 0.2900 0.3892 0.0000 ( 49312 PWs)   bands (ev):

   -68.1213 -68.1053 -35.0536 -34.9376 -34.7660 -34.6462 -34.5368 -34.4625
   -19.8245 -19.8196 -19.8155 -19.8123 -19.8046 -19.7947 -19.7822 -19.7633
   -19.7578 -19.7531 -19.7223 -19.7211 -19.7042 -19.7024 -11.6976  -6.4707
    -5.2748  -4.6452  -2.1189  -0.9008  -0.5083

          k = 0.2900 0.5004 0.0000 ( 49325 PWs)   bands (ev):

   -68.1114 -68.1051 -34.9890 -34.9265 -34.8519 -34.6650 -34.5797 -34.5544
   -19.8223 -19.8177 -19.8147 -19.8098 -19.8064 -19.7972 -19.7835 -19.7608
   -19.7583 -19.7548 -19.7272 -19.7267 -19.6992 -19.6985 -11.5513  -6.2141
    -5.7643  -4.4023  -1.1418  -1.1220  -0.6316

          k = 0.2900 0.6117 0.0000 ( 49313 PWs)   bands (ev):

   -68.1113 -68.1051 -34.9894 -34.9273 -34.8519 -34.6655 -34.5795 -34.5544
   -19.8223 -19.8177 -19.8147 -19.8098 -19.8063 -19.7972 -19.7835 -19.7609
   -19.7583 -19.7547 -19.7272 -19.7267 -19.6992 -19.6985 -11.5507  -6.2151
    -5.7654  -4.4035  -1.1491  -1.1214  -0.6260

          k = 0.2902-0.3897 0.0000 ( 49310 PWs)   bands (ev):

   -68.1211 -68.1052 -35.0541 -34.9386 -34.7672 -34.6463 -34.5375 -34.4631
   -19.8245 -19.8196 -19.8156 -19.8124 -19.8045 -19.7948 -19.7823 -19.7634
   -19.7577 -19.7530 -19.7224 -19.7212 -19.7041 -19.7023 -11.6960  -6.4716
    -5.2794  -4.6461  -2.1239  -0.9005  -0.5054

          k = 0.2902-0.2785 0.0000 ( 49308 PWs)   bands (ev):

   -68.1335 -68.1090 -35.0878 -34.9144 -34.7006 -34.6091 -34.4789 -34.3560
   -19.8298 -19.8196 -19.8172 -19.8111 -19.8038 -19.7925 -19.7808 -19.7643
   -19.7598 -19.7518 -19.7150 -19.7133 -19.7116 -19.7090 -11.9295  -6.6449
    -4.9747  -4.6274  -2.7706  -0.7706  -0.6976

          k = 0.2901-0.1672 0.0000 ( 49268 PWs)   bands (ev):

   -68.1447 -68.1139 -35.1100 -34.8372 -34.6267 -34.5798 -34.4355 -34.3003
   -19.8329 -19.8220 -19.8164 -19.8083 -19.8033 -19.7918 -19.7794 -19.7635
   -19.7631 -19.7528 -19.7195 -19.7160 -19.7078 -19.7062 -12.1598  -6.5535
    -5.2928  -4.2104  -2.7511  -1.3171  -0.7541

          k = 0.2901-0.0559 0.0000 ( 49237 PWs)   bands (ev):

   -68.1515 -68.1173 -35.1244 -34.7521 -34.5927 -34.5481 -34.4011 -34.3129
   -19.8333 -19.8242 -19.8138 -19.8098 -19.8002 -19.7926 -19.7784 -19.7660
   -19.7609 -19.7552 -19.7243 -19.7204 -19.7036 -19.7029 -12.2995  -6.1353
    -5.6252  -4.4627  -2.1580  -1.3047  -0.9668

          k = 0.2901 0.0554 0.0000 ( 49234 PWs)   bands (ev):

   -68.1515 -68.1174 -35.1246 -34.7526 -34.5924 -34.5484 -34.4000 -34.3116
   -19.8333 -19.8242 -19.8139 -19.8097 -19.8003 -19.7925 -19.7784 -19.7660
   -19.7609 -19.7553 -19.7243 -19.7204 -19.7036 -19.7028 -12.3004  -6.1378
    -5.6275  -4.4567  -2.1618  -1.3038  -0.9643

          k = 0.3868 0.2222 0.0000 ( 49286 PWs)   bands (ev):

   -68.1282 -68.1071 -35.0955 -35.0008 -34.7261 -34.6169 -34.4833 -34.3302
   -19.8318 -19.8186 -19.8174 -19.8099 -19.8070 -19.7918 -19.7806 -19.7642
   -19.7597 -19.7492 -19.7173 -19.7144 -19.7083 -19.7060 -11.8580  -7.0052
    -4.9213  -4.2952  -3.3273  -0.4952  -0.1685

          k = 0.3867 0.3334 0.0000 ( 49347 PWs)   bands (ev):

   -68.1211 -68.1053 -35.0838 -35.0288 -34.7320 -34.6525 -34.5178 -34.3809
   -19.8298 -19.8185 -19.8159 -19.8107 -19.8075 -19.7929 -19.7812 -19.7636
   -19.7589 -19.7492 -19.7216 -19.7187 -19.7039 -19.7023 -11.7347  -6.9536
    -4.7979  -4.6984  -3.0570  -0.1285  -0.0502

          k = 0.3867 0.4447 0.0000 ( 49345 PWs)   bands (ev):

   -68.1143 -68.1047 -35.0265 -35.0009 -34.7490 -34.7025 -34.5554 -34.4862
   -19.8251 -19.8182 -19.8146 -19.8102 -19.8073 -19.7954 -19.7827 -19.7615
   -19.7596 -19.7517 -19.7258 -19.7240 -19.7004 -19.6995 -11.6058  -6.5835
    -5.3314  -4.5604  -2.2030  -0.3879  -0.3236

          k = 0.3867 0.5560 0.0000 ( 49333 PWs)   bands (ev):

   -68.1109 -68.1052 -34.9907 -34.9303 -34.8505 -34.6661 -34.5783 -34.5552
   -19.8224 -19.8176 -19.8147 -19.8099 -19.8063 -19.7972 -19.7836 -19.7611
   -19.7581 -19.7545 -19.7273 -19.7268 -19.6991 -19.6984 -11.5490  -6.2203
    -5.7663  -4.4074  -1.1483  -1.1383  -0.6125

          k = 0.3867 0.6673 0.0000 ( 49324 PWs)   bands (ev):

   -68.1141 -68.1046 -35.0271 -35.0009 -34.7500 -34.7025 -34.5563 -34.4871
   -19.8251 -19.8183 -19.8145 -19.8103 -19.8073 -19.7955 -19.7827 -19.7616
   -19.7595 -19.7516 -19.7259 -19.7241 -19.7003 -19.6994 -11.6046  -6.5831
    -5.3366  -4.5621  -2.2086  -0.3811  -0.3178

          k = 0.3869-0.3342 0.0000 ( 49349 PWs)   bands (ev):

   -68.1207 -68.1051 -35.0844 -35.0291 -34.7322 -34.6530 -34.5199 -34.3831
   -19.8298 -19.8185 -19.8159 -19.8109 -19.8074 -19.7931 -19.7812 -19.7637
   -19.7588 -19.7491 -19.7217 -19.7189 -19.7037 -19.7022 -11.7326  -6.9526
    -4.7998  -4.7065  -3.0595  -0.1228  -0.0447

          k = 0.3868-0.2229 0.0000 ( 49280 PWs)   bands (ev):

   -68.1278 -68.1069 -35.0955 -35.0010 -34.7261 -34.6172 -34.4862 -34.3328
   -19.8317 -19.8186 -19.8173 -19.8101 -19.8069 -19.7920 -19.7806 -19.7642
   -19.7596 -19.7491 -19.7175 -19.7146 -19.7081 -19.7059 -11.8556  -7.0031
    -4.9206  -4.3078  -3.3258  -0.4912  -0.1640

          k = 0.3868-0.1116 0.0000 ( 49320 PWs)   bands (ev):

   -68.1333 -68.1089 -35.0883 -34.9167 -34.7027 -34.6090 -34.4778 -34.3557
   -19.8298 -19.8196 -19.8173 -19.8114 -19.8037 -19.7925 -19.7807 -19.7646
   -19.7595 -19.7517 -19.7150 -19.7134 -19.7115 -19.7089 -11.9274  -6.6495
    -4.9742  -4.6276  -2.7794  -0.7717  -0.6947

          k = 0.3868-0.0004 0.0000 ( 49244 PWs)   bands (ev):

   -68.1353 -68.1097 -35.0849 -34.8474 -34.7213 -34.5921 -34.4645 -34.3992
   -19.8271 -19.8220 -19.8145 -19.8143 -19.8014 -19.7933 -19.7809 -19.7654
   -19.7571 -19.7549 -19.7145 -19.7139 -19.7122 -19.7100 -11.9486  -6.2504
    -5.1643  -4.9017  -2.0979  -1.4680  -0.3561

          k = 0.3868 0.1109 0.0000 ( 49318 PWs)   bands (ev):

   -68.1334 -68.1090 -35.0885 -34.9170 -34.7027 -34.6088 -34.4757 -34.3538
   -19.8299 -19.8196 -19.8173 -19.8113 -19.8037 -19.7923 -19.7807 -19.7646
   -19.7595 -19.7518 -19.7149 -19.7133 -19.7115 -19.7090 -11.9289  -6.6521
    -4.9757  -4.6190  -2.7813  -0.7738  -0.6946

          k =-0.4835-0.2777 0.0000 ( 49296 PWs)   bands (ev):

   -68.1210 -68.1053 -35.1057 -35.0629 -34.7439 -34.6335 -34.5021 -34.3427
   -19.8321 -19.8187 -19.8160 -19.8106 -19.8083 -19.7922 -19.7807 -19.7644
   -19.7583 -19.7477 -19.7209 -19.7173 -19.7038 -19.7023 -11.7578  -7.1647
    -4.8715  -4.3427  -3.5200   0.1616   0.1903

          k =-0.4835-0.1664 0.0000 ( 49328 PWs)   bands (ev):

   -68.1209 -68.1052 -35.0848 -35.0297 -34.7335 -34.6517 -34.5173 -34.3807
   -19.8298 -19.8185 -19.8160 -19.8110 -19.8072 -19.7929 -19.7812 -19.7638
   -19.7587 -19.7492 -19.7216 -19.7187 -19.7039 -19.7023 -11.7336  -6.9562
    -4.8061  -4.6895  -3.0622  -0.1301  -0.0510

          k =-0.4835-0.0552 0.0000 ( 49317 PWs)   bands (ev):

   -68.1209 -68.1052 -35.0555 -34.9420 -34.7676 -34.6465 -34.5354 -34.4621
   -19.8246 -19.8196 -19.8156 -19.8126 -19.8044 -19.7947 -19.7823 -19.7637
   -19.7573 -19.7530 -19.7224 -19.7213 -19.7040 -19.7023 -11.6940  -6.4805
    -5.2757  -4.6481  -2.1267  -0.9182  -0.5020

          k =-0.4835 0.0561 0.0000 ( 49327 PWs)   bands (ev):

   -68.1208 -68.1051 -35.0555 -34.9419 -34.7680 -34.6465 -34.5364 -34.4629
   -19.8245 -19.8196 -19.8156 -19.8126 -19.8044 -19.7947 -19.7823 -19.7636
   -19.7573 -19.7529 -19.7225 -19.7213 -19.7039 -19.7022 -11.6933  -6.4792
    -5.2799  -4.6485  -2.1296  -0.9127  -0.5001

          k =-0.4835 0.1674 0.0000 ( 49321 PWs)   bands (ev):

   -68.1206 -68.1050 -35.0851 -35.0297 -34.7332 -34.6524 -34.5195 -34.3829
   -19.8298 -19.8185 -19.8159 -19.8111 -19.8072 -19.7931 -19.7812 -19.7639
   -19.7587 -19.7491 -19.7217 -19.7189 -19.7037 -19.7021 -11.7318  -6.9546
    -4.8070  -4.6988  -3.0632  -0.1242  -0.0449

          k =-0.4833-0.8341 0.0000 ( 49292 PWs)   bands (ev):

   -68.1206 -68.1050 -35.1063 -35.0630 -34.7435 -34.6339 -34.5051 -34.3454
   -19.8320 -19.8187 -19.8160 -19.8108 -19.8082 -19.7923 -19.7807 -19.7645
   -19.7582 -19.7476 -19.7211 -19.7175 -19.7036 -19.7021 -11.7555  -7.1630
    -4.8725  -4.3559  -3.5188   0.1687   0.1969

     highest occupied level (ev):     0.1969

!    total energy              =   -1373.25115332 Ry
     estimated scf accuracy    <          5.8E-13 Ry

     The total energy is the sum of the following terms:
     one-electron contribution =  -10892.32730497 Ry
     hartree contribution      =    5474.72324174 Ry
     xc contribution           =    -138.78580981 Ry
     ewald contribution        =    4183.13871972 Ry

     convergence has been achieved in  34 iterations

     negative rho (up, down):  1.043E-04 0.000E+00

     Forces acting on atoms (cartesian axes, Ry/au):

     atom    1 type  2   force =     0.00030436    0.00027770   -0.00017841
     atom    2 type  1   force =    -0.00041539    0.00006543    0.00260760
     atom    3 type  1   force =     0.00011103   -0.00034313   -0.00242918

     Total force =     0.003607     Total SCF correction =     0.000010


     Computing stress (Cartesian axis) and pressure


     negative rho (up, down):  1.043E-04 0.000E+00
          total   stress  (Ry/bohr**3)                   (kbar)     P=        5.48
   0.00006654  -0.00000249   0.00000076            9.79       -0.37        0.11
  -0.00000249   0.00005324  -0.00000059           -0.37        7.83       -0.09
   0.00000076  -0.00000059  -0.00000795            0.11       -0.09       -1.17


     Writing output data file /scratch/as3359/Ta2C_ct_kpts/Ta2C.save/
 
     init_run     :     35.44s CPU     19.59s WALL (       1 calls)
     electrons    :   2318.57s CPU   1185.37s WALL (       1 calls)
     forces       :     11.15s CPU      5.80s WALL (       1 calls)
     stress       :     47.44s CPU     24.55s WALL (       1 calls)

     Called by init_run:
     wfcinit      :     26.69s CPU     13.82s WALL (       1 calls)
     potinit      :      2.20s CPU      1.12s WALL (       1 calls)
     hinit0       :      4.76s CPU      3.44s WALL (       1 calls)

     Called by electrons:
     c_bands      :   1878.92s CPU    948.85s WALL (      34 calls)
     sum_band     :    369.78s CPU    194.00s WALL (      34 calls)
     v_of_rho     :     10.18s CPU      5.55s WALL (      35 calls)
     newd         :     56.31s CPU     35.23s WALL (      35 calls)
     mix_rho      :      4.54s CPU      2.44s WALL (      34 calls)

     Called by c_bands:
     init_us_2    :     46.02s CPU     23.04s WALL (    3692 calls)
     cegterg      :   1738.43s CPU    878.07s WALL (    1768 calls)

     Called by *egterg:
     cdiaghg      :     15.39s CPU      7.87s WALL (   10336 calls)
     h_psi        :   1405.36s CPU    711.06s WALL (   10388 calls)
     s_psi        :     77.84s CPU     38.95s WALL (   10388 calls)
     g_psi        :      8.03s CPU      4.03s WALL (    8568 calls)

     Called by h_psi:
     h_psi:calbec :     57.31s CPU     28.73s WALL (   10388 calls)
     vloc_psi     :   1252.27s CPU    634.20s WALL (   10388 calls)
     add_vuspsi   :     84.61s CPU     42.35s WALL (   10388 calls)

     General routines
     calbec       :     75.70s CPU     37.97s WALL (   12416 calls)
     fft          :      5.02s CPU      2.57s WALL (     410 calls)
     ffts         :      0.38s CPU      0.19s WALL (      34 calls)
     fftw         :   1283.46s CPU    650.57s WALL (  318416 calls)
 
     Parallel routines
 
     PWSCF        :  40m16.26s CPU  20m38.53s WALL

 
   This run was terminated on:  14:45:36   7Apr2022            

=------------------------------------------------------------------------------=
   JOB DONE.
=------------------------------------------------------------------------------=
