
     Program PWSCF v.6.8 starts on  7Apr2022 at 15: 9:20 

     This program is part of the open-source Quantum ESPRESSO suite
     for quantum simulation of materials; please cite
         "P. Giannozzi et al., J. Phys.:Condens. Matter 21 395502 (2009);
         "P. Giannozzi et al., J. Phys.:Condens. Matter 29 465901 (2017);
         "P. Giannozzi et al., J. Chem. Phys. 152 154105 (2020);
          URL http://www.quantum-espresso.org", 
     in publications or presentations arising from this work. More details at
     http://www.quantum-espresso.org/quote

     Parallel version (MPI & OpenMP), running on       4 processor cores
     Number of MPI processes:                 2
     Threads/MPI process:                     2

     MPI processes distributed on     1 nodes
     R & G space division:  proc/nbgrp/npool/nimage =       2
     125188 MiB available memory on the printing compute node when the environment starts
 
     Reading input from Ta2C.scf.14.in
Warning: card  &CELL ignored
Warning: card     CELL_DYNAMICS='BFGS' ignored
Warning: card  / ignored

     Current dimensions of program PWSCF are:
     Max number of different atomic species (ntypx) = 10
     Max number of k-points (npk) =  40000
     Max angular momentum in pseudopotentials (lmaxx) =  4
     Message from routine iosys:
     restart disabled: needed files not found
     file Ta.pbesol-spfn-rrkjus_psl.1.0.0.UPF: wavefunction(s)  5S 5P renormalized

     Subspace diagonalization in iterative solution of the eigenvalue problem:
     a serial algorithm will be used

 
     Parallelization info
     --------------------
     sticks:   dense  smooth     PW     G-vecs:    dense   smooth      PW
     Min         684     684    205               197288   197288   31815
     Max         685     685    206               197321   197321   31818
     Sum        1369    1369    411               394609   394609   63633
 
     Using Slab Decomposition
 


     bravais-lattice index     =            0
     lattice parameter (alat)  =       5.5500  a.u.
     unit-cell volume          =    1588.7844 (a.u.)^3
     number of atoms/cell      =            3
     number of atomic types    =            2
     number of electrons       =        58.00
     number of Kohn-Sham states=           29
     kinetic-energy cutoff     =     150.0000  Ry
     charge density cutoff     =     600.0000  Ry
     scf convergence threshold =      1.0E-12
     mixing beta               =       0.7000
     number of iterations used =            8  plain     mixing
     Exchange-correlation= PBESOL
                           (   1   4  10   8   0   0   0)

     celldm(1)=   5.550000  celldm(2)=   0.000000  celldm(3)=   0.000000
     celldm(4)=   0.000000  celldm(5)=   0.000000  celldm(6)=   0.000000

     crystal axes: (cart. coord. in units of alat)
               a(1) = (   1.034114   0.000203   0.000000 )  
               a(2) = (  -0.516207   0.898604   0.000000 )  
               a(3) = (   0.000000   0.000000  10.000000 )  

     reciprocal axes: (cart. coord. in units 2 pi/alat)
               b(1) = (  0.966902  0.555441  0.000000 )  
               b(2) = ( -0.000219  1.112711  0.000000 )  
               b(3) = (  0.000000  0.000000  0.100000 )  


     PseudoPot. # 1 for Ta read from file:
     /shared/home/as3359/pseudo/Ta.pbesol-spfn-rrkjus_psl.1.0.0.UPF
     MD5 check sum: f099565ffaca9b150a52e9412a28e20b
     Pseudo is Ultrasoft + core correction, Zval = 27.0
     Generated using &quot;atomic&quot; code by A. Dal Corso  v.6.3
     Using radial grid of 1273 points,  8 beta functions with: 
                l(1) =   0
                l(2) =   0
                l(3) =   1
                l(4) =   1
                l(5) =   2
                l(6) =   2
                l(7) =   3
                l(8) =   3
     Q(r) pseudized with 0 coefficients 


     PseudoPot. # 2 for C  read from file:
     /shared/home/as3359/pseudo/C.pbesol-n-rrkjus_psl.1.0.0.UPF
     MD5 check sum: 05995be603a8a7c99da3dc4413f31573
     Pseudo is Ultrasoft + core correction, Zval =  4.0
     Generated using &quot;atomic&quot; code by A. Dal Corso  v.6.3MaX
     Using radial grid of 1073 points,  4 beta functions with: 
                l(1) =   0
                l(2) =   0
                l(3) =   1
                l(4) =   1
     Q(r) pseudized with 0 coefficients 


     atomic species   valence    mass     pseudopotential
        Ta            27.00   180.94788     Ta( 1.00)
        C              4.00    12.01070     C ( 1.00)

     No symmetry found



   Cartesian axes

     site n.     atom                  positions (alat units)
         1           C   tau(   1) = (   0.0000000   0.0000000   0.0000000  )
         2           Ta  tau(   2) = (   0.5174615   0.3004190  -0.4127129  )
         3           Ta  tau(   3) = (   0.0007158   0.5986355   0.4125272  )

     number of k points=   100

     Number of k-points >= 100: set verbosity='high' to print them.

     Dense  grid:   394609 G-vectors     FFT dimensions: (  45,  45, 450)

     Estimated max dynamical RAM per process >       2.94 GB

     Estimated total dynamical RAM >       5.88 GB
     Cannot read rho : file not found

     Initial potential from superposition of free atoms

     starting charge   57.99842, renormalised to   58.00000

     negative rho (up, down):  9.930E-05 0.000E+00
     Message from routine qexsd_readschema :
     xml data file /scratch/as3359/Ta2C_ct_kpts/Ta2C.save/data-file-schema.xml not fo
     Cannot read wfcs: file not found
     Starting wfcs are   38 randomized atomic wfcs

     total cpu time spent up to now is       32.2 secs

     Self-consistent Calculation

     iteration #  1     ecut=   150.00 Ry     beta= 0.70
     Davidson diagonalization with overlap
     ethr =  1.00E-05,  avg # of iterations = 12.3

     negative rho (up, down):  9.467E-05 0.000E+00

     total cpu time spent up to now is      164.1 secs

     total energy              =   -1372.45467551 Ry
     estimated scf accuracy    <       1.31714925 Ry

     iteration #  2     ecut=   150.00 Ry     beta= 0.70
     Davidson diagonalization with overlap
     ethr =  2.27E-03,  avg # of iterations =  7.7

     total cpu time spent up to now is      246.1 secs

     total energy              =   -1371.50740056 Ry
     estimated scf accuracy    <      10.77657742 Ry

     iteration #  3     ecut=   150.00 Ry     beta= 0.70
     Davidson diagonalization with overlap
     ethr =  2.27E-03,  avg # of iterations =  6.4

     total cpu time spent up to now is      322.1 secs

     total energy              =   -1373.19645570 Ry
     estimated scf accuracy    <       0.17633355 Ry

     iteration #  4     ecut=   150.00 Ry     beta= 0.70
     Davidson diagonalization with overlap
     ethr =  3.04E-04,  avg # of iterations =  4.1

     total cpu time spent up to now is      384.0 secs

     total energy              =   -1373.25054450 Ry
     estimated scf accuracy    <       0.03405084 Ry

     iteration #  5     ecut=   150.00 Ry     beta= 0.70
     Davidson diagonalization with overlap
     ethr =  5.87E-05,  avg # of iterations =  6.0

     total cpu time spent up to now is      450.9 secs

     total energy              =   -1373.24849299 Ry
     estimated scf accuracy    <       0.07317589 Ry

     iteration #  6     ecut=   150.00 Ry     beta= 0.70
     Davidson diagonalization with overlap
     ethr =  5.87E-05,  avg # of iterations =  6.4

     total cpu time spent up to now is      518.0 secs

     total energy              =   -1373.25036009 Ry
     estimated scf accuracy    <       0.04450794 Ry

     iteration #  7     ecut=   150.00 Ry     beta= 0.70
     Davidson diagonalization with overlap
     ethr =  5.87E-05,  avg # of iterations =  3.2

     total cpu time spent up to now is      573.0 secs

     total energy              =   -1373.25075124 Ry
     estimated scf accuracy    <       0.00668574 Ry

     iteration #  8     ecut=   150.00 Ry     beta= 0.70
     Davidson diagonalization with overlap
     ethr =  1.15E-05,  avg # of iterations =  6.0

     total cpu time spent up to now is      640.6 secs

     total energy              =   -1373.25207329 Ry
     estimated scf accuracy    <       0.01041682 Ry

     iteration #  9     ecut=   150.00 Ry     beta= 0.70
     Davidson diagonalization with overlap
     ethr =  1.15E-05,  avg # of iterations =  1.3

     negative rho (up, down):  1.501E-06 0.000E+00

     total cpu time spent up to now is      690.2 secs

     total energy              =   -1373.25131651 Ry
     estimated scf accuracy    <       0.00823989 Ry

     iteration # 10     ecut=   150.00 Ry     beta= 0.70
     Davidson diagonalization with overlap
     ethr =  1.15E-05,  avg # of iterations =  3.9

     negative rho (up, down):  6.909E-04 0.000E+00

     total cpu time spent up to now is      748.2 secs

     total energy              =   -1373.25179595 Ry
     estimated scf accuracy    <       0.00035861 Ry

     iteration # 11     ecut=   150.00 Ry     beta= 0.70
     Davidson diagonalization with overlap
     ethr =  6.18E-07,  avg # of iterations =  7.0

     negative rho (up, down):  1.529E-05 0.000E+00

     total cpu time spent up to now is      820.7 secs

     total energy              =   -1373.25194885 Ry
     estimated scf accuracy    <       0.00153030 Ry

     iteration # 12     ecut=   150.00 Ry     beta= 0.70
     Davidson diagonalization with overlap
     ethr =  6.18E-07,  avg # of iterations =  2.0

     negative rho (up, down):  9.834E-05 0.000E+00

     total cpu time spent up to now is      873.3 secs

     total energy              =   -1373.25172413 Ry
     estimated scf accuracy    <       0.00127024 Ry

     iteration # 13     ecut=   150.00 Ry     beta= 0.70
     Davidson diagonalization with overlap
     ethr =  6.18E-07,  avg # of iterations =  7.3

     negative rho (up, down):  9.398E-05 0.000E+00

     total cpu time spent up to now is      946.6 secs

     total energy              =   -1373.25187429 Ry
     estimated scf accuracy    <       0.00100663 Ry

     iteration # 14     ecut=   150.00 Ry     beta= 0.70
     Davidson diagonalization with overlap
     ethr =  6.18E-07,  avg # of iterations =  3.4

     negative rho (up, down):  8.693E-05 0.000E+00

     total cpu time spent up to now is     1003.5 secs

     total energy              =   -1373.25187374 Ry
     estimated scf accuracy    <       0.00036185 Ry

     iteration # 15     ecut=   150.00 Ry     beta= 0.70
     Davidson diagonalization with overlap
     ethr =  6.18E-07,  avg # of iterations =  3.9

     negative rho (up, down):  9.803E-05 0.000E+00

     total cpu time spent up to now is     1060.4 secs

     total energy              =   -1373.25188768 Ry
     estimated scf accuracy    <       0.00006343 Ry

     iteration # 16     ecut=   150.00 Ry     beta= 0.70
     Davidson diagonalization with overlap
     ethr =  1.09E-07,  avg # of iterations =  6.3

     negative rho (up, down):  1.026E-04 0.000E+00

     total cpu time spent up to now is     1125.9 secs

     total energy              =   -1373.25190083 Ry
     estimated scf accuracy    <       0.00001767 Ry

     iteration # 17     ecut=   150.00 Ry     beta= 0.70
     Davidson diagonalization with overlap
     ethr =  3.05E-08,  avg # of iterations =  2.5

     negative rho (up, down):  1.022E-04 0.000E+00

     total cpu time spent up to now is     1178.3 secs

     total energy              =   -1373.25190098 Ry
     estimated scf accuracy    <       0.00001932 Ry

     iteration # 18     ecut=   150.00 Ry     beta= 0.70
     Davidson diagonalization with overlap
     ethr =  3.05E-08,  avg # of iterations =  1.1

     negative rho (up, down):  1.022E-04 0.000E+00

     total cpu time spent up to now is     1226.8 secs

     total energy              =   -1373.25189938 Ry
     estimated scf accuracy    <       0.00001785 Ry

     iteration # 19     ecut=   150.00 Ry     beta= 0.70
     Davidson diagonalization with overlap
     ethr =  3.05E-08,  avg # of iterations =  3.1

     negative rho (up, down):  1.031E-04 0.000E+00

     total cpu time spent up to now is     1281.0 secs

     total energy              =   -1373.25190017 Ry
     estimated scf accuracy    <       0.00000205 Ry

     iteration # 20     ecut=   150.00 Ry     beta= 0.70
     Davidson diagonalization with overlap
     ethr =  3.54E-09,  avg # of iterations =  5.2

     negative rho (up, down):  1.035E-04 0.000E+00

     total cpu time spent up to now is     1341.3 secs

     total energy              =   -1373.25190037 Ry
     estimated scf accuracy    <       0.00000028 Ry

     iteration # 21     ecut=   150.00 Ry     beta= 0.70
     Davidson diagonalization with overlap
     ethr =  4.88E-10,  avg # of iterations =  5.2

     negative rho (up, down):  1.041E-04 0.000E+00

     total cpu time spent up to now is     1401.9 secs

     total energy              =   -1373.25190038 Ry
     estimated scf accuracy    <       0.00000027 Ry

     iteration # 22     ecut=   150.00 Ry     beta= 0.70
     Davidson diagonalization with overlap
     ethr =  4.63E-10,  avg # of iterations =  2.0

     negative rho (up, down):  1.045E-04 0.000E+00

     total cpu time spent up to now is     1453.9 secs

     total energy              =   -1373.25190037 Ry
     estimated scf accuracy    <       0.00000014 Ry

     iteration # 23     ecut=   150.00 Ry     beta= 0.70
     Davidson diagonalization with overlap
     ethr =  2.36E-10,  avg # of iterations =  3.8

     negative rho (up, down):  1.045E-04 0.000E+00

     total cpu time spent up to now is     1511.9 secs

     total energy              =   -1373.25190038 Ry
     estimated scf accuracy    <       0.00000004 Ry

     iteration # 24     ecut=   150.00 Ry     beta= 0.70
     Davidson diagonalization with overlap
     ethr =  6.10E-11,  avg # of iterations =  4.7

     negative rho (up, down):  1.044E-04 0.000E+00

     total cpu time spent up to now is     1570.3 secs

     total energy              =   -1373.25190038 Ry
     estimated scf accuracy    <       0.00000001 Ry

     iteration # 25     ecut=   150.00 Ry     beta= 0.70
     Davidson diagonalization with overlap
     ethr =  2.24E-11,  avg # of iterations =  3.3

     negative rho (up, down):  1.043E-04 0.000E+00

     total cpu time spent up to now is     1625.9 secs

     total energy              =   -1373.25190038 Ry
     estimated scf accuracy    <          6.9E-09 Ry

     iteration # 26     ecut=   150.00 Ry     beta= 0.70
     Davidson diagonalization with overlap
     ethr =  1.19E-11,  avg # of iterations =  3.3

     negative rho (up, down):  1.043E-04 0.000E+00

     total cpu time spent up to now is     1681.9 secs

     total energy              =   -1373.25190038 Ry
     estimated scf accuracy    <          1.1E-09 Ry

     iteration # 27     ecut=   150.00 Ry     beta= 0.70
     Davidson diagonalization with overlap
     ethr =  1.86E-12,  avg # of iterations =  7.2

     negative rho (up, down):  1.043E-04 0.000E+00

     total cpu time spent up to now is     1751.4 secs

     total energy              =   -1373.25190038 Ry
     estimated scf accuracy    <          1.9E-09 Ry

     iteration # 28     ecut=   150.00 Ry     beta= 0.70
     Davidson diagonalization with overlap
     ethr =  1.86E-12,  avg # of iterations =  1.2

     negative rho (up, down):  1.043E-04 0.000E+00

     total cpu time spent up to now is     1800.4 secs

     total energy              =   -1373.25190038 Ry
     estimated scf accuracy    <          2.4E-09 Ry

     iteration # 29     ecut=   150.00 Ry     beta= 0.70
     Davidson diagonalization with overlap
     ethr =  1.86E-12,  avg # of iterations =  1.4

     negative rho (up, down):  1.043E-04 0.000E+00

     total cpu time spent up to now is     1850.0 secs

     total energy              =   -1373.25190038 Ry
     estimated scf accuracy    <          2.9E-09 Ry

     iteration # 30     ecut=   150.00 Ry     beta= 0.70
     Davidson diagonalization with overlap
     ethr =  1.86E-12,  avg # of iterations =  1.2

     negative rho (up, down):  1.043E-04 0.000E+00

     total cpu time spent up to now is     1899.0 secs

     total energy              =   -1373.25190038 Ry
     estimated scf accuracy    <          2.2E-09 Ry

     iteration # 31     ecut=   150.00 Ry     beta= 0.70
     Davidson diagonalization with overlap
     ethr =  1.86E-12,  avg # of iterations =  1.0

     negative rho (up, down):  1.043E-04 0.000E+00

     total cpu time spent up to now is     1947.3 secs

     total energy              =   -1373.25190038 Ry
     estimated scf accuracy    <          2.1E-09 Ry

     iteration # 32     ecut=   150.00 Ry     beta= 0.70
     Davidson diagonalization with overlap
     ethr =  1.86E-12,  avg # of iterations =  6.9

     negative rho (up, down):  1.043E-04 0.000E+00

     total cpu time spent up to now is     2016.0 secs

     total energy              =   -1373.25190038 Ry
     estimated scf accuracy    <          2.8E-09 Ry

     iteration # 33     ecut=   150.00 Ry     beta= 0.70
     Davidson diagonalization with overlap
     ethr =  1.86E-12,  avg # of iterations =  1.8

     negative rho (up, down):  1.043E-04 0.000E+00

     total cpu time spent up to now is     2067.3 secs

     total energy              =   -1373.25190038 Ry
     estimated scf accuracy    <          2.5E-09 Ry

     iteration # 34     ecut=   150.00 Ry     beta= 0.70
     Davidson diagonalization with overlap
     ethr =  1.86E-12,  avg # of iterations =  4.4

     negative rho (up, down):  1.043E-04 0.000E+00

     total cpu time spent up to now is     2125.6 secs

     total energy              =   -1373.25190038 Ry
     estimated scf accuracy    <          1.2E-10 Ry

     iteration # 35     ecut=   150.00 Ry     beta= 0.70
     Davidson diagonalization with overlap
     ethr =  2.01E-13,  avg # of iterations =  6.1

     negative rho (up, down):  1.043E-04 0.000E+00

     total cpu time spent up to now is     2188.4 secs

     total energy              =   -1373.25190038 Ry
     estimated scf accuracy    <          3.3E-12 Ry

     iteration # 36     ecut=   150.00 Ry     beta= 0.70
     Davidson diagonalization with overlap
     ethr =  1.00E-13,  avg # of iterations =  1.5

     negative rho (up, down):  1.043E-04 0.000E+00

     total cpu time spent up to now is     2238.3 secs

     total energy              =   -1373.25190038 Ry
     estimated scf accuracy    <          1.4E-12 Ry

     iteration # 37     ecut=   150.00 Ry     beta= 0.70
     Davidson diagonalization with overlap
     ethr =  1.00E-13,  avg # of iterations =  2.0

     negative rho (up, down):  1.043E-04 0.000E+00

     total cpu time spent up to now is     2290.0 secs

     total energy              =   -1373.25190038 Ry
     estimated scf accuracy    <          2.8E-12 Ry

     iteration # 38     ecut=   150.00 Ry     beta= 0.70
     Davidson diagonalization with overlap
     ethr =  1.00E-13,  avg # of iterations =  1.0

     negative rho (up, down):  1.043E-04 0.000E+00

     total cpu time spent up to now is     2338.5 secs

     total energy              =   -1373.25190038 Ry
     estimated scf accuracy    <          3.8E-12 Ry

     iteration # 39     ecut=   150.00 Ry     beta= 0.70
     Davidson diagonalization with overlap
     ethr =  1.00E-13,  avg # of iterations =  1.0

     negative rho (up, down):  1.043E-04 0.000E+00

     total cpu time spent up to now is     2386.8 secs

     total energy              =   -1373.25190038 Ry
     estimated scf accuracy    <          1.7E-12 Ry

     iteration # 40     ecut=   150.00 Ry     beta= 0.70
     Davidson diagonalization with overlap
     ethr =  1.00E-13,  avg # of iterations =  1.0

     negative rho (up, down):  1.043E-04 0.000E+00

     total cpu time spent up to now is     2435.2 secs

     total energy              =   -1373.25190038 Ry
     estimated scf accuracy    <          1.5E-12 Ry

     iteration # 41     ecut=   150.00 Ry     beta= 0.70
     Davidson diagonalization with overlap
     ethr =  1.00E-13,  avg # of iterations =  1.0

     negative rho (up, down):  1.043E-04 0.000E+00

     total cpu time spent up to now is     2483.5 secs

     End of self-consistent calculation

     Number of k-points >= 100: set verbosity='high' to print the bands.

     highest occupied level (ev):     0.1471

!    total energy              =   -1373.25190038 Ry
     estimated scf accuracy    <          5.8E-13 Ry

     The total energy is the sum of the following terms:
     one-electron contribution =  -10892.05016254 Ry
     hartree contribution      =    5474.44267026 Ry
     xc contribution           =    -138.78312783 Ry
     ewald contribution        =    4183.13871972 Ry

     convergence has been achieved in  41 iterations

     negative rho (up, down):  1.043E-04 0.000E+00

     Forces acting on atoms (cartesian axes, Ry/au):

     atom    1 type  2   force =     0.00031157    0.00028349   -0.00018093
     atom    2 type  1   force =    -0.00027300   -0.00042701    0.00152803
     atom    3 type  1   force =    -0.00003857    0.00014352   -0.00134710

     Total force =     0.002104     Total SCF correction =     0.000010


     Computing stress (Cartesian axis) and pressure


     negative rho (up, down):  1.043E-04 0.000E+00
          total   stress  (Ry/bohr**3)                   (kbar)     P=        5.50
   0.00006663  -0.00000282   0.00000034            9.80       -0.42        0.05
  -0.00000282   0.00005028   0.00000082           -0.42        7.40        0.12
   0.00000034   0.00000082  -0.00000483            0.05        0.12       -0.71


     Writing output data file /scratch/as3359/Ta2C_ct_kpts/Ta2C.save/
 
     init_run     :     59.38s CPU     32.02s WALL (       1 calls)
     electrons    :   4820.53s CPU   2451.40s WALL (       1 calls)
     forces       :     15.74s CPU      8.11s WALL (       1 calls)
     stress       :     76.14s CPU     39.00s WALL (       1 calls)

     Called by init_run:
     wfcinit      :     50.51s CPU     26.13s WALL (       1 calls)
     potinit      :      2.20s CPU      1.12s WALL (       1 calls)
     hinit0       :      4.76s CPU      3.45s WALL (       1 calls)

     Called by electrons:
     c_bands      :   3953.21s CPU   1995.75s WALL (      41 calls)
     sum_band     :    782.90s CPU    404.17s WALL (      41 calls)
     v_of_rho     :     12.27s CPU      6.67s WALL (      42 calls)
     newd         :     67.52s CPU     42.31s WALL (      42 calls)
     mix_rho      :      5.59s CPU      3.06s WALL (      41 calls)

     Called by c_bands:
     init_us_2    :    105.90s CPU     53.02s WALL (    8500 calls)
     cegterg      :   3628.22s CPU   1832.16s WALL (    4100 calls)

     Called by *egterg:
     cdiaghg      :     28.44s CPU     14.57s WALL (   20104 calls)
     h_psi        :   2962.05s CPU   1498.34s WALL (   20204 calls)
     s_psi        :    158.27s CPU     79.20s WALL (   20204 calls)
     g_psi        :     16.41s CPU      8.24s WALL (   16004 calls)

     Called by h_psi:
     h_psi:calbec :    117.15s CPU     58.70s WALL (   20204 calls)
     vloc_psi     :   2649.44s CPU   1341.51s WALL (   20204 calls)
     add_vuspsi   :    171.63s CPU     85.89s WALL (   20204 calls)

     General routines
     calbec       :    158.16s CPU     79.29s WALL (   24804 calls)
     fft          :      5.88s CPU      3.01s WALL (     487 calls)
     ffts         :      0.46s CPU      0.23s WALL (      41 calls)
     fftw         :   2763.69s CPU   1400.54s WALL (  691442 calls)
 
     Parallel routines
 
     PWSCF        :      1h22m CPU  42m16.68s WALL

 
   This run was terminated on:  15:51:37   7Apr2022            

=------------------------------------------------------------------------------=
   JOB DONE.
=------------------------------------------------------------------------------=
