
     Program PWSCF v.6.8 starts on  7Apr2022 at 17:24:28 

     This program is part of the open-source Quantum ESPRESSO suite
     for quantum simulation of materials; please cite
         "P. Giannozzi et al., J. Phys.:Condens. Matter 21 395502 (2009);
         "P. Giannozzi et al., J. Phys.:Condens. Matter 29 465901 (2017);
         "P. Giannozzi et al., J. Chem. Phys. 152 154105 (2020);
          URL http://www.quantum-espresso.org", 
     in publications or presentations arising from this work. More details at
     http://www.quantum-espresso.org/quote

     Parallel version (MPI & OpenMP), running on       4 processor cores
     Number of MPI processes:                 2
     Threads/MPI process:                     2

     MPI processes distributed on     1 nodes
     R & G space division:  proc/nbgrp/npool/nimage =       2
     125181 MiB available memory on the printing compute node when the environment starts
 
     Reading input from Ta2C.scf.20.in
Warning: card  &CELL ignored
Warning: card     CELL_DYNAMICS='BFGS' ignored
Warning: card  / ignored

     Current dimensions of program PWSCF are:
     Max number of different atomic species (ntypx) = 10
     Max number of k-points (npk) =  40000
     Max angular momentum in pseudopotentials (lmaxx) =  4
     Message from routine iosys:
     restart disabled: needed files not found
     file Ta.pbesol-spfn-rrkjus_psl.1.0.0.UPF: wavefunction(s)  5S 5P renormalized

     Subspace diagonalization in iterative solution of the eigenvalue problem:
     a serial algorithm will be used

 
     Parallelization info
     --------------------
     sticks:   dense  smooth     PW     G-vecs:    dense   smooth      PW
     Min         684     684    205               197288   197288   31815
     Max         685     685    206               197321   197321   31818
     Sum        1369    1369    411               394609   394609   63633
 
     Using Slab Decomposition
 


     bravais-lattice index     =            0
     lattice parameter (alat)  =       5.5500  a.u.
     unit-cell volume          =    1588.7844 (a.u.)^3
     number of atoms/cell      =            3
     number of atomic types    =            2
     number of electrons       =        58.00
     number of Kohn-Sham states=           29
     kinetic-energy cutoff     =     150.0000  Ry
     charge density cutoff     =     600.0000  Ry
     scf convergence threshold =      1.0E-12
     mixing beta               =       0.7000
     number of iterations used =            8  plain     mixing
     Exchange-correlation= PBESOL
                           (   1   4  10   8   0   0   0)

     celldm(1)=   5.550000  celldm(2)=   0.000000  celldm(3)=   0.000000
     celldm(4)=   0.000000  celldm(5)=   0.000000  celldm(6)=   0.000000

     crystal axes: (cart. coord. in units of alat)
               a(1) = (   1.034114   0.000203   0.000000 )  
               a(2) = (  -0.516207   0.898604   0.000000 )  
               a(3) = (   0.000000   0.000000  10.000000 )  

     reciprocal axes: (cart. coord. in units 2 pi/alat)
               b(1) = (  0.966902  0.555441  0.000000 )  
               b(2) = ( -0.000219  1.112711  0.000000 )  
               b(3) = (  0.000000  0.000000  0.100000 )  


     PseudoPot. # 1 for Ta read from file:
     /shared/home/as3359/pseudo/Ta.pbesol-spfn-rrkjus_psl.1.0.0.UPF
     MD5 check sum: f099565ffaca9b150a52e9412a28e20b
     Pseudo is Ultrasoft + core correction, Zval = 27.0
     Generated using &quot;atomic&quot; code by A. Dal Corso  v.6.3
     Using radial grid of 1273 points,  8 beta functions with: 
                l(1) =   0
                l(2) =   0
                l(3) =   1
                l(4) =   1
                l(5) =   2
                l(6) =   2
                l(7) =   3
                l(8) =   3
     Q(r) pseudized with 0 coefficients 


     PseudoPot. # 2 for C  read from file:
     /shared/home/as3359/pseudo/C.pbesol-n-rrkjus_psl.1.0.0.UPF
     MD5 check sum: 05995be603a8a7c99da3dc4413f31573
     Pseudo is Ultrasoft + core correction, Zval =  4.0
     Generated using &quot;atomic&quot; code by A. Dal Corso  v.6.3MaX
     Using radial grid of 1073 points,  4 beta functions with: 
                l(1) =   0
                l(2) =   0
                l(3) =   1
                l(4) =   1
     Q(r) pseudized with 0 coefficients 


     atomic species   valence    mass     pseudopotential
        Ta            27.00   180.94788     Ta( 1.00)
        C              4.00    12.01070     C ( 1.00)

     No symmetry found



   Cartesian axes

     site n.     atom                  positions (alat units)
         1           C   tau(   1) = (   0.0000000   0.0000000   0.0000000  )
         2           Ta  tau(   2) = (   0.5174615   0.3004190  -0.4127129  )
         3           Ta  tau(   3) = (   0.0007158   0.5986355   0.4125272  )

     number of k points=   202

     Number of k-points >= 100: set verbosity='high' to print them.

     Dense  grid:   394609 G-vectors     FFT dimensions: (  45,  45, 450)

     Estimated max dynamical RAM per process >       4.03 GB

     Estimated total dynamical RAM >       8.05 GB
     Cannot read rho : file not found

     Initial potential from superposition of free atoms

     starting charge   57.99842, renormalised to   58.00000

     negative rho (up, down):  9.930E-05 0.000E+00
     Message from routine qexsd_readschema :
     xml data file /scratch/as3359/Ta2C_ct_kpts/Ta2C.save/data-file-schema.xml not fo
     Cannot read wfcs: file not found
     Starting wfcs are   38 randomized atomic wfcs

     total cpu time spent up to now is       60.5 secs

     Self-consistent Calculation

     iteration #  1     ecut=   150.00 Ry     beta= 0.70
     Davidson diagonalization with overlap
     c_bands:  1 eigenvalues not converged
     c_bands:  1 eigenvalues not converged
     c_bands:  1 eigenvalues not converged
     ethr =  1.00E-05,  avg # of iterations = 12.4

     negative rho (up, down):  9.444E-05 0.000E+00

     total cpu time spent up to now is      334.3 secs

     total energy              =   -1372.46564175 Ry
     estimated scf accuracy    <       1.30393408 Ry

     iteration #  2     ecut=   150.00 Ry     beta= 0.70
     Davidson diagonalization with overlap
     ethr =  2.25E-03,  avg # of iterations =  7.3

     total cpu time spent up to now is      502.6 secs

     total energy              =   -1371.71372521 Ry
     estimated scf accuracy    <       9.47340456 Ry

     iteration #  3     ecut=   150.00 Ry     beta= 0.70
     Davidson diagonalization with overlap
     ethr =  2.25E-03,  avg # of iterations =  6.3

     total cpu time spent up to now is      658.3 secs

     total energy              =   -1373.20820630 Ry
     estimated scf accuracy    <       0.14280924 Ry

     iteration #  4     ecut=   150.00 Ry     beta= 0.70
     Davidson diagonalization with overlap
     ethr =  2.46E-04,  avg # of iterations =  4.5

     total cpu time spent up to now is      789.0 secs

     total energy              =   -1373.24917889 Ry
     estimated scf accuracy    <       0.02637492 Ry

     iteration #  5     ecut=   150.00 Ry     beta= 0.70
     Davidson diagonalization with overlap
     ethr =  4.55E-05,  avg # of iterations =  4.4

     total cpu time spent up to now is      923.3 secs

     total energy              =   -1373.24984300 Ry
     estimated scf accuracy    <       0.01007012 Ry

     iteration #  6     ecut=   150.00 Ry     beta= 0.70
     Davidson diagonalization with overlap
     ethr =  1.74E-05,  avg # of iterations =  4.4

     total cpu time spent up to now is     1049.3 secs

     total energy              =   -1373.25076434 Ry
     estimated scf accuracy    <       0.00264656 Ry

     iteration #  7     ecut=   150.00 Ry     beta= 0.70
     Davidson diagonalization with overlap
     c_bands:  1 eigenvalues not converged
     c_bands:  1 eigenvalues not converged
     c_bands:  1 eigenvalues not converged
     ethr =  4.56E-06,  avg # of iterations =  8.1

     total cpu time spent up to now is     1207.1 secs

     total energy              =   -1373.24907991 Ry
     estimated scf accuracy    <       0.05106360 Ry

     iteration #  8     ecut=   150.00 Ry     beta= 0.70
     Davidson diagonalization with overlap
     c_bands:  1 eigenvalues not converged
     ethr =  4.56E-06,  avg # of iterations =  7.7

     negative rho (up, down):  7.512E-07 0.000E+00

     total cpu time spent up to now is     1361.9 secs

     total energy              =   -1373.25148696 Ry
     estimated scf accuracy    <       0.00139398 Ry

     iteration #  9     ecut=   150.00 Ry     beta= 0.70
     Davidson diagonalization with overlap
     c_bands:  1 eigenvalues not converged
     c_bands:  1 eigenvalues not converged
     ethr =  2.40E-06,  avg # of iterations =  3.0

     negative rho (up, down):  2.669E-05 0.000E+00

     total cpu time spent up to now is     1475.6 secs

     total energy              =   -1373.25153539 Ry
     estimated scf accuracy    <       0.00064464 Ry

     iteration # 10     ecut=   150.00 Ry     beta= 0.70
     Davidson diagonalization with overlap
     ethr =  1.11E-06,  avg # of iterations =  5.0

     negative rho (up, down):  2.092E-04 0.000E+00

     total cpu time spent up to now is     1601.8 secs

     total energy              =   -1373.25160067 Ry
     estimated scf accuracy    <       0.00006900 Ry

     iteration # 11     ecut=   150.00 Ry     beta= 0.70
     Davidson diagonalization with overlap
     ethr =  1.19E-07,  avg # of iterations =  6.2

     negative rho (up, down):  7.620E-05 0.000E+00

     total cpu time spent up to now is     1739.5 secs

     total energy              =   -1373.25160888 Ry
     estimated scf accuracy    <       0.00006377 Ry

     iteration # 12     ecut=   150.00 Ry     beta= 0.70
     Davidson diagonalization with overlap
     ethr =  1.10E-07,  avg # of iterations =  2.1

     negative rho (up, down):  1.070E-04 0.000E+00

     total cpu time spent up to now is     1850.4 secs

     total energy              =   -1373.25160489 Ry
     estimated scf accuracy    <       0.00002408 Ry

     iteration # 13     ecut=   150.00 Ry     beta= 0.70
     Davidson diagonalization with overlap
     ethr =  4.15E-08,  avg # of iterations =  6.7

     negative rho (up, down):  1.059E-04 0.000E+00

     total cpu time spent up to now is     1988.2 secs

     total energy              =   -1373.25161003 Ry
     estimated scf accuracy    <       0.00003961 Ry

     iteration # 14     ecut=   150.00 Ry     beta= 0.70
     Davidson diagonalization with overlap
     ethr =  4.15E-08,  avg # of iterations =  2.3

     negative rho (up, down):  1.049E-04 0.000E+00

     total cpu time spent up to now is     2095.2 secs

     total energy              =   -1373.25160815 Ry
     estimated scf accuracy    <       0.00001953 Ry

     iteration # 15     ecut=   150.00 Ry     beta= 0.70
     Davidson diagonalization with overlap
     ethr =  3.37E-08,  avg # of iterations =  6.0

     negative rho (up, down):  1.031E-04 0.000E+00

     total cpu time spent up to now is     2224.5 secs

     total energy              =   -1373.25161070 Ry
     estimated scf accuracy    <       0.00001010 Ry

     iteration # 16     ecut=   150.00 Ry     beta= 0.70
     Davidson diagonalization with overlap
     ethr =  1.74E-08,  avg # of iterations =  1.4

     negative rho (up, down):  1.039E-04 0.000E+00

     total cpu time spent up to now is     2326.5 secs

     total energy              =   -1373.25161042 Ry
     estimated scf accuracy    <       0.00000715 Ry

     iteration # 17     ecut=   150.00 Ry     beta= 0.70
     Davidson diagonalization with overlap
     ethr =  1.23E-08,  avg # of iterations =  3.5

     negative rho (up, down):  1.040E-04 0.000E+00

     total cpu time spent up to now is     2436.6 secs

     total energy              =   -1373.25161064 Ry
     estimated scf accuracy    <       0.00000116 Ry

     iteration # 18     ecut=   150.00 Ry     beta= 0.70
     Davidson diagonalization with overlap
     ethr =  2.01E-09,  avg # of iterations =  5.5

     negative rho (up, down):  1.041E-04 0.000E+00

     total cpu time spent up to now is     2560.1 secs

     total energy              =   -1373.25161077 Ry
     estimated scf accuracy    <          5.3E-09 Ry

     iteration # 19     ecut=   150.00 Ry     beta= 0.70
     Davidson diagonalization with overlap
     c_bands:  1 eigenvalues not converged
     c_bands:  1 eigenvalues not converged
     c_bands:  1 eigenvalues not converged
     c_bands:  1 eigenvalues not converged
     c_bands:  1 eigenvalues not converged
     c_bands:  1 eigenvalues not converged
     ethr =  9.14E-12,  avg # of iterations = 11.4

     negative rho (up, down):  1.042E-04 0.000E+00

     total cpu time spent up to now is     2741.3 secs

     total energy              =   -1373.25161079 Ry
     estimated scf accuracy    <       0.00000019 Ry

     iteration # 20     ecut=   150.00 Ry     beta= 0.70
     Davidson diagonalization with overlap
     ethr =  9.14E-12,  avg # of iterations =  6.6

     negative rho (up, down):  1.042E-04 0.000E+00

     total cpu time spent up to now is     2878.6 secs

     total energy              =   -1373.25161078 Ry
     estimated scf accuracy    <       0.00000008 Ry

     iteration # 21     ecut=   150.00 Ry     beta= 0.70
     Davidson diagonalization with overlap
     c_bands:  1 eigenvalues not converged
     ethr =  9.14E-12,  avg # of iterations =  7.6

     negative rho (up, down):  1.043E-04 0.000E+00

     total cpu time spent up to now is     3027.4 secs

     total energy              =   -1373.25161079 Ry
     estimated scf accuracy    <          8.0E-10 Ry

     iteration # 22     ecut=   150.00 Ry     beta= 0.70
     Davidson diagonalization with overlap
     c_bands:  1 eigenvalues not converged
     c_bands:  1 eigenvalues not converged
     c_bands:  1 eigenvalues not converged
     ethr =  1.38E-12,  avg # of iterations = 12.0

     negative rho (up, down):  1.043E-04 0.000E+00

     total cpu time spent up to now is     3220.0 secs

     total energy              =   -1373.25161079 Ry
     estimated scf accuracy    <       0.00000012 Ry

     iteration # 23     ecut=   150.00 Ry     beta= 0.70
     Davidson diagonalization with overlap
     ethr =  1.38E-12,  avg # of iterations =  6.4

     negative rho (up, down):  1.043E-04 0.000E+00

     total cpu time spent up to now is     3352.1 secs

     total energy              =   -1373.25161078 Ry
     estimated scf accuracy    <       0.00000008 Ry

     iteration # 24     ecut=   150.00 Ry     beta= 0.70
     Davidson diagonalization with overlap
     c_bands:  1 eigenvalues not converged
     c_bands:  1 eigenvalues not converged
     c_bands:  1 eigenvalues not converged
     c_bands:  1 eigenvalues not converged
     ethr =  1.38E-12,  avg # of iterations = 11.4

     negative rho (up, down):  1.043E-04 0.000E+00

     total cpu time spent up to now is     3541.7 secs

     total energy              =   -1373.25161079 Ry
     estimated scf accuracy    <          6.4E-11 Ry

     iteration # 25     ecut=   150.00 Ry     beta= 0.70
     Davidson diagonalization with overlap
     c_bands:  1 eigenvalues not converged
     c_bands:  1 eigenvalues not converged
     ethr =  1.11E-13,  avg # of iterations =  7.6

     negative rho (up, down):  1.043E-04 0.000E+00

     total cpu time spent up to now is     3690.4 secs

     total energy              =   -1373.25161079 Ry
     estimated scf accuracy    <          7.2E-10 Ry

     iteration # 26     ecut=   150.00 Ry     beta= 0.70
     Davidson diagonalization with overlap
     ethr =  1.11E-13,  avg # of iterations =  1.0

     negative rho (up, down):  1.043E-04 0.000E+00

     total cpu time spent up to now is     3789.5 secs

     total energy              =   -1373.25161079 Ry
     estimated scf accuracy    <          7.5E-10 Ry

     iteration # 27     ecut=   150.00 Ry     beta= 0.70
     Davidson diagonalization with overlap
     ethr =  1.11E-13,  avg # of iterations =  6.2

     negative rho (up, down):  1.043E-04 0.000E+00

     total cpu time spent up to now is     3921.3 secs

     total energy              =   -1373.25161079 Ry
     estimated scf accuracy    <          8.2E-11 Ry

     iteration # 28     ecut=   150.00 Ry     beta= 0.70
     Davidson diagonalization with overlap
     ethr =  1.11E-13,  avg # of iterations =  1.7

     negative rho (up, down):  1.043E-04 0.000E+00

     total cpu time spent up to now is     4024.7 secs

     total energy              =   -1373.25161079 Ry
     estimated scf accuracy    <          4.6E-11 Ry

     iteration # 29     ecut=   150.00 Ry     beta= 0.70
     Davidson diagonalization with overlap
     ethr =  1.00E-13,  avg # of iterations =  3.9

     negative rho (up, down):  1.043E-04 0.000E+00

     total cpu time spent up to now is     4139.2 secs

     End of self-consistent calculation

     Number of k-points >= 100: set verbosity='high' to print the bands.

     highest occupied level (ev):     0.1499

!    total energy              =   -1373.25161079 Ry
     estimated scf accuracy    <          3.3E-13 Ry

     The total energy is the sum of the following terms:
     one-electron contribution =  -10892.06694762 Ry
     hartree contribution      =    5474.45992620 Ry
     xc contribution           =    -138.78330909 Ry
     ewald contribution        =    4183.13871972 Ry

     convergence has been achieved in  29 iterations

     negative rho (up, down):  1.043E-04 0.000E+00

     Forces acting on atoms (cartesian axes, Ry/au):

     atom    1 type  2   force =     0.00030969    0.00028239   -0.00017828
     atom    2 type  1   force =    -0.00028495   -0.00025352    0.00171817
     atom    3 type  1   force =    -0.00002474   -0.00002888   -0.00153990

     Total force =     0.002339     Total SCF correction =     0.000009


     Computing stress (Cartesian axis) and pressure


     negative rho (up, down):  1.043E-04 0.000E+00
          total   stress  (Ry/bohr**3)                   (kbar)     P=        5.52
   0.00006688  -0.00000276   0.00000038            9.84       -0.41        0.06
  -0.00000276   0.00005103   0.00000032           -0.41        7.51        0.05
   0.00000038   0.00000032  -0.00000538            0.06        0.05       -0.79


     Writing output data file /scratch/as3359/Ta2C_ct_kpts/Ta2C.save/
 
     init_run     :    113.73s CPU     60.29s WALL (       1 calls)
     electrons    :   8053.99s CPU   4078.75s WALL (       1 calls)
     forces       :     25.46s CPU     12.97s WALL (       1 calls)
     stress       :    137.10s CPU     69.69s WALL (       1 calls)

     Called by init_run:
     wfcinit      :    104.63s CPU     54.17s WALL (       1 calls)
     potinit      :      2.17s CPU      1.11s WALL (       1 calls)
     hinit0       :      4.78s CPU      3.46s WALL (       1 calls)

     Called by electrons:
     c_bands      :   6887.64s CPU   3476.91s WALL (      29 calls)
     sum_band     :   1106.45s CPU    565.34s WALL (      29 calls)
     v_of_rho     :      8.87s CPU      4.81s WALL (      30 calls)
     newd         :     48.18s CPU     30.20s WALL (      30 calls)
     mix_rho      :      4.01s CPU      2.14s WALL (      29 calls)

     Called by c_bands:
     init_us_2    :    153.14s CPU     76.64s WALL (   12322 calls)
     cegterg      :   6421.27s CPU   3242.21s WALL (    5858 calls)

     Called by *egterg:
     cdiaghg      :     60.88s CPU     31.18s WALL (   40686 calls)
     h_psi        :   5159.19s CPU   2610.15s WALL (   40888 calls)
     s_psi        :    293.18s CPU    146.74s WALL (   40888 calls)
     g_psi        :     29.33s CPU     14.73s WALL (   34828 calls)

     Called by h_psi:
     h_psi:calbec :    215.23s CPU    107.88s WALL (   40888 calls)
     vloc_psi     :   4585.96s CPU   2322.59s WALL (   40888 calls)
     add_vuspsi   :    318.93s CPU    159.65s WALL (   40888 calls)

     General routines
     calbec       :    274.46s CPU    137.59s WALL (   47756 calls)
     fft          :      4.45s CPU      2.27s WALL (     355 calls)
     ffts         :      0.33s CPU      0.17s WALL (      29 calls)
     fftw         :   4651.69s CPU   2358.19s WALL ( 1106494 calls)
 
     Parallel routines
 
     PWSCF        :      2h19m CPU      1h10m WALL

 
   This run was terminated on:  18:35: 3   7Apr2022            

=------------------------------------------------------------------------------=
   JOB DONE.
=------------------------------------------------------------------------------=
