
     Program PWSCF v.6.8 starts on  7Apr2022 at 16:27:40 

     This program is part of the open-source Quantum ESPRESSO suite
     for quantum simulation of materials; please cite
         "P. Giannozzi et al., J. Phys.:Condens. Matter 21 395502 (2009);
         "P. Giannozzi et al., J. Phys.:Condens. Matter 29 465901 (2017);
         "P. Giannozzi et al., J. Chem. Phys. 152 154105 (2020);
          URL http://www.quantum-espresso.org", 
     in publications or presentations arising from this work. More details at
     http://www.quantum-espresso.org/quote

     Parallel version (MPI & OpenMP), running on       4 processor cores
     Number of MPI processes:                 2
     Threads/MPI process:                     2

     MPI processes distributed on     1 nodes
     R & G space division:  proc/nbgrp/npool/nimage =       2
     125191 MiB available memory on the printing compute node when the environment starts
 
     Reading input from Ta2C.scf.18.in
Warning: card  &CELL ignored
Warning: card     CELL_DYNAMICS='BFGS' ignored
Warning: card  / ignored

     Current dimensions of program PWSCF are:
     Max number of different atomic species (ntypx) = 10
     Max number of k-points (npk) =  40000
     Max angular momentum in pseudopotentials (lmaxx) =  4
     Message from routine iosys:
     restart disabled: needed files not found
     file Ta.pbesol-spfn-rrkjus_psl.1.0.0.UPF: wavefunction(s)  5S 5P renormalized

     Subspace diagonalization in iterative solution of the eigenvalue problem:
     a serial algorithm will be used

 
     Parallelization info
     --------------------
     sticks:   dense  smooth     PW     G-vecs:    dense   smooth      PW
     Min         684     684    205               197288   197288   31815
     Max         685     685    206               197321   197321   31818
     Sum        1369    1369    411               394609   394609   63633
 
     Using Slab Decomposition
 


     bravais-lattice index     =            0
     lattice parameter (alat)  =       5.5500  a.u.
     unit-cell volume          =    1588.7844 (a.u.)^3
     number of atoms/cell      =            3
     number of atomic types    =            2
     number of electrons       =        58.00
     number of Kohn-Sham states=           29
     kinetic-energy cutoff     =     150.0000  Ry
     charge density cutoff     =     600.0000  Ry
     scf convergence threshold =      1.0E-12
     mixing beta               =       0.7000
     number of iterations used =            8  plain     mixing
     Exchange-correlation= PBESOL
                           (   1   4  10   8   0   0   0)

     celldm(1)=   5.550000  celldm(2)=   0.000000  celldm(3)=   0.000000
     celldm(4)=   0.000000  celldm(5)=   0.000000  celldm(6)=   0.000000

     crystal axes: (cart. coord. in units of alat)
               a(1) = (   1.034114   0.000203   0.000000 )  
               a(2) = (  -0.516207   0.898604   0.000000 )  
               a(3) = (   0.000000   0.000000  10.000000 )  

     reciprocal axes: (cart. coord. in units 2 pi/alat)
               b(1) = (  0.966902  0.555441  0.000000 )  
               b(2) = ( -0.000219  1.112711  0.000000 )  
               b(3) = (  0.000000  0.000000  0.100000 )  


     PseudoPot. # 1 for Ta read from file:
     /shared/home/as3359/pseudo/Ta.pbesol-spfn-rrkjus_psl.1.0.0.UPF
     MD5 check sum: f099565ffaca9b150a52e9412a28e20b
     Pseudo is Ultrasoft + core correction, Zval = 27.0
     Generated using &quot;atomic&quot; code by A. Dal Corso  v.6.3
     Using radial grid of 1273 points,  8 beta functions with: 
                l(1) =   0
                l(2) =   0
                l(3) =   1
                l(4) =   1
                l(5) =   2
                l(6) =   2
                l(7) =   3
                l(8) =   3
     Q(r) pseudized with 0 coefficients 


     PseudoPot. # 2 for C  read from file:
     /shared/home/as3359/pseudo/C.pbesol-n-rrkjus_psl.1.0.0.UPF
     MD5 check sum: 05995be603a8a7c99da3dc4413f31573
     Pseudo is Ultrasoft + core correction, Zval =  4.0
     Generated using &quot;atomic&quot; code by A. Dal Corso  v.6.3MaX
     Using radial grid of 1073 points,  4 beta functions with: 
                l(1) =   0
                l(2) =   0
                l(3) =   1
                l(4) =   1
     Q(r) pseudized with 0 coefficients 


     atomic species   valence    mass     pseudopotential
        Ta            27.00   180.94788     Ta( 1.00)
        C              4.00    12.01070     C ( 1.00)

     No symmetry found



   Cartesian axes

     site n.     atom                  positions (alat units)
         1           C   tau(   1) = (   0.0000000   0.0000000   0.0000000  )
         2           Ta  tau(   2) = (   0.5174615   0.3004190  -0.4127129  )
         3           Ta  tau(   3) = (   0.0007158   0.5986355   0.4125272  )

     number of k points=   164

     Number of k-points >= 100: set verbosity='high' to print them.

     Dense  grid:   394609 G-vectors     FFT dimensions: (  45,  45, 450)

     Estimated max dynamical RAM per process >       3.62 GB

     Estimated total dynamical RAM >       7.24 GB
     Cannot read rho : file not found

     Initial potential from superposition of free atoms

     starting charge   57.99842, renormalised to   58.00000

     negative rho (up, down):  9.930E-05 0.000E+00
     Message from routine qexsd_readschema :
     xml data file /scratch/as3359/Ta2C_ct_kpts/Ta2C.save/data-file-schema.xml not fo
     Cannot read wfcs: file not found
     Starting wfcs are   38 randomized atomic wfcs

     total cpu time spent up to now is       48.9 secs

     Self-consistent Calculation

     iteration #  1     ecut=   150.00 Ry     beta= 0.70
     Davidson diagonalization with overlap
     c_bands:  1 eigenvalues not converged
     c_bands:  1 eigenvalues not converged
     c_bands:  1 eigenvalues not converged
     c_bands:  1 eigenvalues not converged
     c_bands:  1 eigenvalues not converged
     c_bands:  1 eigenvalues not converged
     ethr =  1.00E-05,  avg # of iterations = 12.5

     negative rho (up, down):  9.451E-05 0.000E+00

     total cpu time spent up to now is      262.6 secs

     total energy              =   -1372.46050100 Ry
     estimated scf accuracy    <       1.31001070 Ry

     iteration #  2     ecut=   150.00 Ry     beta= 0.70
     Davidson diagonalization with overlap
     c_bands:  1 eigenvalues not converged
     ethr =  2.26E-03,  avg # of iterations =  7.4

     total cpu time spent up to now is      393.3 secs

     total energy              =   -1371.66077989 Ry
     estimated scf accuracy    <       9.81490216 Ry

     iteration #  3     ecut=   150.00 Ry     beta= 0.70
     Davidson diagonalization with overlap
     ethr =  2.26E-03,  avg # of iterations =  5.9

     total cpu time spent up to now is      513.8 secs

     total energy              =   -1373.20337899 Ry
     estimated scf accuracy    <       0.16900210 Ry

     iteration #  4     ecut=   150.00 Ry     beta= 0.70
     Davidson diagonalization with overlap
     ethr =  2.91E-04,  avg # of iterations =  8.0

     total cpu time spent up to now is      633.5 secs

     total energy              =   -1373.20338454 Ry
     estimated scf accuracy    <       1.08310353 Ry

     iteration #  5     ecut=   150.00 Ry     beta= 0.70
     Davidson diagonalization with overlap
     ethr =  2.91E-04,  avg # of iterations =  7.0

     total cpu time spent up to now is      744.4 secs

     total energy              =   -1373.24959156 Ry
     estimated scf accuracy    <       0.04345598 Ry

     iteration #  6     ecut=   150.00 Ry     beta= 0.70
     Davidson diagonalization with overlap
     ethr =  7.49E-05,  avg # of iterations =  3.2

     total cpu time spent up to now is      834.6 secs

     total energy              =   -1373.24929789 Ry
     estimated scf accuracy    <       0.01492556 Ry

     iteration #  7     ecut=   150.00 Ry     beta= 0.70
     Davidson diagonalization with overlap
     ethr =  2.57E-05,  avg # of iterations =  5.2

     total cpu time spent up to now is      935.1 secs

     total energy              =   -1373.25134142 Ry
     estimated scf accuracy    <       0.00105782 Ry

     iteration #  8     ecut=   150.00 Ry     beta= 0.70
     Davidson diagonalization with overlap
     ethr =  1.82E-06,  avg # of iterations =  6.3

     negative rho (up, down):  2.215E-04 0.000E+00

     total cpu time spent up to now is     1048.1 secs

     total energy              =   -1373.25137173 Ry
     estimated scf accuracy    <       0.00127352 Ry

     iteration #  9     ecut=   150.00 Ry     beta= 0.70
     Davidson diagonalization with overlap
     ethr =  1.82E-06,  avg # of iterations =  5.0

     negative rho (up, down):  6.774E-05 0.000E+00

     total cpu time spent up to now is     1146.1 secs

     total energy              =   -1373.25155196 Ry
     estimated scf accuracy    <       0.00030809 Ry

     iteration # 10     ecut=   150.00 Ry     beta= 0.70
     Davidson diagonalization with overlap
     c_bands:  1 eigenvalues not converged
     ethr =  5.31E-07,  avg # of iterations =  4.2

     negative rho (up, down):  1.049E-04 0.000E+00

     total cpu time spent up to now is     1238.9 secs

     total energy              =   -1373.25155965 Ry
     estimated scf accuracy    <       0.00007731 Ry

     iteration # 11     ecut=   150.00 Ry     beta= 0.70
     Davidson diagonalization with overlap
     ethr =  1.33E-07,  avg # of iterations =  6.7

     negative rho (up, down):  9.988E-05 0.000E+00

     total cpu time spent up to now is     1349.0 secs

     total energy              =   -1373.25157417 Ry
     estimated scf accuracy    <       0.00007645 Ry

     iteration # 12     ecut=   150.00 Ry     beta= 0.70
     Davidson diagonalization with overlap
     ethr =  1.32E-07,  avg # of iterations =  1.3

     negative rho (up, down):  1.070E-04 0.000E+00

     total cpu time spent up to now is     1429.4 secs

     total energy              =   -1373.25157105 Ry
     estimated scf accuracy    <       0.00004808 Ry

     iteration # 13     ecut=   150.00 Ry     beta= 0.70
     Davidson diagonalization with overlap
     ethr =  8.29E-08,  avg # of iterations =  4.5

     negative rho (up, down):  1.042E-04 0.000E+00

     total cpu time spent up to now is     1523.6 secs

     total energy              =   -1373.25157513 Ry
     estimated scf accuracy    <       0.00000088 Ry

     iteration # 14     ecut=   150.00 Ry     beta= 0.70
     Davidson diagonalization with overlap
     c_bands:  1 eigenvalues not converged
     c_bands:  1 eigenvalues not converged
     ethr =  1.52E-09,  avg # of iterations =  7.5

     negative rho (up, down):  1.063E-04 0.000E+00

     total cpu time spent up to now is     1648.0 secs

     total energy              =   -1373.25157564 Ry
     estimated scf accuracy    <       0.00000639 Ry

     iteration # 15     ecut=   150.00 Ry     beta= 0.70
     Davidson diagonalization with overlap
     c_bands:  1 eigenvalues not converged
     ethr =  1.52E-09,  avg # of iterations =  3.6

     negative rho (up, down):  1.053E-04 0.000E+00

     total cpu time spent up to now is     1737.3 secs

     total energy              =   -1373.25157551 Ry
     estimated scf accuracy    <       0.00000310 Ry

     iteration # 16     ecut=   150.00 Ry     beta= 0.70
     Davidson diagonalization with overlap
     ethr =  1.52E-09,  avg # of iterations =  4.7

     negative rho (up, down):  1.054E-04 0.000E+00

     total cpu time spent up to now is     1835.6 secs

     total energy              =   -1373.25157558 Ry
     estimated scf accuracy    <       0.00000043 Ry

     iteration # 17     ecut=   150.00 Ry     beta= 0.70
     Davidson diagonalization with overlap
     c_bands:  1 eigenvalues not converged
     ethr =  7.40E-10,  avg # of iterations =  5.7

     negative rho (up, down):  1.048E-04 0.000E+00

     total cpu time spent up to now is     1935.0 secs

     total energy              =   -1373.25157563 Ry
     estimated scf accuracy    <       0.00000003 Ry

     iteration # 18     ecut=   150.00 Ry     beta= 0.70
     Davidson diagonalization with overlap
     ethr =  5.28E-11,  avg # of iterations =  6.0

     negative rho (up, down):  1.047E-04 0.000E+00

     total cpu time spent up to now is     2041.0 secs

     total energy              =   -1373.25157563 Ry
     estimated scf accuracy    <       0.00000012 Ry

     iteration # 19     ecut=   150.00 Ry     beta= 0.70
     Davidson diagonalization with overlap
     ethr =  5.28E-11,  avg # of iterations =  2.9

     negative rho (up, down):  1.046E-04 0.000E+00

     total cpu time spent up to now is     2127.1 secs

     total energy              =   -1373.25157562 Ry
     estimated scf accuracy    <       0.00000006 Ry

     iteration # 20     ecut=   150.00 Ry     beta= 0.70
     Davidson diagonalization with overlap
     ethr =  5.28E-11,  avg # of iterations =  5.8

     negative rho (up, down):  1.045E-04 0.000E+00

     total cpu time spent up to now is     2230.6 secs

     total energy              =   -1373.25157563 Ry
     estimated scf accuracy    <          6.4E-09 Ry

     iteration # 21     ecut=   150.00 Ry     beta= 0.70
     Davidson diagonalization with overlap
     ethr =  1.10E-11,  avg # of iterations =  4.6

     negative rho (up, down):  1.046E-04 0.000E+00

     total cpu time spent up to now is     2323.3 secs

     total energy              =   -1373.25157563 Ry
     estimated scf accuracy    <       0.00000001 Ry

     iteration # 22     ecut=   150.00 Ry     beta= 0.70
     Davidson diagonalization with overlap
     ethr =  1.10E-11,  avg # of iterations =  4.3

     negative rho (up, down):  1.046E-04 0.000E+00

     total cpu time spent up to now is     2417.5 secs

     total energy              =   -1373.25157563 Ry
     estimated scf accuracy    <          1.4E-10 Ry

     iteration # 23     ecut=   150.00 Ry     beta= 0.70
     Davidson diagonalization with overlap
     ethr =  2.44E-13,  avg # of iterations =  7.6

     negative rho (up, down):  1.046E-04 0.000E+00

     total cpu time spent up to now is     2540.9 secs

     total energy              =   -1373.25157563 Ry
     estimated scf accuracy    <          1.6E-09 Ry

     iteration # 24     ecut=   150.00 Ry     beta= 0.70
     Davidson diagonalization with overlap
     ethr =  2.44E-13,  avg # of iterations =  6.9

     negative rho (up, down):  1.045E-04 0.000E+00

     total cpu time spent up to now is     2652.6 secs

     total energy              =   -1373.25157563 Ry
     estimated scf accuracy    <          5.1E-11 Ry

     iteration # 25     ecut=   150.00 Ry     beta= 0.70
     Davidson diagonalization with overlap
     ethr =  1.00E-13,  avg # of iterations =  6.7

     negative rho (up, down):  1.045E-04 0.000E+00

     total cpu time spent up to now is     2763.2 secs

     total energy              =   -1373.25157563 Ry
     estimated scf accuracy    <          1.3E-10 Ry

     iteration # 26     ecut=   150.00 Ry     beta= 0.70
     Davidson diagonalization with overlap
     ethr =  1.00E-13,  avg # of iterations =  1.1

     negative rho (up, down):  1.045E-04 0.000E+00

     total cpu time spent up to now is     2842.4 secs

     total energy              =   -1373.25157563 Ry
     estimated scf accuracy    <          1.0E-10 Ry

     iteration # 27     ecut=   150.00 Ry     beta= 0.70
     Davidson diagonalization with overlap
     ethr =  1.00E-13,  avg # of iterations =  3.2

     negative rho (up, down):  1.045E-04 0.000E+00

     total cpu time spent up to now is     2929.4 secs

     total energy              =   -1373.25157563 Ry
     estimated scf accuracy    <          3.5E-11 Ry

     iteration # 28     ecut=   150.00 Ry     beta= 0.70
     Davidson diagonalization with overlap
     ethr =  1.00E-13,  avg # of iterations =  1.0

     negative rho (up, down):  1.045E-04 0.000E+00

     total cpu time spent up to now is     3007.9 secs

     total energy              =   -1373.25157563 Ry
     estimated scf accuracy    <          3.0E-11 Ry

     iteration # 29     ecut=   150.00 Ry     beta= 0.70
     Davidson diagonalization with overlap
     ethr =  1.00E-13,  avg # of iterations =  2.0

     negative rho (up, down):  1.045E-04 0.000E+00

     total cpu time spent up to now is     3090.2 secs

     total energy              =   -1373.25157563 Ry
     estimated scf accuracy    <          9.9E-12 Ry

     iteration # 30     ecut=   150.00 Ry     beta= 0.70
     Davidson diagonalization with overlap
     ethr =  1.00E-13,  avg # of iterations =  1.0

     negative rho (up, down):  1.045E-04 0.000E+00

     total cpu time spent up to now is     3168.9 secs

     total energy              =   -1373.25157563 Ry
     estimated scf accuracy    <          7.0E-12 Ry

     iteration # 31     ecut=   150.00 Ry     beta= 0.70
     Davidson diagonalization with overlap
     ethr =  1.00E-13,  avg # of iterations =  1.3

     negative rho (up, down):  1.045E-04 0.000E+00

     total cpu time spent up to now is     3247.8 secs

     total energy              =   -1373.25157563 Ry
     estimated scf accuracy    <          1.7E-12 Ry

     iteration # 32     ecut=   150.00 Ry     beta= 0.70
     Davidson diagonalization with overlap
     ethr =  1.00E-13,  avg # of iterations =  1.2

     negative rho (up, down):  1.045E-04 0.000E+00

     total cpu time spent up to now is     3327.1 secs

     End of self-consistent calculation

     Number of k-points >= 100: set verbosity='high' to print the bands.

     highest occupied level (ev):     0.1763

!    total energy              =   -1373.25157563 Ry
     estimated scf accuracy    <          9.3E-14 Ry

     The total energy is the sum of the following terms:
     one-electron contribution =  -10892.19936737 Ry
     hartree contribution      =    5474.59349359 Ry
     xc contribution           =    -138.78442157 Ry
     ewald contribution        =    4183.13871972 Ry

     convergence has been achieved in  32 iterations

     negative rho (up, down):  1.045E-04 0.000E+00

     Forces acting on atoms (cartesian axes, Ry/au):

     atom    1 type  2   force =     0.00030980    0.00028060   -0.00017767
     atom    2 type  1   force =    -0.00019721   -0.00035644    0.00217827
     atom    3 type  1   force =    -0.00011260    0.00007584   -0.00200059

     Total force =     0.002989     Total SCF correction =     0.000004


     Computing stress (Cartesian axis) and pressure


     negative rho (up, down):  1.045E-04 0.000E+00
          total   stress  (Ry/bohr**3)                   (kbar)     P=        5.55
   0.00006776  -0.00000262   0.00000012            9.97       -0.39        0.02
  -0.00000262   0.00005204   0.00000062           -0.39        7.66        0.09
   0.00000012   0.00000062  -0.00000671            0.02        0.09       -0.99


     Writing output data file /scratch/as3359/Ta2C_ct_kpts/Ta2C.save/
 
     init_run     :     91.40s CPU     48.67s WALL (       1 calls)
     electrons    :   6465.15s CPU   3278.27s WALL (       1 calls)
     forces       :     21.87s CPU     11.17s WALL (       1 calls)
     stress       :    114.27s CPU     58.18s WALL (       1 calls)

     Called by init_run:
     wfcinit      :     82.35s CPU     42.60s WALL (       1 calls)
     potinit      :      2.18s CPU      1.11s WALL (       1 calls)
     hinit0       :      4.82s CPU      3.49s WALL (       1 calls)

     Called by electrons:
     c_bands      :   5441.83s CPU   2747.26s WALL (      32 calls)
     sum_band     :    957.35s CPU    490.76s WALL (      32 calls)
     v_of_rho     :      9.65s CPU      5.27s WALL (      33 calls)
     newd         :     53.16s CPU     33.22s WALL (      33 calls)
     mix_rho      :      4.28s CPU      2.40s WALL (      32 calls)

     Called by c_bands:
     init_us_2    :    136.91s CPU     68.54s WALL (   10988 calls)
     cegterg      :   5024.81s CPU   2537.17s WALL (    5248 calls)

     Called by *egterg:
     cdiaghg      :     44.36s CPU     22.73s WALL (   30565 calls)
     h_psi        :   4057.69s CPU   2052.70s WALL (   30729 calls)
     s_psi        :    227.63s CPU    113.94s WALL (   30729 calls)
     g_psi        :     23.13s CPU     11.62s WALL (   25317 calls)

     Called by h_psi:
     h_psi:calbec :    170.37s CPU     85.41s WALL (   30729 calls)
     vloc_psi     :   3608.02s CPU   1827.10s WALL (   30729 calls)
     add_vuspsi   :    246.52s CPU    123.40s WALL (   30729 calls)

     General routines
     calbec       :    222.69s CPU    111.65s WALL (   36797 calls)
     fft          :      4.70s CPU      2.40s WALL (     388 calls)
     ffts         :      0.36s CPU      0.18s WALL (      32 calls)
     fftw         :   3717.60s CPU   1884.32s WALL (  927344 calls)
 
     Parallel routines
 
     PWSCF        :      1h51m CPU  56m45.81s WALL

 
   This run was terminated on:  17:24:26   7Apr2022            

=------------------------------------------------------------------------------=
   JOB DONE.
=------------------------------------------------------------------------------=
