
     Program PWSCF v.6.8 starts on  7Apr2022 at 14:45:37 

     This program is part of the open-source Quantum ESPRESSO suite
     for quantum simulation of materials; please cite
         "P. Giannozzi et al., J. Phys.:Condens. Matter 21 395502 (2009);
         "P. Giannozzi et al., J. Phys.:Condens. Matter 29 465901 (2017);
         "P. Giannozzi et al., J. Chem. Phys. 152 154105 (2020);
          URL http://www.quantum-espresso.org", 
     in publications or presentations arising from this work. More details at
     http://www.quantum-espresso.org/quote

     Parallel version (MPI & OpenMP), running on       4 processor cores
     Number of MPI processes:                 2
     Threads/MPI process:                     2

     MPI processes distributed on     1 nodes
     R & G space division:  proc/nbgrp/npool/nimage =       2
     125205 MiB available memory on the printing compute node when the environment starts
 
     Reading input from Ta2C.scf.12.in
Warning: card  &CELL ignored
Warning: card     CELL_DYNAMICS='BFGS' ignored
Warning: card  / ignored

     Current dimensions of program PWSCF are:
     Max number of different atomic species (ntypx) = 10
     Max number of k-points (npk) =  40000
     Max angular momentum in pseudopotentials (lmaxx) =  4
     Message from routine iosys:
     restart disabled: needed files not found
     file Ta.pbesol-spfn-rrkjus_psl.1.0.0.UPF: wavefunction(s)  5S 5P renormalized

     Subspace diagonalization in iterative solution of the eigenvalue problem:
     a serial algorithm will be used

 
     Parallelization info
     --------------------
     sticks:   dense  smooth     PW     G-vecs:    dense   smooth      PW
     Min         684     684    205               197288   197288   31815
     Max         685     685    206               197321   197321   31818
     Sum        1369    1369    411               394609   394609   63633
 
     Using Slab Decomposition
 


     bravais-lattice index     =            0
     lattice parameter (alat)  =       5.5500  a.u.
     unit-cell volume          =    1588.7844 (a.u.)^3
     number of atoms/cell      =            3
     number of atomic types    =            2
     number of electrons       =        58.00
     number of Kohn-Sham states=           29
     kinetic-energy cutoff     =     150.0000  Ry
     charge density cutoff     =     600.0000  Ry
     scf convergence threshold =      1.0E-12
     mixing beta               =       0.7000
     number of iterations used =            8  plain     mixing
     Exchange-correlation= PBESOL
                           (   1   4  10   8   0   0   0)

     celldm(1)=   5.550000  celldm(2)=   0.000000  celldm(3)=   0.000000
     celldm(4)=   0.000000  celldm(5)=   0.000000  celldm(6)=   0.000000

     crystal axes: (cart. coord. in units of alat)
               a(1) = (   1.034114   0.000203   0.000000 )  
               a(2) = (  -0.516207   0.898604   0.000000 )  
               a(3) = (   0.000000   0.000000  10.000000 )  

     reciprocal axes: (cart. coord. in units 2 pi/alat)
               b(1) = (  0.966902  0.555441  0.000000 )  
               b(2) = ( -0.000219  1.112711  0.000000 )  
               b(3) = (  0.000000  0.000000  0.100000 )  


     PseudoPot. # 1 for Ta read from file:
     /shared/home/as3359/pseudo/Ta.pbesol-spfn-rrkjus_psl.1.0.0.UPF
     MD5 check sum: f099565ffaca9b150a52e9412a28e20b
     Pseudo is Ultrasoft + core correction, Zval = 27.0
     Generated using &quot;atomic&quot; code by A. Dal Corso  v.6.3
     Using radial grid of 1273 points,  8 beta functions with: 
                l(1) =   0
                l(2) =   0
                l(3) =   1
                l(4) =   1
                l(5) =   2
                l(6) =   2
                l(7) =   3
                l(8) =   3
     Q(r) pseudized with 0 coefficients 


     PseudoPot. # 2 for C  read from file:
     /shared/home/as3359/pseudo/C.pbesol-n-rrkjus_psl.1.0.0.UPF
     MD5 check sum: 05995be603a8a7c99da3dc4413f31573
     Pseudo is Ultrasoft + core correction, Zval =  4.0
     Generated using &quot;atomic&quot; code by A. Dal Corso  v.6.3MaX
     Using radial grid of 1073 points,  4 beta functions with: 
                l(1) =   0
                l(2) =   0
                l(3) =   1
                l(4) =   1
     Q(r) pseudized with 0 coefficients 


     atomic species   valence    mass     pseudopotential
        Ta            27.00   180.94788     Ta( 1.00)
        C              4.00    12.01070     C ( 1.00)

     No symmetry found



   Cartesian axes

     site n.     atom                  positions (alat units)
         1           C   tau(   1) = (   0.0000000   0.0000000   0.0000000  )
         2           Ta  tau(   2) = (   0.5174615   0.3004190  -0.4127129  )
         3           Ta  tau(   3) = (   0.0007158   0.5986355   0.4125272  )

     number of k points=    74
                       cart. coord. in units 2pi/alat
        k(    1) = (   0.0000000   0.0000000   0.0000000), wk =   0.0138889
        k(    2) = (  -0.0000182   0.0927259   0.0000000), wk =   0.0277778
        k(    3) = (  -0.0000364   0.1854519   0.0000000), wk =   0.0277778
        k(    4) = (  -0.0000547   0.2781778   0.0000000), wk =   0.0277778
        k(    5) = (  -0.0000729   0.3709037   0.0000000), wk =   0.0277778
        k(    6) = (  -0.0000911   0.4636296   0.0000000), wk =   0.0277778
        k(    7) = (   0.0001093  -0.5563556   0.0000000), wk =   0.0138889
        k(    8) = (   0.0805752   0.0462867   0.0000000), wk =   0.0277778
        k(    9) = (   0.0805570   0.1390127   0.0000000), wk =   0.0277778
        k(   10) = (   0.0805388   0.2317386   0.0000000), wk =   0.0277778
        k(   11) = (   0.0805205   0.3244645   0.0000000), wk =   0.0277778
        k(   12) = (   0.0805023   0.4171904   0.0000000), wk =   0.0277778
        k(   13) = (   0.0804841   0.5099164   0.0000000), wk =   0.0277778
        k(   14) = (   0.0806845  -0.5100688   0.0000000), wk =   0.0277778
        k(   15) = (   0.0806663  -0.4173429   0.0000000), wk =   0.0277778
        k(   16) = (   0.0806481  -0.3246170   0.0000000), wk =   0.0277778
        k(   17) = (   0.0806298  -0.2318910   0.0000000), wk =   0.0277778
        k(   18) = (   0.0806116  -0.1391651   0.0000000), wk =   0.0277778
        k(   19) = (   0.0805934  -0.0464392   0.0000000), wk =   0.0277778
        k(   20) = (   0.1611504   0.0925735   0.0000000), wk =   0.0277778
        k(   21) = (   0.1611322   0.1852994   0.0000000), wk =   0.0277778
        k(   22) = (   0.1611139   0.2780253   0.0000000), wk =   0.0277778
        k(   23) = (   0.1610957   0.3707513   0.0000000), wk =   0.0277778
        k(   24) = (   0.1610775   0.4634772   0.0000000), wk =   0.0277778
        k(   25) = (   0.1610593   0.5562031   0.0000000), wk =   0.0277778
        k(   26) = (   0.1612597  -0.4637821   0.0000000), wk =   0.0277778
        k(   27) = (   0.1612415  -0.3710561   0.0000000), wk =   0.0277778
        k(   28) = (   0.1612232  -0.2783302   0.0000000), wk =   0.0277778
        k(   29) = (   0.1612050  -0.1856043   0.0000000), wk =   0.0277778
        k(   30) = (   0.1611868  -0.0928784   0.0000000), wk =   0.0277778
        k(   31) = (   0.1611686  -0.0001524   0.0000000), wk =   0.0277778
        k(   32) = (   0.2417256   0.1388602   0.0000000), wk =   0.0277778
        k(   33) = (   0.2417073   0.2315862   0.0000000), wk =   0.0277778
        k(   34) = (   0.2416891   0.3243121   0.0000000), wk =   0.0277778
        k(   35) = (   0.2416709   0.4170380   0.0000000), wk =   0.0277778
        k(   36) = (   0.2416527   0.5097639   0.0000000), wk =   0.0277778
        k(   37) = (   0.2416345   0.6024899   0.0000000), wk =   0.0277778
        k(   38) = (   0.2418349  -0.4174953   0.0000000), wk =   0.0277778
        k(   39) = (   0.2418166  -0.3247694   0.0000000), wk =   0.0277778
        k(   40) = (   0.2417984  -0.2320435   0.0000000), wk =   0.0277778
        k(   41) = (   0.2417802  -0.1393175   0.0000000), wk =   0.0277778
        k(   42) = (   0.2417620  -0.0465916   0.0000000), wk =   0.0277778
        k(   43) = (   0.2417438   0.0461343   0.0000000), wk =   0.0277778
        k(   44) = (   0.3223007   0.1851470   0.0000000), wk =   0.0277778
        k(   45) = (   0.3222825   0.2778729   0.0000000), wk =   0.0277778
        k(   46) = (   0.3222643   0.3705988   0.0000000), wk =   0.0277778
        k(   47) = (   0.3222461   0.4633248   0.0000000), wk =   0.0277778
        k(   48) = (   0.3222279   0.5560507   0.0000000), wk =   0.0277778
        k(   49) = (   0.3222097   0.6487766   0.0000000), wk =   0.0277778
        k(   50) = (   0.3224100  -0.3712086   0.0000000), wk =   0.0277778
        k(   51) = (   0.3223918  -0.2784827   0.0000000), wk =   0.0277778
        k(   52) = (   0.3223736  -0.1857567   0.0000000), wk =   0.0277778
        k(   53) = (   0.3223554  -0.0930308   0.0000000), wk =   0.0277778
        k(   54) = (   0.3223372  -0.0003049   0.0000000), wk =   0.0277778
        k(   55) = (   0.3223190   0.0924210   0.0000000), wk =   0.0277778
        k(   56) = (   0.4028759   0.2314337   0.0000000), wk =   0.0277778
        k(   57) = (   0.4028577   0.3241596   0.0000000), wk =   0.0277778
        k(   58) = (   0.4028395   0.4168856   0.0000000), wk =   0.0277778
        k(   59) = (   0.4028213   0.5096115   0.0000000), wk =   0.0277778
        k(   60) = (   0.4028031   0.6023374   0.0000000), wk =   0.0277778
        k(   61) = (   0.4027848   0.6950633   0.0000000), wk =   0.0277778
        k(   62) = (   0.4029852  -0.3249218   0.0000000), wk =   0.0277778
        k(   63) = (   0.4029670  -0.2321959   0.0000000), wk =   0.0277778
        k(   64) = (   0.4029488  -0.1394700   0.0000000), wk =   0.0277778
        k(   65) = (   0.4029306  -0.0467441   0.0000000), wk =   0.0277778
        k(   66) = (   0.4029124   0.0459819   0.0000000), wk =   0.0277778
        k(   67) = (   0.4028941   0.1387078   0.0000000), wk =   0.0277778
        k(   68) = (  -0.4834511  -0.2777205   0.0000000), wk =   0.0138889
        k(   69) = (  -0.4834693  -0.1849945   0.0000000), wk =   0.0277778
        k(   70) = (  -0.4834875  -0.0922686   0.0000000), wk =   0.0277778
        k(   71) = (  -0.4835058   0.0004573   0.0000000), wk =   0.0277778
        k(   72) = (  -0.4835240   0.0931832   0.0000000), wk =   0.0277778
        k(   73) = (  -0.4835422   0.1859092   0.0000000), wk =   0.0277778
        k(   74) = (  -0.4833418  -0.8340760   0.0000000), wk =   0.0138889

     Dense  grid:   394609 G-vectors     FFT dimensions: (  45,  45, 450)

     Estimated max dynamical RAM per process >       2.66 GB

     Estimated total dynamical RAM >       5.32 GB
     Cannot read rho : file not found

     Initial potential from superposition of free atoms

     starting charge   57.99842, renormalised to   58.00000

     negative rho (up, down):  9.930E-05 0.000E+00
     Message from routine qexsd_readschema :
     xml data file /scratch/as3359/Ta2C_ct_kpts/Ta2C.save/data-file-schema.xml not fo
     Cannot read wfcs: file not found
     Starting wfcs are   38 randomized atomic wfcs

     total cpu time spent up to now is       25.6 secs

     Self-consistent Calculation

     iteration #  1     ecut=   150.00 Ry     beta= 0.70
     Davidson diagonalization with overlap
     c_bands:  1 eigenvalues not converged
     c_bands:  1 eigenvalues not converged
     c_bands:  1 eigenvalues not converged
     ethr =  1.00E-05,  avg # of iterations = 12.6

     negative rho (up, down):  9.427E-05 0.000E+00

     total cpu time spent up to now is      124.0 secs

     total energy              =   -1372.46532180 Ry
     estimated scf accuracy    <       1.30311259 Ry

     iteration #  2     ecut=   150.00 Ry     beta= 0.70
     Davidson diagonalization with overlap
     ethr =  2.25E-03,  avg # of iterations =  7.7

     total cpu time spent up to now is      184.1 secs

     total energy              =   -1371.67995038 Ry
     estimated scf accuracy    <       9.65758420 Ry

     iteration #  3     ecut=   150.00 Ry     beta= 0.70
     Davidson diagonalization with overlap
     ethr =  2.25E-03,  avg # of iterations =  6.6

     total cpu time spent up to now is      240.8 secs

     total energy              =   -1373.20153936 Ry
     estimated scf accuracy    <       0.19767889 Ry

     iteration #  4     ecut=   150.00 Ry     beta= 0.70
     Davidson diagonalization with overlap
     ethr =  3.41E-04,  avg # of iterations =  8.6

     total cpu time spent up to now is      296.2 secs

     total energy              =   -1373.17559108 Ry
     estimated scf accuracy    <       1.67704942 Ry

     iteration #  5     ecut=   150.00 Ry     beta= 0.70
     Davidson diagonalization with overlap
     ethr =  3.41E-04,  avg # of iterations =  7.5

     total cpu time spent up to now is      348.5 secs

     total energy              =   -1373.24891237 Ry
     estimated scf accuracy    <       0.04197337 Ry

     iteration #  6     ecut=   150.00 Ry     beta= 0.70
     Davidson diagonalization with overlap
     ethr =  7.24E-05,  avg # of iterations =  3.3

     total cpu time spent up to now is      390.3 secs

     total energy              =   -1373.24930537 Ry
     estimated scf accuracy    <       0.01559034 Ry

     iteration #  7     ecut=   150.00 Ry     beta= 0.70
     Davidson diagonalization with overlap
     ethr =  2.69E-05,  avg # of iterations =  5.1

     total cpu time spent up to now is      436.2 secs

     total energy              =   -1373.25112856 Ry
     estimated scf accuracy    <       0.00129498 Ry

     iteration #  8     ecut=   150.00 Ry     beta= 0.70
     Davidson diagonalization with overlap
     c_bands:  1 eigenvalues not converged
     c_bands:  1 eigenvalues not converged
     c_bands:  1 eigenvalues not converged
     ethr =  2.23E-06,  avg # of iterations =  6.6

     negative rho (up, down):  3.967E-04 0.000E+00

     total cpu time spent up to now is      489.6 secs

     total energy              =   -1373.25119839 Ry
     estimated scf accuracy    <       0.00157264 Ry

     iteration #  9     ecut=   150.00 Ry     beta= 0.70
     Davidson diagonalization with overlap
     ethr =  2.23E-06,  avg # of iterations =  3.8

     negative rho (up, down):  6.825E-05 0.000E+00

     total cpu time spent up to now is      532.3 secs

     total energy              =   -1373.25135332 Ry
     estimated scf accuracy    <       0.00042500 Ry

     iteration # 10     ecut=   150.00 Ry     beta= 0.70
     Davidson diagonalization with overlap
     ethr =  7.33E-07,  avg # of iterations =  5.2

     negative rho (up, down):  1.628E-04 0.000E+00

     total cpu time spent up to now is      576.7 secs

     total energy              =   -1373.25136842 Ry
     estimated scf accuracy    <       0.00014907 Ry

     iteration # 11     ecut=   150.00 Ry     beta= 0.70
     Davidson diagonalization with overlap
     ethr =  2.57E-07,  avg # of iterations =  5.9

     negative rho (up, down):  1.008E-04 0.000E+00

     total cpu time spent up to now is      624.4 secs

     total energy              =   -1373.25138657 Ry
     estimated scf accuracy    <       0.00002526 Ry

     iteration # 12     ecut=   150.00 Ry     beta= 0.70
     Davidson diagonalization with overlap
     ethr =  4.35E-08,  avg # of iterations =  3.5

     negative rho (up, down):  1.081E-04 0.000E+00

     total cpu time spent up to now is      666.8 secs

     total energy              =   -1373.25138684 Ry
     estimated scf accuracy    <       0.00001848 Ry

     iteration # 13     ecut=   150.00 Ry     beta= 0.70
     Davidson diagonalization with overlap
     ethr =  3.19E-08,  avg # of iterations =  3.7

     negative rho (up, down):  1.048E-04 0.000E+00

     total cpu time spent up to now is      708.8 secs

     total energy              =   -1373.25138778 Ry
     estimated scf accuracy    <       0.00000398 Ry

     iteration # 14     ecut=   150.00 Ry     beta= 0.70
     Davidson diagonalization with overlap
     ethr =  6.86E-09,  avg # of iterations =  5.2

     negative rho (up, down):  1.046E-04 0.000E+00

     total cpu time spent up to now is      753.8 secs

     total energy              =   -1373.25138814 Ry
     estimated scf accuracy    <       0.00000027 Ry

     iteration # 15     ecut=   150.00 Ry     beta= 0.70
     Davidson diagonalization with overlap
     ethr =  4.74E-10,  avg # of iterations =  7.2

     negative rho (up, down):  1.043E-04 0.000E+00

     total cpu time spent up to now is      806.1 secs

     total energy              =   -1373.25138823 Ry
     estimated scf accuracy    <       0.00000012 Ry

     iteration # 16     ecut=   150.00 Ry     beta= 0.70
     Davidson diagonalization with overlap
     ethr =  2.05E-10,  avg # of iterations =  2.8

     negative rho (up, down):  1.046E-04 0.000E+00

     total cpu time spent up to now is      846.8 secs

     total energy              =   -1373.25138823 Ry
     estimated scf accuracy    <       0.00000004 Ry

     iteration # 17     ecut=   150.00 Ry     beta= 0.70
     Davidson diagonalization with overlap
     ethr =  6.18E-11,  avg # of iterations =  6.6

     negative rho (up, down):  1.044E-04 0.000E+00

     total cpu time spent up to now is      897.0 secs

     total energy              =   -1373.25138824 Ry
     estimated scf accuracy    <       0.00000002 Ry

     iteration # 18     ecut=   150.00 Ry     beta= 0.70
     Davidson diagonalization with overlap
     ethr =  4.17E-11,  avg # of iterations =  1.3

     negative rho (up, down):  1.042E-04 0.000E+00

     total cpu time spent up to now is      934.5 secs

     total energy              =   -1373.25138823 Ry
     estimated scf accuracy    <       0.00000002 Ry

     iteration # 19     ecut=   150.00 Ry     beta= 0.70
     Davidson diagonalization with overlap
     ethr =  3.18E-11,  avg # of iterations =  3.7

     negative rho (up, down):  1.042E-04 0.000E+00

     total cpu time spent up to now is      977.0 secs

     total energy              =   -1373.25138824 Ry
     estimated scf accuracy    <          2.5E-10 Ry

     iteration # 20     ecut=   150.00 Ry     beta= 0.70
     Davidson diagonalization with overlap
     c_bands:  1 eigenvalues not converged
     c_bands:  1 eigenvalues not converged
     c_bands:  1 eigenvalues not converged
     ethr =  4.37E-13,  avg # of iterations = 10.7

     negative rho (up, down):  1.042E-04 0.000E+00

     total cpu time spent up to now is     1043.0 secs

     total energy              =   -1373.25138824 Ry
     estimated scf accuracy    <          7.6E-09 Ry

     iteration # 21     ecut=   150.00 Ry     beta= 0.70
     Davidson diagonalization with overlap
     ethr =  4.37E-13,  avg # of iterations =  7.6

     negative rho (up, down):  1.042E-04 0.000E+00

     total cpu time spent up to now is     1097.9 secs

     total energy              =   -1373.25138824 Ry
     estimated scf accuracy    <          6.0E-10 Ry

     iteration # 22     ecut=   150.00 Ry     beta= 0.70
     Davidson diagonalization with overlap
     ethr =  4.37E-13,  avg # of iterations =  2.5

     negative rho (up, down):  1.042E-04 0.000E+00

     total cpu time spent up to now is     1138.3 secs

     total energy              =   -1373.25138824 Ry
     estimated scf accuracy    <          2.7E-10 Ry

     iteration # 23     ecut=   150.00 Ry     beta= 0.70
     Davidson diagonalization with overlap
     ethr =  4.37E-13,  avg # of iterations =  4.4

     negative rho (up, down):  1.042E-04 0.000E+00

     total cpu time spent up to now is     1181.6 secs

     total energy              =   -1373.25138824 Ry
     estimated scf accuracy    <          2.9E-12 Ry

     iteration # 24     ecut=   150.00 Ry     beta= 0.70
     Davidson diagonalization with overlap
     ethr =  1.00E-13,  avg # of iterations =  5.6

     negative rho (up, down):  1.042E-04 0.000E+00

     total cpu time spent up to now is     1229.4 secs

     total energy              =   -1373.25138824 Ry
     estimated scf accuracy    <          4.7E-11 Ry

     iteration # 25     ecut=   150.00 Ry     beta= 0.70
     Davidson diagonalization with overlap
     ethr =  1.00E-13,  avg # of iterations =  1.1

     negative rho (up, down):  1.042E-04 0.000E+00

     total cpu time spent up to now is     1266.1 secs

     total energy              =   -1373.25138824 Ry
     estimated scf accuracy    <          3.3E-11 Ry

     iteration # 26     ecut=   150.00 Ry     beta= 0.70
     Davidson diagonalization with overlap
     ethr =  1.00E-13,  avg # of iterations =  1.1

     negative rho (up, down):  1.042E-04 0.000E+00

     total cpu time spent up to now is     1303.0 secs

     total energy              =   -1373.25138824 Ry
     estimated scf accuracy    <          2.1E-11 Ry

     iteration # 27     ecut=   150.00 Ry     beta= 0.70
     Davidson diagonalization with overlap
     ethr =  1.00E-13,  avg # of iterations =  1.9

     negative rho (up, down):  1.042E-04 0.000E+00

     total cpu time spent up to now is     1341.4 secs

     total energy              =   -1373.25138824 Ry
     estimated scf accuracy    <          5.7E-12 Ry

     iteration # 28     ecut=   150.00 Ry     beta= 0.70
     Davidson diagonalization with overlap
     ethr =  1.00E-13,  avg # of iterations =  1.4

     negative rho (up, down):  1.042E-04 0.000E+00

     total cpu time spent up to now is     1378.7 secs

     End of self-consistent calculation

          k = 0.0000 0.0000 0.0000 ( 49405 PWs)   bands (ev):

   -68.2902 -68.2426 -35.3159 -34.7122 -34.4041 -34.3991 -34.3391 -34.3327
   -19.9458 -19.9321 -19.9068 -19.9063 -19.9009 -19.9005 -19.8742 -19.8736
   -19.8664 -19.8663 -19.8592 -19.8538 -19.7927 -19.7912 -13.2786  -7.6694
    -4.3942  -4.3509  -1.9294  -0.8994  -0.7267

          k =-0.0000 0.0927 0.0000 ( 49347 PWs)   bands (ev):

   -68.2864 -68.2402 -35.3032 -34.7174 -34.4511 -34.4154 -34.3830 -34.3389
   -19.9443 -19.9311 -19.9083 -19.9067 -19.9012 -19.8994 -19.8758 -19.8733
   -19.8667 -19.8657 -19.8563 -19.8512 -19.7955 -19.7941 -13.1647  -7.4493
    -4.7176  -4.3166  -1.8345  -1.0831  -0.5376

          k =-0.0000 0.1855 0.0000 ( 49275 PWs)   bands (ev):

   -68.2758 -68.2337 -35.2690 -34.7452 -34.5655 -34.5001 -34.4567 -34.3581
   -19.9403 -19.9286 -19.9120 -19.9077 -19.9022 -19.8969 -19.8794 -19.8723
   -19.8677 -19.8638 -19.8486 -19.8439 -19.8029 -19.8018 -12.8643  -6.8678
    -5.3780  -4.2538  -1.8299  -1.4640  -0.9838

          k =-0.0001 0.2782 0.0000 ( 49249 PWs)   bands (ev):

   -68.2609 -68.2252 -35.2254 -34.8489 -34.6623 -34.6418 -34.5095 -34.3872
   -19.9358 -19.9253 -19.9163 -19.9091 -19.9039 -19.8947 -19.8832 -19.8703
   -19.8687 -19.8608 -19.8380 -19.8339 -19.8128 -19.8116 -12.4843  -6.4531
    -5.6913  -4.2425  -2.4629  -1.5269  -1.0284

          k =-0.0001 0.3709 0.0000 ( 49256 PWs)   bands (ev):

   -68.2453 -68.2175 -35.1953 -35.0054 -34.7791 -34.6876 -34.5599 -34.4180
   -19.9335 -19.9211 -19.9194 -19.9107 -19.9066 -19.8938 -19.8854 -19.8695
   -19.8677 -19.8576 -19.8271 -19.8239 -19.8225 -19.8202 -12.1486  -6.8401
    -5.2235  -4.3021  -3.0997  -1.1911  -0.6684

          k =-0.0001 0.4636 0.0000 ( 49258 PWs)   bands (ev):

   -68.2328 -68.2127 -35.1994 -35.1239 -34.8378 -34.7122 -34.5958 -34.4412
   -19.9336 -19.9205 -19.9179 -19.9120 -19.9089 -19.8941 -19.8858 -19.8700
   -19.8654 -19.8549 -19.8294 -19.8259 -19.8188 -19.8166 -11.9372  -7.1610
    -5.0005  -4.3783  -3.4992  -0.4173  -0.1612

          k = 0.0001-0.5564 0.0000 ( 49320 PWs)   bands (ev):

   -68.2278 -68.2114 -35.2130 -35.1640 -34.8471 -34.7234 -34.6088 -34.4498
   -19.9339 -19.9204 -19.9174 -19.9125 -19.9096 -19.8943 -19.8857 -19.8702
   -19.8645 -19.8539 -19.8319 -19.8279 -19.8156 -19.8140 -11.8680  -7.2710
    -4.9680  -4.4112  -3.6325   0.0684   0.0977

          k = 0.0806 0.0463 0.0000 ( 49328 PWs)   bands (ev):

   -68.2864 -68.2401 -35.3031 -34.7173 -34.4490 -34.4183 -34.3798 -34.3426
   -19.9443 -19.9311 -19.9081 -19.9069 -19.9010 -19.8995 -19.8755 -19.8736
   -19.8668 -19.8657 -19.8563 -19.8511 -19.7955 -19.7941 -13.1641  -7.4484
    -4.6959  -4.3417  -1.8329  -1.0815  -0.5381

          k = 0.0806 0.1390 0.0000 ( 49268 PWs)   bands (ev):

   -68.2792 -68.2357 -35.2796 -34.7324 -34.5210 -34.4924 -34.4178 -34.3621
   -19.9414 -19.9294 -19.9104 -19.9082 -19.9013 -19.8978 -19.8782 -19.8728
   -19.8672 -19.8646 -19.8510 -19.8462 -19.8006 -19.7995 -12.9570  -7.0391
    -5.1728  -4.3249  -1.7349  -1.2934  -0.9137

          k = 0.0805 0.2317 0.0000 ( 49206 PWs)   bands (ev):

   -68.2664 -68.2282 -35.2402 -34.7908 -34.6306 -34.6061 -34.4760 -34.3943
   -19.9368 -19.9267 -19.9141 -19.9101 -19.9021 -19.8957 -19.8819 -19.8717
   -19.8674 -19.8626 -19.8419 -19.8375 -19.8092 -19.8084 -12.6163  -6.3886
    -5.7340  -4.4049  -1.9818  -1.4636  -1.1263

          k = 0.0805 0.3245 0.0000 ( 49253 PWs)   bands (ev):

   -68.2511 -68.2202 -35.2013 -34.9242 -34.7434 -34.6737 -34.5418 -34.4289
   -19.9329 -19.9233 -19.9177 -19.9118 -19.9040 -19.8944 -19.8849 -19.8706
   -19.8669 -19.8598 -19.8312 -19.8276 -19.8191 -19.8178 -12.2587  -6.5050
    -5.4356  -4.5291  -2.6324  -1.1756  -1.0480

          k = 0.0805 0.4172 0.0000 ( 49269 PWs)   bands (ev):

   -68.2369 -68.2141 -35.1860 -35.0618 -34.8191 -34.7119 -34.5927 -34.4594
   -19.9318 -19.9199 -19.9192 -19.9126 -19.9069 -19.8944 -19.8861 -19.8699
   -19.8658 -19.8569 -19.8276 -19.8252 -19.8214 -19.8189 -11.9877  -6.9067
    -5.0202  -4.6234  -3.0770  -0.7193  -0.5737

          k = 0.0805 0.5099 0.0000 ( 49343 PWs)   bands (ev):

   -68.2278 -68.2114 -35.1953 -35.1416 -34.8390 -34.7392 -34.6192 -34.4774
   -19.9322 -19.9202 -19.9171 -19.9125 -19.9091 -19.8948 -19.8862 -19.8697
   -19.8650 -19.8550 -19.8324 -19.8290 -19.8157 -19.8140 -11.8506  -7.1221
    -4.9160  -4.6869  -3.2860  -0.1423  -0.0722

          k = 0.0807-0.5101 0.0000 ( 49339 PWs)   bands (ev):

   -68.2278 -68.2114 -35.1955 -35.1417 -34.8393 -34.7391 -34.6191 -34.4774
   -19.9322 -19.9202 -19.9171 -19.9125 -19.9091 -19.8948 -19.8862 -19.8697
   -19.8649 -19.8550 -19.8324 -19.8290 -19.8156 -19.8140 -11.8504  -7.1225
    -4.9166  -4.6860  -3.2872  -0.1422  -0.0728

          k = 0.0807-0.4173 0.0000 ( 49281 PWs)   bands (ev):

   -68.2368 -68.2140 -35.1862 -35.0624 -34.8198 -34.7117 -34.5925 -34.4594
   -19.9318 -19.9199 -19.9192 -19.9126 -19.9069 -19.8944 -19.8861 -19.8700
   -19.8657 -19.8569 -19.8277 -19.8252 -19.8214 -19.8188 -11.9872  -6.9078
    -5.0202  -4.6229  -3.0801  -0.7171  -0.5759

          k = 0.0806-0.3246 0.0000 ( 49259 PWs)   bands (ev):

   -68.2510 -68.2201 -35.2013 -34.9249 -34.7441 -34.6738 -34.5418 -34.4289
   -19.9329 -19.9233 -19.9177 -19.9117 -19.9040 -19.8945 -19.8849 -19.8706
   -19.8668 -19.8597 -19.8311 -19.8275 -19.8192 -19.8178 -12.2578  -6.5060
    -5.4350  -4.5292  -2.6356  -1.1749  -1.0475

          k = 0.0806-0.2319 0.0000 ( 49227 PWs)   bands (ev):

   -68.2663 -68.2282 -35.2400 -34.7911 -34.6309 -34.6064 -34.4766 -34.3947
   -19.9368 -19.9268 -19.9141 -19.9101 -19.9021 -19.8958 -19.8819 -19.8717
   -19.8673 -19.8625 -19.8419 -19.8375 -19.8093 -19.8084 -12.6154  -6.3873
    -5.7336  -4.4064  -1.9833  -1.4624  -1.1260

          k = 0.0806-0.1392 0.0000 ( 49267 PWs)   bands (ev):

   -68.2791 -68.2357 -35.2795 -34.7323 -34.5206 -34.4921 -34.4187 -34.3633
   -19.9414 -19.9294 -19.9103 -19.9083 -19.9012 -19.8980 -19.8781 -19.8729
   -19.8671 -19.8646 -19.8510 -19.8461 -19.8007 -19.7995 -12.9563  -7.0378
    -5.1676  -4.3318  -1.7338  -1.2917  -0.9092

          k = 0.0806-0.0464 0.0000 ( 49336 PWs)   bands (ev):

   -68.2863 -68.2401 -35.3031 -34.7172 -34.4475 -34.4201 -34.3782 -34.3444
   -19.9443 -19.9311 -19.9079 -19.9071 -19.9008 -19.8997 -19.8753 -19.8737
   -19.8667 -19.8657 -19.8563 -19.8511 -19.7956 -19.7942 -13.1638  -7.4479
    -4.6864  -4.3525  -1.8321  -1.0805  -0.5357

          k = 0.1612 0.0926 0.0000 ( 49259 PWs)   bands (ev):

   -68.2756 -68.2336 -35.2685 -34.7448 -34.5646 -34.4976 -34.4604 -34.3622
   -19.9402 -19.9287 -19.9119 -19.9080 -19.9020 -19.8971 -19.8791 -19.8725
   -19.8677 -19.8637 -19.8485 -19.8438 -19.8031 -19.8020 -12.8622  -6.8645
    -5.3615  -4.2803  -1.8200  -1.4635  -0.9781

          k = 0.1611 0.1853 0.0000 ( 49224 PWs)   bands (ev):

   -68.2663 -68.2282 -35.2398 -34.7901 -34.6312 -34.6050 -34.4775 -34.3971
   -19.9368 -19.9267 -19.9140 -19.9103 -19.9020 -19.8958 -19.8818 -19.8718
   -19.8674 -19.8625 -19.8418 -19.8375 -19.8093 -19.8085 -12.6149  -6.3858
    -5.7266  -4.4196  -1.9703  -1.4673  -1.1314

          k = 0.1611 0.2780 0.0000 ( 49224 PWs)   bands (ev):

   -68.2531 -68.2211 -35.2036 -34.8737 -34.7496 -34.6594 -34.5235 -34.4581
   -19.9318 -19.9246 -19.9157 -19.9139 -19.9024 -19.8951 -19.8846 -19.8714
   -19.8653 -19.8616 -19.8326 -19.8289 -19.8178 -19.8174 -12.2961  -6.1397
    -5.6825  -4.7643  -2.1271  -1.6200  -0.5747

          k = 0.1611 0.3708 0.0000 ( 49269 PWs)   bands (ev):

   -68.2390 -68.2149 -35.1756 -34.9814 -34.8308 -34.7012 -34.5913 -34.5100
   -19.9281 -19.9223 -19.9175 -19.9148 -19.9042 -19.8953 -19.8866 -19.8706
   -19.8638 -19.8601 -19.8269 -19.8261 -19.8227 -19.8201 -12.0058  -6.4837
    -5.1406  -4.9849  -2.3891  -1.2984  -0.6047

          k = 0.1611 0.4635 0.0000 ( 49312 PWs)   bands (ev):

   -68.2276 -68.2113 -35.1631 -35.0757 -34.8458 -34.7586 -34.6355 -34.5448
   -19.9280 -19.9201 -19.9173 -19.9133 -19.9072 -19.8960 -19.8874 -19.8692
   -19.8646 -19.8579 -19.8334 -19.8314 -19.8158 -19.8140 -11.8151  -6.7420
    -5.1824  -4.7891  -2.5621  -0.6835  -0.4811

          k = 0.1611 0.5562 0.0000 ( 49338 PWs)   bands (ev):

   -68.2228 -68.2107 -35.1558 -35.1180 -34.8189 -34.8109 -34.6471 -34.5578
   -19.9284 -19.9199 -19.9159 -19.9123 -19.9090 -19.8965 -19.8876 -19.8682
   -19.8655 -19.8569 -19.8358 -19.8334 -19.8130 -19.8118 -11.7503  -6.8371
    -5.2112  -4.7417  -2.6303  -0.3329  -0.2772

          k = 0.1613-0.4638 0.0000 ( 49328 PWs)   bands (ev):

   -68.2275 -68.2113 -35.1636 -35.0765 -34.8466 -34.7583 -34.6353 -34.5447
   -19.9280 -19.9201 -19.9173 -19.9133 -19.9072 -19.8961 -19.8874 -19.8693
   -19.8644 -19.8578 -19.8334 -19.8315 -19.8157 -19.8139 -11.8145  -6.7436
    -5.1827  -4.7893  -2.5643  -0.6876  -0.4804

          k = 0.1612-0.3711 0.0000 ( 49259 PWs)   bands (ev):

   -68.2389 -68.2147 -35.1759 -34.9827 -34.8316 -34.7014 -34.5912 -34.5100
   -19.9281 -19.9223 -19.9176 -19.9148 -19.9042 -19.8954 -19.8866 -19.8706
   -19.8637 -19.8600 -19.8270 -19.8261 -19.8226 -19.8200 -12.0045  -6.4860
    -5.1400  -4.9855  -2.3932  -1.3013  -0.6031

          k = 0.1612-0.2783 0.0000 ( 49236 PWs)   bands (ev):

   -68.2529 -68.2210 -35.2035 -34.8744 -34.7505 -34.6597 -34.5242 -34.4588
   -19.9318 -19.9246 -19.9156 -19.9139 -19.9023 -19.8953 -19.8846 -19.8714
   -19.8653 -19.8615 -19.8325 -19.8288 -19.8179 -19.8175 -12.2945  -6.1402
    -5.6805  -4.7670  -2.1301  -1.6201  -0.5746

          k = 0.1612-0.1856 0.0000 ( 49220 PWs)   bands (ev):

   -68.2661 -68.2280 -35.2396 -34.7898 -34.6313 -34.6051 -34.4789 -34.3988
   -19.9368 -19.9268 -19.9138 -19.9104 -19.9019 -19.8960 -19.8817 -19.8718
   -19.8674 -19.8625 -19.8418 -19.8374 -19.8094 -19.8086 -12.6133  -6.3832
    -5.7227  -4.4270  -1.9668  -1.4679  -1.1326

          k = 0.1612-0.0929 0.0000 ( 49255 PWs)   bands (ev):

   -68.2755 -68.2335 -35.2683 -34.7444 -34.5639 -34.4965 -34.4625 -34.3642
   -19.9402 -19.9287 -19.9117 -19.9082 -19.9018 -19.8972 -19.8790 -19.8726
   -19.8677 -19.8638 -19.8485 -19.8438 -19.8031 -19.8020 -12.8611  -6.8627
    -5.3545  -4.2906  -1.8155  -1.4630  -0.9756

          k = 0.1612-0.0002 0.0000 ( 49247 PWs)   bands (ev):

   -68.2790 -68.2356 -35.2792 -34.7323 -34.5203 -34.4913 -34.4199 -34.3663
   -19.9414 -19.9294 -19.9102 -19.9084 -19.9012 -19.8981 -19.8778 -19.8732
   -19.8672 -19.8645 -19.8509 -19.8461 -19.8008 -19.7996 -12.9547  -7.0356
    -5.1540  -4.3512  -1.7318  -1.2881  -0.8977

          k = 0.2417 0.1389 0.0000 ( 49273 PWs)   bands (ev):

   -68.2605 -68.2250 -35.2246 -34.8482 -34.6634 -34.6399 -34.5142 -34.3919
   -19.9357 -19.9253 -19.9162 -19.9094 -19.9037 -19.8949 -19.8830 -19.8705
   -19.8688 -19.8608 -19.8378 -19.8337 -19.8130 -19.8118 -12.4805  -6.4457
    -5.6830  -4.2710  -2.4520  -1.5295  -1.0280

          k = 0.2417 0.2316 0.0000 ( 49254 PWs)   bands (ev):

   -68.2507 -68.2200 -35.2007 -34.9231 -34.7436 -34.6732 -34.5459 -34.4330
   -19.9328 -19.9232 -19.9176 -19.9119 -19.9039 -19.8946 -19.8848 -19.8706
   -19.8670 -19.8597 -19.8310 -19.8274 -19.8193 -19.8180 -12.2557  -6.4975
    -5.4334  -4.5503  -2.6230  -1.1765  -1.0530

          k = 0.2417 0.3243 0.0000 ( 49269 PWs)   bands (ev):

   -68.2388 -68.2147 -35.1754 -34.9805 -34.8315 -34.7006 -34.5937 -34.5120
   -19.9281 -19.9222 -19.9174 -19.9149 -19.9042 -19.8954 -19.8866 -19.8706
   -19.8639 -19.8600 -19.8270 -19.8261 -19.8226 -19.8200 -12.0042  -6.4793
    -5.1501  -4.9871  -2.3862  -1.2954  -0.6102

          k = 0.2417 0.4170 0.0000 ( 49283 PWs)   bands (ev):

   -68.2274 -68.2113 -35.1486 -35.0138 -34.8962 -34.7332 -34.6491 -34.5905
   -19.9236 -19.9226 -19.9161 -19.9148 -19.9057 -19.8970 -19.8881 -19.8693
   -19.8623 -19.8610 -19.8336 -19.8330 -19.8157 -19.8139 -11.7964  -6.4456
    -5.5095  -4.7231  -1.8247  -1.3891  -0.6823

          k = 0.2417 0.5098 0.0000 ( 49330 PWs)   bands (ev):

   -68.2193 -68.2107 -35.1101 -35.0541 -34.9152 -34.7810 -34.6700 -34.6385
   -19.9248 -19.9192 -19.9156 -19.9120 -19.9080 -19.8983 -19.8891 -19.8672
   -19.8647 -19.8599 -19.8378 -19.8369 -19.8115 -19.8105 -11.6811  -6.4527
    -5.6950  -4.5639  -1.7428  -0.8863  -0.6469

          k = 0.2416 0.6025 0.0000 ( 49320 PWs)   bands (ev):

   -68.2192 -68.2106 -35.1105 -35.0547 -34.9153 -34.7811 -34.6699 -34.6385
   -19.9248 -19.9192 -19.9156 -19.9120 -19.9080 -19.8984 -19.8891 -19.8673
   -19.8646 -19.8599 -19.8379 -19.8369 -19.8114 -19.8105 -11.6807  -6.4539
    -5.6953  -4.5646  -1.7429  -0.8930  -0.6433

          k = 0.2418-0.4175 0.0000 ( 49301 PWs)   bands (ev):

   -68.2272 -68.2111 -35.1491 -35.0152 -34.8967 -34.7336 -34.6492 -34.5907
   -19.9236 -19.9227 -19.9162 -19.9148 -19.9057 -19.8971 -19.8880 -19.8694
   -19.8622 -19.8609 -19.8336 -19.8331 -19.8156 -19.8138 -11.7951  -6.4478
    -5.5114  -4.7239  -1.8280  -1.3933  -0.6805

          k = 0.2418-0.3248 0.0000 ( 49279 PWs)   bands (ev):

   -68.2386 -68.2146 -35.1755 -34.9814 -34.8327 -34.7007 -34.5947 -34.5132
   -19.9281 -19.9222 -19.9174 -19.9150 -19.9041 -19.8956 -19.8865 -19.8706
   -19.8638 -19.8599 -19.8271 -19.8263 -19.8225 -19.8199 -12.0023  -6.4799
    -5.1525  -4.9883  -2.3898  -1.2965  -0.6105

          k = 0.2418-0.2320 0.0000 ( 49258 PWs)   bands (ev):

   -68.2505 -68.2198 -35.2004 -34.9231 -34.7444 -34.6732 -34.5478 -34.4351
   -19.9329 -19.9232 -19.9175 -19.9121 -19.9038 -19.8948 -19.8847 -19.8706
   -19.8669 -19.8597 -19.8309 -19.8273 -19.8194 -19.8182 -12.2535  -6.4954
    -5.4300  -4.5588  -2.6229  -1.1761  -1.0539

          k = 0.2418-0.1393 0.0000 ( 49301 PWs)   bands (ev):

   -68.2604 -68.2248 -35.2243 -34.8475 -34.6636 -34.6392 -34.5167 -34.3942
   -19.9357 -19.9253 -19.9161 -19.9096 -19.9035 -19.8950 -19.8829 -19.8705
   -19.8687 -19.8608 -19.8377 -19.8336 -19.8132 -19.8120 -12.4787  -6.4425
    -5.6782  -4.2818  -2.4478  -1.5304  -1.0277

          k = 0.2418-0.0466 0.0000 ( 49242 PWs)   bands (ev):

   -68.2659 -68.2279 -35.2392 -34.7909 -34.6314 -34.6061 -34.4797 -34.3998
   -19.9368 -19.9268 -19.9139 -19.9105 -19.9019 -19.8960 -19.8815 -19.8720
   -19.8674 -19.8624 -19.8417 -19.8373 -19.8095 -19.8087 -12.6112  -6.3812
    -5.7214  -4.4332  -1.9698  -1.4658  -1.1317

          k = 0.2417 0.0461 0.0000 ( 49242 PWs)   bands (ev):

   -68.2660 -68.2280 -35.2393 -34.7914 -34.6314 -34.6063 -34.4789 -34.3984
   -19.9367 -19.9268 -19.9140 -19.9103 -19.9020 -19.8959 -19.8816 -19.8720
   -19.8674 -19.8624 -19.8417 -19.8374 -19.8095 -19.8086 -12.6118  -6.3825
    -5.7249  -4.4274  -1.9748  -1.4640  -1.1301

          k = 0.3223 0.1851 0.0000 ( 49284 PWs)   bands (ev):

   -68.2446 -68.2171 -35.1947 -35.0054 -34.7785 -34.6883 -34.5655 -34.4234
   -19.9335 -19.9210 -19.9193 -19.9109 -19.9064 -19.8941 -19.8852 -19.8696
   -19.8677 -19.8575 -19.8268 -19.8236 -19.8228 -19.8206 -12.1435  -6.8343
    -5.2222  -4.3330  -3.0922  -1.1885  -0.6647

          k = 0.3223 0.2779 0.0000 ( 49305 PWs)   bands (ev):

   -68.2363 -68.2138 -35.1858 -35.0615 -34.8179 -34.7131 -34.5979 -34.4644
   -19.9318 -19.9198 -19.9190 -19.9127 -19.9068 -19.8946 -19.8861 -19.8699
   -19.8659 -19.8568 -19.8280 -19.8255 -19.8212 -19.8186 -11.9835  -6.9017
    -5.0228  -4.6490  -3.0713  -0.7160  -0.5666

          k = 0.3223 0.3706 0.0000 ( 49309 PWs)   bands (ev):

   -68.2271 -68.2112 -35.1633 -35.0753 -34.8460 -34.7587 -34.6391 -34.5478
   -19.9281 -19.9201 -19.9171 -19.9134 -19.9071 -19.8962 -19.8874 -19.8692
   -19.8647 -19.8577 -19.8336 -19.8316 -19.8156 -19.8138 -11.8122  -6.7392
    -5.1971  -4.7949  -2.5658  -0.6710  -0.4727

          k = 0.3222 0.4633 0.0000 ( 49320 PWs)   bands (ev):

   -68.2189 -68.2107 -35.1107 -35.0540 -34.9164 -34.7799 -34.6725 -34.6388
   -19.9249 -19.9192 -19.9154 -19.9121 -19.9080 -19.8984 -19.8890 -19.8672
   -19.8648 -19.8598 -19.8379 -19.8369 -19.8114 -19.8105 -11.6796  -6.4521
    -5.7016  -4.5679  -1.7583  -0.8676  -0.6401

          k = 0.3222 0.5561 0.0000 ( 49295 PWs)   bands (ev):

   -68.2134 -68.2129 -35.0389 -35.0369 -35.0020 -34.7810 -34.6847 -34.6822
   -19.9243 -19.9166 -19.9164 -19.9096 -19.9094 -19.8997 -19.8899 -19.8656
   -19.8653 -19.8612 -19.8394 -19.8392 -19.8096 -19.8094 -11.6292  -6.1119
    -6.1107  -4.4611  -1.0920  -0.9612  -0.9497

          k = 0.3222 0.6488 0.0000 ( 49338 PWs)   bands (ev):

   -68.2188 -68.2106 -35.1112 -35.0544 -34.9171 -34.7800 -34.6730 -34.6392
   -19.9248 -19.9193 -19.9155 -19.9121 -19.9079 -19.8985 -19.8890 -19.8673
   -19.8647 -19.8597 -19.8380 -19.8370 -19.8113 -19.8104 -11.6786  -6.4526
    -5.7049  -4.5696  -1.7656  -0.8654  -0.6340

          k = 0.3224-0.3712 0.0000 ( 49334 PWs)   bands (ev):

   -68.2268 -68.2110 -35.1637 -35.0758 -34.8470 -34.7586 -34.6404 -34.5493
   -19.9281 -19.9201 -19.9171 -19.9135 -19.9071 -19.8964 -19.8873 -19.8692
   -19.8645 -19.8576 -19.8337 -19.8318 -19.8154 -19.8137 -11.8104  -6.7393
    -5.2035  -4.7957  -2.5703  -0.6688  -0.4688

          k = 0.3224-0.2785 0.0000 ( 49317 PWs)   bands (ev):

   -68.2360 -68.2136 -35.1858 -35.0617 -34.8184 -34.7132 -34.6003 -34.4668
   -19.9319 -19.9197 -19.9190 -19.9129 -19.9067 -19.8948 -19.8860 -19.8700
   -19.8657 -19.8567 -19.8281 -19.8257 -19.8210 -19.8185 -11.9812  -6.9004
    -5.0216  -4.6584  -3.0729  -0.7125  -0.5650

          k = 0.3224-0.1858 0.0000 ( 49292 PWs)   bands (ev):

   -68.2444 -68.2169 -35.1944 -35.0051 -34.7784 -34.6884 -34.5684 -34.4261
   -19.9335 -19.9210 -19.9192 -19.9112 -19.9062 -19.8942 -19.8851 -19.8696
   -19.8677 -19.8574 -19.8267 -19.8235 -19.8230 -19.8208 -12.1413  -6.8316
    -5.2193  -4.3449  -3.0900  -1.1875  -0.6626

          k = 0.3224-0.0930 0.0000 ( 49279 PWs)   bands (ev):

   -68.2503 -68.2197 -35.2004 -34.9252 -34.7457 -34.6735 -34.5473 -34.4352
   -19.9328 -19.9233 -19.9176 -19.9121 -19.9038 -19.8948 -19.8846 -19.8708
   -19.8668 -19.8596 -19.8308 -19.8272 -19.8195 -19.8182 -12.2514  -6.4988
    -5.4286  -4.5608  -2.6304  -1.1755  -1.0511

          k = 0.3223-0.0003 0.0000 ( 49271 PWs)   bands (ev):

   -68.2525 -68.2208 -35.2031 -34.8772 -34.7517 -34.6604 -34.5250 -34.4606
   -19.9318 -19.9247 -19.9156 -19.9140 -19.9023 -19.8953 -19.8844 -19.8716
   -19.8653 -19.8613 -19.8323 -19.8286 -19.8181 -19.8177 -12.2904  -6.1425
    -5.6769  -4.7770  -2.1351  -1.6225  -0.5775

          k = 0.3223 0.0924 0.0000 ( 49284 PWs)   bands (ev):

   -68.2505 -68.2198 -35.2006 -34.9259 -34.7456 -34.6737 -34.5454 -34.4332
   -19.9328 -19.9233 -19.9177 -19.9119 -19.9039 -19.8946 -19.8847 -19.8708
   -19.8668 -19.8596 -19.8309 -19.8273 -19.8195 -19.8181 -12.2527  -6.5018
    -5.4314  -4.5524  -2.6337  -1.1753  -1.0497

          k = 0.4029 0.2314 0.0000 ( 49275 PWs)   bands (ev):

   -68.2320 -68.2124 -35.2001 -35.1242 -34.8359 -34.7139 -34.6020 -34.4471
   -19.9336 -19.9204 -19.9177 -19.9122 -19.9089 -19.8944 -19.8857 -19.8701
   -19.8653 -19.8548 -19.8298 -19.8263 -19.8184 -19.8163 -11.9315  -7.1580
    -5.0065  -4.4111  -3.4928  -0.4064  -0.1513

          k = 0.4029 0.3242 0.0000 ( 49341 PWs)   bands (ev):

   -68.2269 -68.2112 -35.1964 -35.1416 -34.8364 -34.7418 -34.6246 -34.4827
   -19.9323 -19.9201 -19.9169 -19.9127 -19.9091 -19.8951 -19.8862 -19.8698
   -19.8649 -19.8548 -19.8328 -19.8294 -19.8153 -19.8137 -11.8455  -7.1200
    -4.9231  -4.7133  -3.2855  -0.1289  -0.0589

          k = 0.4028 0.4169 0.0000 ( 49349 PWs)   bands (ev):

   -68.2220 -68.2105 -35.1576 -35.1181 -34.8169 -34.8134 -34.6507 -34.5611
   -19.9286 -19.9198 -19.9157 -19.9124 -19.9090 -19.8967 -19.8875 -19.8683
   -19.8654 -19.8567 -19.8361 -19.8336 -19.8127 -19.8116 -11.7462  -6.8376
    -5.2272  -4.7500  -2.6392  -0.3207  -0.2604

          k = 0.4028 0.5096 0.0000 ( 49347 PWs)   bands (ev):

   -68.2186 -68.2106 -35.1122 -35.0563 -34.9160 -34.7802 -34.6712 -34.6398
   -19.9249 -19.9192 -19.9156 -19.9120 -19.9080 -19.8985 -19.8890 -19.8675
   -19.8645 -19.8597 -19.8380 -19.8370 -19.8113 -19.8104 -11.6778  -6.4579
    -5.7018  -4.5711  -1.7592  -0.8891  -0.6278

          k = 0.4028 0.6023 0.0000 ( 49330 PWs)   bands (ev):

   -68.2185 -68.2106 -35.1123 -35.0562 -34.9166 -34.7802 -34.6719 -34.6402
   -19.9249 -19.9193 -19.9155 -19.9121 -19.9079 -19.8986 -19.8889 -19.8675
   -19.8646 -19.8596 -19.8381 -19.8371 -19.8112 -19.8103 -11.6773  -6.4572
    -5.7048  -4.5720  -1.7664  -0.8803  -0.6252

          k = 0.4028 0.6951 0.0000 ( 49340 PWs)   bands (ev):

   -68.2217 -68.2104 -35.1580 -35.1181 -34.8166 -34.8147 -34.6520 -34.5628
   -19.9286 -19.9199 -19.9156 -19.9126 -19.9088 -19.8969 -19.8874 -19.8684
   -19.8653 -19.8566 -19.8362 -19.8338 -19.8126 -19.8114 -11.7447  -6.8369
    -5.2338  -4.7517  -2.6437  -0.3141  -0.2539

          k = 0.4030-0.3249 0.0000 ( 49333 PWs)   bands (ev):

   -68.2266 -68.2109 -35.1968 -35.1417 -34.8361 -34.7424 -34.6271 -34.4854
   -19.9323 -19.9201 -19.9168 -19.9129 -19.9090 -19.8953 -19.8860 -19.8698
   -19.8648 -19.8547 -19.8330 -19.8296 -19.8151 -19.8135 -11.8433  -7.1188
    -4.9242  -4.7229  -3.2875  -0.1228  -0.0529

          k = 0.4030-0.2322 0.0000 ( 49276 PWs)   bands (ev):

   -68.2316 -68.2122 -35.2002 -35.1242 -34.8355 -34.7141 -34.6052 -34.4501
   -19.9336 -19.9203 -19.9176 -19.9125 -19.9087 -19.8946 -19.8856 -19.8701
   -19.8653 -19.8547 -19.8300 -19.8266 -19.8182 -19.8161 -11.9292  -7.1560
    -5.0062  -4.4239  -3.4915  -0.4016  -0.1461

          k = 0.4029-0.1395 0.0000 ( 49338 PWs)   bands (ev):

   -68.2358 -68.2135 -35.1864 -35.0632 -34.8198 -34.7127 -34.5997 -34.4667
   -19.9319 -19.9197 -19.9191 -19.9130 -19.9067 -19.8948 -19.8859 -19.8702
   -19.8655 -19.8567 -19.8282 -19.8258 -19.8209 -19.8184 -11.9796  -6.9039
    -5.0227  -4.6564  -3.0806  -0.7077  -0.5694

          k = 0.4029-0.0467 0.0000 ( 49288 PWs)   bands (ev):

   -68.2382 -68.2144 -35.1761 -34.9852 -34.8338 -34.7011 -34.5940 -34.5136
   -19.9281 -19.9223 -19.9175 -19.9150 -19.9041 -19.8957 -19.8864 -19.8708
   -19.8636 -19.8598 -19.8273 -19.8264 -19.8224 -19.8197 -11.9988  -6.4876
    -5.1478  -4.9952  -2.3996  -1.3038  -0.6019

          k = 0.4029 0.0460 0.0000 ( 49264 PWs)   bands (ev):

   -68.2383 -68.2145 -35.1762 -34.9857 -34.8335 -34.7013 -34.5930 -34.5125
   -19.9281 -19.9223 -19.9176 -19.9149 -19.9042 -19.8956 -19.8865 -19.8708
   -19.8636 -19.8599 -19.8272 -19.8263 -19.8224 -19.8198 -11.9995  -6.4894
    -5.1448  -4.9946  -2.4001  -1.3057  -0.6000

          k = 0.4029 0.1387 0.0000 ( 49320 PWs)   bands (ev):

   -68.2360 -68.2137 -35.1866 -35.0636 -34.8200 -34.7124 -34.5972 -34.4642
   -19.9318 -19.9198 -19.9191 -19.9128 -19.9068 -19.8947 -19.8860 -19.8702
   -19.8655 -19.8567 -19.8280 -19.8256 -19.8210 -19.8185 -11.9814  -6.9063
    -5.0238  -4.6464  -3.0820  -0.7090  -0.5732

          k =-0.4835-0.2777 0.0000 ( 49296 PWs)   bands (ev):

   -68.2268 -68.2111 -35.2146 -35.1642 -34.8442 -34.7258 -34.6152 -34.4559
   -19.9339 -19.9202 -19.9171 -19.9128 -19.9096 -19.8947 -19.8856 -19.8703
   -19.8644 -19.8537 -19.8323 -19.8283 -19.8152 -19.8137 -11.8622  -7.2690
    -4.9769  -4.4447  -3.6264   0.0846   0.1107

          k =-0.4835-0.1850 0.0000 ( 49314 PWs)   bands (ev):

   -68.2268 -68.2111 -35.1971 -35.1422 -34.8371 -34.7413 -34.6244 -34.4826
   -19.9323 -19.9201 -19.9169 -19.9127 -19.9091 -19.8951 -19.8861 -19.8699
   -19.8647 -19.8548 -19.8328 -19.8294 -19.8153 -19.8137 -11.8448  -7.1218
    -4.9266  -4.7088  -3.2897  -0.1295  -0.0598

          k =-0.4835-0.0923 0.0000 ( 49335 PWs)   bands (ev):

   -68.2268 -68.2111 -35.1651 -35.0782 -34.8479 -34.7576 -34.6384 -34.5477
   -19.9281 -19.9201 -19.9172 -19.9135 -19.9071 -19.8963 -19.8873 -19.8695
   -19.8642 -19.8577 -19.8337 -19.8317 -19.8154 -19.8137 -11.8095  -6.7464
    -5.1982  -4.7955  -2.5736  -0.6851  -0.4681

          k =-0.4835 0.0005 0.0000 ( 49297 PWs)   bands (ev):

   -68.2267 -68.2110 -35.1506 -35.0194 -34.8963 -34.7339 -34.6489 -34.5919
   -19.9237 -19.9226 -19.9163 -19.9148 -19.9056 -19.8972 -19.8880 -19.8696
   -19.8620 -19.8607 -19.8338 -19.8333 -19.8155 -19.8137 -11.7914  -6.4562
    -5.5146  -4.7285  -1.8362  -1.4029  -0.6727

          k =-0.4835 0.0932 0.0000 ( 49328 PWs)   bands (ev):

   -68.2266 -68.2109 -35.1650 -35.0779 -34.8482 -34.7579 -34.6398 -34.5493
   -19.9281 -19.9201 -19.9172 -19.9136 -19.9070 -19.8965 -19.8872 -19.8694
   -19.8643 -19.8576 -19.8338 -19.8319 -19.8153 -19.8136 -11.8084  -6.7449
    -5.2043  -4.7962  -2.5760  -0.6787  -0.4649

          k =-0.4835 0.1859 0.0000 ( 49322 PWs)   bands (ev):

   -68.2265 -68.2109 -35.1973 -35.1421 -34.8366 -34.7421 -34.6270 -34.4853
   -19.9323 -19.9201 -19.9169 -19.9130 -19.9090 -19.8953 -19.8860 -19.8699
   -19.8647 -19.8547 -19.8330 -19.8296 -19.8151 -19.8135 -11.8428  -7.1202
    -4.9273  -4.7192  -3.2905  -0.1235  -0.0533

          k =-0.4833-0.8341 0.0000 ( 49292 PWs)   bands (ev):

   -68.2265 -68.2109 -35.2150 -35.1641 -34.8436 -34.7261 -34.6185 -34.4589
   -19.9340 -19.9202 -19.9170 -19.9130 -19.9094 -19.8949 -19.8855 -19.8703
   -19.8643 -19.8537 -19.8325 -19.8286 -19.8150 -19.8135 -11.8599  -7.2673
    -4.9778  -4.4579  -3.6253   0.0918   0.1173

     highest occupied level (ev):     0.1173

!    total energy              =   -1373.25138824 Ry
     estimated scf accuracy    <          8.9E-13 Ry

     The total energy is the sum of the following terms:
     one-electron contribution =  -10891.88795143 Ry
     hartree contribution      =    5474.27950937 Ry
     xc contribution           =    -138.78166590 Ry
     ewald contribution        =    4183.13871972 Ry

     convergence has been achieved in  28 iterations

     negative rho (up, down):  1.042E-04 0.000E+00

     Forces acting on atoms (cartesian axes, Ry/au):

     atom    1 type  2   force =     0.00031078    0.00028326   -0.00017214
     atom    2 type  1   force =    -0.00026859   -0.00046492    0.00155446
     atom    3 type  1   force =    -0.00004218    0.00018166   -0.00138231

     Total force =     0.002156     Total SCF correction =     0.000013


     Computing stress (Cartesian axis) and pressure


     negative rho (up, down):  1.042E-04 0.000E+00
          total   stress  (Ry/bohr**3)                   (kbar)     P=        5.57
   0.00006675  -0.00000261   0.00000033            9.82       -0.38        0.05
  -0.00000261   0.00005172   0.00000093           -0.38        7.61        0.14
   0.00000033   0.00000093  -0.00000492            0.05        0.14       -0.72


     Writing output data file /scratch/as3359/Ta2C_ct_kpts/Ta2C.save/
 
     init_run     :     46.47s CPU     25.35s WALL (       1 calls)
     electrons    :   2656.74s CPU   1353.21s WALL (       1 calls)
     forces       :     13.28s CPU      6.87s WALL (       1 calls)
     stress       :     60.68s CPU     31.21s WALL (       1 calls)

     Called by init_run:
     wfcinit      :     37.55s CPU     19.46s WALL (       1 calls)
     potinit      :      2.25s CPU      1.15s WALL (       1 calls)
     hinit0       :      4.80s CPU      3.47s WALL (       1 calls)

     Called by electrons:
     c_bands      :   2193.05s CPU   1107.10s WALL (      28 calls)
     sum_band     :    406.19s CPU    211.08s WALL (      28 calls)
     v_of_rho     :      8.48s CPU      4.62s WALL (      29 calls)
     newd         :     46.61s CPU     29.15s WALL (      29 calls)
     mix_rho      :      3.68s CPU      2.01s WALL (      28 calls)

     Called by c_bands:
     init_us_2    :     54.36s CPU     27.21s WALL (    4366 calls)
     cegterg      :   2028.30s CPU   1024.12s WALL (    2072 calls)

     Called by *egterg:
     cdiaghg      :     18.48s CPU      9.49s WALL (   12674 calls)
     h_psi        :   1633.89s CPU    826.44s WALL (   12748 calls)
     s_psi        :     93.32s CPU     46.71s WALL (   12748 calls)
     g_psi        :      9.38s CPU      4.71s WALL (   10602 calls)

     Called by h_psi:
     h_psi:calbec :     69.20s CPU     34.68s WALL (   12748 calls)
     vloc_psi     :   1450.58s CPU    734.43s WALL (   12748 calls)
     add_vuspsi   :    100.99s CPU     50.56s WALL (   12748 calls)

     General routines
     calbec       :     89.95s CPU     45.09s WALL (   15190 calls)
     fft          :      4.21s CPU      2.15s WALL (     344 calls)
     ffts         :      0.31s CPU      0.16s WALL (      28 calls)
     fftw         :   1489.47s CPU    754.76s WALL (  372462 calls)
 
     Parallel routines
 
     PWSCF        :  46m22.80s CPU  23m41.85s WALL

 
   This run was terminated on:  15: 9:19   7Apr2022            

=------------------------------------------------------------------------------=
   JOB DONE.
=------------------------------------------------------------------------------=
