
     Program PWSCF v.6.8 starts on  7Apr2022 at 14: 9:40 

     This program is part of the open-source Quantum ESPRESSO suite
     for quantum simulation of materials; please cite
         "P. Giannozzi et al., J. Phys.:Condens. Matter 21 395502 (2009);
         "P. Giannozzi et al., J. Phys.:Condens. Matter 29 465901 (2017);
         "P. Giannozzi et al., J. Chem. Phys. 152 154105 (2020);
          URL http://www.quantum-espresso.org", 
     in publications or presentations arising from this work. More details at
     http://www.quantum-espresso.org/quote

     Parallel version (MPI & OpenMP), running on       4 processor cores
     Number of MPI processes:                 2
     Threads/MPI process:                     2

     MPI processes distributed on     1 nodes
     R & G space division:  proc/nbgrp/npool/nimage =       2
     125256 MiB available memory on the printing compute node when the environment starts
 
     Reading input from Ta2C.scf.8.in
Warning: card  &CELL ignored
Warning: card     CELL_DYNAMICS='BFGS' ignored
Warning: card  / ignored

     Current dimensions of program PWSCF are:
     Max number of different atomic species (ntypx) = 10
     Max number of k-points (npk) =  40000
     Max angular momentum in pseudopotentials (lmaxx) =  4
     file Ta.pbesol-spfn-rrkjus_psl.1.0.0.UPF: wavefunction(s)  5S 5P renormalized

     Subspace diagonalization in iterative solution of the eigenvalue problem:
     a serial algorithm will be used

 
     Parallelization info
     --------------------
     sticks:   dense  smooth     PW     G-vecs:    dense   smooth      PW
     Min         684     684    205               197288   197288   31815
     Max         685     685    206               197321   197321   31818
     Sum        1369    1369    411               394609   394609   63633
 
     Using Slab Decomposition
 


     bravais-lattice index     =            0
     lattice parameter (alat)  =       5.5500  a.u.
     unit-cell volume          =    1588.7844 (a.u.)^3
     number of atoms/cell      =            3
     number of atomic types    =            2
     number of electrons       =        58.00
     number of Kohn-Sham states=           29
     kinetic-energy cutoff     =     150.0000  Ry
     charge density cutoff     =     600.0000  Ry
     scf convergence threshold =      1.0E-12
     mixing beta               =       0.7000
     number of iterations used =            8  plain     mixing
     Exchange-correlation= PBESOL
                           (   1   4  10   8   0   0   0)

     celldm(1)=   5.550000  celldm(2)=   0.000000  celldm(3)=   0.000000
     celldm(4)=   0.000000  celldm(5)=   0.000000  celldm(6)=   0.000000

     crystal axes: (cart. coord. in units of alat)
               a(1) = (   1.034114   0.000203   0.000000 )  
               a(2) = (  -0.516207   0.898604   0.000000 )  
               a(3) = (   0.000000   0.000000  10.000000 )  

     reciprocal axes: (cart. coord. in units 2 pi/alat)
               b(1) = (  0.966902  0.555441  0.000000 )  
               b(2) = ( -0.000219  1.112711  0.000000 )  
               b(3) = (  0.000000  0.000000  0.100000 )  


     PseudoPot. # 1 for Ta read from file:
     /shared/home/as3359/pseudo/Ta.pbesol-spfn-rrkjus_psl.1.0.0.UPF
     MD5 check sum: f099565ffaca9b150a52e9412a28e20b
     Pseudo is Ultrasoft + core correction, Zval = 27.0
     Generated using &quot;atomic&quot; code by A. Dal Corso  v.6.3
     Using radial grid of 1273 points,  8 beta functions with: 
                l(1) =   0
                l(2) =   0
                l(3) =   1
                l(4) =   1
                l(5) =   2
                l(6) =   2
                l(7) =   3
                l(8) =   3
     Q(r) pseudized with 0 coefficients 


     PseudoPot. # 2 for C  read from file:
     /shared/home/as3359/pseudo/C.pbesol-n-rrkjus_psl.1.0.0.UPF
     MD5 check sum: 05995be603a8a7c99da3dc4413f31573
     Pseudo is Ultrasoft + core correction, Zval =  4.0
     Generated using &quot;atomic&quot; code by A. Dal Corso  v.6.3MaX
     Using radial grid of 1073 points,  4 beta functions with: 
                l(1) =   0
                l(2) =   0
                l(3) =   1
                l(4) =   1
     Q(r) pseudized with 0 coefficients 


     atomic species   valence    mass     pseudopotential
        Ta            27.00   180.94788     Ta( 1.00)
        C              4.00    12.01070     C ( 1.00)

     No symmetry found



   Cartesian axes

     site n.     atom                  positions (alat units)
         1           C   tau(   1) = (   0.0000000   0.0000000   0.0000000  )
         2           Ta  tau(   2) = (   0.5174615   0.3004190  -0.4127129  )
         3           Ta  tau(   3) = (   0.0007158   0.5986355   0.4125272  )

     number of k points=    34
                       cart. coord. in units 2pi/alat
        k(    1) = (   0.0000000   0.0000000   0.0000000), wk =   0.0312500
        k(    2) = (  -0.0000273   0.1390889   0.0000000), wk =   0.0625000
        k(    3) = (  -0.0000547   0.2781778   0.0000000), wk =   0.0625000
        k(    4) = (  -0.0000820   0.4172667   0.0000000), wk =   0.0625000
        k(    5) = (   0.0001093  -0.5563556   0.0000000), wk =   0.0312500
        k(    6) = (   0.1208628   0.0694301   0.0000000), wk =   0.0625000
        k(    7) = (   0.1208355   0.2085190   0.0000000), wk =   0.0625000
        k(    8) = (   0.1208081   0.3476079   0.0000000), wk =   0.0625000
        k(    9) = (   0.1207808   0.4866968   0.0000000), wk =   0.0625000
        k(   10) = (   0.1209721  -0.4869254   0.0000000), wk =   0.0625000
        k(   11) = (   0.1209448  -0.3478366   0.0000000), wk =   0.0625000
        k(   12) = (   0.1209174  -0.2087477   0.0000000), wk =   0.0625000
        k(   13) = (   0.1208901  -0.0696588   0.0000000), wk =   0.0625000
        k(   14) = (   0.2417256   0.1388602   0.0000000), wk =   0.0625000
        k(   15) = (   0.2416982   0.2779491   0.0000000), wk =   0.0625000
        k(   16) = (   0.2416709   0.4170380   0.0000000), wk =   0.0625000
        k(   17) = (   0.2416436   0.5561269   0.0000000), wk =   0.0625000
        k(   18) = (   0.2418349  -0.4174953   0.0000000), wk =   0.0625000
        k(   19) = (   0.2418075  -0.2784064   0.0000000), wk =   0.0625000
        k(   20) = (   0.2417802  -0.1393175   0.0000000), wk =   0.0625000
        k(   21) = (   0.2417529  -0.0002287   0.0000000), wk =   0.0625000
        k(   22) = (   0.3625883   0.2082903   0.0000000), wk =   0.0625000
        k(   23) = (   0.3625610   0.3473792   0.0000000), wk =   0.0625000
        k(   24) = (   0.3625337   0.4864681   0.0000000), wk =   0.0625000
        k(   25) = (   0.3625064   0.6255570   0.0000000), wk =   0.0625000
        k(   26) = (   0.3626976  -0.3480652   0.0000000), wk =   0.0625000
        k(   27) = (   0.3626703  -0.2089763   0.0000000), wk =   0.0625000
        k(   28) = (   0.3626430  -0.0698874   0.0000000), wk =   0.0625000
        k(   29) = (   0.3626157   0.0692015   0.0000000), wk =   0.0625000
        k(   30) = (  -0.4834511  -0.2777205   0.0000000), wk =   0.0312500
        k(   31) = (  -0.4834784  -0.1386316   0.0000000), wk =   0.0625000
        k(   32) = (  -0.4835058   0.0004573   0.0000000), wk =   0.0625000
        k(   33) = (  -0.4835331   0.1395462   0.0000000), wk =   0.0625000
        k(   34) = (  -0.4833418  -0.8340760   0.0000000), wk =   0.0312500

     Dense  grid:   394609 G-vectors     FFT dimensions: (  45,  45, 450)

     Estimated max dynamical RAM per process >       2.24 GB

     Estimated total dynamical RAM >       4.47 GB

     Atomic positions and unit cell read from directory:
     /scratch/as3359/Ta2C_ct_kpts/Ta2C.save/
     Message from routine qexsd_readschema :
     xml data file /scratch/as3359/Ta2C_ct_kpts/Ta2C.save/data-file-schema.xml not fo
     Nothing found: using input atomic positions and unit cell

     Cannot read rho : file not found

     Initial potential from superposition of free atoms

     starting charge   57.99842, renormalised to   58.00000

     negative rho (up, down):  9.930E-05 0.000E+00
     Message from routine qexsd_readschema :
     xml data file /scratch/as3359/Ta2C_ct_kpts/Ta2C.save/data-file-schema.xml not fo
     Cannot read wfcs: file not found
     Starting wfcs are   38 randomized atomic wfcs

     total cpu time spent up to now is       15.4 secs

     Self-consistent Calculation

     iteration #  1     ecut=   150.00 Ry     beta= 0.70
     Davidson diagonalization with overlap
     ethr =  1.00E-05,  avg # of iterations = 12.4

     negative rho (up, down):  9.447E-05 0.000E+00

     total cpu time spent up to now is       61.5 secs

     total energy              =   -1372.46948461 Ry
     estimated scf accuracy    <       1.29951030 Ry

     iteration #  2     ecut=   150.00 Ry     beta= 0.70
     Davidson diagonalization with overlap
     ethr =  2.24E-03,  avg # of iterations =  8.1

     total cpu time spent up to now is       90.5 secs

     total energy              =   -1371.62794832 Ry
     estimated scf accuracy    <       9.94195269 Ry

     iteration #  3     ecut=   150.00 Ry     beta= 0.70
     Davidson diagonalization with overlap
     ethr =  2.24E-03,  avg # of iterations =  6.9

     total cpu time spent up to now is      117.9 secs

     total energy              =   -1373.22192125 Ry
     estimated scf accuracy    <       0.17825308 Ry

     iteration #  4     ecut=   150.00 Ry     beta= 0.70
     Davidson diagonalization with overlap
     ethr =  3.07E-04,  avg # of iterations =  3.6

     total cpu time spent up to now is      139.8 secs

     total energy              =   -1373.24852879 Ry
     estimated scf accuracy    <       0.03132197 Ry

     iteration #  5     ecut=   150.00 Ry     beta= 0.70
     Davidson diagonalization with overlap
     ethr =  5.40E-05,  avg # of iterations =  5.7

     total cpu time spent up to now is      164.4 secs

     total energy              =   -1373.24910072 Ry
     estimated scf accuracy    <       0.05011319 Ry

     iteration #  6     ecut=   150.00 Ry     beta= 0.70
     Davidson diagonalization with overlap
     ethr =  5.40E-05,  avg # of iterations =  6.0

     total cpu time spent up to now is      188.2 secs

     total energy              =   -1373.25071936 Ry
     estimated scf accuracy    <       0.04923651 Ry

     iteration #  7     ecut=   150.00 Ry     beta= 0.70
     Davidson diagonalization with overlap
     ethr =  5.40E-05,  avg # of iterations =  3.8

     total cpu time spent up to now is      208.7 secs

     total energy              =   -1373.25165212 Ry
     estimated scf accuracy    <       0.00442987 Ry

     iteration #  8     ecut=   150.00 Ry     beta= 0.70
     Davidson diagonalization with overlap
     ethr =  7.64E-06,  avg # of iterations =  6.0

     total cpu time spent up to now is      233.5 secs

     total energy              =   -1373.25246492 Ry
     estimated scf accuracy    <       0.00877332 Ry

     iteration #  9     ecut=   150.00 Ry     beta= 0.70
     Davidson diagonalization with overlap
     ethr =  7.64E-06,  avg # of iterations =  2.1

     negative rho (up, down):  4.373E-08 0.000E+00

     total cpu time spent up to now is      253.1 secs

     total energy              =   -1373.25198905 Ry
     estimated scf accuracy    <       0.00611860 Ry

     iteration # 10     ecut=   150.00 Ry     beta= 0.70
     Davidson diagonalization with overlap
     ethr =  7.64E-06,  avg # of iterations =  4.1

     negative rho (up, down):  1.571E-04 0.000E+00

     total cpu time spent up to now is      274.2 secs

     total energy              =   -1373.25225271 Ry
     estimated scf accuracy    <       0.00039102 Ry

     iteration # 11     ecut=   150.00 Ry     beta= 0.70
     Davidson diagonalization with overlap
     ethr =  6.74E-07,  avg # of iterations =  6.8

     negative rho (up, down):  1.199E-05 0.000E+00

     total cpu time spent up to now is      300.0 secs

     total energy              =   -1373.25239627 Ry
     estimated scf accuracy    <       0.00113528 Ry

     iteration # 12     ecut=   150.00 Ry     beta= 0.70
     Davidson diagonalization with overlap
     ethr =  6.74E-07,  avg # of iterations =  2.0

     negative rho (up, down):  8.973E-05 0.000E+00

     total cpu time spent up to now is      319.4 secs

     total energy              =   -1373.25226978 Ry
     estimated scf accuracy    <       0.00082475 Ry

     iteration # 13     ecut=   150.00 Ry     beta= 0.70
     Davidson diagonalization with overlap
     ethr =  6.74E-07,  avg # of iterations =  6.7

     negative rho (up, down):  8.772E-05 0.000E+00

     total cpu time spent up to now is      344.3 secs

     total energy              =   -1373.25235806 Ry
     estimated scf accuracy    <       0.00046409 Ry

     iteration # 14     ecut=   150.00 Ry     beta= 0.70
     Davidson diagonalization with overlap
     ethr =  6.74E-07,  avg # of iterations =  2.9

     negative rho (up, down):  8.331E-05 0.000E+00

     total cpu time spent up to now is      364.4 secs

     total energy              =   -1373.25237010 Ry
     estimated scf accuracy    <       0.00012521 Ry

     iteration # 15     ecut=   150.00 Ry     beta= 0.70
     Davidson diagonalization with overlap
     ethr =  2.16E-07,  avg # of iterations =  3.5

     negative rho (up, down):  9.893E-05 0.000E+00

     total cpu time spent up to now is      384.6 secs

     total energy              =   -1373.25237143 Ry
     estimated scf accuracy    <       0.00003225 Ry

     iteration # 16     ecut=   150.00 Ry     beta= 0.70
     Davidson diagonalization with overlap
     ethr =  5.56E-08,  avg # of iterations =  6.4

     negative rho (up, down):  1.030E-04 0.000E+00

     total cpu time spent up to now is      409.0 secs

     total energy              =   -1373.25237860 Ry
     estimated scf accuracy    <       0.00002278 Ry

     iteration # 17     ecut=   150.00 Ry     beta= 0.70
     Davidson diagonalization with overlap
     ethr =  3.93E-08,  avg # of iterations =  1.0

     negative rho (up, down):  1.040E-04 0.000E+00

     total cpu time spent up to now is      427.1 secs

     total energy              =   -1373.25237743 Ry
     estimated scf accuracy    <       0.00002072 Ry

     iteration # 18     ecut=   150.00 Ry     beta= 0.70
     Davidson diagonalization with overlap
     ethr =  3.57E-08,  avg # of iterations =  2.0

     negative rho (up, down):  1.038E-04 0.000E+00

     total cpu time spent up to now is      446.3 secs

     total energy              =   -1373.25237748 Ry
     estimated scf accuracy    <       0.00000937 Ry

     iteration # 19     ecut=   150.00 Ry     beta= 0.70
     Davidson diagonalization with overlap
     ethr =  1.61E-08,  avg # of iterations =  3.3

     negative rho (up, down):  1.044E-04 0.000E+00

     total cpu time spent up to now is      466.6 secs

     total energy              =   -1373.25237773 Ry
     estimated scf accuracy    <       0.00000159 Ry

     iteration # 20     ecut=   150.00 Ry     beta= 0.70
     Davidson diagonalization with overlap
     ethr =  2.74E-09,  avg # of iterations =  6.0

     negative rho (up, down):  1.042E-04 0.000E+00

     total cpu time spent up to now is      490.3 secs

     total energy              =   -1373.25237796 Ry
     estimated scf accuracy    <       0.00000014 Ry

     iteration # 21     ecut=   150.00 Ry     beta= 0.70
     Davidson diagonalization with overlap
     ethr =  2.36E-10,  avg # of iterations =  5.3

     negative rho (up, down):  1.047E-04 0.000E+00

     total cpu time spent up to now is      513.2 secs

     total energy              =   -1373.25237798 Ry
     estimated scf accuracy    <          8.7E-09 Ry

     iteration # 22     ecut=   150.00 Ry     beta= 0.70
     Davidson diagonalization with overlap
     ethr =  1.49E-11,  avg # of iterations =  7.1

     negative rho (up, down):  1.048E-04 0.000E+00

     total cpu time spent up to now is      539.3 secs

     total energy              =   -1373.25237798 Ry
     estimated scf accuracy    <       0.00000003 Ry

     iteration # 23     ecut=   150.00 Ry     beta= 0.70
     Davidson diagonalization with overlap
     ethr =  1.49E-11,  avg # of iterations =  7.4

     negative rho (up, down):  1.047E-04 0.000E+00

     total cpu time spent up to now is      565.9 secs

     total energy              =   -1373.25237798 Ry
     estimated scf accuracy    <       0.00000005 Ry

     iteration # 24     ecut=   150.00 Ry     beta= 0.70
     Davidson diagonalization with overlap
     ethr =  1.49E-11,  avg # of iterations =  1.4

     negative rho (up, down):  1.047E-04 0.000E+00

     total cpu time spent up to now is      584.6 secs

     total energy              =   -1373.25237798 Ry
     estimated scf accuracy    <       0.00000005 Ry

     iteration # 25     ecut=   150.00 Ry     beta= 0.70
     Davidson diagonalization with overlap
     ethr =  1.49E-11,  avg # of iterations =  5.0

     negative rho (up, down):  1.047E-04 0.000E+00

     total cpu time spent up to now is      606.4 secs

     total energy              =   -1373.25237798 Ry
     estimated scf accuracy    <       0.00000001 Ry

     iteration # 26     ecut=   150.00 Ry     beta= 0.70
     Davidson diagonalization with overlap
     ethr =  1.49E-11,  avg # of iterations =  1.1

     negative rho (up, down):  1.047E-04 0.000E+00

     total cpu time spent up to now is      624.7 secs

     total energy              =   -1373.25237798 Ry
     estimated scf accuracy    <          8.8E-09 Ry

     iteration # 27     ecut=   150.00 Ry     beta= 0.70
     Davidson diagonalization with overlap
     ethr =  1.49E-11,  avg # of iterations =  2.6

     negative rho (up, down):  1.046E-04 0.000E+00

     total cpu time spent up to now is      644.6 secs

     total energy              =   -1373.25237798 Ry
     estimated scf accuracy    <          2.6E-09 Ry

     iteration # 28     ecut=   150.00 Ry     beta= 0.70
     Davidson diagonalization with overlap
     ethr =  4.57E-12,  avg # of iterations =  7.3

     negative rho (up, down):  1.047E-04 0.000E+00

     total cpu time spent up to now is      670.3 secs

     total energy              =   -1373.25237798 Ry
     estimated scf accuracy    <       0.00000001 Ry

     iteration # 29     ecut=   150.00 Ry     beta= 0.70
     Davidson diagonalization with overlap
     ethr =  4.57E-12,  avg # of iterations =  6.1

     negative rho (up, down):  1.047E-04 0.000E+00

     total cpu time spent up to now is      693.8 secs

     total energy              =   -1373.25237798 Ry
     estimated scf accuracy    <          4.0E-10 Ry

     iteration # 30     ecut=   150.00 Ry     beta= 0.70
     Davidson diagonalization with overlap
     ethr =  6.95E-13,  avg # of iterations =  6.3

     negative rho (up, down):  1.047E-04 0.000E+00

     total cpu time spent up to now is      718.4 secs

     total energy              =   -1373.25237798 Ry
     estimated scf accuracy    <          3.3E-10 Ry

     iteration # 31     ecut=   150.00 Ry     beta= 0.70
     Davidson diagonalization with overlap
     ethr =  5.70E-13,  avg # of iterations =  1.2

     negative rho (up, down):  1.047E-04 0.000E+00

     total cpu time spent up to now is      736.6 secs

     total energy              =   -1373.25237798 Ry
     estimated scf accuracy    <          2.2E-10 Ry

     iteration # 32     ecut=   150.00 Ry     beta= 0.70
     Davidson diagonalization with overlap
     ethr =  3.85E-13,  avg # of iterations =  3.9

     negative rho (up, down):  1.047E-04 0.000E+00

     total cpu time spent up to now is      757.3 secs

     total energy              =   -1373.25237798 Ry
     estimated scf accuracy    <          1.2E-11 Ry

     iteration # 33     ecut=   150.00 Ry     beta= 0.70
     Davidson diagonalization with overlap
     ethr =  1.00E-13,  avg # of iterations =  4.9

     negative rho (up, down):  1.047E-04 0.000E+00

     total cpu time spent up to now is      778.7 secs

     total energy              =   -1373.25237798 Ry
     estimated scf accuracy    <          5.5E-12 Ry

     iteration # 34     ecut=   150.00 Ry     beta= 0.70
     Davidson diagonalization with overlap
     ethr =  1.00E-13,  avg # of iterations =  3.7

     negative rho (up, down):  1.047E-04 0.000E+00

     total cpu time spent up to now is      799.0 secs

     total energy              =   -1373.25237798 Ry
     estimated scf accuracy    <          9.0E-12 Ry

     iteration # 35     ecut=   150.00 Ry     beta= 0.70
     Davidson diagonalization with overlap
     ethr =  1.00E-13,  avg # of iterations =  1.0

     negative rho (up, down):  1.047E-04 0.000E+00

     total cpu time spent up to now is      817.1 secs

     total energy              =   -1373.25237798 Ry
     estimated scf accuracy    <          9.3E-12 Ry

     iteration # 36     ecut=   150.00 Ry     beta= 0.70
     Davidson diagonalization with overlap
     ethr =  1.00E-13,  avg # of iterations =  1.0

     negative rho (up, down):  1.047E-04 0.000E+00

     total cpu time spent up to now is      835.2 secs

     total energy              =   -1373.25237798 Ry
     estimated scf accuracy    <          7.8E-12 Ry

     iteration # 37     ecut=   150.00 Ry     beta= 0.70
     Davidson diagonalization with overlap
     ethr =  1.00E-13,  avg # of iterations =  1.0

     negative rho (up, down):  1.047E-04 0.000E+00

     total cpu time spent up to now is      853.2 secs

     total energy              =   -1373.25237798 Ry
     estimated scf accuracy    <          5.7E-12 Ry

     iteration # 38     ecut=   150.00 Ry     beta= 0.70
     Davidson diagonalization with overlap
     ethr =  1.00E-13,  avg # of iterations =  1.0

     negative rho (up, down):  1.047E-04 0.000E+00

     total cpu time spent up to now is      871.3 secs

     total energy              =   -1373.25237798 Ry
     estimated scf accuracy    <          3.9E-12 Ry

     iteration # 39     ecut=   150.00 Ry     beta= 0.70
     Davidson diagonalization with overlap
     ethr =  1.00E-13,  avg # of iterations =  1.2

     negative rho (up, down):  1.047E-04 0.000E+00

     total cpu time spent up to now is      889.5 secs

     End of self-consistent calculation

          k = 0.0000 0.0000 0.0000 ( 49405 PWs)   bands (ev):

   -68.2167 -68.1690 -35.2569 -34.6538 -34.3229 -34.3185 -34.2579 -34.2520
   -19.8770 -19.8633 -19.8360 -19.8357 -19.8290 -19.8288 -19.8017 -19.8011
   -19.7927 -19.7927 -19.7803 -19.7748 -19.7137 -19.7122 -13.2008  -7.5877
    -4.3151  -4.2718  -1.8630  -0.8593  -0.6779

          k =-0.0000 0.1391 0.0000 ( 49287 PWs)   bands (ev):

   -68.2083 -68.1638 -35.2290 -34.6670 -34.4239 -34.3538 -34.3528 -34.2662
   -19.8737 -19.8612 -19.8393 -19.8367 -19.8301 -19.8268 -19.8047 -19.8001
   -19.7934 -19.7911 -19.7740 -19.7690 -19.7197 -19.7185 -12.9544  -7.1092
    -4.9600  -4.2052  -1.7111  -1.2191  -0.6787

          k =-0.0001 0.2782 0.0000 ( 49249 PWs)   bands (ev):

   -68.1874 -68.1517 -35.1648 -34.7776 -34.5903 -34.5658 -34.4289 -34.3064
   -19.8668 -19.8562 -19.8458 -19.8388 -19.8334 -19.8238 -19.8099 -19.7969
   -19.7948 -19.7869 -19.7590 -19.7549 -19.7338 -19.7327 -12.4064  -6.3740
    -5.6123  -4.1665  -2.3845  -1.4693  -0.9596

          k =-0.0001 0.4173 0.0000 ( 49254 PWs)   bands (ev):

   -68.1649 -68.1411 -35.1256 -34.9980 -34.7427 -34.6384 -34.4997 -34.3503
   -19.8636 -19.8502 -19.8499 -19.8411 -19.8379 -19.8233 -19.8124 -19.7958
   -19.7925 -19.7821 -19.7475 -19.7449 -19.7434 -19.7408 -11.9468  -6.9488
    -4.9922  -4.2681  -3.2538  -0.7683  -0.3503

          k = 0.0001-0.5564 0.0000 ( 49320 PWs)   bands (ev):

   -68.1543 -68.1379 -35.1352 -35.0937 -34.7773 -34.6614 -34.5281 -34.3691
   -19.8638 -19.8504 -19.8480 -19.8422 -19.8399 -19.8237 -19.8125 -19.7962
   -19.7904 -19.7798 -19.7530 -19.7494 -19.7366 -19.7350 -11.7896  -7.1954
    -4.8869  -4.3374  -3.5545   0.1292   0.1603

          k = 0.1209 0.0694 0.0000 ( 49307 PWs)   bands (ev):

   -68.2082 -68.1637 -35.2288 -34.6668 -34.4225 -34.3563 -34.3507 -34.2698
   -19.8737 -19.8612 -19.8392 -19.8368 -19.8300 -19.8269 -19.8044 -19.8004
   -19.7935 -19.7911 -19.7740 -19.7690 -19.7198 -19.7186 -12.9531  -7.1072
    -4.9407  -4.2310  -1.7074  -1.2167  -0.6628

          k = 0.1208 0.2085 0.0000 ( 49231 PWs)   bands (ev):

   -68.1936 -68.1551 -35.1821 -34.7170 -34.5416 -34.5330 -34.3843 -34.3219
   -19.8681 -19.8578 -19.8429 -19.8403 -19.8308 -19.8250 -19.8085 -19.7987
   -19.7932 -19.7891 -19.7634 -19.7590 -19.7298 -19.7290 -12.5553  -6.2970
    -5.6446  -4.3877  -1.6445  -1.6003  -0.9770

          k = 0.1208 0.3476 0.0000 ( 49250 PWs)   bands (ev):

   -68.1717 -68.1439 -35.1249 -34.8818 -34.7121 -34.6207 -34.4849 -34.3860
   -19.8615 -19.8531 -19.8476 -19.8433 -19.8337 -19.8242 -19.8123 -19.7969
   -19.7913 -19.7857 -19.7483 -19.7453 -19.7436 -19.7426 -12.0528  -6.4260
    -5.1751  -4.7163  -2.4855  -1.1339  -0.7368

          k = 0.1208 0.4867 0.0000 ( 49304 PWs)   bands (ev):

   -68.1542 -68.1379 -35.1054 -35.0407 -34.7623 -34.6885 -34.5510 -34.4281
   -19.8604 -19.8502 -19.8478 -19.8427 -19.8384 -19.8249 -19.8134 -19.7953
   -19.7910 -19.7822 -19.7540 -19.7515 -19.7367 -19.7350 -11.7545  -6.8757
    -4.8650  -4.7625  -2.8773  -0.2977  -0.2096

          k = 0.1210-0.4869 0.0000 ( 49285 PWs)   bands (ev):

   -68.1542 -68.1379 -35.1058 -35.0411 -34.7631 -34.6881 -34.5508 -34.4280
   -19.8604 -19.8502 -19.8478 -19.8427 -19.8384 -19.8249 -19.8134 -19.7954
   -19.7909 -19.7821 -19.7540 -19.7515 -19.7367 -19.7350 -11.7541  -6.8766
    -4.8662  -4.7612  -2.8792  -0.2990  -0.2098

          k = 0.1209-0.3478 0.0000 ( 49269 PWs)   bands (ev):

   -68.1716 -68.1438 -35.1249 -34.8829 -34.7132 -34.6210 -34.4847 -34.3859
   -19.8615 -19.8531 -19.8477 -19.8433 -19.8337 -19.8243 -19.8123 -19.7970
   -19.7913 -19.7857 -19.7482 -19.7453 -19.7436 -19.7427 -12.0517  -6.4277
    -5.1740  -4.7169  -2.4896  -1.1356  -0.7341

          k = 0.1209-0.2087 0.0000 ( 49233 PWs)   bands (ev):

   -68.1935 -68.1550 -35.1819 -34.7170 -34.5420 -34.5335 -34.3852 -34.3227
   -19.8681 -19.8578 -19.8428 -19.8404 -19.8307 -19.8252 -19.8085 -19.7987
   -19.7931 -19.7891 -19.7634 -19.7590 -19.7299 -19.7291 -12.5540  -6.2949
    -5.6426  -4.3919  -1.6441  -1.5989  -0.9782

          k = 0.1209-0.0697 0.0000 ( 49303 PWs)   bands (ev):

   -68.2082 -68.1637 -35.2287 -34.6667 -34.4214 -34.3579 -34.3497 -34.2715
   -19.8737 -19.8612 -19.8391 -19.8370 -19.8298 -19.8270 -19.8043 -19.8005
   -19.7934 -19.7911 -19.7740 -19.7689 -19.7198 -19.7186 -12.9525  -7.1061
    -4.9326  -4.2415  -1.7056  -1.2150  -0.6553

          k = 0.2417 0.1389 0.0000 ( 49273 PWs)   bands (ev):

   -68.1870 -68.1514 -35.1640 -34.7771 -34.5917 -34.5641 -34.4333 -34.3109
   -19.8666 -19.8562 -19.8458 -19.8389 -19.8333 -19.8239 -19.8098 -19.7970
   -19.7949 -19.7869 -19.7588 -19.7548 -19.7340 -19.7329 -12.4025  -6.3663
    -5.6043  -4.1949  -2.3736  -1.4720  -0.9593

          k = 0.2417 0.2779 0.0000 ( 49268 PWs)   bands (ev):

   -68.1714 -68.1437 -35.1244 -34.8810 -34.7128 -34.6202 -34.4881 -34.3890
   -19.8614 -19.8531 -19.8476 -19.8434 -19.8337 -19.8244 -19.8123 -19.7969
   -19.7914 -19.7856 -19.7482 -19.7452 -19.7438 -19.7427 -12.0505  -6.4195
    -5.1764  -4.7309  -2.4787  -1.1319  -0.7455

          k = 0.2417 0.4170 0.0000 ( 49283 PWs)   bands (ev):

   -68.1539 -68.1378 -35.0799 -34.9400 -34.8221 -34.6638 -34.5712 -34.5131
   -19.8536 -19.8534 -19.8467 -19.8447 -19.8356 -19.8268 -19.8144 -19.7954
   -19.7882 -19.7869 -19.7546 -19.7541 -19.7367 -19.7349 -11.7179  -6.3711
    -5.4366  -4.6397  -1.7450  -1.3188  -0.6115

          k = 0.2416 0.5561 0.0000 ( 49345 PWs)   bands (ev):

   -68.1444 -68.1374 -35.0170 -35.0053 -34.8400 -34.7163 -34.5968 -34.5707
   -19.8548 -19.8494 -19.8463 -19.8412 -19.8388 -19.8284 -19.8153 -19.7921
   -19.7918 -19.7856 -19.7594 -19.7585 -19.7318 -19.7311 -11.5875  -6.3839
    -5.6421  -4.4616  -1.6841  -0.6527  -0.5877

          k = 0.2418-0.4175 0.0000 ( 49301 PWs)   bands (ev):

   -68.1537 -68.1376 -35.0804 -34.9414 -34.8227 -34.6642 -34.5712 -34.5132
   -19.8536 -19.8534 -19.8468 -19.8447 -19.8356 -19.8269 -19.8144 -19.7955
   -19.7881 -19.7868 -19.7547 -19.7542 -19.7366 -19.7349 -11.7167  -6.3733
    -5.4385  -4.6405  -1.7482  -1.3229  -0.6098

          k = 0.2418-0.2784 0.0000 ( 49279 PWs)   bands (ev):

   -68.1711 -68.1436 -35.1243 -34.8815 -34.7141 -34.6203 -34.4893 -34.3905
   -19.8614 -19.8531 -19.8476 -19.8435 -19.8336 -19.8245 -19.8122 -19.7969
   -19.7914 -19.7856 -19.7480 -19.7451 -19.7439 -19.7428 -12.0483  -6.4187
    -5.1741  -4.7375  -2.4806  -1.1324  -0.7459

          k = 0.2418-0.1393 0.0000 ( 49301 PWs)   bands (ev):

   -68.1869 -68.1513 -35.1637 -34.7766 -34.5920 -34.5635 -34.4356 -34.3131
   -19.8666 -19.8562 -19.8458 -19.8391 -19.8331 -19.8241 -19.8097 -19.7970
   -19.7949 -19.7868 -19.7587 -19.7547 -19.7341 -19.7330 -12.4007  -6.3630
    -5.5996  -4.2058  -2.3693  -1.4729  -0.9590

          k = 0.2418-0.0002 0.0000 ( 49253 PWs)   bands (ev):

   -68.1932 -68.1548 -35.1813 -34.7178 -34.5425 -34.5346 -34.3863 -34.3248
   -19.8680 -19.8579 -19.8429 -19.8404 -19.8307 -19.8252 -19.8083 -19.7989
   -19.7932 -19.7889 -19.7632 -19.7589 -19.7300 -19.7293 -12.5510  -6.2913
    -5.6377  -4.4053  -1.6398  -1.5989  -0.9821

          k = 0.3626 0.2083 0.0000 ( 49292 PWs)   bands (ev):

   -68.1641 -68.1408 -35.1254 -34.9984 -34.7420 -34.6397 -34.5053 -34.3557
   -19.8635 -19.8501 -19.8499 -19.8413 -19.8379 -19.8235 -19.8124 -19.7960
   -19.7924 -19.7820 -19.7478 -19.7452 -19.7431 -19.7405 -11.9413  -6.9445
    -4.9948  -4.3001  -3.2470  -0.7616  -0.3438

          k = 0.3626 0.3474 0.0000 ( 49321 PWs)   bands (ev):

   -68.1535 -68.1377 -35.1061 -35.0408 -34.7609 -34.6904 -34.5554 -34.4322
   -19.8604 -19.8501 -19.8476 -19.8428 -19.8384 -19.8251 -19.8134 -19.7954
   -19.7910 -19.7820 -19.7543 -19.7517 -19.7364 -19.7348 -11.7504  -6.8732
    -4.8813  -4.7738  -2.8789  -0.2854  -0.1978

          k = 0.3625 0.4865 0.0000 ( 49324 PWs)   bands (ev):

   -68.1439 -68.1374 -35.0191 -35.0049 -34.8412 -34.7154 -34.5991 -34.5711
   -19.8549 -19.8494 -19.8462 -19.8412 -19.8388 -19.8284 -19.8153 -19.7922
   -19.7917 -19.7855 -19.7596 -19.7585 -19.7317 -19.7310 -11.5853  -6.3851
    -5.6493  -4.4674  -1.7007  -0.6413  -0.5733

          k = 0.3625 0.6256 0.0000 ( 49330 PWs)   bands (ev):

   -68.1437 -68.1374 -35.0196 -35.0049 -34.8419 -34.7154 -34.5998 -34.5714
   -19.8549 -19.8494 -19.8462 -19.8413 -19.8387 -19.8285 -19.8153 -19.7923
   -19.7917 -19.7854 -19.7596 -19.7586 -19.7316 -19.7310 -11.5845  -6.3847
    -5.6528  -4.4689  -1.7082  -0.6339  -0.5693

          k = 0.3627-0.3481 0.0000 ( 49326 PWs)   bands (ev):

   -68.1532 -68.1375 -35.1065 -35.0411 -34.7614 -34.6908 -34.5572 -34.4342
   -19.8604 -19.8501 -19.8476 -19.8430 -19.8384 -19.8253 -19.8133 -19.7954
   -19.7909 -19.7819 -19.7544 -19.7519 -19.7363 -19.7346 -11.7483  -6.8725
    -4.8895  -4.7746  -2.8822  -0.2807  -0.1930

          k = 0.3627-0.2090 0.0000 ( 49304 PWs)   bands (ev):

   -68.1638 -68.1406 -35.1253 -34.9984 -34.7419 -34.6399 -34.5082 -34.3584
   -19.8635 -19.8501 -19.8498 -19.8415 -19.8377 -19.8236 -19.8123 -19.7960
   -19.7923 -19.7819 -19.7480 -19.7454 -19.7429 -19.7404 -11.9390  -6.9421
    -4.9933  -4.3125  -3.2453  -0.7587  -0.3402

          k = 0.3626-0.0699 0.0000 ( 49292 PWs)   bands (ev):

   -68.1708 -68.1434 -35.1244 -34.8845 -34.7158 -34.6209 -34.4885 -34.3906
   -19.8613 -19.8531 -19.8476 -19.8436 -19.8336 -19.8245 -19.8122 -19.7972
   -19.7912 -19.7855 -19.7479 -19.7451 -19.7439 -19.7430 -12.0454  -6.4245
    -5.1711  -4.7413  -2.4901  -1.1373  -0.7373

          k = 0.3626 0.0692 0.0000 ( 49288 PWs)   bands (ev):

   -68.1710 -68.1435 -35.1246 -34.8850 -34.7155 -34.6210 -34.4871 -34.3890
   -19.8613 -19.8532 -19.8477 -19.8435 -19.8337 -19.8244 -19.8122 -19.7972
   -19.7912 -19.7855 -19.7480 -19.7452 -19.7438 -19.7429 -12.0464  -6.4270
    -5.1724  -4.7353  -2.4923  -1.1386  -0.7342

          k =-0.4835-0.2777 0.0000 ( 49296 PWs)   bands (ev):

   -68.1533 -68.1376 -35.1370 -35.0939 -34.7747 -34.6638 -34.5342 -34.3748
   -19.8638 -19.8503 -19.8477 -19.8424 -19.8400 -19.8240 -19.8125 -19.7964
   -19.7903 -19.7797 -19.7534 -19.7497 -19.7362 -19.7347 -11.7837  -7.1933
    -4.8960  -4.3708  -3.5483   0.1453   0.1731

          k =-0.4835-0.1386 0.0000 ( 49317 PWs)   bands (ev):

   -68.1533 -68.1376 -35.1074 -35.0422 -34.7630 -34.6891 -34.5548 -34.4319
   -19.8604 -19.8501 -19.8477 -19.8429 -19.8384 -19.8251 -19.8134 -19.7956
   -19.7907 -19.7820 -19.7543 -19.7518 -19.7363 -19.7347 -11.7488  -6.8772
    -4.8882  -4.7668  -2.8854  -0.2910  -0.1969

          k =-0.4835 0.0005 0.0000 ( 49297 PWs)   bands (ev):

   -68.1532 -68.1375 -35.0817 -34.9457 -34.8227 -34.6649 -34.5707 -34.5140
   -19.8535 -19.8534 -19.8468 -19.8448 -19.8355 -19.8269 -19.8143 -19.7957
   -19.7879 -19.7867 -19.7549 -19.7544 -19.7365 -19.7347 -11.7130  -6.3816
    -5.4418  -4.6451  -1.7563  -1.3324  -0.6020

          k =-0.4835 0.1395 0.0000 ( 49353 PWs)   bands (ev):

   -68.1530 -68.1374 -35.1074 -35.0422 -34.7627 -34.6899 -34.5568 -34.4340
   -19.8604 -19.8501 -19.8477 -19.8431 -19.8383 -19.8253 -19.8133 -19.7956
   -19.7907 -19.7819 -19.7545 -19.7520 -19.7362 -19.7346 -11.7471  -6.8756
    -4.8950  -4.7690  -2.8868  -0.2849  -0.1918

          k =-0.4833-0.8341 0.0000 ( 49292 PWs)   bands (ev):

   -68.1530 -68.1374 -35.1375 -35.0939 -34.7742 -34.6643 -34.5374 -34.3777
   -19.8638 -19.8503 -19.8476 -19.8426 -19.8398 -19.8241 -19.8124 -19.7964
   -19.7902 -19.7796 -19.7536 -19.7500 -19.7360 -19.7345 -11.7814  -7.1915
    -4.8969  -4.3840  -3.5472   0.1525   0.1797

     highest occupied level (ev):     0.1797

!    total energy              =   -1373.25237798 Ry
     estimated scf accuracy    <          2.4E-13 Ry

     The total energy is the sum of the following terms:
     one-electron contribution =  -10892.20128661 Ry
     hartree contribution      =    5474.59434159 Ry
     xc contribution           =    -138.78415269 Ry
     ewald contribution        =    4183.13871972 Ry

     convergence has been achieved in  39 iterations

     negative rho (up, down):  1.047E-04 0.000E+00

     Forces acting on atoms (cartesian axes, Ry/au):

     atom    1 type  2   force =     0.00031351    0.00028523   -0.00018609
     atom    2 type  1   force =    -0.00029103   -0.00040693    0.00233596
     atom    3 type  1   force =    -0.00002248    0.00012169   -0.00214987

     Total force =     0.003216     Total SCF correction =     0.000007


     Computing stress (Cartesian axis) and pressure


     negative rho (up, down):  1.047E-04 0.000E+00
          total   stress  (Ry/bohr**3)                   (kbar)     P=        5.54
   0.00006806  -0.00000283   0.00000039           10.01       -0.42        0.06
  -0.00000283   0.00005206   0.00000076           -0.42        7.66        0.11
   0.00000039   0.00000076  -0.00000715            0.06        0.11       -1.05


     Writing output data file /scratch/as3359/Ta2C_ct_kpts/Ta2C.save/
 
     init_run     :     25.87s CPU     14.74s WALL (       1 calls)
     electrons    :   1698.64s CPU    874.24s WALL (       1 calls)
     forces       :      9.50s CPU      4.97s WALL (       1 calls)
     stress       :     37.09s CPU     19.29s WALL (       1 calls)

     Called by init_run:
     wfcinit      :     17.05s CPU      8.87s WALL (       1 calls)
     potinit      :      2.21s CPU      1.13s WALL (       1 calls)
     hinit0       :      4.86s CPU      3.56s WALL (       1 calls)

     Called by electrons:
     c_bands      :   1316.53s CPU    664.92s WALL (      39 calls)
     sum_band     :    302.14s CPU    160.72s WALL (      39 calls)
     v_of_rho     :     11.63s CPU      6.31s WALL (      40 calls)
     newd         :     64.23s CPU     40.19s WALL (      40 calls)
     mix_rho      :      5.17s CPU      2.75s WALL (      39 calls)

     Called by c_bands:
     init_us_2    :     34.46s CPU     17.26s WALL (    2754 calls)
     cegterg      :   1210.51s CPU    611.40s WALL (    1326 calls)

     Called by *egterg:
     cdiaghg      :     10.11s CPU      5.20s WALL (    7028 calls)
     h_psi        :    983.27s CPU    497.29s WALL (    7062 calls)
     s_psi        :     53.94s CPU     27.00s WALL (    7062 calls)
     g_psi        :      5.52s CPU      2.77s WALL (    5702 calls)

     Called by h_psi:
     h_psi:calbec :     39.94s CPU     20.03s WALL (    7062 calls)
     vloc_psi     :    876.94s CPU    443.88s WALL (    7062 calls)
     add_vuspsi   :     58.53s CPU     29.30s WALL (    7062 calls)

     General routines
     calbec       :     52.86s CPU     26.51s WALL (    8558 calls)
     fft          :      5.63s CPU      2.91s WALL (     465 calls)
     ffts         :      0.43s CPU      0.22s WALL (      39 calls)
     fftw         :    907.09s CPU    459.46s WALL (  227878 calls)
 
     Parallel routines
 
     PWSCF        :  29m33.58s CPU  15m15.88s WALL

 
   This run was terminated on:  14:24:56   7Apr2022            

=------------------------------------------------------------------------------=
   JOB DONE.
=------------------------------------------------------------------------------=
