
     Program PWSCF v.6.8 starts on 21Apr2022 at 18:30:20 

     This program is part of the open-source Quantum ESPRESSO suite
     for quantum simulation of materials; please cite
         "P. Giannozzi et al., J. Phys.:Condens. Matter 21 395502 (2009);
         "P. Giannozzi et al., J. Phys.:Condens. Matter 29 465901 (2017);
         "P. Giannozzi et al., J. Chem. Phys. 152 154105 (2020);
          URL http://www.quantum-espresso.org", 
     in publications or presentations arising from this work. More details at
     http://www.quantum-espresso.org/quote

     Parallel version (MPI & OpenMP), running on       4 processor cores
     Number of MPI processes:                 2
     Threads/MPI process:                     2

     MPI processes distributed on     1 nodes
     R & G space division:  proc/nbgrp/npool/nimage =       2
     125015 MiB available memory on the printing compute node when the environment starts
 
     Reading input from Ta2CH.relax.in
Warning: card  &CELL ignored
Warning: card     CELL_DYNAMICS='BFGS', CELL_DOFREE ='2DXY' ignored
Warning: card  / ignored

     Current dimensions of program PWSCF are:
     Max number of different atomic species (ntypx) = 10
     Max number of k-points (npk) =  40000
     Max angular momentum in pseudopotentials (lmaxx) =  4
     file Ta.pbesol-spfn-rrkjus_psl.1.0.0.UPF: wavefunction(s)  5S 5P renormalized
     Message from routine setup:
     using ibrav=0 with symmetry is DISCOURAGED, use correct ibrav instead

     Subspace diagonalization in iterative solution of the eigenvalue problem:
     a serial algorithm will be used

 
     Parallelization info
     --------------------
     sticks:   dense  smooth     PW     G-vecs:    dense   smooth      PW
     Min         807     324     99               250889    63600   10244
     Max         808     325    100               250920    63619   10251
     Sum        1615     649    199               501809   127219   20495
 
     Using Slab Decomposition
 


     bravais-lattice index     =            0
     lattice parameter (alat)  =       5.5500  a.u.
     unit-cell volume          =    1604.3345 (a.u.)^3
     number of atoms/cell      =            4
     number of atomic types    =            3
     number of electrons       =        59.00
     number of Kohn-Sham states=           36
     kinetic-energy cutoff     =      70.0000  Ry
     charge density cutoff     =     700.0000  Ry
     scf convergence threshold =      1.0E-12
     mixing beta               =       0.7000
     number of iterations used =            8  plain     mixing
     energy convergence thresh.=      1.0E-04
     force convergence thresh. =      1.0E-03
     Exchange-correlation= PBESOL
                           (   1   4  10   8   0   0   0)
     nstep                     =           50


     celldm(1)=   5.550000  celldm(2)=   0.000000  celldm(3)=   0.000000
     celldm(4)=   0.000000  celldm(5)=   0.000000  celldm(6)=   0.000000

     crystal axes: (cart. coord. in units of alat)
               a(1) = (   1.040981   0.000000   0.000000 )  
               a(2) = (  -0.520490   0.901516   0.000000 )  
               a(3) = (   0.000000   0.000000  10.000000 )  

     reciprocal axes: (cart. coord. in units 2 pi/alat)
               b(1) = (  0.960633  0.554621  0.000000 )  
               b(2) = (  0.000000  1.109243  0.000000 )  
               b(3) = (  0.000000  0.000000  0.100000 )  


     PseudoPot. # 1 for Ta read from file:
     /shared/home/as3359/pseudo/Ta.pbesol-spfn-rrkjus_psl.1.0.0.UPF
     MD5 check sum: f099565ffaca9b150a52e9412a28e20b
     Pseudo is Ultrasoft + core correction, Zval = 27.0
     Generated using &quot;atomic&quot; code by A. Dal Corso  v.6.3
     Using radial grid of 1273 points,  8 beta functions with: 
                l(1) =   0
                l(2) =   0
                l(3) =   1
                l(4) =   1
                l(5) =   2
                l(6) =   2
                l(7) =   3
                l(8) =   3
     Q(r) pseudized with 0 coefficients 


     PseudoPot. # 2 for C  read from file:
     /shared/home/as3359/pseudo/C.pbesol-n-rrkjus_psl.1.0.0.UPF
     MD5 check sum: 05995be603a8a7c99da3dc4413f31573
     Pseudo is Ultrasoft + core correction, Zval =  4.0
     Generated using &quot;atomic&quot; code by A. Dal Corso  v.6.3MaX
     Using radial grid of 1073 points,  4 beta functions with: 
                l(1) =   0
                l(2) =   0
                l(3) =   1
                l(4) =   1
     Q(r) pseudized with 0 coefficients 


     PseudoPot. # 3 for H  read from file:
     /shared/home/as3359/pseudo/H.pbesol-rrkjus_psl.0.1.UPF
     MD5 check sum: 1dbb1a5c48b1283557b8117eb856a7ca
     Pseudo is Ultrasoft, Zval =  1.0
     Generated using "atomic" code by A. Dal Corso  v.5.0.2 svn rev. 9415
     Using radial grid of  929 points,  2 beta functions with: 
                l(1) =   0
                l(2) =   0
     Q(r) pseudized with 0 coefficients 


     atomic species   valence    mass     pseudopotential
        Ta            27.00   180.94788     Ta( 1.00)
        C              4.00    12.01070     C ( 1.00)
        H              1.00     1.00000     H ( 1.00)

      6 Sym. Ops. (no inversion) found



   Cartesian axes

     site n.     atom                  positions (alat units)
         1           C   tau(   1) = (   0.0000000   0.0000000   0.0000000  )
         2           Ta  tau(   2) = (   0.5204903   0.3005052  -0.4156024  )
         3           Ta  tau(   3) = (   0.0000000   0.6010105   0.4260806  )
         4           H   tau(   4) = (   0.0000000   0.6010105   1.0359681  )

     number of k points=    19  Marzari-Vanderbilt smearing, width (Ry)=  0.0010
                       cart. coord. in units 2pi/alat
        k(    1) = (   0.0000000   0.0000000   0.0000000), wk =   0.0138889
        k(    2) = (   0.0000000   0.0924369   0.0000000), wk =   0.0833333
        k(    3) = (   0.0000000   0.1848738   0.0000000), wk =   0.0833333
        k(    4) = (   0.0000000   0.2773107   0.0000000), wk =   0.0833333
        k(    5) = (   0.0000000   0.3697477   0.0000000), wk =   0.0833333
        k(    6) = (   0.0000000   0.4621846   0.0000000), wk =   0.0833333
        k(    7) = (   0.0000000  -0.5546215   0.0000000), wk =   0.0416667
        k(    8) = (   0.0800527   0.1386554   0.0000000), wk =   0.0833333
        k(    9) = (   0.0800527   0.2310923   0.0000000), wk =   0.1666667
        k(   10) = (   0.0800527   0.3235292   0.0000000), wk =   0.1666667
        k(   11) = (   0.0800527   0.4159661   0.0000000), wk =   0.1666667
        k(   12) = (   0.0800527   0.5084030   0.0000000), wk =   0.1666667
        k(   13) = (   0.1601054   0.2773107   0.0000000), wk =   0.0833333
        k(   14) = (   0.1601054   0.3697477   0.0000000), wk =   0.1666667
        k(   15) = (   0.1601054   0.4621846   0.0000000), wk =   0.1666667
        k(   16) = (   0.1601054   0.5546215   0.0000000), wk =   0.0833333
        k(   17) = (   0.2401582   0.4159661   0.0000000), wk =   0.0833333
        k(   18) = (   0.2401582   0.5084030   0.0000000), wk =   0.1666667
        k(   19) = (   0.3202109   0.5546215   0.0000000), wk =   0.0277778

     Dense  grid:   501809 G-vectors     FFT dimensions: (  50,  50, 480)

     Smooth grid:   127219 G-vectors     FFT dimensions: (  32,  32, 300)

     Estimated max dynamical RAM per process >       2.44 GB

     Estimated total dynamical RAM >       4.88 GB

     Initial potential from superposition of free atoms

     starting charge   58.99841, renormalised to   59.00000

     negative rho (up, down):  4.890E-05 0.000E+00
     Starting wfcs are   39 randomized atomic wfcs

     total cpu time spent up to now is        9.8 secs

     Self-consistent Calculation

     iteration #  1     ecut=    70.00 Ry     beta= 0.70
     Davidson diagonalization with overlap
     ethr =  1.00E-02,  avg # of iterations =  2.2

     negative rho (up, down):  1.848E-05 0.000E+00

     total cpu time spent up to now is       15.0 secs

     total energy              =   -1373.18940336 Ry
     estimated scf accuracy    <       1.73486294 Ry

     iteration #  2     ecut=    70.00 Ry     beta= 0.70
     Davidson diagonalization with overlap
     ethr =  2.94E-03,  avg # of iterations =  9.1

     negative rho (up, down):  9.239E-05 0.000E+00

     total cpu time spent up to now is       22.5 secs

     total energy              =   -1367.03506523 Ry
     estimated scf accuracy    <     144.52053007 Ry

     iteration #  3     ecut=    70.00 Ry     beta= 0.70
     Davidson diagonalization with overlap
     ethr =  2.94E-03,  avg # of iterations =  8.5

     negative rho (up, down):  4.290E-05 0.000E+00

     total cpu time spent up to now is       30.0 secs

     total energy              =   -1373.92469088 Ry
     estimated scf accuracy    <       4.79080221 Ry

     iteration #  4     ecut=    70.00 Ry     beta= 0.70
     Davidson diagonalization with overlap
     ethr =  2.94E-03,  avg # of iterations =  2.8

     negative rho (up, down):  2.793E-05 0.000E+00

     total cpu time spent up to now is       35.3 secs

     total energy              =   -1374.20310931 Ry
     estimated scf accuracy    <       5.94745175 Ry

     iteration #  5     ecut=    70.00 Ry     beta= 0.70
     Davidson diagonalization with overlap
     ethr =  2.94E-03,  avg # of iterations =  1.8

     negative rho (up, down):  5.585E-05 0.000E+00

     total cpu time spent up to now is       40.2 secs

     total energy              =   -1374.39565075 Ry
     estimated scf accuracy    <       0.33899774 Ry

     iteration #  6     ecut=    70.00 Ry     beta= 0.70
     Davidson diagonalization with overlap
     ethr =  5.75E-04,  avg # of iterations =  1.4

     negative rho (up, down):  5.949E-05 0.000E+00

     total cpu time spent up to now is       45.1 secs

     total energy              =   -1374.38849417 Ry
     estimated scf accuracy    <       0.13321108 Ry

     iteration #  7     ecut=    70.00 Ry     beta= 0.70
     Davidson diagonalization with overlap
     ethr =  2.26E-04,  avg # of iterations =  1.5

     negative rho (up, down):  5.825E-05 0.000E+00

     total cpu time spent up to now is       50.0 secs

     total energy              =   -1374.38460915 Ry
     estimated scf accuracy    <       0.04761799 Ry

     iteration #  8     ecut=    70.00 Ry     beta= 0.70
     Davidson diagonalization with overlap
     ethr =  8.07E-05,  avg # of iterations =  2.8

     negative rho (up, down):  4.898E-05 0.000E+00

     total cpu time spent up to now is       55.1 secs

     total energy              =   -1374.38374809 Ry
     estimated scf accuracy    <       0.03681115 Ry

     iteration #  9     ecut=    70.00 Ry     beta= 0.70
     Davidson diagonalization with overlap
     ethr =  6.24E-05,  avg # of iterations =  2.1

     negative rho (up, down):  4.944E-05 0.000E+00

     total cpu time spent up to now is       60.1 secs

     total energy              =   -1374.38260557 Ry
     estimated scf accuracy    <       0.02222926 Ry

     iteration # 10     ecut=    70.00 Ry     beta= 0.70
     Davidson diagonalization with overlap
     ethr =  3.77E-05,  avg # of iterations =  2.4

     negative rho (up, down):  5.541E-05 0.000E+00

     total cpu time spent up to now is       65.1 secs

     total energy              =   -1374.38261024 Ry
     estimated scf accuracy    <       0.00234480 Ry

     iteration # 11     ecut=    70.00 Ry     beta= 0.70
     Davidson diagonalization with overlap
     ethr =  3.97E-06,  avg # of iterations =  8.6

     negative rho (up, down):  5.963E-05 0.000E+00

     total cpu time spent up to now is       71.2 secs

     total energy              =   -1374.38278110 Ry
     estimated scf accuracy    <       0.00015467 Ry

     iteration # 12     ecut=    70.00 Ry     beta= 0.70
     Davidson diagonalization with overlap
     ethr =  2.62E-07,  avg # of iterations =  3.0

     negative rho (up, down):  6.301E-05 0.000E+00

     total cpu time spent up to now is       76.5 secs

     total energy              =   -1374.38280209 Ry
     estimated scf accuracy    <       0.00025672 Ry

     iteration # 13     ecut=    70.00 Ry     beta= 0.70
     Davidson diagonalization with overlap
     ethr =  2.62E-07,  avg # of iterations =  1.7

     negative rho (up, down):  6.836E-05 0.000E+00

     total cpu time spent up to now is       81.4 secs

     total energy              =   -1374.38281021 Ry
     estimated scf accuracy    <       0.00001228 Ry

     iteration # 14     ecut=    70.00 Ry     beta= 0.70
     Davidson diagonalization with overlap
     ethr =  2.08E-08,  avg # of iterations =  2.0

     negative rho (up, down):  6.903E-05 0.000E+00

     total cpu time spent up to now is       86.4 secs

     total energy              =   -1374.38281077 Ry
     estimated scf accuracy    <       0.00000083 Ry

     iteration # 15     ecut=    70.00 Ry     beta= 0.70
     Davidson diagonalization with overlap
     ethr =  1.41E-09,  avg # of iterations =  2.4

     negative rho (up, down):  6.948E-05 0.000E+00

     total cpu time spent up to now is       91.7 secs

     total energy              =   -1374.38281087 Ry
     estimated scf accuracy    <       0.00000053 Ry

     iteration # 16     ecut=    70.00 Ry     beta= 0.70
     Davidson diagonalization with overlap
     ethr =  8.97E-10,  avg # of iterations =  1.2

     negative rho (up, down):  7.028E-05 0.000E+00

     total cpu time spent up to now is       96.6 secs

     total energy              =   -1374.38281089 Ry
     estimated scf accuracy    <       0.00000013 Ry

     iteration # 17     ecut=    70.00 Ry     beta= 0.70
     Davidson diagonalization with overlap
     ethr =  2.23E-10,  avg # of iterations =  2.0

     negative rho (up, down):  7.040E-05 0.000E+00

     total cpu time spent up to now is      101.7 secs

     total energy              =   -1374.38281090 Ry
     estimated scf accuracy    <          7.9E-09 Ry

     iteration # 18     ecut=    70.00 Ry     beta= 0.70
     Davidson diagonalization with overlap
     ethr =  1.33E-11,  avg # of iterations =  4.1

     negative rho (up, down):  7.043E-05 0.000E+00

     total cpu time spent up to now is      107.1 secs

     total energy              =   -1374.38281090 Ry
     estimated scf accuracy    <          5.0E-10 Ry

     iteration # 19     ecut=    70.00 Ry     beta= 0.70
     Davidson diagonalization with overlap
     ethr =  8.50E-13,  avg # of iterations =  3.3

     negative rho (up, down):  7.043E-05 0.000E+00

     total cpu time spent up to now is      112.6 secs

     total energy              =   -1374.38281090 Ry
     estimated scf accuracy    <          3.4E-11 Ry

     iteration # 20     ecut=    70.00 Ry     beta= 0.70
     Davidson diagonalization with overlap
     ethr =  1.00E-13,  avg # of iterations =  3.1

     negative rho (up, down):  7.043E-05 0.000E+00

     total cpu time spent up to now is      118.0 secs

     total energy              =   -1374.38281090 Ry
     estimated scf accuracy    <          5.3E-12 Ry

     iteration # 21     ecut=    70.00 Ry     beta= 0.70
     Davidson diagonalization with overlap
     ethr =  1.00E-13,  avg # of iterations =  1.1

     negative rho (up, down):  7.042E-05 0.000E+00

     total cpu time spent up to now is      122.9 secs

     End of self-consistent calculation

          k = 0.0000 0.0000 0.0000 ( 15969 PWs)   bands (ev):

   -69.2086 -68.8862 -36.0334 -35.3275 -35.3275 -35.2869 -35.1402 -35.1402
   -20.8925 -20.8558 -20.8558 -20.8455 -20.8455 -20.8235 -20.7616 -20.5685
   -20.5299 -20.5299 -20.5057 -20.4772 -20.4686 -20.4686 -14.0571  -8.5006
    -5.0190  -5.0190  -4.3682  -2.8692  -1.7588  -1.0300  -1.0300   0.9396
     0.9396   1.9139   1.9139   2.4826

          k = 0.0000 0.0924 0.0000 ( 15949 PWs)   bands (ev):

   -69.2056 -68.8833 -36.0235 -35.3852 -35.3396 -35.2744 -35.1853 -35.1497
   -20.8912 -20.8573 -20.8561 -20.8459 -20.8443 -20.8208 -20.7644 -20.5660
   -20.5301 -20.5287 -20.5085 -20.4760 -20.4702 -20.4690 -13.9430  -8.2823
    -5.4104  -4.9825  -4.2083  -2.7819  -1.7329  -1.3439  -0.8433   0.4690
     0.7929   1.8962   2.1558   3.1935

          k = 0.0000 0.1849 0.0000 ( 15901 PWs)   bands (ev):

   -69.1973 -68.8752 -35.9975 -35.5186 -35.3724 -35.3055 -35.2625 -35.1756
   -20.8878 -20.8615 -20.8571 -20.8468 -20.8411 -20.8135 -20.7718 -20.5591
   -20.5309 -20.5258 -20.5160 -20.4742 -20.4725 -20.4698 -13.6401  -7.7026
    -6.1048  -4.9171  -3.9727  -2.7419  -2.0634  -1.5723  -0.3274   0.0910
     0.7824   1.8614   2.4908   4.1111

          k = 0.0000 0.2773 0.0000 ( 15847 PWs)   bands (ev):

   -69.1859 -68.8642 -35.9678 -35.6906 -35.4587 -35.4167 -35.2537 -35.2110
   -20.8835 -20.8669 -20.8586 -20.8472 -20.8366 -20.8037 -20.7814 -20.5497
   -20.5320 -20.5276 -20.5204 -20.4795 -20.4707 -20.4675 -13.2510  -7.2394
    -6.4814  -4.9049  -3.6983  -3.2730  -2.0923  -1.4532   0.1686   0.3809
     1.3047   1.8485   2.6624   4.7506

          k = 0.0000 0.3697 0.0000 ( 15829 PWs)   bands (ev):

   -69.1746 -68.8531 -35.9595 -35.8507 -35.5913 -35.4605 -35.2470 -35.2462
   -20.8798 -20.8720 -20.8605 -20.8469 -20.8320 -20.7936 -20.7904 -20.5409
   -20.5374 -20.5325 -20.5165 -20.4846 -20.4714 -20.4624 -12.8980  -7.6013
    -6.0597  -4.9663  -3.9503  -3.1476  -1.7779  -1.1172   0.5429   1.1925
     1.7680   2.3005   2.7428   4.8673

          k = 0.0000 0.4622 0.0000 ( 15872 PWs)   bands (ev):

   -69.1663 -68.8450 -36.0086 -35.9342 -35.6603 -35.4923 -35.2720 -35.2433
   -20.8779 -20.8754 -20.8620 -20.8461 -20.8286 -20.7966 -20.7862 -20.5446
   -20.5372 -20.5301 -20.5133 -20.4881 -20.4720 -20.4585 -12.6679  -7.9320
    -5.8531  -5.0447  -4.3222  -2.5575  -1.2234  -0.7673   0.9361   1.6908
     1.9176   2.8245   3.4670   4.7683

          k = 0.0000-0.5546 0.0000 ( 15886 PWs)   bands (ev):

   -69.1633 -68.8421 -36.0443 -35.9548 -35.6764 -35.5038 -35.2814 -35.2422
   -20.8777 -20.8762 -20.8626 -20.8456 -20.8274 -20.7988 -20.7834 -20.5473
   -20.5370 -20.5281 -20.5121 -20.4893 -20.4722 -20.4570 -12.5906  -8.0472
    -5.8265  -5.0787  -4.4475  -2.2777  -0.8981  -0.6392   1.1039   1.7042
     2.1397   3.0579   4.0125   4.7643

          k = 0.0801 0.1387 0.0000 ( 15911 PWs)   bands (ev):

   -69.1999 -68.8778 -36.0055 -35.4737 -35.3685 -35.2684 -35.2589 -35.1710
   -20.8888 -20.8601 -20.8568 -20.8466 -20.8421 -20.8158 -20.7695 -20.5613
   -20.5305 -20.5268 -20.5137 -20.4736 -20.4728 -20.4697 -13.7343  -7.8753
    -5.8988  -4.9970  -4.0037  -2.6739  -1.9373  -1.5981  -0.5425   0.3758
     0.4403   2.0679   2.3509   3.9062

          k = 0.0801 0.2311 0.0000 ( 15883 PWs)   bands (ev):

   -69.1901 -68.8682 -35.9771 -35.6175 -35.4345 -35.3734 -35.2552 -35.2084
   -20.8849 -20.8647 -20.8582 -20.8472 -20.8383 -20.8073 -20.7780 -20.5531
   -20.5312 -20.5252 -20.5210 -20.4772 -20.4709 -20.4694 -13.3876  -7.2202
    -6.4777  -5.1025  -3.6748  -2.8366  -2.3166  -1.4553  -0.4219   0.4796
     0.8563   2.0179   2.7969   4.5433

          k = 0.0801 0.3235 0.0000 ( 15861 PWs)   bands (ev):

   -69.1788 -68.8572 -35.9552 -35.7770 -35.5460 -35.4513 -35.2557 -35.2422
   -20.8807 -20.8698 -20.8600 -20.8472 -20.8340 -20.7974 -20.7875 -20.5438
   -20.5338 -20.5318 -20.5187 -20.4821 -20.4720 -20.4644 -13.0163  -7.2666
    -6.2650  -5.2306  -3.5046  -3.2172  -2.0384  -1.3318  -0.1460   0.9171
     1.6899   2.1774   3.0643   5.0089

          k = 0.0801 0.4160 0.0000 ( 15872 PWs)   bands (ev):

   -69.1689 -68.8476 -35.9706 -35.8972 -35.6345 -35.5029 -35.2877 -35.2406
   -20.8777 -20.8738 -20.8619 -20.8465 -20.8304 -20.7953 -20.7885 -20.5425
   -20.5371 -20.5309 -20.5153 -20.4863 -20.4729 -20.4599 -12.7267  -7.6741
    -5.8675  -5.3212  -3.9007  -2.7230  -1.5671  -1.0554   0.3427   1.1574
     2.3016   2.9429   3.2904   4.8651

          k = 0.0801 0.5084 0.0000 ( 15857 PWs)   bands (ev):

   -69.1633 -68.8421 -36.0212 -35.9400 -35.6687 -35.5312 -35.3075 -35.2386
   -20.8768 -20.8755 -20.8631 -20.8456 -20.8284 -20.7995 -20.7835 -20.5474
   -20.5358 -20.5280 -20.5132 -20.4886 -20.4733 -20.4573 -12.5756  -7.8979
    -5.7733  -5.3846  -4.0907  -2.2873  -1.0603  -0.7838   0.6039   1.3089
     2.8778   2.9761   4.0790   4.7130

          k = 0.1601 0.2773 0.0000 ( 15868 PWs)   bands (ev):

   -69.1803 -68.8587 -35.9548 -35.7343 -35.5418 -35.4381 -35.2700 -35.2423
   -20.8808 -20.8687 -20.8601 -20.8474 -20.8349 -20.7987 -20.7865 -20.5449
   -20.5325 -20.5309 -20.5201 -20.4807 -20.4729 -20.4651 -13.0580  -6.8959
    -6.5200  -5.4816  -3.2226  -2.9686  -2.4473  -1.0367  -0.9291   0.8674
     1.6894   2.0804   3.4880   5.0209

          k = 0.1601 0.3697 0.0000 ( 15858 PWs)   bands (ev):

   -69.1705 -68.8491 -35.9476 -35.8408 -35.6248 -35.5133 -35.3281 -35.2369
   -20.8769 -20.8721 -20.8623 -20.8468 -20.8321 -20.7951 -20.7899 -20.5413
   -20.5370 -20.5301 -20.5177 -20.4842 -20.4748 -20.4609 -12.7515  -7.2495
    -5.9445  -5.7489  -3.2462  -2.7186  -2.1017  -1.3359  -0.3843   1.0181
     2.3716   2.7428   4.0884   5.1002

          k = 0.1601 0.4622 0.0000 ( 15854 PWs)   bands (ev):

   -69.1633 -68.8421 -35.9695 -35.9028 -35.6617 -35.5787 -35.3694 -35.2334
   -20.8748 -20.8738 -20.8642 -20.8456 -20.8305 -20.8010 -20.7836 -20.5475
   -20.5333 -20.5275 -20.5157 -20.4869 -20.4761 -20.4578 -12.5452  -7.5158
    -5.9020  -5.6477  -3.3891  -2.2959  -1.5348  -1.2263  -0.1104   1.2533
     2.6855   3.2216   4.5929   4.7256

          k = 0.1601 0.5546 0.0000 ( 15868 PWs)   bands (ev):

   -69.1606 -68.8395 -35.9881 -35.9182 -35.6673 -35.6070 -35.3839 -35.2324
   -20.8753 -20.8732 -20.8650 -20.8449 -20.8301 -20.8032 -20.7812 -20.5498
   -20.5328 -20.5259 -20.5149 -20.4878 -20.4765 -20.4567 -12.4740  -7.6135
    -5.9310  -5.6038  -3.4476  -2.1024  -1.2043  -1.0642  -0.0814   1.4366
     2.8113   3.0801   4.3961   5.0682

          k = 0.2402 0.4160 0.0000 ( 15850 PWs)   bands (ev):

   -69.1633 -68.8421 -35.9432 -35.8703 -35.6881 -35.5756 -35.4113 -35.2312
   -20.8737 -20.8728 -20.8650 -20.8456 -20.8316 -20.8018 -20.7836 -20.5475
   -20.5320 -20.5270 -20.5174 -20.4855 -20.4779 -20.4580 -12.5300  -7.2200
    -6.2323  -5.5807  -2.7208  -2.3194  -2.1145  -1.5002  -0.3370   1.2251
     2.6004   3.2428   4.6207   5.0135

          k = 0.2402 0.5084 0.0000 ( 15844 PWs)   bands (ev):

   -69.1591 -68.8380 -35.9299 -35.8832 -35.7320 -35.6130 -35.4645 -35.2287
   -20.8733 -20.8710 -20.8672 -20.8440 -20.8323 -20.8057 -20.7800 -20.5511
   -20.5295 -20.5245 -20.5174 -20.4860 -20.4800 -20.4565 -12.4060  -7.2247
    -6.4269  -5.4291  -2.6069  -2.0593  -1.6688  -1.4324  -0.3932   1.4925
     2.4622   2.8386   4.3387   5.2237

          k = 0.3202 0.5546 0.0000 ( 15798 PWs)   bands (ev):

   -69.1576 -68.8365 -35.8782 -35.8603 -35.8142 -35.6042 -35.5173 -35.2271
   -20.8711 -20.8700 -20.8697 -20.8429 -20.8337 -20.8074 -20.7787 -20.5525
   -20.5274 -20.5233 -20.5187 -20.4838 -20.4833 -20.4561 -12.3535  -6.9209
    -6.8033  -5.3254  -2.1440  -1.9090  -1.7728  -1.5777  -0.4892   1.5302
     2.1957   2.5000   4.3116   5.5565

     the Fermi energy is    -1.2120 ev

!    total energy              =   -1374.38281090 Ry
     estimated scf accuracy    <          5.7E-13 Ry
     smearing contrib. (-TS)   =       0.00001634 Ry
     internal energy E=F+TS    =   -1374.38282723 Ry

     The total energy is F=E-TS. E is the sum of the following terms:
     one-electron contribution =  -10959.98696499 Ry
     hartree contribution      =    5506.89951382 Ry
     xc contribution           =    -139.42263600 Ry
     ewald contribution        =    4218.12725994 Ry

     convergence has been achieved in  21 iterations

     negative rho (up, down):  7.042E-05 0.000E+00

     Forces acting on atoms (cartesian axes, Ry/au):

     atom    1 type  2   force =     0.00000000    0.00000000    0.00026513
     atom    2 type  1   force =     0.00000000    0.00000000   -0.00040311
     atom    3 type  1   force =    -0.00000000   -0.00000000    0.00024143
     atom    4 type  3   force =     0.00000000    0.00000000   -0.00010345

     Total force =     0.000549     Total SCF correction =     0.000008


     Computing stress (Cartesian axis) and pressure


     negative rho (up, down):  7.042E-05 0.000E+00
          total   stress  (Ry/bohr**3)                   (kbar)     P=       -0.34
  -0.00000162   0.00000000  -0.00000000           -0.24        0.00       -0.00
   0.00000000  -0.00000162  -0.00000000            0.00       -0.24       -0.00
   0.00000000   0.00000000  -0.00000359            0.00        0.00       -0.53


     BFGS Geometry Optimization
     Energy error            =      0.0E+00 Ry
     Gradient error          =      4.0E-04 Ry/Bohr

     bfgs converged in   1 scf cycles and   0 bfgs steps
     (criteria: energy <  1.0E-04 Ry, force <  1.0E-03 Ry/Bohr)

     End of BFGS Geometry Optimization

     Final energy             =   -1374.3828108973 Ry
Begin final coordinates

ATOMIC_POSITIONS (alat)
C             0.0000000000        0.0000000000        0.0000000000
Ta            0.5204903000        0.3005052000       -0.4156024000
Ta            0.0000000000        0.6010105000        0.4260806000
H             0.0000000000        0.6010105000        1.0359681000
End final coordinates



     Writing output data file /scratch/as3359/Ta2C_loop/Ta.save/
 
     init_run     :     14.86s CPU      9.59s WALL (       1 calls)
     electrons    :    210.11s CPU    113.15s WALL (       1 calls)
     forces       :      8.53s CPU      4.44s WALL (       1 calls)
     stress       :     23.31s CPU     12.18s WALL (       1 calls)

     Called by init_run:
     wfcinit      :      2.49s CPU      1.28s WALL (       1 calls)
     potinit      :      3.54s CPU      1.79s WALL (       1 calls)
     hinit0       :      7.02s CPU      5.37s WALL (       1 calls)

     Called by electrons:
     c_bands      :    109.44s CPU     55.60s WALL (      21 calls)
     sum_band     :     58.46s CPU     33.06s WALL (      21 calls)
     v_of_rho     :      6.04s CPU      3.23s WALL (      22 calls)
     newd         :     36.53s CPU     21.53s WALL (      22 calls)
     mix_rho      :      0.97s CPU      0.52s WALL (      21 calls)

     Called by c_bands:
     init_us_2    :      2.92s CPU      1.47s WALL (     855 calls)
     cegterg      :     99.50s CPU     50.60s WALL (     399 calls)

     Called by *egterg:
     cdiaghg      :      3.51s CPU      1.80s WALL (    1669 calls)
     h_psi        :     79.66s CPU     40.56s WALL (    1688 calls)
     s_psi        :      3.42s CPU      1.72s WALL (    1688 calls)
     g_psi        :      0.57s CPU      0.29s WALL (    1270 calls)

     Called by h_psi:
     h_psi:calbec :      3.43s CPU      1.72s WALL (    1688 calls)
     vloc_psi     :     71.72s CPU     36.55s WALL (    1688 calls)
     add_vuspsi   :      3.85s CPU      1.93s WALL (    1688 calls)

     General routines
     calbec       :      4.94s CPU      2.48s WALL (    2182 calls)
     fft          :      3.34s CPU      1.94s WALL (     309 calls)
     ffts         :      0.11s CPU      0.06s WALL (      43 calls)
     fftw         :     75.84s CPU     38.68s WALL (   82876 calls)
     interpolate  :      0.32s CPU      0.17s WALL (      22 calls)
 
     Parallel routines
 
     PWSCF        :   4m17.54s CPU   2m20.04s WALL

 
   This run was terminated on:  18:32:40  21Apr2022            

=------------------------------------------------------------------------------=
   JOB DONE.
=------------------------------------------------------------------------------=
