
     Program PWSCF v.6.8 starts on 21Apr2022 at 17:54:33 

     This program is part of the open-source Quantum ESPRESSO suite
     for quantum simulation of materials; please cite
         "P. Giannozzi et al., J. Phys.:Condens. Matter 21 395502 (2009);
         "P. Giannozzi et al., J. Phys.:Condens. Matter 29 465901 (2017);
         "P. Giannozzi et al., J. Chem. Phys. 152 154105 (2020);
          URL http://www.quantum-espresso.org", 
     in publications or presentations arising from this work. More details at
     http://www.quantum-espresso.org/quote

     Parallel version (MPI & OpenMP), running on       4 processor cores
     Number of MPI processes:                 2
     Threads/MPI process:                     2

     MPI processes distributed on     1 nodes
     R & G space division:  proc/nbgrp/npool/nimage =       2
     125260 MiB available memory on the printing compute node when the environment starts
 
     Reading input from Ta2CH.vcrelax.in

     Current dimensions of program PWSCF are:
     Max number of different atomic species (ntypx) = 10
     Max number of k-points (npk) =  40000
     Max angular momentum in pseudopotentials (lmaxx) =  4
     file Ta.pbesol-spfn-rrkjus_psl.1.0.0.UPF: wavefunction(s)  5S 5P renormalized
     Message from routine setup:
     using ibrav=0 with symmetry is DISCOURAGED, use correct ibrav instead

     Subspace diagonalization in iterative solution of the eigenvalue problem:
     a serial algorithm will be used

 
     Parallelization info
     --------------------
     sticks:   dense  smooth     PW     G-vecs:    dense   smooth      PW
     Min         807     324     98               250741    63556   10218
     Max         808     325    101               250768    63579   10229
     Sum        1615     649    199               501509   127135   20447
 
     Using Slab Decomposition
 


     bravais-lattice index     =            0
     lattice parameter (alat)  =       5.5500  a.u.
     unit-cell volume          =    1603.2166 (a.u.)^3
     number of atoms/cell      =            4
     number of atomic types    =            3
     number of electrons       =        59.00
     number of Kohn-Sham states=           36
     kinetic-energy cutoff     =      70.0000  Ry
     charge density cutoff     =     700.0000  Ry
     scf convergence threshold =      1.0E-12
     mixing beta               =       0.7000
     number of iterations used =            8  plain     mixing
     energy convergence thresh.=      1.0E-04
     force convergence thresh. =      1.0E-03
     press convergence thresh. =      5.0E-01
     Exchange-correlation= PBESOL
                           (   1   4  10   8   0   0   0)
     nstep                     =           50


     celldm(1)=   5.550000  celldm(2)=   0.000000  celldm(3)=   0.000000
     celldm(4)=   0.000000  celldm(5)=   0.000000  celldm(6)=   0.000000

     crystal axes: (cart. coord. in units of alat)
               a(1) = (   1.040618   0.000000   0.000000 )  
               a(2) = (  -0.520309   0.901202   0.000000 )  
               a(3) = (   0.000000   0.000000  10.000000 )  

     reciprocal axes: (cart. coord. in units 2 pi/alat)
               b(1) = (  0.960967  0.554815  0.000000 )  
               b(2) = (  0.000000  1.109630  0.000000 )  
               b(3) = (  0.000000  0.000000  0.100000 )  


     PseudoPot. # 1 for Ta read from file:
     /shared/home/as3359/pseudo/Ta.pbesol-spfn-rrkjus_psl.1.0.0.UPF
     MD5 check sum: f099565ffaca9b150a52e9412a28e20b
     Pseudo is Ultrasoft + core correction, Zval = 27.0
     Generated using &quot;atomic&quot; code by A. Dal Corso  v.6.3
     Using radial grid of 1273 points,  8 beta functions with: 
                l(1) =   0
                l(2) =   0
                l(3) =   1
                l(4) =   1
                l(5) =   2
                l(6) =   2
                l(7) =   3
                l(8) =   3
     Q(r) pseudized with 0 coefficients 


     PseudoPot. # 2 for C  read from file:
     /shared/home/as3359/pseudo/C.pbesol-n-rrkjus_psl.1.0.0.UPF
     MD5 check sum: 05995be603a8a7c99da3dc4413f31573
     Pseudo is Ultrasoft + core correction, Zval =  4.0
     Generated using &quot;atomic&quot; code by A. Dal Corso  v.6.3MaX
     Using radial grid of 1073 points,  4 beta functions with: 
                l(1) =   0
                l(2) =   0
                l(3) =   1
                l(4) =   1
     Q(r) pseudized with 0 coefficients 


     PseudoPot. # 3 for H  read from file:
     /shared/home/as3359/pseudo/H.pbesol-rrkjus_psl.0.1.UPF
     MD5 check sum: 1dbb1a5c48b1283557b8117eb856a7ca
     Pseudo is Ultrasoft, Zval =  1.0
     Generated using "atomic" code by A. Dal Corso  v.5.0.2 svn rev. 9415
     Using radial grid of  929 points,  2 beta functions with: 
                l(1) =   0
                l(2) =   0
     Q(r) pseudized with 0 coefficients 


     atomic species   valence    mass     pseudopotential
        Ta            27.00   180.94788     Ta( 1.00)
        C              4.00    12.01070     C ( 1.00)
        H              1.00     1.00000     H ( 1.00)

      6 Sym. Ops. (no inversion) found



   Cartesian axes

     site n.     atom                  positions (alat units)
         1           C   tau(   1) = (   0.0000000   0.0000000   0.0000000  )
         2           Ta  tau(   2) = (   0.5203090   0.3004005  -0.4101496  )
         3           Ta  tau(   3) = (  -0.0000000   0.6008011   0.4101496  )
         4           H   tau(   4) = (  -0.0000000   0.6008011   0.9240391  )

     number of k points=    19  Marzari-Vanderbilt smearing, width (Ry)=  0.0010
                       cart. coord. in units 2pi/alat
        k(    1) = (   0.0000000   0.0000000   0.0000000), wk =   0.0138889
        k(    2) = (   0.0000000   0.0924691   0.0000000), wk =   0.0833333
        k(    3) = (   0.0000000   0.1849383   0.0000000), wk =   0.0833333
        k(    4) = (   0.0000000   0.2774074   0.0000000), wk =   0.0833333
        k(    5) = (   0.0000000   0.3698766   0.0000000), wk =   0.0833333
        k(    6) = (   0.0000000   0.4623457   0.0000000), wk =   0.0833333
        k(    7) = (   0.0000000  -0.5548148   0.0000000), wk =   0.0416667
        k(    8) = (   0.0800806   0.1387037   0.0000000), wk =   0.0833333
        k(    9) = (   0.0800806   0.2311728   0.0000000), wk =   0.1666667
        k(   10) = (   0.0800806   0.3236420   0.0000000), wk =   0.1666667
        k(   11) = (   0.0800806   0.4161111   0.0000000), wk =   0.1666667
        k(   12) = (   0.0800806   0.5085803   0.0000000), wk =   0.1666667
        k(   13) = (   0.1601612   0.2774074   0.0000000), wk =   0.0833333
        k(   14) = (   0.1601612   0.3698766   0.0000000), wk =   0.1666667
        k(   15) = (   0.1601612   0.4623457   0.0000000), wk =   0.1666667
        k(   16) = (   0.1601612   0.5548148   0.0000000), wk =   0.0833333
        k(   17) = (   0.2402419   0.4161111   0.0000000), wk =   0.0833333
        k(   18) = (   0.2402419   0.5085803   0.0000000), wk =   0.1666667
        k(   19) = (   0.3203225   0.5548148   0.0000000), wk =   0.0277778

     Dense  grid:   501509 G-vectors     FFT dimensions: (  50,  50, 480)

     Smooth grid:   127135 G-vectors     FFT dimensions: (  32,  32, 300)

     Estimated max dynamical RAM per process >       2.45 GB

     Estimated total dynamical RAM >       4.91 GB

     Initial potential from superposition of free atoms

     starting charge   58.99841, renormalised to   59.00000

     negative rho (up, down):  5.007E-05 0.000E+00
     Starting wfcs are   39 randomized atomic wfcs

     total cpu time spent up to now is       18.5 secs

     Self-consistent Calculation

     iteration #  1     ecut=    70.00 Ry     beta= 0.70
     Davidson diagonalization with overlap
     ethr =  1.00E-02,  avg # of iterations =  2.2

     negative rho (up, down):  1.785E-05 0.000E+00

     total cpu time spent up to now is       23.8 secs

     total energy              =   -1372.65451274 Ry
     estimated scf accuracy    <       2.32445763 Ry

     iteration #  2     ecut=    70.00 Ry     beta= 0.70
     Davidson diagonalization with overlap
     ethr =  3.94E-03,  avg # of iterations =  8.6

     negative rho (up, down):  1.738E-04 0.000E+00

     total cpu time spent up to now is       31.3 secs

     total energy              =   -1366.02106343 Ry
     estimated scf accuracy    <     169.92983096 Ry

     iteration #  3     ecut=    70.00 Ry     beta= 0.70
     Davidson diagonalization with overlap
     ethr =  3.94E-03,  avg # of iterations =  8.5

     negative rho (up, down):  9.694E-05 0.000E+00

     total cpu time spent up to now is       38.8 secs

     WARNING: integrated charge=    59.00175674, expected=    59.00000000

     total energy              =   -1374.25584880 Ry
     estimated scf accuracy    <       0.51839458 Ry

     iteration #  4     ecut=    70.00 Ry     beta= 0.70
     Davidson diagonalization with overlap
     ethr =  8.79E-04,  avg # of iterations =  2.6

     negative rho (up, down):  9.623E-05 0.000E+00

     total cpu time spent up to now is       44.1 secs

     WARNING: integrated charge=    59.00157007, expected=    59.00000000

     total energy              =   -1374.32461426 Ry
     estimated scf accuracy    <       0.28299878 Ry

     iteration #  5     ecut=    70.00 Ry     beta= 0.70
     Davidson diagonalization with overlap
     ethr =  4.80E-04,  avg # of iterations =  1.7

     negative rho (up, down):  6.427E-05 0.000E+00

     total cpu time spent up to now is       49.1 secs

     WARNING: integrated charge=    59.00070973, expected=    59.00000000

     total energy              =   -1374.32669342 Ry
     estimated scf accuracy    <       0.13781678 Ry

     iteration #  6     ecut=    70.00 Ry     beta= 0.70
     Davidson diagonalization with overlap
     ethr =  2.34E-04,  avg # of iterations =  1.6

     negative rho (up, down):  4.949E-05 0.000E+00

     total cpu time spent up to now is       54.1 secs

     WARNING: integrated charge=    59.00014900, expected=    59.00000000

     total energy              =   -1374.33376172 Ry
     estimated scf accuracy    <       0.27444321 Ry

     iteration #  7     ecut=    70.00 Ry     beta= 0.70
     Davidson diagonalization with overlap
     ethr =  2.34E-04,  avg # of iterations =  1.5

     negative rho (up, down):  5.590E-05 0.000E+00

     total cpu time spent up to now is       59.0 secs

     WARNING: integrated charge=    58.99990995, expected=    59.00000000

     total energy              =   -1374.32888495 Ry
     estimated scf accuracy    <       0.10570472 Ry

     iteration #  8     ecut=    70.00 Ry     beta= 0.70
     Davidson diagonalization with overlap
     ethr =  1.79E-04,  avg # of iterations =  2.9

     negative rho (up, down):  5.457E-05 0.000E+00

     total cpu time spent up to now is       64.1 secs

     WARNING: integrated charge=    58.99988772, expected=    59.00000000

     total energy              =   -1374.33015750 Ry
     estimated scf accuracy    <       0.01422395 Ry

     iteration #  9     ecut=    70.00 Ry     beta= 0.70
     Davidson diagonalization with overlap
     ethr =  2.41E-05,  avg # of iterations =  7.3
     Minimization algorithm failed to find Fermi energy: reverting to bisection
     Possible cause: smearing is larger than the electronic band-gap.

     negative rho (up, down):  5.422E-05 0.000E+00

     total cpu time spent up to now is       69.7 secs

     WARNING: integrated charge=    58.99991288, expected=    59.00000000

     total energy              =   -1374.33066125 Ry
     estimated scf accuracy    <       0.00378050 Ry

     iteration # 10     ecut=    70.00 Ry     beta= 0.70
     Davidson diagonalization with overlap
     ethr =  6.41E-06,  avg # of iterations =  3.3

     negative rho (up, down):  2.009E-03 0.000E+00

     total cpu time spent up to now is       74.8 secs

     WARNING: integrated charge=    58.99992742, expected=    59.00000000

     total energy              =   -1374.33022200 Ry
     estimated scf accuracy    <       0.01289507 Ry

     iteration # 11     ecut=    70.00 Ry     beta= 0.70
     Davidson diagonalization with overlap
     ethr =  6.41E-06,  avg # of iterations =  5.5
     Minimization algorithm failed to find Fermi energy: reverting to bisection
     Possible cause: smearing is larger than the electronic band-gap.

     negative rho (up, down):  6.431E-05 0.000E+00

     total cpu time spent up to now is       80.2 secs

     WARNING: integrated charge=    58.99997551, expected=    59.00000000

     total energy              =   -1374.33082269 Ry
     estimated scf accuracy    <       0.00563075 Ry

     iteration # 12     ecut=    70.00 Ry     beta= 0.70
     Davidson diagonalization with overlap
     ethr =  6.41E-06,  avg # of iterations =  5.6

     negative rho (up, down):  6.534E-05 0.000E+00

     total cpu time spent up to now is       85.5 secs

     WARNING: integrated charge=    58.99998450, expected=    59.00000000

     total energy              =   -1374.33079699 Ry
     estimated scf accuracy    <       0.00398188 Ry

     iteration # 13     ecut=    70.00 Ry     beta= 0.70
     Davidson diagonalization with overlap
     ethr =  6.41E-06,  avg # of iterations =  1.0

     negative rho (up, down):  6.645E-05 0.000E+00

     total cpu time spent up to now is       90.4 secs

     WARNING: integrated charge=    58.99999102, expected=    59.00000000

     total energy              =   -1374.33077344 Ry
     estimated scf accuracy    <       0.00185254 Ry

     iteration # 14     ecut=    70.00 Ry     beta= 0.70
     Davidson diagonalization with overlap
     ethr =  3.14E-06,  avg # of iterations =  1.2

     negative rho (up, down):  6.758E-05 0.000E+00

     total cpu time spent up to now is       95.3 secs

     total energy              =   -1374.33078546 Ry
     estimated scf accuracy    <       0.00003848 Ry

     iteration # 15     ecut=    70.00 Ry     beta= 0.70
     Davidson diagonalization with overlap
     ethr =  6.52E-08,  avg # of iterations =  1.1

     negative rho (up, down):  6.984E-05 0.000E+00

     total cpu time spent up to now is      100.2 secs

     total energy              =   -1374.33078509 Ry
     estimated scf accuracy    <       0.00001806 Ry

     iteration # 16     ecut=    70.00 Ry     beta= 0.70
     Davidson diagonalization with overlap
     ethr =  3.06E-08,  avg # of iterations =  1.4

     negative rho (up, down):  6.984E-05 0.000E+00

     total cpu time spent up to now is      105.1 secs

     total energy              =   -1374.33078533 Ry
     estimated scf accuracy    <       0.00002983 Ry

     iteration # 17     ecut=    70.00 Ry     beta= 0.70
     Davidson diagonalization with overlap
     ethr =  3.06E-08,  avg # of iterations =  1.0

     negative rho (up, down):  6.985E-05 0.000E+00

     total cpu time spent up to now is      109.9 secs

     total energy              =   -1374.33078563 Ry
     estimated scf accuracy    <       0.00000040 Ry

     iteration # 18     ecut=    70.00 Ry     beta= 0.70
     Davidson diagonalization with overlap
     ethr =  6.85E-10,  avg # of iterations =  2.2

     negative rho (up, down):  6.987E-05 0.000E+00

     total cpu time spent up to now is      114.9 secs

     total energy              =   -1374.33078563 Ry
     estimated scf accuracy    <       0.00000046 Ry

     iteration # 19     ecut=    70.00 Ry     beta= 0.70
     Davidson diagonalization with overlap
     ethr =  6.85E-10,  avg # of iterations =  1.0

     negative rho (up, down):  6.984E-05 0.000E+00

     total cpu time spent up to now is      119.8 secs

     total energy              =   -1374.33078563 Ry
     estimated scf accuracy    <       0.00000003 Ry

     iteration # 20     ecut=    70.00 Ry     beta= 0.70
     Davidson diagonalization with overlap
     ethr =  4.86E-11,  avg # of iterations =  2.6

     negative rho (up, down):  6.984E-05 0.000E+00

     total cpu time spent up to now is      124.9 secs

     total energy              =   -1374.33078563 Ry
     estimated scf accuracy    <       0.00000001 Ry

     iteration # 21     ecut=    70.00 Ry     beta= 0.70
     Davidson diagonalization with overlap
     ethr =  2.15E-11,  avg # of iterations =  1.1

     negative rho (up, down):  6.984E-05 0.000E+00

     total cpu time spent up to now is      129.7 secs

     total energy              =   -1374.33078563 Ry
     estimated scf accuracy    <          2.5E-11 Ry

     iteration # 22     ecut=    70.00 Ry     beta= 0.70
     Davidson diagonalization with overlap
     ethr =  1.00E-13,  avg # of iterations =  5.5

     negative rho (up, down):  6.984E-05 0.000E+00

     total cpu time spent up to now is      135.5 secs

     total energy              =   -1374.33078563 Ry
     estimated scf accuracy    <          1.2E-10 Ry

     iteration # 23     ecut=    70.00 Ry     beta= 0.70
     Davidson diagonalization with overlap
     ethr =  1.00E-13,  avg # of iterations =  1.0

     negative rho (up, down):  6.984E-05 0.000E+00

     total cpu time spent up to now is      140.3 secs

     total energy              =   -1374.33078563 Ry
     estimated scf accuracy    <          1.8E-12 Ry

     iteration # 24     ecut=    70.00 Ry     beta= 0.70
     Davidson diagonalization with overlap
     ethr =  1.00E-13,  avg # of iterations =  1.0

     negative rho (up, down):  6.984E-05 0.000E+00

     total cpu time spent up to now is      145.0 secs

     End of self-consistent calculation

          k = 0.0000 0.0000 0.0000 ( 15945 PWs)   bands (ev):

   -69.0774 -68.4969 -35.9324 -35.2066 -35.2066 -35.0693 -34.7985 -34.7985
   -20.7577 -20.7207 -20.7207 -20.7118 -20.7118 -20.6887 -20.6260 -20.1514
   -20.1053 -20.1053 -20.0845 -20.0618 -20.0376 -20.0376 -13.9877  -8.4421
    -5.1173  -5.1173  -4.7348  -2.6118  -1.6918  -0.9589  -0.9589   1.0536
     1.0536   2.1839   2.1839   2.6937

          k = 0.0000 0.0925 0.0000 ( 15937 PWs)   bands (ev):

   -69.0743 -68.4939 -35.9220 -35.2617 -35.2184 -35.0600 -34.8454 -34.8088
   -20.7563 -20.7223 -20.7210 -20.7123 -20.7107 -20.6860 -20.6288 -20.1487
   -20.1056 -20.1041 -20.0874 -20.0605 -20.0392 -20.0380 -13.8718  -8.2221
    -5.5357  -5.0765  -4.5491  -2.5217  -1.6930  -1.2370  -0.7791   0.5722
     0.9312   2.1589   2.4110   3.4131

          k = 0.0000 0.1849 0.0000 ( 15883 PWs)   bands (ev):

   -69.0660 -68.4855 -35.8946 -35.3986 -35.2504 -35.0469 -34.9704 -34.8367
   -20.7527 -20.7264 -20.7220 -20.7131 -20.7074 -20.6787 -20.6362 -20.1412
   -20.1065 -20.1013 -20.0947 -20.0566 -20.0433 -20.0388 -13.5654  -7.6410
    -6.2141  -4.9979  -4.3214  -2.5198  -1.9817  -1.5027  -0.2859   0.1936
     0.9510   2.1481   2.7434   4.2302

          k = 0.0000 0.2774 0.0000 ( 15835 PWs)   bands (ev):

   -69.0545 -68.4741 -35.8613 -35.5732 -35.2939 -35.1326 -35.0368 -34.8747
   -20.7483 -20.7318 -20.7235 -20.7135 -20.7029 -20.6687 -20.6459 -20.1311
   -20.1078 -20.1069 -20.0952 -20.0512 -20.0487 -20.0398 -13.1769  -7.2567
    -6.4708  -4.9658  -4.0759  -3.1004  -1.9745  -1.4654   0.3051   0.4000
     1.4940   2.1668   2.9177   4.9175

          k = 0.0000 0.3699 0.0000 ( 15813 PWs)   bands (ev):

   -69.0431 -68.4627 -35.8452 -35.7318 -35.3370 -35.2807 -35.0305 -34.9124
   -20.7447 -20.7370 -20.7253 -20.7131 -20.6982 -20.6586 -20.6550 -20.1212
   -20.1170 -20.1088 -20.0908 -20.0539 -20.0454 -20.0406 -12.8334  -7.6392
    -5.9684  -5.0079  -4.0652  -3.2900  -1.7095  -1.1772   0.7251   1.2223
     2.0940   2.4898   2.9843   5.3662

          k = 0.0000 0.4623 0.0000 ( 15860 PWs)   bands (ev):

   -69.0347 -68.4544 -35.8946 -35.7945 -35.3741 -35.3683 -35.0274 -34.9398
   -20.7428 -20.7404 -20.7269 -20.7121 -20.6948 -20.6613 -20.6510 -20.1245
   -20.1154 -20.1083 -20.0874 -20.0575 -20.0412 -20.0411 -12.6177  -7.9423
    -5.7280  -5.0739  -4.3640  -2.9084  -1.1714  -0.7737   1.1630   1.9927
     2.0242   2.9744   3.6675   5.2738

          k = 0.0000-0.5548 0.0000 ( 15870 PWs)   bands (ev):

   -69.0317 -68.4513 -35.9314 -35.8021 -35.4034 -35.3797 -35.0266 -34.9498
   -20.7428 -20.7411 -20.7275 -20.7115 -20.6935 -20.6635 -20.6482 -20.1272
   -20.1142 -20.1071 -20.0862 -20.0587 -20.0414 -20.0395 -12.5475  -8.0449
    -5.6878  -5.1036  -4.4830  -2.7307  -0.8392  -0.5712   1.3452   1.9873
     2.3339   3.1107   4.2211   5.2457

          k = 0.0801 0.1387 0.0000 ( 15907 PWs)   bands (ev):

   -69.0686 -68.4882 -35.9031 -35.3532 -35.2441 -35.0498 -34.9282 -34.8308
   -20.7538 -20.7251 -20.7217 -20.7129 -20.7084 -20.6810 -20.6339 -20.1436
   -20.1060 -20.1022 -20.0925 -20.0579 -20.0419 -20.0387 -13.6604  -7.8121
    -6.0183  -5.0932  -4.3350  -2.4288  -1.8671  -1.5276  -0.4957   0.4579
     0.6264   2.3457   2.6065   4.0499

          k = 0.0801 0.2312 0.0000 ( 15867 PWs)   bands (ev):

   -69.0587 -68.4783 -35.8723 -35.5004 -35.2916 -35.0637 -35.0388 -34.8704
   -20.7497 -20.7297 -20.7231 -20.7136 -20.7046 -20.6724 -20.6426 -20.1348
   -20.1068 -20.1035 -20.0969 -20.0532 -20.0464 -20.0399 -13.3122  -7.1662
    -6.5604  -5.1909  -4.0057  -2.6823  -2.1758  -1.4413  -0.3505   0.5823
     1.0121   2.2977   3.1062   4.6778

          k = 0.0801 0.3236 0.0000 ( 15853 PWs)   bands (ev):

   -69.0473 -68.4669 -35.8448 -35.6606 -35.3463 -35.2090 -35.0309 -34.9154
   -20.7454 -20.7347 -20.7249 -20.7135 -20.7003 -20.6623 -20.6521 -20.1247
   -20.1133 -20.1077 -20.0933 -20.0515 -20.0476 -20.0411 -12.9462  -7.3152
    -6.1944  -5.2988  -3.7404  -3.2019  -1.9331  -1.3636  -0.0365   1.0405
     1.8479   2.4153   3.4005   5.3461

          k = 0.0801 0.4161 0.0000 ( 15858 PWs)   bands (ev):

   -69.0374 -68.4570 -35.8546 -35.7711 -35.3928 -35.3217 -35.0261 -34.9536
   -20.7424 -20.7388 -20.7267 -20.7126 -20.6966 -20.6600 -20.6534 -20.1223
   -20.1164 -20.1080 -20.0895 -20.0557 -20.0427 -20.0420 -12.6695  -7.6972
    -5.7583  -5.3663  -3.9405  -2.9980  -1.5017  -1.0894   0.5240   1.3295
     2.4336   3.1681   3.5678   5.3708

          k = 0.0801 0.5086 0.0000 ( 15845 PWs)   bands (ev):

   -69.0317 -68.4513 -35.9077 -35.7935 -35.4172 -35.3797 -35.0238 -34.9756
   -20.7418 -20.7403 -20.7279 -20.7116 -20.6945 -20.6643 -20.6483 -20.1273
   -20.1131 -20.1068 -20.0873 -20.0580 -20.0426 -20.0398 -12.5302  -7.8980
    -5.6451  -5.4122  -4.1175  -2.7145  -1.0073  -0.7367   0.8986   1.4235
     2.9761   3.2451   4.3047   5.2105

          k = 0.1602 0.2774 0.0000 ( 15858 PWs)   bands (ev):

   -69.0488 -68.4685 -35.8458 -35.6196 -35.3657 -35.1693 -35.0305 -34.9289
   -20.7455 -20.7337 -20.7249 -20.7138 -20.7011 -20.6637 -20.6511 -20.1260
   -20.1120 -20.1066 -20.0948 -20.0501 -20.0484 -20.0419 -12.9858  -6.9660
    -6.4526  -5.5462  -3.5663  -2.8467  -2.3488  -1.0126  -0.8403   1.0112
     1.8055   2.3149   3.9063   5.2749

          k = 0.1602 0.3699 0.0000 ( 15848 PWs)   bands (ev):

   -69.0389 -68.4586 -35.8321 -35.7230 -35.4409 -35.2661 -35.0262 -34.9889
   -20.7415 -20.7371 -20.7271 -20.7132 -20.6982 -20.6599 -20.6547 -20.1213
   -20.1168 -20.1063 -20.0922 -20.0536 -20.0441 -20.0436 -12.6891  -7.2862
    -5.9243  -5.7206  -3.3697  -2.8757  -2.0633  -1.2714  -0.3044   1.2037
     2.5275   2.8898   4.5232   5.5067

          k = 0.1602 0.4623 0.0000 ( 15846 PWs)   bands (ev):

   -69.0317 -68.4513 -35.8538 -35.7701 -35.4893 -35.3363 -35.0410 -35.0157
   -20.7397 -20.7385 -20.7291 -20.7118 -20.6966 -20.6658 -20.6484 -20.1276
   -20.1111 -20.1056 -20.0900 -20.0562 -20.0453 -20.0404 -12.4954  -7.5235
    -5.9378  -5.5188  -3.4419  -2.6494  -1.4869  -1.1826   0.0769   1.4015
     2.8295   3.4045   4.9699   5.1999

          k = 0.1602 0.5548 0.0000 ( 15864 PWs)   bands (ev):

   -69.0290 -68.4487 -35.8735 -35.7771 -35.5047 -35.3623 -35.0549 -35.0170
   -20.7403 -20.7378 -20.7299 -20.7111 -20.6962 -20.6680 -20.6460 -20.1299
   -20.1095 -20.1047 -20.0891 -20.0572 -20.0457 -20.0392 -12.4302  -7.6096
    -5.9583  -5.4663  -3.4878  -2.5442  -1.1655  -0.9877   0.1567   1.5560
     2.9156   3.2855   4.9737   5.3177

          k = 0.2402 0.4161 0.0000 ( 15846 PWs)   bands (ev):

   -69.0317 -68.4513 -35.8256 -35.7463 -35.5394 -35.3032 -35.0816 -35.0145
   -20.7385 -20.7374 -20.7299 -20.7120 -20.6977 -20.6665 -20.6484 -20.1277
   -20.1103 -20.1044 -20.0918 -20.0549 -20.0470 -20.0407 -12.4779  -7.2354
    -6.2588  -5.4597  -2.9815  -2.3666  -2.1551  -1.4301  -0.2019   1.3842
     2.7635   3.3881   5.0685   5.4345

          k = 0.2402 0.5086 0.0000 ( 15834 PWs)   bands (ev):

   -69.0275 -68.4471 -35.8118 -35.7546 -35.6066 -35.3196 -35.1394 -35.0132
   -20.7383 -20.7353 -20.7321 -20.7104 -20.6984 -20.6705 -20.6447 -20.1314
   -20.1062 -20.1032 -20.0917 -20.0553 -20.0492 -20.0391 -12.3617  -7.2290
    -6.4298  -5.2993  -2.8144  -2.3057  -1.6281  -1.3913  -0.1988   1.6011
     2.5982   3.0276   4.9256   5.4927

          k = 0.3203 0.5548 0.0000 ( 15774 PWs)   bands (ev):

   -69.0259 -68.4456 -35.7483 -35.7377 -35.7065 -35.2908 -35.2016 -35.0117
   -20.7361 -20.7349 -20.7339 -20.7093 -20.6999 -20.6723 -20.6434 -20.1329
   -20.1031 -20.1028 -20.0929 -20.0532 -20.0524 -20.0387 -12.3114  -6.9776
    -6.7391  -5.1955  -2.6188  -1.8724  -1.6827  -1.6355  -0.2905   1.6062
     2.2841   2.7726   4.9943   5.8128

     the Fermi energy is    -1.1715 ev

!    total energy              =   -1374.33078563 Ry
     estimated scf accuracy    <          1.4E-13 Ry
     smearing contrib. (-TS)   =      -0.00002631 Ry
     internal energy E=F+TS    =   -1374.33075932 Ry

     The total energy is F=E-TS. E is the sum of the following terms:
     one-electron contribution =  -11063.55216565 Ry
     hartree contribution      =    5559.21894972 Ry
     xc contribution           =    -139.62305919 Ry
     ewald contribution        =    4269.62551580 Ry

     convergence has been achieved in  24 iterations

     negative rho (up, down):  6.984E-05 0.000E+00

     Forces acting on atoms (cartesian axes, Ry/au):

     atom    1 type  2   force =     0.00000000   -0.00000000   -0.00968699
     atom    2 type  1   force =     0.00000000   -0.00000000   -0.03628953
     atom    3 type  1   force =     0.00000000   -0.00000000   -0.17635616
     atom    4 type  3   force =     0.00000000   -0.00000000    0.22233268

     Total force =     0.286095     Total SCF correction =     0.000002


     Computing stress (Cartesian axis) and pressure


     negative rho (up, down):  6.984E-05 0.000E+00
          total   stress  (Ry/bohr**3)                   (kbar)     P=       29.76
   0.00004943  -0.00000000   0.00000000            7.27       -0.00        0.00
  -0.00000000   0.00004943   0.00000000           -0.00        7.27        0.00
   0.00000000   0.00000000   0.00050804            0.00        0.00       74.73


     BFGS Geometry Optimization
     Energy error            =      0.0E+00 Ry
     Gradient error          =      2.2E-01 Ry/Bohr
     Cell gradient error     =      7.3E+00 kbar

     number of scf cycles    =   1
     number of bfgs steps    =   0

     enthalpy           new  =   -1374.3307856314 Ry

     new trust radius        =       0.2223326811 bohr
     new conv_thr            =            1.0E-12 Ry

     new unit-cell volume =   1607.18123 a.u.^3 (   238.15969 Ang^3 )
     density =      2.61399 g/cm^3

CELL_PARAMETERS (alat=  5.55000000)
   1.041903833  -0.000000000   0.000000000
  -0.520951916   0.902315187   0.000000000
   0.000000000   0.000000000  10.000000000

ATOMIC_POSITIONS (crystal)
C             0.0000000000        0.0000000000        0.0000000000    0   0   0
Ta            0.6666666670        0.3333333330       -0.0416688247
Ta            0.3333333330        0.6666666670        0.0378373707
H             0.3333333330        0.6666666670        0.0964099049



     Writing output data file /scratch/as3359/Ta2C_loop/Ta.save/
     NEW-OLD atomic charge density approx. for the potential

     negative rho (up, down):  6.071E-05 0.000E+00
     extrapolated charge   59.14554, renormalised to   59.00000

     total cpu time spent up to now is      190.7 secs

     Self-consistent Calculation

     iteration #  1     ecut=    70.00 Ry     beta= 0.70
     Davidson diagonalization with overlap
     c_bands:  1 eigenvalues not converged
     c_bands:  3 eigenvalues not converged
     c_bands:  2 eigenvalues not converged
     c_bands:  2 eigenvalues not converged
     c_bands:  4 eigenvalues not converged
     c_bands:  5 eigenvalues not converged
     c_bands:  5 eigenvalues not converged
     c_bands:  2 eigenvalues not converged
     c_bands:  4 eigenvalues not converged
     c_bands:  3 eigenvalues not converged
     c_bands:  4 eigenvalues not converged
     c_bands:  2 eigenvalues not converged
     c_bands:  2 eigenvalues not converged
     c_bands:  4 eigenvalues not converged
     c_bands:  4 eigenvalues not converged
     c_bands:  4 eigenvalues not converged
     c_bands:  3 eigenvalues not converged
     c_bands:  3 eigenvalues not converged
     ethr =  1.00E-06,  avg # of iterations = 20.0

     total cpu time spent up to now is      205.0 secs

     total energy              =   -1363.50078795 Ry
     estimated scf accuracy    <      11.38257884 Ry

     iteration #  2     ecut=    70.00 Ry     beta= 0.70
     Davidson diagonalization with overlap
     ethr =  1.00E-02,  avg # of iterations =  7.4

     total cpu time spent up to now is      211.7 secs

     total energy              =   -1371.92126222 Ry
     estimated scf accuracy    <      26.44842294 Ry

     iteration #  3     ecut=    70.00 Ry     beta= 0.70
     Davidson diagonalization with overlap
     ethr =  1.00E-02,  avg # of iterations =  5.9

     total cpu time spent up to now is      218.1 secs

     total energy              =   -1370.92677393 Ry
     estimated scf accuracy    <      76.03817214 Ry

     iteration #  4     ecut=    70.00 Ry     beta= 0.70
     Davidson diagonalization with overlap
     ethr =  1.00E-02,  avg # of iterations =  4.6

     total cpu time spent up to now is      224.0 secs

     total energy              =   -1375.24040710 Ry
     estimated scf accuracy    <       9.19378543 Ry

     iteration #  5     ecut=    70.00 Ry     beta= 0.70
     Davidson diagonalization with overlap
     ethr =  1.00E-02,  avg # of iterations =  1.4

     total cpu time spent up to now is      229.0 secs

     WARNING: integrated charge=    59.00002401, expected=    59.00000000

     total energy              =   -1375.28728803 Ry
     estimated scf accuracy    <       1.65401854 Ry

     iteration #  6     ecut=    70.00 Ry     beta= 0.70
     Davidson diagonalization with overlap
     ethr =  2.80E-03,  avg # of iterations =  1.2

     total cpu time spent up to now is      234.0 secs

     WARNING: integrated charge=    58.99998461, expected=    59.00000000

     total energy              =   -1374.80766949 Ry
     estimated scf accuracy    <       1.29356303 Ry

     iteration #  7     ecut=    70.00 Ry     beta= 0.70
     Davidson diagonalization with overlap
     ethr =  2.19E-03,  avg # of iterations =  1.3

     total cpu time spent up to now is      238.9 secs

     WARNING: integrated charge=    58.99999233, expected=    59.00000000

     total energy              =   -1374.76682934 Ry
     estimated scf accuracy    <       0.70637925 Ry

     iteration #  8     ecut=    70.00 Ry     beta= 0.70
     Davidson diagonalization with overlap
     ethr =  1.20E-03,  avg # of iterations =  1.1

     total cpu time spent up to now is      243.9 secs

     WARNING: integrated charge=    58.99999170, expected=    59.00000000

     total energy              =   -1374.60068796 Ry
     estimated scf accuracy    <       0.61606567 Ry

     iteration #  9     ecut=    70.00 Ry     beta= 0.70
     Davidson diagonalization with overlap
     ethr =  1.04E-03,  avg # of iterations =  1.3

     total cpu time spent up to now is      248.9 secs

     total energy              =   -1374.61656403 Ry
     estimated scf accuracy    <       0.29624627 Ry

     iteration # 10     ecut=    70.00 Ry     beta= 0.70
     Davidson diagonalization with overlap
     ethr =  5.02E-04,  avg # of iterations =  2.1

     negative rho (up, down):  1.255E-03 0.000E+00

     total cpu time spent up to now is      253.9 secs

     WARNING: integrated charge=    59.01122397, expected=    59.00000000

     total energy              =   -1374.32796724 Ry
     estimated scf accuracy    <       0.38438972 Ry

     iteration # 11     ecut=    70.00 Ry     beta= 0.70
     Davidson diagonalization with overlap
     ethr =  5.02E-04,  avg # of iterations =  6.3

     negative rho (up, down):  2.512E-04 0.000E+00

     total cpu time spent up to now is      259.5 secs

     WARNING: integrated charge=    59.01197458, expected=    59.00000000

     total energy              =   -1374.36436794 Ry
     estimated scf accuracy    <       0.53766926 Ry

     iteration # 12     ecut=    70.00 Ry     beta= 0.70
     Davidson diagonalization with overlap
     ethr =  5.02E-04,  avg # of iterations =  1.4

     negative rho (up, down):  2.316E-05 0.000E+00

     total cpu time spent up to now is      264.5 secs

     WARNING: integrated charge=    59.00478849, expected=    59.00000000

     total energy              =   -1374.36780340 Ry
     estimated scf accuracy    <       0.10530297 Ry

     iteration # 13     ecut=    70.00 Ry     beta= 0.70
     Davidson diagonalization with overlap
     ethr =  1.78E-04,  avg # of iterations =  3.5

     negative rho (up, down):  1.240E-05 0.000E+00

     total cpu time spent up to now is      269.6 secs

     WARNING: integrated charge=    58.99664804, expected=    59.00000000

     total energy              =   -1374.36705678 Ry
     estimated scf accuracy    <       0.02235973 Ry

     iteration # 14     ecut=    70.00 Ry     beta= 0.70
     Davidson diagonalization with overlap
     ethr =  3.79E-05,  avg # of iterations =  8.4

     negative rho (up, down):  2.173E-05 0.000E+00

     total cpu time spent up to now is      275.3 secs

     WARNING: integrated charge=    58.99594293, expected=    59.00000000

     total energy              =   -1374.36783410 Ry
     estimated scf accuracy    <       0.00074973 Ry

     iteration # 15     ecut=    70.00 Ry     beta= 0.70
     Davidson diagonalization with overlap
     ethr =  1.27E-06,  avg # of iterations =  8.6

     negative rho (up, down):  3.568E-05 0.000E+00

     total cpu time spent up to now is      281.3 secs

     WARNING: integrated charge=    58.99598525, expected=    59.00000000

     total energy              =   -1374.36779617 Ry
     estimated scf accuracy    <       0.00456612 Ry

     iteration # 16     ecut=    70.00 Ry     beta= 0.70
     Davidson diagonalization with overlap
     ethr =  1.27E-06,  avg # of iterations =  3.2

     negative rho (up, down):  3.480E-04 0.000E+00

     total cpu time spent up to now is      286.5 secs

     WARNING: integrated charge=    58.99867987, expected=    59.00000000

     total energy              =   -1374.36776908 Ry
     estimated scf accuracy    <       0.00043614 Ry

     iteration # 17     ecut=    70.00 Ry     beta= 0.70
     Davidson diagonalization with overlap
     ethr =  7.39E-07,  avg # of iterations =  3.6

     negative rho (up, down):  2.662E-05 0.000E+00

     total cpu time spent up to now is      292.0 secs

     WARNING: integrated charge=    58.99911025, expected=    59.00000000

     total energy              =   -1374.36768419 Ry
     estimated scf accuracy    <       0.00194664 Ry

     iteration # 18     ecut=    70.00 Ry     beta= 0.70
     Davidson diagonalization with overlap
     ethr =  7.39E-07,  avg # of iterations =  4.2

     negative rho (up, down):  1.832E-04 0.000E+00

     total cpu time spent up to now is      297.5 secs

     WARNING: integrated charge=    58.99972401, expected=    59.00000000

     total energy              =   -1374.36775325 Ry
     estimated scf accuracy    <       0.00156348 Ry

     iteration # 19     ecut=    70.00 Ry     beta= 0.70
     Davidson diagonalization with overlap
     ethr =  7.39E-07,  avg # of iterations =  1.1

     negative rho (up, down):  7.838E-05 0.000E+00

     total cpu time spent up to now is      302.5 secs

     WARNING: integrated charge=    58.99995453, expected=    59.00000000

     total energy              =   -1374.36778230 Ry
     estimated scf accuracy    <       0.00000837 Ry

     iteration # 20     ecut=    70.00 Ry     beta= 0.70
     Davidson diagonalization with overlap
     ethr =  1.42E-08,  avg # of iterations =  2.0

     negative rho (up, down):  6.782E-05 0.000E+00

     total cpu time spent up to now is      307.8 secs

     WARNING: integrated charge=    58.99998450, expected=    59.00000000

     total energy              =   -1374.36778284 Ry
     estimated scf accuracy    <       0.00000164 Ry

     iteration # 21     ecut=    70.00 Ry     beta= 0.70
     Davidson diagonalization with overlap
     ethr =  2.77E-09,  avg # of iterations =  1.5

     negative rho (up, down):  7.048E-05 0.000E+00

     total cpu time spent up to now is      312.9 secs

     total energy              =   -1374.36778291 Ry
     estimated scf accuracy    <       0.00000069 Ry

     iteration # 22     ecut=    70.00 Ry     beta= 0.70
     Davidson diagonalization with overlap
     ethr =  1.16E-09,  avg # of iterations =  1.3

     negative rho (up, down):  7.138E-05 0.000E+00

     total cpu time spent up to now is      317.9 secs

     total energy              =   -1374.36778294 Ry
     estimated scf accuracy    <       0.00000007 Ry

     iteration # 23     ecut=    70.00 Ry     beta= 0.70
     Davidson diagonalization with overlap
     ethr =  1.15E-10,  avg # of iterations =  2.6

     negative rho (up, down):  7.121E-05 0.000E+00

     total cpu time spent up to now is      323.0 secs

     total energy              =   -1374.36778294 Ry
     estimated scf accuracy    <          1.5E-09 Ry

     iteration # 24     ecut=    70.00 Ry     beta= 0.70
     Davidson diagonalization with overlap
     ethr =  2.55E-12,  avg # of iterations =  4.5

     negative rho (up, down):  7.161E-05 0.000E+00

     total cpu time spent up to now is      329.0 secs

     total energy              =   -1374.36778294 Ry
     estimated scf accuracy    <          1.4E-09 Ry

     iteration # 25     ecut=    70.00 Ry     beta= 0.70
     Davidson diagonalization with overlap
     ethr =  2.34E-12,  avg # of iterations =  1.0

     negative rho (up, down):  7.175E-05 0.000E+00

     total cpu time spent up to now is      334.0 secs

     total energy              =   -1374.36778294 Ry
     estimated scf accuracy    <          5.0E-11 Ry

     iteration # 26     ecut=    70.00 Ry     beta= 0.70
     Davidson diagonalization with overlap
     ethr =  1.00E-13,  avg # of iterations =  2.3

     negative rho (up, down):  7.176E-05 0.000E+00

     total cpu time spent up to now is      339.4 secs

     total energy              =   -1374.36778294 Ry
     estimated scf accuracy    <          5.8E-11 Ry

     iteration # 27     ecut=    70.00 Ry     beta= 0.70
     Davidson diagonalization with overlap
     ethr =  1.00E-13,  avg # of iterations =  1.0

     negative rho (up, down):  7.177E-05 0.000E+00

     total cpu time spent up to now is      344.3 secs

     total energy              =   -1374.36778294 Ry
     estimated scf accuracy    <          3.0E-12 Ry

     iteration # 28     ecut=    70.00 Ry     beta= 0.70
     Davidson diagonalization with overlap
     ethr =  1.00E-13,  avg # of iterations =  1.0

     negative rho (up, down):  7.177E-05 0.000E+00

     total cpu time spent up to now is      349.3 secs

     End of self-consistent calculation

          k = 0.0000 0.0000 0.0000 ( 15945 PWs)   bands (ev):

   -69.1705 -68.7373 -36.0735 -35.3076 -35.3076 -35.1482 -35.0652 -35.0652
   -20.8487 -20.8133 -20.8133 -20.8043 -20.8043 -20.7791 -20.7179 -20.4053
   -20.3517 -20.3517 -20.3335 -20.2984 -20.2839 -20.2839 -14.1997  -8.6746
    -5.6052  -5.6052  -4.5009  -2.4895  -1.6799  -1.2445  -1.2445   0.8932
     0.8932   2.2173   2.2173   2.8194

          k = 0.0000 0.0924 0.0000 ( 15937 PWs)   bands (ev):

   -69.1675 -68.7344 -36.0632 -35.3651 -35.3207 -35.1383 -35.1107 -35.0742
   -20.8474 -20.8148 -20.8135 -20.8047 -20.8032 -20.7765 -20.7207 -20.4024
   -20.3520 -20.3506 -20.3363 -20.2970 -20.2855 -20.2843 -14.0825  -8.4553
    -5.9380  -5.5566  -4.3654  -2.4345  -1.7876  -1.3854  -1.0733   0.4395
     0.7910   2.2004   2.4345   3.4654

          k = 0.0000 0.1847 0.0000 ( 15883 PWs)   bands (ev):

   -69.1590 -68.7262 -36.0369 -35.5062 -35.3564 -35.2308 -35.1258 -35.0987
   -20.8438 -20.8187 -20.8143 -20.8056 -20.8000 -20.7694 -20.7281 -20.3944
   -20.3528 -20.3487 -20.3427 -20.2932 -20.2896 -20.2851 -13.7751  -7.8806
    -6.5517  -5.4538  -4.1332  -2.5831  -2.1356  -1.4668  -0.6032   0.0746
     0.8265   2.2465   2.7738   4.1722

          k = 0.0000 0.2771 0.0000 ( 15835 PWs)   bands (ev):

   -69.1475 -68.7151 -36.0087 -35.6850 -35.4044 -35.3808 -35.1324 -35.1202
   -20.8395 -20.8239 -20.8157 -20.8060 -20.7955 -20.7597 -20.7376 -20.3836
   -20.3563 -20.3540 -20.3410 -20.2951 -20.2875 -20.2861 -13.3925  -7.5509
    -6.6815  -5.3850  -3.9228  -3.2040  -2.0679  -1.4642   0.0675   0.2336
     1.3574   2.3283   2.9620   4.8449

          k = 0.0000 0.3694 0.0000 ( 15813 PWs)   bands (ev):

   -69.1360 -68.7039 -36.0022 -35.8524 -35.5058 -35.4516 -35.1663 -35.1201
   -20.8360 -20.8288 -20.8174 -20.8054 -20.7909 -20.7498 -20.7467 -20.3729
   -20.3665 -20.3550 -20.3364 -20.3003 -20.2870 -20.2818 -13.0664  -7.8932
    -6.1127  -5.3908  -4.1462  -3.1277  -1.7904  -1.2504   0.6972   0.9045
     2.2695   2.3223   3.0161   5.2303

          k = 0.0000 0.4618 0.0000 ( 15860 PWs)   bands (ev):

   -69.1275 -68.6957 -36.0356 -35.9552 -35.5706 -35.4857 -35.1911 -35.1226
   -20.8347 -20.8317 -20.8189 -20.8043 -20.7875 -20.7529 -20.7424 -20.3740
   -20.3656 -20.3553 -20.3329 -20.3039 -20.2876 -20.2774 -12.8727  -8.1480
    -5.8248  -5.4330  -4.4944  -2.5931  -1.2526  -0.9182   1.1636   1.7951
     2.1287   2.8612   3.5165   4.8697

          k =-0.0000-0.5541 0.0000 ( 15870 PWs)   bands (ev):

   -69.1244 -68.6927 -36.0637 -35.9828 -35.5867 -35.4981 -35.2001 -35.1240
   -20.8350 -20.8320 -20.8194 -20.8037 -20.7862 -20.7551 -20.7397 -20.3767
   -20.3633 -20.3550 -20.3316 -20.3051 -20.2878 -20.2757 -12.8126  -8.2318
    -5.7689  -5.4548  -4.6187  -2.3416  -0.9138  -0.7474   1.3465   2.1051
     2.2630   2.8313   4.0484   4.6732

          k = 0.0800 0.1385 0.0000 ( 15907 PWs)   bands (ev):

   -69.1617 -68.7288 -36.0449 -35.4583 -35.3523 -35.1873 -35.1281 -35.0951
   -20.8449 -20.8174 -20.8141 -20.8054 -20.8010 -20.7716 -20.7258 -20.3970
   -20.3524 -20.3490 -20.3411 -20.2944 -20.2882 -20.2850 -13.8700  -8.0470
    -6.3817  -5.5261  -4.1703  -2.3987  -2.1154  -1.4929  -0.7910   0.3268
     0.5165   2.4132   2.6242   4.0034

          k = 0.0800 0.2309 0.0000 ( 15867 PWs)   bands (ev):

   -69.1517 -68.7191 -36.0170 -35.6079 -35.4156 -35.3029 -35.1335 -35.1187
   -20.8408 -20.8219 -20.8153 -20.8061 -20.7972 -20.7632 -20.7343 -20.3875
   -20.3532 -20.3527 -20.3429 -20.2928 -20.2896 -20.2862 -13.5241  -7.4212
    -6.8556  -5.5529  -3.8593  -2.8410  -2.2505  -1.4550  -0.5517   0.4203
     0.8899   2.3728   3.1632   4.6244

          k = 0.0800 0.3232 0.0000 ( 15853 PWs)   bands (ev):

   -69.1402 -68.7080 -35.9976 -35.7735 -35.4964 -35.4099 -35.1739 -35.1159
   -20.8367 -20.8267 -20.8170 -20.8060 -20.7929 -20.7534 -20.7437 -20.3767
   -20.3628 -20.3539 -20.3389 -20.2978 -20.2875 -20.2840 -13.1702  -7.5879
    -6.3875  -5.6204  -3.7565  -3.1678  -2.0398  -1.4241  -0.1388   0.9045
     1.7296   2.4051   3.4886   5.2650

          k = 0.0800 0.4156 0.0000 ( 15858 PWs)   bands (ev):

   -69.1302 -68.6983 -36.0078 -35.9059 -35.5613 -35.4818 -35.2076 -35.1171
   -20.8340 -20.8304 -20.8187 -20.8050 -20.7893 -20.7516 -20.7448 -20.3720
   -20.3672 -20.3545 -20.3350 -20.3021 -20.2884 -20.2790 -12.9147  -7.9160
    -5.8880  -5.6744  -4.1040  -2.7468  -1.6069  -1.2125   0.4964   1.3154
     2.2543   3.0899   3.5733   5.0603

          k = 0.0800 0.5080 0.0000 ( 15845 PWs)   bands (ev):

   -69.1244 -68.6927 -36.0424 -35.9658 -35.5867 -35.5194 -35.2264 -35.1193
   -20.8340 -20.8312 -20.8199 -20.8039 -20.7872 -20.7559 -20.7397 -20.3769
   -20.3625 -20.3544 -20.3327 -20.3044 -20.2890 -20.2760 -12.7928  -8.0819
    -5.7649  -5.6787  -4.3015  -2.3506  -1.0911  -0.9255   0.9613   1.3915
     2.6995   3.2819   4.1315   4.6966

          k = 0.1600 0.2771 0.0000 ( 15858 PWs)   bands (ev):

   -69.1418 -68.7095 -35.9963 -35.7268 -35.5189 -35.3721 -35.1926 -35.1130
   -20.8367 -20.8257 -20.8170 -20.8063 -20.7937 -20.7548 -20.7428 -20.3781
   -20.3615 -20.3529 -20.3404 -20.2964 -20.2883 -20.2848 -13.2065  -7.2361
    -6.7035  -5.8069  -3.4754  -2.9755  -2.4132  -1.2129  -0.8161   0.9390
     1.6161   2.3097   3.9767   5.2302

          k = 0.1600 0.3694 0.0000 ( 15848 PWs)   bands (ev):

   -69.1318 -68.6998 -35.9888 -35.8396 -35.5988 -35.4499 -35.2507 -35.1108
   -20.8328 -20.8290 -20.8192 -20.8057 -20.7908 -20.7514 -20.7461 -20.3714
   -20.3675 -20.3527 -20.3376 -20.3000 -20.2902 -20.2801 -12.9272  -7.5030
    -6.2119  -5.8778  -3.4983  -2.7120  -2.2006  -1.4037  -0.2947   1.2191
     2.3836   2.7346   4.5614   5.2138

          k = 0.1600 0.4618 0.0000 ( 15846 PWs)   bands (ev):

   -69.1244 -68.6927 -35.9984 -35.9182 -35.6338 -35.5183 -35.2885 -35.1117
   -20.8317 -20.8295 -20.8210 -20.8043 -20.7893 -20.7573 -20.7398 -20.3773
   -20.3610 -20.3525 -20.3353 -20.3027 -20.2916 -20.2766 -12.7530  -7.6974
    -6.1781  -5.6606  -3.6315  -2.3532  -1.6439  -1.3251   0.1353   1.3851
     2.6541   3.2731   4.6474   5.0374

          k = 0.1600 0.5541 0.0000 ( 15864 PWs)   bands (ev):

   -69.1218 -68.6901 -36.0081 -35.9435 -35.6403 -35.5471 -35.3010 -35.1126
   -20.8323 -20.8288 -20.8218 -20.8034 -20.7889 -20.7594 -20.7375 -20.3797
   -20.3585 -20.3525 -20.3344 -20.3036 -20.2921 -20.2754 -12.6964  -7.7669
    -6.1864  -5.5949  -3.6881  -2.1917  -1.2634  -1.2052   0.2326   1.5130
     2.6081   3.2423   4.5760   5.1939

          k = 0.2399 0.4156 0.0000 ( 15846 PWs)   bands (ev):

   -69.1244 -68.6927 -35.9778 -35.8762 -35.6851 -35.4955 -35.3303 -35.1084
   -20.8304 -20.8285 -20.8218 -20.8045 -20.7904 -20.7580 -20.7399 -20.3775
   -20.3605 -20.3511 -20.3370 -20.3013 -20.2934 -20.2769 -12.7330  -7.3963
    -6.4922  -5.6258  -3.0355  -2.3540  -2.2348  -1.5301  -0.1434   1.3728
     2.6390   3.2040   4.6633   5.4275

          k = 0.2399 0.5080 0.0000 ( 15834 PWs)   bands (ev):

   -69.1202 -68.6886 -35.9563 -35.8998 -35.7375 -35.5319 -35.3749 -35.1082
   -20.8301 -20.8264 -20.8240 -20.8029 -20.7911 -20.7619 -20.7363 -20.3813
   -20.3555 -20.3505 -20.3369 -20.3018 -20.2956 -20.2752 -12.6290  -7.3615
    -6.6276  -5.4648  -2.8767  -2.1749  -1.8100  -1.4850  -0.1249   1.5493
     2.2281   3.0627   4.6100   5.3585

          k = 0.3199 0.5541 0.0000 ( 15774 PWs)   bands (ev):

   -69.1186 -68.6871 -35.9141 -35.8700 -35.8205 -35.5339 -35.4145 -35.1071
   -20.8280 -20.8267 -20.8249 -20.8019 -20.7925 -20.7637 -20.7349 -20.3827
   -20.3530 -20.3497 -20.3380 -20.2999 -20.2986 -20.2748 -12.5825  -7.0355
    -6.9780  -5.3725  -2.3767  -2.0773  -1.9979  -1.5773  -0.2163   1.5456
     1.8080   2.9201   4.6912   5.6406

     the Fermi energy is    -1.2565 ev

!    total energy              =   -1374.36778294 Ry
     estimated scf accuracy    <          3.2E-14 Ry
     smearing contrib. (-TS)   =      -0.00003005 Ry
     internal energy E=F+TS    =   -1374.36775289 Ry

     The total energy is F=E-TS. E is the sum of the following terms:
     one-electron contribution =  -11107.79501245 Ry
     hartree contribution      =    5580.97494787 Ry
     xc contribution           =    -139.59097058 Ry
     ewald contribution        =    4292.04328227 Ry

     convergence has been achieved in  28 iterations

     negative rho (up, down):  7.177E-05 0.000E+00

     Forces acting on atoms (cartesian axes, Ry/au):

     atom    1 type  2   force =    -0.00000000   -0.00000000   -0.04230245
     atom    2 type  1   force =     0.00000000    0.00000000   -0.05619288
     atom    3 type  1   force =    -0.00000000   -0.00000000    0.05784781
     atom    4 type  3   force =     0.00000000    0.00000000    0.04064752

     Total force =     0.090312     Total SCF correction =     0.000001


     Computing stress (Cartesian axis) and pressure


     negative rho (up, down):  7.177E-05 0.000E+00
          total   stress  (Ry/bohr**3)                   (kbar)     P=       23.40
   0.00009491  -0.00000000   0.00000000           13.96       -0.00        0.00
  -0.00000000   0.00009491   0.00000000           -0.00       13.96        0.00
   0.00000000   0.00000000   0.00028743            0.00        0.00       42.28

     Energy error            =      3.7E-02 Ry
     Gradient error          =      5.8E-02 Ry/Bohr
     Cell gradient error     =      1.4E+01 kbar

     number of scf cycles    =   2
     number of bfgs steps    =   1

     enthalpy           old  =   -1374.3307856314 Ry
     enthalpy           new  =   -1374.3677829447 Ry

     CASE: enthalpy          _new < enthalpy          _old

     new trust radius        =       0.0660383632 bohr
     new conv_thr            =            5.8E-13 Ry

     new unit-cell volume =   1615.37826 a.u.^3 (   239.37436 Ang^3 )
     density =      2.60072 g/cm^3

CELL_PARAMETERS (alat=  5.55000000)
   1.044557439  -0.000000000   0.000000000
  -0.522278719   0.904613277   0.000000000
   0.000000000   0.000000000  10.000000000

ATOMIC_POSITIONS (crystal)
C             0.0000000000        0.0000000000        0.0000000000    0   0   0
Ta            0.6666666670        0.3333333330       -0.0427698096
Ta            0.3333333330        0.6666666670        0.0385419236
H             0.3333333330        0.6666666670        0.0975997853



     Writing output data file /scratch/as3359/Ta2C_loop/Ta.save/
     NEW-OLD atomic charge density approx. for the potential

     negative rho (up, down):  7.155E-05 0.000E+00
     extrapolated charge   59.29938, renormalised to   59.00000

     total cpu time spent up to now is      394.8 secs

     Self-consistent Calculation

     iteration #  1     ecut=    70.00 Ry     beta= 0.70
     Davidson diagonalization with overlap
     c_bands:  1 eigenvalues not converged
     c_bands:  1 eigenvalues not converged
     c_bands:  2 eigenvalues not converged
     c_bands:  3 eigenvalues not converged
     c_bands:  5 eigenvalues not converged
     c_bands:  5 eigenvalues not converged
     ethr =  1.00E-06,  avg # of iterations = 27.7

     total cpu time spent up to now is      413.3 secs

     total energy              =   -1028.83886152 Ry
     estimated scf accuracy    <     374.50466399 Ry

     iteration #  2     ecut=    70.00 Ry     beta= 0.70
     Davidson diagonalization with overlap
     c_bands:  2 eigenvalues not converged
     c_bands:  1 eigenvalues not converged
     ethr =  1.00E-02,  avg # of iterations = 15.6

     total cpu time spent up to now is      424.3 secs

     total energy              =   -1428.35876530 Ry
     estimated scf accuracy    <     265.95612337 Ry

     iteration #  3     ecut=    70.00 Ry     beta= 0.70
     Davidson diagonalization with overlap
     ethr =  1.00E-02,  avg # of iterations = 11.0

     total cpu time spent up to now is      433.0 secs

     total energy              =   -1416.42749255 Ry
     estimated scf accuracy    <      79.59264502 Ry

     iteration #  4     ecut=    70.00 Ry     beta= 0.70
     Davidson diagonalization with overlap
     ethr =  1.00E-02,  avg # of iterations =  6.5

     total cpu time spent up to now is      439.1 secs

     total energy              =   -1412.21018234 Ry
     estimated scf accuracy    <      70.70567096 Ry

     iteration #  5     ecut=    70.00 Ry     beta= 0.70
     Davidson diagonalization with overlap
     ethr =  1.00E-02,  avg # of iterations =  1.8

     total cpu time spent up to now is      444.1 secs

     total energy              =   -1391.95426012 Ry
     estimated scf accuracy    <      45.97524377 Ry

     iteration #  6     ecut=    70.00 Ry     beta= 0.70
     Davidson diagonalization with overlap
     ethr =  1.00E-02,  avg # of iterations =  4.3

     total cpu time spent up to now is      449.6 secs

     total energy              =   -1389.61910699 Ry
     estimated scf accuracy    <      20.84483368 Ry

     iteration #  7     ecut=    70.00 Ry     beta= 0.70
     Davidson diagonalization with overlap
     ethr =  1.00E-02,  avg # of iterations =  1.0

     total cpu time spent up to now is      454.6 secs

     total energy              =   -1382.07627984 Ry
     estimated scf accuracy    <      18.04938908 Ry

     iteration #  8     ecut=    70.00 Ry     beta= 0.70
     Davidson diagonalization with overlap
     ethr =  1.00E-02,  avg # of iterations =  1.3

     total cpu time spent up to now is      459.7 secs

     total energy              =   -1378.52727415 Ry
     estimated scf accuracy    <       9.34094203 Ry

     iteration #  9     ecut=    70.00 Ry     beta= 0.70
     Davidson diagonalization with overlap
     ethr =  1.00E-02,  avg # of iterations =  1.8

     total cpu time spent up to now is      464.8 secs

     total energy              =   -1379.02337030 Ry
     estimated scf accuracy    <       5.17011723 Ry

     iteration # 10     ecut=    70.00 Ry     beta= 0.70
     Davidson diagonalization with overlap
     ethr =  8.76E-03,  avg # of iterations =  1.1

     negative rho (up, down):  4.426E-05 0.000E+00

     total cpu time spent up to now is      469.8 secs

     total energy              =   -1374.50795455 Ry
     estimated scf accuracy    <       5.55703621 Ry

     iteration # 11     ecut=    70.00 Ry     beta= 0.70
     Davidson diagonalization with overlap
     ethr =  8.76E-03,  avg # of iterations =  2.3

     negative rho (up, down):  1.749E-05 0.000E+00

     total cpu time spent up to now is      475.0 secs

     total energy              =   -1373.88055246 Ry
     estimated scf accuracy    <       3.00982529 Ry

     iteration # 12     ecut=    70.00 Ry     beta= 0.70
     Davidson diagonalization with overlap
     ethr =  5.10E-03,  avg # of iterations =  3.9

     negative rho (up, down):  2.504E-02 0.000E+00

     total cpu time spent up to now is      480.5 secs

     total energy              =   -1374.63600582 Ry
     estimated scf accuracy    <       1.02830745 Ry

     iteration # 13     ecut=    70.00 Ry     beta= 0.70
     Davidson diagonalization with overlap
     ethr =  1.74E-03,  avg # of iterations = 12.1

     negative rho (up, down):  2.298E-02 0.000E+00

     total cpu time spent up to now is      487.3 secs

     total energy              =   -1374.85843310 Ry
     estimated scf accuracy    <      10.95117061 Ry

     iteration # 14     ecut=    70.00 Ry     beta= 0.70
     Davidson diagonalization with overlap
     ethr =  1.74E-03,  avg # of iterations =  1.1

     negative rho (up, down):  2.141E-02 0.000E+00

     total cpu time spent up to now is      492.3 secs

     total energy              =   -1374.74986012 Ry
     estimated scf accuracy    <      11.19236958 Ry

     iteration # 15     ecut=    70.00 Ry     beta= 0.70
     Davidson diagonalization with overlap
     ethr =  1.74E-03,  avg # of iterations =  1.1

     negative rho (up, down):  2.655E-02 0.000E+00

     total cpu time spent up to now is      497.3 secs

     total energy              =   -1374.78568429 Ry
     estimated scf accuracy    <       8.14568117 Ry

     iteration # 16     ecut=    70.00 Ry     beta= 0.70
     Davidson diagonalization with overlap
     ethr =  1.74E-03,  avg # of iterations =  1.0

     negative rho (up, down):  7.268E-02 0.000E+00

     total cpu time spent up to now is      502.2 secs

     total energy              =   -1373.46085630 Ry
     estimated scf accuracy    <       8.98502513 Ry

     iteration # 17     ecut=    70.00 Ry     beta= 0.70
     Davidson diagonalization with overlap
     ethr =  1.74E-03,  avg # of iterations =  8.6

     negative rho (up, down):  7.373E-02 0.000E+00

     total cpu time spent up to now is      508.7 secs

     total energy              =   -1374.20193336 Ry
     estimated scf accuracy    <       0.83186560 Ry

     iteration # 18     ecut=    70.00 Ry     beta= 0.70
     Davidson diagonalization with overlap
     ethr =  1.41E-03,  avg # of iterations =  4.1

     negative rho (up, down):  1.000E-01 0.000E+00

     total cpu time spent up to now is      514.4 secs

     total energy              =   -1374.37344512 Ry
     estimated scf accuracy    <       1.54103690 Ry

     iteration # 19     ecut=    70.00 Ry     beta= 0.70
     Davidson diagonalization with overlap
     ethr =  1.41E-03,  avg # of iterations =  3.7

     negative rho (up, down):  9.168E-02 0.000E+00

     total cpu time spent up to now is      519.8 secs

     total energy              =   -1374.42324234 Ry
     estimated scf accuracy    <       0.10957469 Ry

     iteration # 20     ecut=    70.00 Ry     beta= 0.70
     Davidson diagonalization with overlap
     ethr =  1.86E-04,  avg # of iterations =  5.3

     negative rho (up, down):  8.727E-02 0.000E+00

     total cpu time spent up to now is      525.4 secs

     total energy              =   -1374.40882881 Ry
     estimated scf accuracy    <       0.06314369 Ry

     iteration # 21     ecut=    70.00 Ry     beta= 0.70
     Davidson diagonalization with overlap
     ethr =  1.07E-04,  avg # of iterations =  2.8

     negative rho (up, down):  8.355E-02 0.000E+00

     total cpu time spent up to now is      530.6 secs

     total energy              =   -1374.42290407 Ry
     estimated scf accuracy    <       0.04194992 Ry

     iteration # 22     ecut=    70.00 Ry     beta= 0.70
     Davidson diagonalization with overlap
     ethr =  7.11E-05,  avg # of iterations =  4.1

     negative rho (up, down):  4.400E-02 0.000E+00

     total cpu time spent up to now is      536.0 secs

     total energy              =   -1374.38998810 Ry
     estimated scf accuracy    <       0.05281983 Ry

     iteration # 23     ecut=    70.00 Ry     beta= 0.70
     Davidson diagonalization with overlap
     ethr =  7.11E-05,  avg # of iterations =  6.9

     negative rho (up, down):  1.354E-02 0.000E+00

     total cpu time spent up to now is      541.5 secs

     total energy              =   -1374.37959616 Ry
     estimated scf accuracy    <       0.04249375 Ry

     iteration # 24     ecut=    70.00 Ry     beta= 0.70
     Davidson diagonalization with overlap
     ethr =  7.11E-05,  avg # of iterations =  2.5

     negative rho (up, down):  4.913E-03 0.000E+00

     total cpu time spent up to now is      546.7 secs

     total energy              =   -1374.37585623 Ry
     estimated scf accuracy    <       0.01527157 Ry

     iteration # 25     ecut=    70.00 Ry     beta= 0.70
     Davidson diagonalization with overlap
     ethr =  2.59E-05,  avg # of iterations =  4.4

     negative rho (up, down):  3.596E-03 0.000E+00

     total cpu time spent up to now is      552.1 secs

     total energy              =   -1374.37372046 Ry
     estimated scf accuracy    <       0.00860992 Ry

     iteration # 26     ecut=    70.00 Ry     beta= 0.70
     Davidson diagonalization with overlap
     ethr =  1.46E-05,  avg # of iterations =  6.4

     negative rho (up, down):  6.765E-04 0.000E+00

     total cpu time spent up to now is      557.8 secs

     total energy              =   -1374.37426137 Ry
     estimated scf accuracy    <       0.01232544 Ry

     iteration # 27     ecut=    70.00 Ry     beta= 0.70
     Davidson diagonalization with overlap
     ethr =  1.46E-05,  avg # of iterations =  1.9

     negative rho (up, down):  4.363E-04 0.000E+00

     total cpu time spent up to now is      562.8 secs

     total energy              =   -1374.37469980 Ry
     estimated scf accuracy    <       0.00283209 Ry

     iteration # 28     ecut=    70.00 Ry     beta= 0.70
     Davidson diagonalization with overlap
     ethr =  4.80E-06,  avg # of iterations =  2.6

     negative rho (up, down):  9.373E-04 0.000E+00

     total cpu time spent up to now is      567.9 secs

     total energy              =   -1374.37474515 Ry
     estimated scf accuracy    <       0.00218067 Ry

     iteration # 29     ecut=    70.00 Ry     beta= 0.70
     Davidson diagonalization with overlap
     ethr =  3.70E-06,  avg # of iterations =  2.1

     negative rho (up, down):  2.712E-04 0.000E+00

     total cpu time spent up to now is      573.0 secs

     total energy              =   -1374.37479184 Ry
     estimated scf accuracy    <       0.00005623 Ry

     iteration # 30     ecut=    70.00 Ry     beta= 0.70
     Davidson diagonalization with overlap
     ethr =  9.53E-08,  avg # of iterations =  5.6

     negative rho (up, down):  1.258E-04 0.000E+00

     total cpu time spent up to now is      578.6 secs

     total energy              =   -1374.37479603 Ry
     estimated scf accuracy    <       0.00000112 Ry

     iteration # 31     ecut=    70.00 Ry     beta= 0.70
     Davidson diagonalization with overlap
     ethr =  1.90E-09,  avg # of iterations =  4.6

     negative rho (up, down):  8.743E-05 0.000E+00

     total cpu time spent up to now is      584.7 secs

     total energy              =   -1374.37479629 Ry
     estimated scf accuracy    <       0.00000054 Ry

     iteration # 32     ecut=    70.00 Ry     beta= 0.70
     Davidson diagonalization with overlap
     ethr =  9.11E-10,  avg # of iterations =  2.6

     negative rho (up, down):  7.525E-05 0.000E+00

     total cpu time spent up to now is      590.0 secs

     total energy              =   -1374.37479648 Ry
     estimated scf accuracy    <       0.00000009 Ry

     iteration # 33     ecut=    70.00 Ry     beta= 0.70
     Davidson diagonalization with overlap
     ethr =  1.49E-10,  avg # of iterations =  2.0

     negative rho (up, down):  7.425E-05 0.000E+00

     total cpu time spent up to now is      595.5 secs

     total energy              =   -1374.37479651 Ry
     estimated scf accuracy    <       0.00000027 Ry

     iteration # 34     ecut=    70.00 Ry     beta= 0.70
     Davidson diagonalization with overlap
     ethr =  1.49E-10,  avg # of iterations =  1.3

     negative rho (up, down):  7.446E-05 0.000E+00

     total cpu time spent up to now is      600.6 secs

     total energy              =   -1374.37479651 Ry
     estimated scf accuracy    <          7.7E-09 Ry

     iteration # 35     ecut=    70.00 Ry     beta= 0.70
     Davidson diagonalization with overlap
     ethr =  1.30E-11,  avg # of iterations =  1.4

     negative rho (up, down):  7.442E-05 0.000E+00

     total cpu time spent up to now is      605.7 secs

     total energy              =   -1374.37479651 Ry
     estimated scf accuracy    <          2.4E-10 Ry

     iteration # 36     ecut=    70.00 Ry     beta= 0.70
     Davidson diagonalization with overlap
     ethr =  4.06E-13,  avg # of iterations =  3.0

     negative rho (up, down):  7.447E-05 0.000E+00

     total cpu time spent up to now is      611.4 secs

     total energy              =   -1374.37479651 Ry
     estimated scf accuracy    <          2.1E-10 Ry

     iteration # 37     ecut=    70.00 Ry     beta= 0.70
     Davidson diagonalization with overlap
     ethr =  3.60E-13,  avg # of iterations =  1.4

     negative rho (up, down):  7.450E-05 0.000E+00

     total cpu time spent up to now is      616.6 secs

     total energy              =   -1374.37479651 Ry
     estimated scf accuracy    <          6.4E-12 Ry

     iteration # 38     ecut=    70.00 Ry     beta= 0.70
     Davidson diagonalization with overlap
     ethr =  1.00E-13,  avg # of iterations =  1.4

     negative rho (up, down):  7.451E-05 0.000E+00

     total cpu time spent up to now is      621.6 secs

     total energy              =   -1374.37479651 Ry
     estimated scf accuracy    <          6.7E-13 Ry

     iteration # 39     ecut=    70.00 Ry     beta= 0.70
     Davidson diagonalization with overlap
     ethr =  1.00E-13,  avg # of iterations =  1.0

     negative rho (up, down):  7.452E-05 0.000E+00

     total cpu time spent up to now is      626.6 secs

     End of self-consistent calculation

          k = 0.0000 0.0000 0.0000 ( 15945 PWs)   bands (ev):

   -69.2415 -68.8011 -36.0911 -35.3629 -35.3629 -35.2169 -35.1216 -35.1216
   -20.9297 -20.8957 -20.8957 -20.8851 -20.8851 -20.8579 -20.7996 -20.4775
   -20.4255 -20.4255 -20.4094 -20.3701 -20.3580 -20.3580 -14.1436  -8.5850
    -5.3959  -5.3959  -4.4848  -2.6571  -1.7110  -1.1731  -1.1731   0.8629
     0.8629   2.0563   2.0563   2.6781

          k = 0.0000 0.0921 0.0000 ( 15937 PWs)   bands (ev):

   -69.2386 -68.7982 -36.0813 -35.4166 -35.3750 -35.2078 -35.1663 -35.1308
   -20.9284 -20.8971 -20.8960 -20.8855 -20.8840 -20.8554 -20.8023 -20.4748
   -20.4258 -20.4245 -20.4121 -20.3687 -20.3595 -20.3583 -14.0285  -8.3685
    -5.7484  -5.3519  -4.3398  -2.5934  -1.7595  -1.3809  -0.9985   0.4174
     0.7483   2.0450   2.2762   3.3366

          k = 0.0000 0.1842 0.0000 ( 15883 PWs)   bands (ev):

   -69.2307 -68.7903 -36.0562 -35.5494 -35.4077 -35.2854 -35.1945 -35.1561
   -20.9252 -20.9011 -20.8968 -20.8863 -20.8810 -20.8486 -20.8094 -20.4672
   -20.4266 -20.4231 -20.4179 -20.3650 -20.3635 -20.3591 -13.7247  -7.7977
    -6.3905  -5.2624  -4.1034  -2.6594  -2.1166  -1.5106  -0.5194   0.0559
     0.7681   2.0690   2.6076   4.1311

          k = 0.0000 0.2764 0.0000 ( 15835 PWs)   bands (ev):

   -69.2198 -68.7794 -36.0279 -35.7193 -35.4519 -35.4361 -35.1906 -35.1860
   -20.9210 -20.9062 -20.8982 -20.8867 -20.8767 -20.8394 -20.8186 -20.4569
   -20.4313 -20.4278 -20.4155 -20.3688 -20.3601 -20.3596 -13.3407  -7.4243
    -6.6102  -5.2126  -3.8704  -3.2271  -2.0872  -1.4864   0.1520   0.1908
     1.2914   2.1162   2.7883   4.7901

          k = 0.0000 0.3685 0.0000 ( 15813 PWs)   bands (ev):

   -69.2089 -68.7686 -36.0174 -35.8794 -35.5658 -35.4956 -35.2249 -35.1814
   -20.9176 -20.9110 -20.8999 -20.8864 -20.8724 -20.8299 -20.8273 -20.4466
   -20.4412 -20.4290 -20.4110 -20.3737 -20.3610 -20.3541 -13.0036  -7.7796
    -6.0903  -5.2365  -4.0747  -3.1581  -1.7935  -1.2533   0.6296   0.9667
     2.0404   2.2551   2.8546   5.0697

          k = 0.0000 0.4606 0.0000 ( 15860 PWs)   bands (ev):

   -69.2010 -68.7607 -36.0458 -35.9774 -35.6370 -35.5273 -35.2500 -35.1798
   -20.9162 -20.9138 -20.9013 -20.8855 -20.8692 -20.8334 -20.8229 -20.4484
   -20.4394 -20.4295 -20.4076 -20.3772 -20.3616 -20.3499 -12.7943  -8.0618
    -5.8309  -5.2901  -4.4204  -2.6203  -1.2516  -0.9198   1.0761   1.7905
     1.9076   2.7846   3.4243   4.7853

          k =-0.0000-0.5527 0.0000 ( 15870 PWs)   bands (ev):

   -69.1981 -68.7577 -36.0733 -36.0020 -35.6558 -35.5388 -35.2592 -35.1796
   -20.9166 -20.9141 -20.9019 -20.8851 -20.8680 -20.8355 -20.8204 -20.4511
   -20.4370 -20.4295 -20.4064 -20.3785 -20.3618 -20.3484 -12.7269  -8.1568
    -5.7856  -5.3157  -4.5419  -2.3674  -0.9193  -0.7571   1.2523   1.8912
     2.1510   2.8639   3.9542   4.6301

          k = 0.0798 0.1382 0.0000 ( 15907 PWs)   bands (ev):

   -69.2332 -68.7928 -36.0638 -35.5047 -35.4031 -35.2437 -35.1970 -35.1517
   -20.9262 -20.8998 -20.8966 -20.8861 -20.8820 -20.8508 -20.8072 -20.4696
   -20.4262 -20.4231 -20.4167 -20.3662 -20.3621 -20.3590 -13.8189  -7.9652
    -6.2075  -5.3367  -4.1393  -2.5401  -2.0440  -1.5244  -0.7189   0.3154
     0.4533   2.2436   2.4650   3.9506

          k = 0.0798 0.2303 0.0000 ( 15867 PWs)   bands (ev):

   -69.2238 -68.7834 -36.0366 -35.6468 -35.4597 -35.3617 -35.1918 -35.1842
   -20.9224 -20.9042 -20.8978 -20.8867 -20.8784 -20.8428 -20.8154 -20.4607
   -20.4278 -20.4269 -20.4173 -20.3665 -20.3616 -20.3602 -13.4742  -7.3326
    -6.7208  -5.3905  -3.8189  -2.8481  -2.2900  -1.4592  -0.5200   0.4010
     0.8436   2.1966   2.9728   4.5716

          k = 0.0798 0.3224 0.0000 ( 15853 PWs)   bands (ev):

   -69.2129 -68.7726 -36.0153 -35.8046 -35.5407 -35.4670 -35.2310 -35.1797
   -20.9184 -20.9089 -20.8995 -20.8867 -20.8743 -20.8334 -20.8245 -20.4503
   -20.4376 -20.4278 -20.4134 -20.3714 -20.3614 -20.3562 -13.1138  -7.4654
    -6.3390  -5.4794  -3.6780  -3.1969  -2.0530  -1.4221  -0.1479   0.8694
     1.6704   2.2614   3.2757   5.1506

          k = 0.0798 0.4145 0.0000 ( 15858 PWs)   bands (ev):

   -69.2035 -68.7632 -36.0205 -35.9313 -35.6164 -35.5305 -35.2654 -35.1768
   -20.9157 -20.9126 -20.9012 -20.8860 -20.8709 -20.8320 -20.8252 -20.4464
   -20.4412 -20.4286 -20.4097 -20.3755 -20.3623 -20.3515 -12.8439  -7.8223
    -5.8769  -5.5442  -4.0234  -2.7715  -1.5979  -1.2116   0.4438   1.2040
     2.2157   2.9844   3.3898   4.9460

          k = 0.0798 0.5067 0.0000 ( 15845 PWs)   bands (ev):

   -69.1981 -68.7577 -36.0527 -35.9867 -35.6502 -35.5624 -35.2848 -35.1761
   -20.9157 -20.9133 -20.9023 -20.8851 -20.8689 -20.8362 -20.8204 -20.4513
   -20.4363 -20.4288 -20.4074 -20.3778 -20.3629 -20.3486 -12.7096  -8.0085
    -5.7550  -5.5768  -4.2141  -2.3734  -1.0876  -0.9278   0.8339   1.2918
     2.7013   3.1196   4.0295   4.6251

          k = 0.1596 0.2764 0.0000 ( 15858 PWs)   bands (ev):

   -69.2144 -68.7740 -36.0150 -35.7614 -35.5556 -35.4349 -35.2475 -35.1780
   -20.9185 -20.9079 -20.8996 -20.8869 -20.8751 -20.8347 -20.8236 -20.4516
   -20.4363 -20.4268 -20.4149 -20.3700 -20.3622 -20.3570 -13.1525  -7.1126
    -6.6272  -5.6894  -3.4084  -2.9702  -2.4504  -1.1780  -0.8536   0.8719
     1.5975   2.1703   3.7516   5.0950

          k = 0.1596 0.3685 0.0000 ( 15848 PWs)   bands (ev):

   -69.2050 -68.7646 -36.0046 -35.8693 -35.6348 -35.5123 -35.3059 -35.1725
   -20.9148 -20.9112 -20.9017 -20.8863 -20.8724 -20.8318 -20.8264 -20.4457
   -20.4418 -20.4267 -20.4121 -20.3735 -20.3641 -20.3525 -12.8623  -7.4098
    -6.1020  -5.8375  -3.4090  -2.7361  -2.1814  -1.4115  -0.3343   1.1007
     2.3240   2.6779   4.3323   5.0773

          k = 0.1596 0.4606 0.0000 ( 15846 PWs)   bands (ev):

   -69.1981 -68.7577 -36.0112 -35.9433 -35.6715 -35.5791 -35.3457 -35.1703
   -20.9137 -20.9118 -20.9035 -20.8851 -20.8710 -20.8375 -20.8205 -20.4516
   -20.4353 -20.4267 -20.4100 -20.3760 -20.3654 -20.3492 -12.6749  -7.6283
    -6.0754  -5.6522  -3.5391  -2.3694  -1.6099  -1.3380   0.0395   1.2865
     2.6020   3.2001   4.5471   4.8477

          k = 0.1596 0.5527 0.0000 ( 15864 PWs)   bands (ev):

   -69.1956 -68.7552 -36.0204 -35.9661 -35.6781 -35.6079 -35.3594 -35.1698
   -20.9143 -20.9111 -20.9042 -20.8844 -20.8706 -20.8396 -20.8183 -20.4539
   -20.4328 -20.4268 -20.4091 -20.3770 -20.3659 -20.3480 -12.6123  -7.7072
    -6.0916  -5.5937  -3.5942  -2.2034  -1.2446  -1.2072   0.1087   1.4395
     2.5752   3.1646   4.4544   5.0462

          k = 0.2393 0.4145 0.0000 ( 15846 PWs)   bands (ev):

   -69.1981 -68.7577 -35.9927 -35.9046 -35.7141 -35.5595 -35.3866 -35.1677
   -20.9125 -20.9109 -20.9043 -20.8852 -20.8720 -20.8382 -20.8205 -20.4518
   -20.4349 -20.4253 -20.4116 -20.3748 -20.3671 -20.3494 -12.6575  -7.3325
    -6.3929  -5.6080  -2.9348  -2.3337  -2.2279  -1.5533  -0.2250   1.2731
     2.5568   3.1644   4.5616   5.2630

          k = 0.2393 0.5067 0.0000 ( 15834 PWs)   bands (ev):

   -69.1941 -68.7538 -35.9727 -35.9250 -35.7639 -35.5918 -35.4362 -35.1657
   -20.9123 -20.9089 -20.9064 -20.8836 -20.8727 -20.8419 -20.8171 -20.4554
   -20.4303 -20.4246 -20.4115 -20.3752 -20.3692 -20.3478 -12.5458  -7.3101
    -6.5510  -5.4515  -2.7849  -2.1565  -1.7842  -1.4952  -0.2358   1.4974
     2.1783   2.9817   4.4715   5.2292

          k = 0.3191 0.5527 0.0000 ( 15774 PWs)   bands (ev):

   -69.1926 -68.7523 -35.9393 -35.8884 -35.8446 -35.5853 -35.4831 -35.1643
   -20.9102 -20.9091 -20.9077 -20.8825 -20.8742 -20.8436 -20.8158 -20.4568
   -20.4282 -20.4235 -20.4126 -20.3733 -20.3722 -20.3474 -12.4974  -6.9928
    -6.9103  -5.3567  -2.3132  -2.0201  -1.9493  -1.6030  -0.3307   1.5333
     1.7649   2.7967   4.5261   5.5351

     the Fermi energy is    -1.2505 ev

!    total energy              =   -1374.37479651 Ry
     estimated scf accuracy    <          6.0E-14 Ry
     smearing contrib. (-TS)   =      -0.00003736 Ry
     internal energy E=F+TS    =   -1374.37475915 Ry

     The total energy is F=E-TS. E is the sum of the following terms:
     one-electron contribution =  -10995.99672633 Ry
     hartree contribution      =    5524.94147231 Ry
     xc contribution           =    -139.51125042 Ry
     ewald contribution        =    4236.19174529 Ry

     convergence has been achieved in  39 iterations

     negative rho (up, down):  7.452E-05 0.000E+00

     Forces acting on atoms (cartesian axes, Ry/au):

     atom    1 type  2   force =     0.00000000    0.00000000   -0.04379699
     atom    2 type  1   force =     0.00000000    0.00000000   -0.02109002
     atom    3 type  1   force =     0.00000000    0.00000000    0.03441971
     atom    4 type  3   force =    -0.00000000   -0.00000000    0.03046730

     Total force =     0.050574     Total SCF correction =     0.000001


     Computing stress (Cartesian axis) and pressure


     negative rho (up, down):  7.452E-05 0.000E+00
          total   stress  (Ry/bohr**3)                   (kbar)     P=       11.84
   0.00003359  -0.00000000  -0.00000000            4.94       -0.00       -0.00
  -0.00000000   0.00003359  -0.00000000           -0.00        4.94       -0.00
   0.00000000   0.00000000   0.00017436            0.00        0.00       25.65

     Energy error            =      7.0E-03 Ry
     Gradient error          =      3.4E-02 Ry/Bohr
     Cell gradient error     =      4.9E+00 kbar

     number of scf cycles    =   3
     number of bfgs steps    =   2

     enthalpy           old  =   -1374.3677829447 Ry
     enthalpy           new  =   -1374.3747965079 Ry

     CASE: enthalpy          _new < enthalpy          _old

     new trust radius        =       0.0726421996 bohr
     new conv_thr            =            3.4E-13 Ry

     new unit-cell volume =   1620.69022 a.u.^3 (   240.16151 Ang^3 )
     density =      2.59220 g/cm^3

CELL_PARAMETERS (alat=  5.55000000)
   1.046273474  -0.000000000   0.000000000
  -0.523136736   0.906099407   0.000000000
   0.000000000   0.000000000  10.000000000

ATOMIC_POSITIONS (crystal)
C             0.0000000000        0.0000000000        0.0000000000    0   0   0
Ta            0.6666666670        0.3333333330       -0.0435169625
Ta            0.3333333330        0.6666666670        0.0392801450
H             0.3333333330        0.6666666670        0.0989086537



     Writing output data file /scratch/as3359/Ta2C_loop/Ta.save/
     NEW-OLD atomic charge density approx. for the potential

     negative rho (up, down):  7.349E-05 0.000E+00
     extrapolated charge   59.19337, renormalised to   59.00000

     total cpu time spent up to now is      672.2 secs

     Self-consistent Calculation

     iteration #  1     ecut=    70.00 Ry     beta= 0.70
     Davidson diagonalization with overlap
     c_bands:  1 eigenvalues not converged
     c_bands:  1 eigenvalues not converged
     c_bands:  3 eigenvalues not converged
     c_bands:  2 eigenvalues not converged
     c_bands:  3 eigenvalues not converged
     c_bands:  5 eigenvalues not converged
     c_bands:  4 eigenvalues not converged
     c_bands:  2 eigenvalues not converged
     c_bands:  2 eigenvalues not converged
     c_bands:  5 eigenvalues not converged
     c_bands:  1 eigenvalues not converged
     c_bands:  5 eigenvalues not converged
     c_bands:  5 eigenvalues not converged
     c_bands:  5 eigenvalues not converged
     c_bands:  4 eigenvalues not converged
     c_bands:  4 eigenvalues not converged
     c_bands:  5 eigenvalues not converged
     ethr =  1.00E-06,  avg # of iterations = 21.4

     total cpu time spent up to now is      686.7 secs

     total energy              =   -1328.58133775 Ry
     estimated scf accuracy    <      48.99428403 Ry

     iteration #  2     ecut=    70.00 Ry     beta= 0.70
     Davidson diagonalization with overlap
     ethr =  1.00E-02,  avg # of iterations = 10.1

     total cpu time spent up to now is      694.2 secs

     total energy              =   -1378.60156926 Ry
     estimated scf accuracy    <      48.41349252 Ry

     iteration #  3     ecut=    70.00 Ry     beta= 0.70
     Davidson diagonalization with overlap
     ethr =  1.00E-02,  avg # of iterations =  8.6

     total cpu time spent up to now is      701.3 secs

     total energy              =   -1375.04183264 Ry
     estimated scf accuracy    <      72.02284056 Ry

     iteration #  4     ecut=    70.00 Ry     beta= 0.70
     Davidson diagonalization with overlap
     ethr =  1.00E-02,  avg # of iterations =  9.9

     total cpu time spent up to now is      708.3 secs

     total energy              =   -1378.37142180 Ry
     estimated scf accuracy    <      42.76763851 Ry

     iteration #  5     ecut=    70.00 Ry     beta= 0.70
     Davidson diagonalization with overlap
     ethr =  1.00E-02,  avg # of iterations =  1.9

     total cpu time spent up to now is      713.4 secs

     total energy              =   -1377.42192488 Ry
     estimated scf accuracy    <       8.04547199 Ry

     iteration #  6     ecut=    70.00 Ry     beta= 0.70
     Davidson diagonalization with overlap
     ethr =  1.00E-02,  avg # of iterations =  1.9

     total cpu time spent up to now is      718.6 secs

     total energy              =   -1376.98159328 Ry
     estimated scf accuracy    <       3.99483402 Ry

     iteration #  7     ecut=    70.00 Ry     beta= 0.70
     Davidson diagonalization with overlap
     ethr =  6.77E-03,  avg # of iterations =  1.1

     total cpu time spent up to now is      723.6 secs

     total energy              =   -1375.73407961 Ry
     estimated scf accuracy    <       3.32450956 Ry

     iteration #  8     ecut=    70.00 Ry     beta= 0.70
     Davidson diagonalization with overlap
     ethr =  5.63E-03,  avg # of iterations =  1.0
     Minimization algorithm failed to find Fermi energy: reverting to bisection
     Possible cause: smearing is larger than the electronic band-gap.

     total cpu time spent up to now is      728.6 secs

     total energy              =   -1375.21422787 Ry
     estimated scf accuracy    <       1.74451025 Ry

     iteration #  9     ecut=    70.00 Ry     beta= 0.70
     Davidson diagonalization with overlap
     ethr =  2.96E-03,  avg # of iterations =  1.4

     total cpu time spent up to now is      733.6 secs

     total energy              =   -1375.24049752 Ry
     estimated scf accuracy    <       1.07676582 Ry

     iteration # 10     ecut=    70.00 Ry     beta= 0.70
     Davidson diagonalization with overlap
     ethr =  1.83E-03,  avg # of iterations =  1.3

     negative rho (up, down):  1.408E-05 0.000E+00

     total cpu time spent up to now is      738.6 secs

     total energy              =   -1374.26102997 Ry
     estimated scf accuracy    <       1.11450661 Ry

     iteration # 11     ecut=    70.00 Ry     beta= 0.70
     Davidson diagonalization with overlap
     ethr =  1.83E-03,  avg # of iterations =  5.7

     negative rho (up, down):  3.621E-03 0.000E+00

     total cpu time spent up to now is      744.4 secs

     total energy              =   -1374.43672018 Ry
     estimated scf accuracy    <       1.09400780 Ry

     iteration # 12     ecut=    70.00 Ry     beta= 0.70
     Davidson diagonalization with overlap
     ethr =  1.83E-03,  avg # of iterations =  1.2

     negative rho (up, down):  7.538E-02 0.000E+00

     total cpu time spent up to now is      749.4 secs

     total energy              =   -1374.50129669 Ry
     estimated scf accuracy    <       0.87980420 Ry

     iteration # 13     ecut=    70.00 Ry     beta= 0.70
     Davidson diagonalization with overlap
     ethr =  1.49E-03,  avg # of iterations =  4.3

[...]
     c_bands:  2 eigenvalues not converged
     c_bands:  1 eigenvalues not converged
     c_bands:  2 eigenvalues not converged
     c_bands:  1 eigenvalues not converged
     ethr =  1.00E-06,  avg # of iterations = 18.2

     negative rho (up, down):  7.798E-05 0.000E+00

     total cpu time spent up to now is     2000.8 secs

     total energy              =   -1373.15183711 Ry
     estimated scf accuracy    <       1.80216760 Ry

     iteration #  2     ecut=    70.00 Ry     beta= 0.70
     Davidson diagonalization with overlap
     ethr =  3.05E-03,  avg # of iterations = 10.6

     negative rho (up, down):  1.352E-04 0.000E+00

     total cpu time spent up to now is     2008.5 secs

     total energy              =   -1366.75556494 Ry
     estimated scf accuracy    <     150.28064958 Ry

     iteration #  3     ecut=    70.00 Ry     beta= 0.70
     Davidson diagonalization with overlap
     ethr =  3.05E-03,  avg # of iterations =  8.5

     negative rho (up, down):  6.847E-05 0.000E+00

     total cpu time spent up to now is     2015.9 secs

     total energy              =   -1373.87976648 Ry
     estimated scf accuracy    <       5.10111460 Ry

     iteration #  4     ecut=    70.00 Ry     beta= 0.70
     Davidson diagonalization with overlap
     ethr =  3.05E-03,  avg # of iterations =  2.7

     negative rho (up, down):  5.382E-05 0.000E+00

     total cpu time spent up to now is     2021.3 secs

     total energy              =   -1374.17009544 Ry
     estimated scf accuracy    <       6.83923938 Ry

     iteration #  5     ecut=    70.00 Ry     beta= 0.70
     Davidson diagonalization with overlap
     ethr =  3.05E-03,  avg # of iterations =  1.8

     negative rho (up, down):  8.457E-05 0.000E+00

     total cpu time spent up to now is     2026.3 secs

     total energy              =   -1374.39486881 Ry
     estimated scf accuracy    <       0.34641183 Ry

     iteration #  6     ecut=    70.00 Ry     beta= 0.70
     Davidson diagonalization with overlap
     ethr =  5.87E-04,  avg # of iterations =  1.5

     negative rho (up, down):  7.603E-05 0.000E+00

     total cpu time spent up to now is     2031.3 secs

     total energy              =   -1374.38870209 Ry
     estimated scf accuracy    <       0.12689056 Ry

     iteration #  7     ecut=    70.00 Ry     beta= 0.70
     Davidson diagonalization with overlap
     ethr =  2.15E-04,  avg # of iterations =  1.4

     negative rho (up, down):  6.570E-05 0.000E+00

     total cpu time spent up to now is     2036.2 secs

     total energy              =   -1374.38485313 Ry
     estimated scf accuracy    <       0.04629243 Ry

     iteration #  8     ecut=    70.00 Ry     beta= 0.70
     Davidson diagonalization with overlap
     ethr =  7.85E-05,  avg # of iterations =  2.8

     negative rho (up, down):  5.281E-05 0.000E+00

     total cpu time spent up to now is     2041.3 secs

     total energy              =   -1374.38383395 Ry
     estimated scf accuracy    <       0.03636389 Ry

     iteration #  9     ecut=    70.00 Ry     beta= 0.70
     Davidson diagonalization with overlap
     ethr =  6.16E-05,  avg # of iterations =  2.1

     negative rho (up, down):  5.250E-05 0.000E+00

     total cpu time spent up to now is     2046.3 secs

     total energy              =   -1374.38270146 Ry
     estimated scf accuracy    <       0.02245243 Ry

     iteration # 10     ecut=    70.00 Ry     beta= 0.70
     Davidson diagonalization with overlap
     ethr =  3.81E-05,  avg # of iterations =  2.8

     negative rho (up, down):  5.565E-05 0.000E+00

     total cpu time spent up to now is     2051.4 secs

     total energy              =   -1374.38259173 Ry
     estimated scf accuracy    <       0.00316621 Ry

     iteration # 11     ecut=    70.00 Ry     beta= 0.70
     Davidson diagonalization with overlap
     ethr =  5.37E-06,  avg # of iterations =  7.3

     negative rho (up, down):  6.057E-05 0.000E+00

     total cpu time spent up to now is     2057.1 secs

     total energy              =   -1374.38277815 Ry
     estimated scf accuracy    <       0.00018272 Ry

     iteration # 12     ecut=    70.00 Ry     beta= 0.70
     Davidson diagonalization with overlap
     ethr =  3.10E-07,  avg # of iterations =  3.7

     negative rho (up, down):  6.324E-05 0.000E+00

     total cpu time spent up to now is     2062.4 secs

     total energy              =   -1374.38280429 Ry
     estimated scf accuracy    <       0.00011332 Ry

     iteration # 13     ecut=    70.00 Ry     beta= 0.70
     Davidson diagonalization with overlap
     ethr =  1.92E-07,  avg # of iterations =  1.2

     negative rho (up, down):  6.709E-05 0.000E+00

     total cpu time spent up to now is     2067.4 secs

     total energy              =   -1374.38281001 Ry
     estimated scf accuracy    <       0.00001018 Ry

     iteration # 14     ecut=    70.00 Ry     beta= 0.70
     Davidson diagonalization with overlap
     ethr =  1.73E-08,  avg # of iterations =  2.0

     negative rho (up, down):  6.941E-05 0.000E+00

     total cpu time spent up to now is     2072.4 secs

     total energy              =   -1374.38281047 Ry
     estimated scf accuracy    <       0.00000023 Ry

     iteration # 15     ecut=    70.00 Ry     beta= 0.70
     Davidson diagonalization with overlap
     ethr =  3.90E-10,  avg # of iterations =  4.7

     negative rho (up, down):  7.022E-05 0.000E+00

     total cpu time spent up to now is     2078.2 secs

     total energy              =   -1374.38281054 Ry
     estimated scf accuracy    <       0.00000015 Ry

     iteration # 16     ecut=    70.00 Ry     beta= 0.70
     Davidson diagonalization with overlap
     ethr =  2.50E-10,  avg # of iterations =  1.1

     negative rho (up, down):  7.041E-05 0.000E+00

     total cpu time spent up to now is     2083.1 secs

     total energy              =   -1374.38281055 Ry
     estimated scf accuracy    <       0.00000004 Ry

     iteration # 17     ecut=    70.00 Ry     beta= 0.70
     Davidson diagonalization with overlap
     ethr =  7.59E-11,  avg # of iterations =  1.1

     negative rho (up, down):  7.041E-05 0.000E+00

     total cpu time spent up to now is     2088.0 secs

     total energy              =   -1374.38281055 Ry
     estimated scf accuracy    <          2.3E-09 Ry

     iteration # 18     ecut=    70.00 Ry     beta= 0.70
     Davidson diagonalization with overlap
     ethr =  3.90E-12,  avg # of iterations =  2.1

     negative rho (up, down):  7.042E-05 0.000E+00

     total cpu time spent up to now is     2093.3 secs

     total energy              =   -1374.38281055 Ry
     estimated scf accuracy    <          5.8E-10 Ry

     iteration # 19     ecut=    70.00 Ry     beta= 0.70
     Davidson diagonalization with overlap
     ethr =  9.90E-13,  avg # of iterations =  1.9

     negative rho (up, down):  7.042E-05 0.000E+00

     total cpu time spent up to now is     2098.3 secs

     total energy              =   -1374.38281055 Ry
     estimated scf accuracy    <          1.2E-11 Ry

     iteration # 20     ecut=    70.00 Ry     beta= 0.70
     Davidson diagonalization with overlap
     ethr =  1.00E-13,  avg # of iterations =  2.2

     negative rho (up, down):  7.042E-05 0.000E+00

     total cpu time spent up to now is     2103.4 secs

     total energy              =   -1374.38281055 Ry
     estimated scf accuracy    <          2.9E-11 Ry

     iteration # 21     ecut=    70.00 Ry     beta= 0.70
     Davidson diagonalization with overlap
     ethr =  1.00E-13,  avg # of iterations =  1.0

     negative rho (up, down):  7.042E-05 0.000E+00

     total cpu time spent up to now is     2108.3 secs

     total energy              =   -1374.38281055 Ry
     estimated scf accuracy    <          1.1E-12 Ry

     iteration # 22     ecut=    70.00 Ry     beta= 0.70
     Davidson diagonalization with overlap
     ethr =  1.00E-13,  avg # of iterations =  1.0

     negative rho (up, down):  7.042E-05 0.000E+00

     total cpu time spent up to now is     2113.2 secs

     total energy              =   -1374.38281055 Ry
     estimated scf accuracy    <          7.9E-14 Ry

     iteration # 23     ecut=    70.00 Ry     beta= 0.70
     Davidson diagonalization with overlap
     ethr =  1.00E-13,  avg # of iterations =  1.0

     negative rho (up, down):  7.042E-05 0.000E+00

     total cpu time spent up to now is     2118.0 secs

     End of self-consistent calculation

          k = 0.0000 0.0000 0.0000 ( 15969 PWs)   bands (ev):

   -69.2086 -68.8862 -36.0334 -35.3275 -35.3275 -35.2869 -35.1403 -35.1403
   -20.8925 -20.8558 -20.8558 -20.8455 -20.8455 -20.8235 -20.7616 -20.5685
   -20.5299 -20.5299 -20.5057 -20.4772 -20.4686 -20.4686 -14.0571  -8.5006
    -5.0190  -5.0190  -4.3682  -2.8692  -1.7588  -1.0300  -1.0300   0.9396
     0.9396   1.9139   1.9139   2.4826

          k = 0.0000 0.0924 0.0000 ( 15949 PWs)   bands (ev):

   -69.2056 -68.8833 -36.0235 -35.3852 -35.3396 -35.2744 -35.1853 -35.1497
   -20.8912 -20.8573 -20.8561 -20.8459 -20.8443 -20.8208 -20.7644 -20.5660
   -20.5301 -20.5287 -20.5085 -20.4760 -20.4702 -20.4690 -13.9430  -8.2823
    -5.4104  -4.9825  -4.2083  -2.7819  -1.7329  -1.3439  -0.8433   0.4690
     0.7929   1.8962   2.1558   3.1935

          k = 0.0000 0.1849 0.0000 ( 15901 PWs)   bands (ev):

   -69.1973 -68.8752 -35.9975 -35.5186 -35.3724 -35.3055 -35.2625 -35.1756
   -20.8878 -20.8615 -20.8571 -20.8468 -20.8411 -20.8135 -20.7718 -20.5591
   -20.5309 -20.5258 -20.5160 -20.4742 -20.4725 -20.4698 -13.6401  -7.7026
    -6.1048  -4.9171  -3.9727  -2.7419  -2.0634  -1.5724  -0.3274   0.0910
     0.7824   1.8614   2.4908   4.1112

          k = 0.0000 0.2773 0.0000 ( 15847 PWs)   bands (ev):

   -69.1859 -68.8642 -35.9678 -35.6906 -35.4587 -35.4167 -35.2537 -35.2110
   -20.8835 -20.8669 -20.8586 -20.8472 -20.8366 -20.8037 -20.7814 -20.5497
   -20.5320 -20.5276 -20.5204 -20.4795 -20.4707 -20.4675 -13.2510  -7.2394
    -6.4814  -4.9049  -3.6983  -3.2730  -2.0923  -1.4532   0.1686   0.3809
     1.3047   1.8485   2.6624   4.7505

          k = 0.0000 0.3697 0.0000 ( 15829 PWs)   bands (ev):

   -69.1746 -68.8531 -35.9595 -35.8507 -35.5913 -35.4605 -35.2470 -35.2462
   -20.8798 -20.8720 -20.8605 -20.8469 -20.8320 -20.7936 -20.7904 -20.5409
   -20.5374 -20.5325 -20.5165 -20.4846 -20.4714 -20.4624 -12.8980  -7.6013
    -6.0597  -4.9663  -3.9503  -3.1476  -1.7779  -1.1172   0.5429   1.1925
     1.7680   2.3005   2.7428   4.8673

          k = 0.0000 0.4622 0.0000 ( 15872 PWs)   bands (ev):

   -69.1663 -68.8450 -36.0086 -35.9342 -35.6603 -35.4923 -35.2720 -35.2433
   -20.8779 -20.8754 -20.8620 -20.8461 -20.8286 -20.7966 -20.7862 -20.5446
   -20.5372 -20.5301 -20.5133 -20.4881 -20.4720 -20.4585 -12.6679  -7.9320
    -5.8531  -5.0447  -4.3222  -2.5575  -1.2234  -0.7673   0.9361   1.6908
     1.9176   2.8245   3.4670   4.7683

          k =-0.0000-0.5546 0.0000 ( 15886 PWs)   bands (ev):

   -69.1633 -68.8421 -36.0443 -35.9548 -35.6764 -35.5038 -35.2814 -35.2422
   -20.8777 -20.8762 -20.8626 -20.8456 -20.8274 -20.7988 -20.7834 -20.5473
   -20.5370 -20.5281 -20.5121 -20.4893 -20.4722 -20.4570 -12.5906  -8.0472
    -5.8265  -5.0787  -4.4475  -2.2777  -0.8981  -0.6392   1.1039   1.7042
     2.1397   3.0579   4.0125   4.7643

          k = 0.0801 0.1387 0.0000 ( 15911 PWs)   bands (ev):

   -69.1999 -68.8778 -36.0055 -35.4737 -35.3685 -35.2684 -35.2589 -35.1710
   -20.8888 -20.8601 -20.8568 -20.8466 -20.8421 -20.8158 -20.7695 -20.5613
   -20.5306 -20.5269 -20.5137 -20.4736 -20.4728 -20.4697 -13.7343  -7.8753
    -5.8988  -4.9970  -4.0037  -2.6739  -1.9374  -1.5981  -0.5425   0.3758
     0.4403   2.0679   2.3509   3.9064

          k = 0.0801 0.2311 0.0000 ( 15883 PWs)   bands (ev):

   -69.1901 -68.8682 -35.9771 -35.6175 -35.4345 -35.3734 -35.2552 -35.2084
   -20.8849 -20.8647 -20.8582 -20.8472 -20.8383 -20.8073 -20.7780 -20.5531
   -20.5312 -20.5252 -20.5210 -20.4772 -20.4709 -20.4694 -13.3876  -7.2202
    -6.4777  -5.1025  -3.6748  -2.8366  -2.3166  -1.4553  -0.4219   0.4796
     0.8563   2.0179   2.7969   4.5431

          k = 0.0801 0.3235 0.0000 ( 15861 PWs)   bands (ev):

   -69.1788 -68.8572 -35.9552 -35.7770 -35.5460 -35.4513 -35.2557 -35.2422
   -20.8807 -20.8698 -20.8600 -20.8472 -20.8340 -20.7974 -20.7875 -20.5438
   -20.5338 -20.5318 -20.5187 -20.4821 -20.4720 -20.4644 -13.0163  -7.2666
    -6.2650  -5.2306  -3.5046  -3.2172  -2.0384  -1.3319  -0.1460   0.9171
     1.6899   2.1774   3.0643   5.0088

          k = 0.0801 0.4160 0.0000 ( 15872 PWs)   bands (ev):

   -69.1689 -68.8476 -35.9706 -35.8972 -35.6345 -35.5029 -35.2877 -35.2406
   -20.8777 -20.8738 -20.8619 -20.8465 -20.8304 -20.7953 -20.7885 -20.5425
   -20.5371 -20.5309 -20.5153 -20.4863 -20.4729 -20.4599 -12.7267  -7.6741
    -5.8675  -5.3212  -3.9007  -2.7230  -1.5671  -1.0554   0.3427   1.1574
     2.3016   2.9429   3.2904   4.8651

          k = 0.0801 0.5084 0.0000 ( 15857 PWs)   bands (ev):

   -69.1633 -68.8421 -36.0212 -35.9400 -35.6687 -35.5312 -35.3075 -35.2386
   -20.8768 -20.8755 -20.8631 -20.8456 -20.8284 -20.7995 -20.7835 -20.5474
   -20.5359 -20.5280 -20.5132 -20.4886 -20.4733 -20.4573 -12.5756  -7.8979
    -5.7733  -5.3846  -4.0907  -2.2873  -1.0603  -0.7838   0.6039   1.3089
     2.8778   2.9761   4.0790   4.7130

          k = 0.1601 0.2773 0.0000 ( 15868 PWs)   bands (ev):

   -69.1803 -68.8587 -35.9548 -35.7343 -35.5418 -35.4381 -35.2700 -35.2423
   -20.8808 -20.8687 -20.8601 -20.8474 -20.8349 -20.7987 -20.7865 -20.5449
   -20.5325 -20.5309 -20.5201 -20.4807 -20.4729 -20.4651 -13.0580  -6.8959
    -6.5200  -5.4816  -3.2226  -2.9686  -2.4473  -1.0367  -0.9291   0.8674
     1.6894   2.0804   3.4880   5.0210

          k = 0.1601 0.3697 0.0000 ( 15858 PWs)   bands (ev):

   -69.1705 -68.8491 -35.9476 -35.8408 -35.6248 -35.5133 -35.3281 -35.2369
   -20.8769 -20.8721 -20.8623 -20.8468 -20.8321 -20.7951 -20.7899 -20.5413
   -20.5370 -20.5301 -20.5177 -20.4842 -20.4748 -20.4609 -12.7515  -7.2495
    -5.9445  -5.7489  -3.2462  -2.7186  -2.1018  -1.3359  -0.3843   1.0181
     2.3716   2.7428   4.0884   5.1002

          k = 0.1601 0.4622 0.0000 ( 15854 PWs)   bands (ev):

   -69.1633 -68.8421 -35.9695 -35.9028 -35.6617 -35.5787 -35.3694 -35.2334
   -20.8748 -20.8738 -20.8642 -20.8456 -20.8305 -20.8010 -20.7836 -20.5475
   -20.5333 -20.5275 -20.5157 -20.4869 -20.4761 -20.4578 -12.5452  -7.5158
    -5.9020  -5.6477  -3.3891  -2.2959  -1.5348  -1.2263  -0.1104   1.2533
     2.6855   3.2216   4.5929   4.7256

          k = 0.1601 0.5546 0.0000 ( 15868 PWs)   bands (ev):

   -69.1606 -68.8395 -35.9881 -35.9182 -35.6673 -35.6071 -35.3839 -35.2324
   -20.8753 -20.8732 -20.8650 -20.8449 -20.8301 -20.8032 -20.7812 -20.5498
   -20.5328 -20.5259 -20.5149 -20.4878 -20.4765 -20.4567 -12.4740  -7.6135
    -5.9310  -5.6038  -3.4476  -2.1024  -1.2043  -1.0642  -0.0814   1.4366
     2.8113   3.0801   4.3961   5.0682

          k = 0.2402 0.4160 0.0000 ( 15850 PWs)   bands (ev):

   -69.1633 -68.8421 -35.9432 -35.8703 -35.6881 -35.5756 -35.4113 -35.2313
   -20.8736 -20.8728 -20.8650 -20.8456 -20.8316 -20.8018 -20.7836 -20.5475
   -20.5320 -20.5270 -20.5174 -20.4855 -20.4779 -20.4580 -12.5300  -7.2200
    -6.2323  -5.5807  -2.7208  -2.3194  -2.1145  -1.5002  -0.3370   1.2251
     2.6004   3.2428   4.6207   5.0135

          k = 0.2402 0.5084 0.0000 ( 15844 PWs)   bands (ev):

   -69.1591 -68.8380 -35.9299 -35.8832 -35.7320 -35.6130 -35.4645 -35.2287
   -20.8733 -20.8710 -20.8672 -20.8440 -20.8323 -20.8057 -20.7800 -20.5511
   -20.5295 -20.5245 -20.5174 -20.4860 -20.4800 -20.4565 -12.4060  -7.2247
    -6.4269  -5.4291  -2.6069  -2.0593  -1.6688  -1.4324  -0.3932   1.4925
     2.4622   2.8386   4.3387   5.2238

          k = 0.3202 0.5546 0.0000 ( 15798 PWs)   bands (ev):

   -69.1576 -68.8365 -35.8782 -35.8603 -35.8142 -35.6042 -35.5173 -35.2271
   -20.8711 -20.8700 -20.8697 -20.8429 -20.8337 -20.8074 -20.7787 -20.5525
   -20.5274 -20.5233 -20.5187 -20.4839 -20.4833 -20.4561 -12.3535  -6.9209
    -6.8033  -5.3254  -2.1440  -1.9090  -1.7728  -1.5777  -0.4892   1.5302
     2.1957   2.5000   4.3116   5.5565

     the Fermi energy is    -1.2120 ev

!    total energy              =   -1374.38281055 Ry
     estimated scf accuracy    <          8.7E-15 Ry
     smearing contrib. (-TS)   =       0.00001634 Ry
     internal energy E=F+TS    =   -1374.38282688 Ry

     The total energy is F=E-TS. E is the sum of the following terms:
     one-electron contribution =  -10959.98685882 Ry
     hartree contribution      =    5506.89945706 Ry
     xc contribution           =    -139.42263487 Ry
     ewald contribution        =    4218.12720975 Ry

     convergence has been achieved in  23 iterations

     negative rho (up, down):  7.042E-05 0.000E+00

     Forces acting on atoms (cartesian axes, Ry/au):

     atom    1 type  2   force =     0.00000000    0.00000000    0.00026381
     atom    2 type  1   force =     0.00000000    0.00000000   -0.00040165
     atom    3 type  1   force =     0.00000000    0.00000000    0.00024255
     atom    4 type  3   force =     0.00000000    0.00000000   -0.00010471

     Total force =     0.000481     Total SCF correction =     0.000000


     Computing stress (Cartesian axis) and pressure


     negative rho (up, down):  7.042E-05 0.000E+00
          total   stress  (Ry/bohr**3)                   (kbar)     P=       -0.34
  -0.00000163   0.00000000   0.00000000           -0.24        0.00        0.00
   0.00000000  -0.00000163   0.00000000            0.00       -0.24        0.00
   0.00000000   0.00000000  -0.00000360            0.00        0.00       -0.53


     Writing output data file /scratch/as3359/Ta2C_loop/Ta.save/
 
     init_run     :     53.12s CPU     35.42s WALL (       2 calls)
     electrons    :   3064.29s CPU   1645.53s WALL (      11 calls)
     update_pot   :    246.59s CPU    153.77s WALL (       9 calls)
     forces       :    172.50s CPU     88.02s WALL (      11 calls)
     stress       :    415.32s CPU    213.12s WALL (      11 calls)

     Called by init_run:
     wfcinit      :      4.99s CPU      2.58s WALL (       2 calls)
     potinit      :     15.30s CPU      7.68s WALL (       2 calls)
     hinit0       :     28.93s CPU     22.80s WALL (       2 calls)

     Called by electrons:
     c_bands      :   1652.37s CPU    839.53s WALL (     291 calls)
     sum_band     :    813.62s CPU    460.15s WALL (     291 calls)
     v_of_rho     :     83.81s CPU     43.85s WALL (     302 calls)
     newd         :    513.31s CPU    302.51s WALL (     302 calls)
     mix_rho      :     14.08s CPU      7.29s WALL (     291 calls)

     Called by c_bands:
     init_us_2    :     39.47s CPU     19.79s WALL (   11514 calls)
     cegterg      :   1514.77s CPU    770.36s WALL (    5544 calls)

     Called by *egterg:
     cdiaghg      :     58.07s CPU     29.66s WALL (   26493 calls)
     h_psi        :   1182.24s CPU    602.28s WALL (   26717 calls)
     s_psi        :     52.03s CPU     26.13s WALL (   26717 calls)
     g_psi        :      7.77s CPU      3.91s WALL (   21135 calls)

     Called by h_psi:
     h_psi:calbec :     51.09s CPU     25.71s WALL (   26717 calls)
     vloc_psi     :   1062.14s CPU    541.69s WALL (   26717 calls)
     add_vuspsi   :     59.08s CPU     29.63s WALL (   26717 calls)

     General routines
     calbec       :     71.22s CPU     35.83s WALL (   33291 calls)
     fft          :     39.89s CPU     21.43s WALL (    4188 calls)
     ffts         :      1.68s CPU      0.86s WALL (     593 calls)
     fftw         :   1104.79s CPU    563.88s WALL ( 1191804 calls)
     interpolate  :      4.67s CPU      2.45s WALL (     302 calls)
 
     Parallel routines
 
     PWSCF        :      1h 6m CPU  35m45.97s WALL

 
   This run was terminated on:  18:30:19  21Apr2022            

=------------------------------------------------------------------------------=
   JOB DONE.
=------------------------------------------------------------------------------=
