
     Program PWSCF v.6.8 starts on 19Apr2022 at 11:44:59 

     This program is part of the open-source Quantum ESPRESSO suite
     for quantum simulation of materials; please cite
         "P. Giannozzi et al., J. Phys.:Condens. Matter 21 395502 (2009);
         "P. Giannozzi et al., J. Phys.:Condens. Matter 29 465901 (2017);
         "P. Giannozzi et al., J. Chem. Phys. 152 154105 (2020);
          URL http://www.quantum-espresso.org", 
     in publications or presentations arising from this work. More details at
     http://www.quantum-espresso.org/quote

     Parallel version (MPI & OpenMP), running on       4 processor cores
     Number of MPI processes:                 2
     Threads/MPI process:                     2

     MPI processes distributed on     1 nodes
     R & G space division:  proc/nbgrp/npool/nimage =       2
     125249 MiB available memory on the printing compute node when the environment starts
 
     Reading input from Ta2CH2.vcrelax.in

     Current dimensions of program PWSCF are:
     Max number of different atomic species (ntypx) = 10
     Max number of k-points (npk) =  40000
     Max angular momentum in pseudopotentials (lmaxx) =  4
     file Ta.pbesol-spfn-rrkjus_psl.1.0.0.UPF: wavefunction(s)  5S 5P renormalized

     Subspace diagonalization in iterative solution of the eigenvalue problem:
     a serial algorithm will be used

 
     Parallelization info
     --------------------
     sticks:   dense  smooth     PW     G-vecs:    dense   smooth      PW
     Min         807     324     98               250741    63556   10218
     Max         808     325    101               250768    63579   10229
     Sum        1615     649    199               501509   127135   20447
 
     Using Slab Decomposition
 


     bravais-lattice index     =            0
     lattice parameter (alat)  =       5.5500  a.u.
     unit-cell volume          =    1603.2166 (a.u.)^3
     number of atoms/cell      =            5
     number of atomic types    =            3
     number of electrons       =        60.00
     number of Kohn-Sham states=           36
     kinetic-energy cutoff     =      70.0000  Ry
     charge density cutoff     =     700.0000  Ry
     scf convergence threshold =      1.0E-12
     mixing beta               =       0.7000
     number of iterations used =            8  plain     mixing
     energy convergence thresh.=      1.0E-04
     force convergence thresh. =      1.0E-03
     press convergence thresh. =      5.0E-01
     Exchange-correlation= PBESOL
                           (   1   4  10   8   0   0   0)
     nstep                     =           50


     celldm(1)=   5.550000  celldm(2)=   0.000000  celldm(3)=   0.000000
     celldm(4)=   0.000000  celldm(5)=   0.000000  celldm(6)=   0.000000

     crystal axes: (cart. coord. in units of alat)
               a(1) = (   1.040618   0.000000   0.000000 )  
               a(2) = (  -0.520309   0.901202   0.000000 )  
               a(3) = (   0.000000   0.000000  10.000000 )  

     reciprocal axes: (cart. coord. in units 2 pi/alat)
               b(1) = (  0.960967  0.554815  0.000000 )  
               b(2) = (  0.000000  1.109630  0.000000 )  
               b(3) = (  0.000000  0.000000  0.100000 )  


     PseudoPot. # 1 for Ta read from file:
     /shared/home/as3359/pseudo/Ta.pbesol-spfn-rrkjus_psl.1.0.0.UPF
     MD5 check sum: f099565ffaca9b150a52e9412a28e20b
     Pseudo is Ultrasoft + core correction, Zval = 27.0
     Generated using &quot;atomic&quot; code by A. Dal Corso  v.6.3
     Using radial grid of 1273 points,  8 beta functions with: 
                l(1) =   0
                l(2) =   0
                l(3) =   1
                l(4) =   1
                l(5) =   2
                l(6) =   2
                l(7) =   3
                l(8) =   3
     Q(r) pseudized with 0 coefficients 


     PseudoPot. # 2 for C  read from file:
     /shared/home/as3359/pseudo/C.pbesol-n-rrkjus_psl.1.0.0.UPF
     MD5 check sum: 05995be603a8a7c99da3dc4413f31573
     Pseudo is Ultrasoft + core correction, Zval =  4.0
     Generated using &quot;atomic&quot; code by A. Dal Corso  v.6.3MaX
     Using radial grid of 1073 points,  4 beta functions with: 
                l(1) =   0
                l(2) =   0
                l(3) =   1
                l(4) =   1
     Q(r) pseudized with 0 coefficients 


     PseudoPot. # 3 for H  read from file:
     /shared/home/as3359/pseudo/H.pbesol-rrkjus_psl.0.1.UPF
     MD5 check sum: 1dbb1a5c48b1283557b8117eb856a7ca
     Pseudo is Ultrasoft, Zval =  1.0
     Generated using "atomic" code by A. Dal Corso  v.5.0.2 svn rev. 9415
     Using radial grid of  929 points,  2 beta functions with: 
                l(1) =   0
                l(2) =   0
     Q(r) pseudized with 0 coefficients 


     atomic species   valence    mass     pseudopotential
        Ta            27.00   180.94788     Ta( 1.00)
        C              4.00    12.01070     C ( 1.00)
        H              1.00     1.00000     H ( 1.00)

     No symmetry found



   Cartesian axes

     site n.     atom                  positions (alat units)
         1           C   tau(   1) = (   0.0000000   0.0000000   0.0000000  )
         2           Ta  tau(   2) = (   0.3760587   0.2657114  -4.3645110  )
         3           Ta  tau(   3) = (  -0.3061655   0.5289519   4.3645320  )
         4           H   tau(   4) = (  -0.3061655   0.5289519   8.3419300  )
         5           H   tau(   5) = (   0.3760587   0.2657114  -8.3419300  )

     number of k points=    74  Marzari-Vanderbilt smearing, width (Ry)=  0.0010
                       cart. coord. in units 2pi/alat
        k(    1) = (   0.0000000   0.0000000   0.0000000), wk =   0.0138889
        k(    2) = (   0.0000000   0.0924691   0.0000000), wk =   0.0277778
        k(    3) = (   0.0000000   0.1849383   0.0000000), wk =   0.0277778
        k(    4) = (   0.0000000   0.2774074   0.0000000), wk =   0.0277778
        k(    5) = (   0.0000000   0.3698766   0.0000000), wk =   0.0277778
        k(    6) = (   0.0000000   0.4623457   0.0000000), wk =   0.0277778
        k(    7) = (   0.0000000  -0.5548148   0.0000000), wk =   0.0138889
        k(    8) = (   0.0800806   0.1387037   0.0000000), wk =   0.0277778
        k(    9) = (   0.0800806   0.2311728   0.0000000), wk =   0.0277778
        k(   10) = (   0.0800806   0.3236420   0.0000000), wk =   0.0277778
        k(   11) = (   0.0800806   0.4161111   0.0000000), wk =   0.0277778
        k(   12) = (   0.0800806   0.5085803   0.0000000), wk =   0.0277778
        k(   13) = (   0.1601612   0.2774074   0.0000000), wk =   0.0277778
        k(   14) = (   0.1601612   0.3698766   0.0000000), wk =   0.0277778
        k(   15) = (   0.1601612   0.4623457   0.0000000), wk =   0.0277778
        k(   16) = (   0.1601612   0.5548148   0.0000000), wk =   0.0277778
        k(   17) = (   0.2402419   0.4161111   0.0000000), wk =   0.0277778
        k(   18) = (   0.2402419   0.5085803   0.0000000), wk =   0.0277778
        k(   19) = (   0.3203225   0.5548148   0.0000000), wk =   0.0277778
        k(   20) = (  -0.0800806   0.0462346   0.0000000), wk =   0.0277778
        k(   21) = (   0.0800806   0.0462346   0.0000000), wk =   0.0277778
        k(   22) = (  -0.1601612   0.0924691   0.0000000), wk =   0.0277778
        k(   23) = (   0.1601612   0.0924691   0.0000000), wk =   0.0277778
        k(   24) = (  -0.2402419   0.1387037   0.0000000), wk =   0.0277778
        k(   25) = (   0.2402419   0.1387037   0.0000000), wk =   0.0277778
        k(   26) = (  -0.3203225   0.1849383   0.0000000), wk =   0.0277778
        k(   27) = (   0.3203225   0.1849383   0.0000000), wk =   0.0277778
        k(   28) = (  -0.4004031   0.2311728   0.0000000), wk =   0.0277778
        k(   29) = (   0.4004031   0.2311728   0.0000000), wk =   0.0277778
        k(   30) = (   0.4804837  -0.2774074   0.0000000), wk =   0.0138889
        k(   31) = (  -0.4804837  -0.2774074   0.0000000), wk =   0.0138889
        k(   32) = (  -0.0800806   0.1387037   0.0000000), wk =   0.0277778
        k(   33) = (   0.1601612  -0.0000000   0.0000000), wk =   0.0277778
        k(   34) = (  -0.0800806   0.2311728   0.0000000), wk =   0.0277778
        k(   35) = (  -0.1601612   0.1849383   0.0000000), wk =   0.0277778
        k(   36) = (   0.2402419   0.0462346   0.0000000), wk =   0.0277778
        k(   37) = (  -0.1601612  -0.1849383   0.0000000), wk =   0.0277778
        k(   38) = (   0.2402419  -0.0462346   0.0000000), wk =   0.0277778
        k(   39) = (  -0.0800806   0.3236420   0.0000000), wk =   0.0277778
        k(   40) = (  -0.2402419   0.2311728   0.0000000), wk =   0.0277778
        k(   41) = (   0.3203225   0.0924691   0.0000000), wk =   0.0277778
        k(   42) = (  -0.2402419  -0.2311728   0.0000000), wk =   0.0277778
        k(   43) = (   0.3203225  -0.0924691   0.0000000), wk =   0.0277778
        k(   44) = (  -0.0800806   0.4161111   0.0000000), wk =   0.0277778
        k(   45) = (  -0.3203225   0.2774074   0.0000000), wk =   0.0277778
        k(   46) = (   0.4004031   0.1387037   0.0000000), wk =   0.0277778
        k(   47) = (  -0.3203225  -0.2774074   0.0000000), wk =   0.0277778
        k(   48) = (   0.4004031  -0.1387037   0.0000000), wk =   0.0277778
        k(   49) = (  -0.0800806   0.5085803   0.0000000), wk =   0.0277778
        k(   50) = (  -0.4004031   0.3236420   0.0000000), wk =   0.0277778
        k(   51) = (   0.4804837   0.1849383   0.0000000), wk =   0.0277778
        k(   52) = (  -0.4004031  -0.3236420   0.0000000), wk =   0.0277778
        k(   53) = (   0.4804837  -0.1849383   0.0000000), wk =   0.0277778
        k(   54) = (  -0.1601612   0.2774074   0.0000000), wk =   0.0277778
        k(   55) = (   0.3203225  -0.0000000   0.0000000), wk =   0.0277778
        k(   56) = (  -0.1601612   0.3698766   0.0000000), wk =   0.0277778
        k(   57) = (  -0.2402419   0.3236420   0.0000000), wk =   0.0277778
        k(   58) = (   0.4004031   0.0462346   0.0000000), wk =   0.0277778
        k(   59) = (  -0.2402419  -0.3236420   0.0000000), wk =   0.0277778
        k(   60) = (   0.4004031  -0.0462346   0.0000000), wk =   0.0277778
        k(   61) = (  -0.1601612   0.4623457   0.0000000), wk =   0.0277778
        k(   62) = (  -0.3203225   0.3698766   0.0000000), wk =   0.0277778
        k(   63) = (   0.4804837   0.0924691   0.0000000), wk =   0.0277778
        k(   64) = (  -0.3203225  -0.3698766   0.0000000), wk =   0.0277778
        k(   65) = (   0.4804837  -0.0924691   0.0000000), wk =   0.0277778
        k(   66) = (  -0.4004031   0.4161111   0.0000000), wk =   0.0277778
        k(   67) = (   0.5605644   0.1387037   0.0000000), wk =   0.0277778
        k(   68) = (  -0.2402419   0.4161111   0.0000000), wk =   0.0277778
        k(   69) = (   0.4804837  -0.0000000   0.0000000), wk =   0.0277778
        k(   70) = (  -0.2402419   0.5085803   0.0000000), wk =   0.0277778
        k(   71) = (  -0.3203225   0.4623457   0.0000000), wk =   0.0277778
        k(   72) = (   0.5605644   0.0462346   0.0000000), wk =   0.0277778
        k(   73) = (  -0.3203225  -0.4623457   0.0000000), wk =   0.0277778
        k(   74) = (   0.5605644  -0.0462346   0.0000000), wk =   0.0277778

     Dense  grid:   501509 G-vectors     FFT dimensions: (  50,  50, 480)

     Smooth grid:   127135 G-vectors     FFT dimensions: (  32,  32, 300)

     Estimated max dynamical RAM per process >       2.69 GB

     Estimated total dynamical RAM >       5.38 GB

     Initial potential from superposition of free atoms

     starting charge   59.99840, renormalised to   60.00000
     Starting wfcs are   40 randomized atomic wfcs

     total cpu time spent up to now is       22.9 secs

     Self-consistent Calculation

     iteration #  1     ecut=    70.00 Ry     beta= 0.70
     Davidson diagonalization with overlap
     ethr =  1.00E-02,  avg # of iterations =  2.3

     total cpu time spent up to now is       39.5 secs

     total energy              =   -1373.82353687 Ry
     estimated scf accuracy    <       0.61164978 Ry

     iteration #  2     ecut=    70.00 Ry     beta= 0.70
     Davidson diagonalization with overlap
     ethr =  1.02E-03,  avg # of iterations =  9.4

     total cpu time spent up to now is       64.5 secs

     total energy              =   -1368.84341570 Ry
     estimated scf accuracy    <     417.51605107 Ry

     iteration #  3     ecut=    70.00 Ry     beta= 0.70
     Davidson diagonalization with overlap
     c_bands:  1 eigenvalues not converged
     c_bands:  3 eigenvalues not converged
     c_bands:  3 eigenvalues not converged
     c_bands:  1 eigenvalues not converged
     c_bands:  1 eigenvalues not converged
     c_bands:  1 eigenvalues not converged
     c_bands:  1 eigenvalues not converged
     ethr =  1.02E-03,  avg # of iterations = 15.5

     total cpu time spent up to now is       94.8 secs

     total energy              =   -1373.98095603 Ry
     estimated scf accuracy    <       8.61032095 Ry

     iteration #  4     ecut=    70.00 Ry     beta= 0.70
     Davidson diagonalization with overlap
     ethr =  1.02E-03,  avg # of iterations =  2.7

     total cpu time spent up to now is      111.6 secs

     total energy              =   -1373.89147873 Ry
     estimated scf accuracy    <      11.31140201 Ry

     iteration #  5     ecut=    70.00 Ry     beta= 0.70
     Davidson diagonalization with overlap
     ethr =  1.02E-03,  avg # of iterations =  5.5

     total cpu time spent up to now is      130.4 secs

     total energy              =   -1373.96560928 Ry
     estimated scf accuracy    <      12.03737862 Ry

     iteration #  6     ecut=    70.00 Ry     beta= 0.70
     Davidson diagonalization with overlap
     ethr =  1.02E-03,  avg # of iterations =  2.5

     total cpu time spent up to now is      146.7 secs

     total energy              =   -1374.12525237 Ry
     estimated scf accuracy    <       9.58359711 Ry

     iteration #  7     ecut=    70.00 Ry     beta= 0.70
     Davidson diagonalization with overlap
     ethr =  1.02E-03,  avg # of iterations =  1.5

     total cpu time spent up to now is      162.1 secs

     total energy              =   -1374.23500905 Ry
     estimated scf accuracy    <       0.13329103 Ry

     iteration #  8     ecut=    70.00 Ry     beta= 0.70
     Davidson diagonalization with overlap
     ethr =  2.22E-04,  avg # of iterations =  2.1

     total cpu time spent up to now is      178.0 secs

     total energy              =   -1374.26340068 Ry
     estimated scf accuracy    <       0.17742430 Ry

     iteration #  9     ecut=    70.00 Ry     beta= 0.70
     Davidson diagonalization with overlap
     ethr =  2.22E-04,  avg # of iterations =  1.4

     total cpu time spent up to now is      193.4 secs

     total energy              =   -1374.25256447 Ry
     estimated scf accuracy    <       0.16064253 Ry

     iteration # 10     ecut=    70.00 Ry     beta= 0.70
     Davidson diagonalization with overlap
     ethr =  2.22E-04,  avg # of iterations =  1.1

     total cpu time spent up to now is      208.5 secs

     total energy              =   -1374.22806602 Ry
     estimated scf accuracy    <       0.19546536 Ry

     iteration # 11     ecut=    70.00 Ry     beta= 0.70
     Davidson diagonalization with overlap
     ethr =  2.22E-04,  avg # of iterations =  1.0

     total cpu time spent up to now is      223.5 secs

     total energy              =   -1374.23696763 Ry
     estimated scf accuracy    <       0.24149998 Ry

     iteration # 12     ecut=    70.00 Ry     beta= 0.70
     Davidson diagonalization with overlap
     ethr =  2.22E-04,  avg # of iterations =  1.0

     total cpu time spent up to now is      238.5 secs

     total energy              =   -1374.22804136 Ry
     estimated scf accuracy    <       0.16410395 Ry

     iteration # 13     ecut=    70.00 Ry     beta= 0.70
     Davidson diagonalization with overlap
     ethr =  2.22E-04,  avg # of iterations =  1.3

     total cpu time spent up to now is      253.9 secs

     total energy              =   -1374.23791102 Ry
     estimated scf accuracy    <       0.47700294 Ry

     iteration # 14     ecut=    70.00 Ry     beta= 0.70
     Davidson diagonalization with overlap
     ethr =  2.22E-04,  avg # of iterations =  1.3

     total cpu time spent up to now is      269.2 secs

     total energy              =   -1374.23125991 Ry
     estimated scf accuracy    <       0.21228728 Ry

     iteration # 15     ecut=    70.00 Ry     beta= 0.70
     Davidson diagonalization with overlap
     ethr =  2.22E-04,  avg # of iterations =  1.0

     total cpu time spent up to now is      284.2 secs

     total energy              =   -1374.24812357 Ry
     estimated scf accuracy    <       0.25764530 Ry

     iteration # 16     ecut=    70.00 Ry     beta= 0.70
     Davidson diagonalization with overlap
     ethr =  2.22E-04,  avg # of iterations =  1.1

     total cpu time spent up to now is      299.3 secs

     total energy              =   -1374.25582715 Ry
     estimated scf accuracy    <       0.66635319 Ry

     iteration # 17     ecut=    70.00 Ry     beta= 0.70
     Davidson diagonalization with overlap
     ethr =  2.22E-04,  avg # of iterations =  1.0

     total cpu time spent up to now is      314.3 secs

     total energy              =   -1374.24398370 Ry
     estimated scf accuracy    <       1.00679850 Ry

     iteration # 18     ecut=    70.00 Ry     beta= 0.70
     Davidson diagonalization with overlap
     ethr =  2.22E-04,  avg # of iterations =  1.0

     total cpu time spent up to now is      329.5 secs

     total energy              =   -1374.23694775 Ry
     estimated scf accuracy    <       0.51221438 Ry

     iteration # 19     ecut=    70.00 Ry     beta= 0.70
     Davidson diagonalization with overlap
     ethr =  2.22E-04,  avg # of iterations =  1.1

     total cpu time spent up to now is      344.6 secs

     total energy              =   -1374.23990832 Ry
     estimated scf accuracy    <       0.02119891 Ry

     iteration # 20     ecut=    70.00 Ry     beta= 0.70
     Davidson diagonalization with overlap
     ethr =  3.53E-05,  avg # of iterations =  3.0

     total cpu time spent up to now is      361.0 secs

     total energy              =   -1374.24013145 Ry
     estimated scf accuracy    <       0.01979895 Ry

     iteration # 21     ecut=    70.00 Ry     beta= 0.70
     Davidson diagonalization with overlap
     ethr =  3.30E-05,  avg # of iterations =  1.1

     total cpu time spent up to now is      376.2 secs

     total energy              =   -1374.23834559 Ry
     estimated scf accuracy    <       0.16557242 Ry

     iteration # 22     ecut=    70.00 Ry     beta= 0.70
     Davidson diagonalization with overlap
     ethr =  3.30E-05,  avg # of iterations =  1.3

     total cpu time spent up to now is      391.5 secs

     total energy              =   -1374.23990808 Ry
     estimated scf accuracy    <       0.00551467 Ry

     iteration # 23     ecut=    70.00 Ry     beta= 0.70
     Davidson diagonalization with overlap
     ethr =  9.19E-06,  avg # of iterations =  1.5

     total cpu time spent up to now is      407.0 secs

     total energy              =   -1374.24002042 Ry
     estimated scf accuracy    <       0.08829014 Ry

     iteration # 24     ecut=    70.00 Ry     beta= 0.70
     Davidson diagonalization with overlap
     ethr =  9.19E-06,  avg # of iterations =  1.0

     total cpu time spent up to now is      422.2 secs

     total energy              =   -1374.23947356 Ry
     estimated scf accuracy    <       0.15113979 Ry

     iteration # 25     ecut=    70.00 Ry     beta= 0.70
     Davidson diagonalization with overlap
     ethr =  9.19E-06,  avg # of iterations =  1.0

     total cpu time spent up to now is      437.3 secs

     total energy              =   -1374.23890957 Ry
     estimated scf accuracy    <       0.07849354 Ry

     iteration # 26     ecut=    70.00 Ry     beta= 0.70
     Davidson diagonalization with overlap
     ethr =  9.19E-06,  avg # of iterations =  1.0

     total cpu time spent up to now is      452.4 secs

     total energy              =   -1374.23984520 Ry
     estimated scf accuracy    <       0.00832018 Ry

     iteration # 27     ecut=    70.00 Ry     beta= 0.70
     Davidson diagonalization with overlap
     ethr =  9.19E-06,  avg # of iterations =  1.1

     total cpu time spent up to now is      467.6 secs

     total energy              =   -1374.24057908 Ry
     estimated scf accuracy    <       0.16043806 Ry

     iteration # 28     ecut=    70.00 Ry     beta= 0.70
     Davidson diagonalization with overlap
     ethr =  9.19E-06,  avg # of iterations =  1.2

     total cpu time spent up to now is      482.8 secs

     total energy              =   -1374.24020290 Ry
     estimated scf accuracy    <       0.15048088 Ry

     iteration # 29     ecut=    70.00 Ry     beta= 0.70
     Davidson diagonalization with overlap
     ethr =  9.19E-06,  avg # of iterations =  1.0

     total cpu time spent up to now is      497.9 secs

     total energy              =   -1374.23898835 Ry
     estimated scf accuracy    <       0.14054132 Ry

     iteration # 30     ecut=    70.00 Ry     beta= 0.70
     Davidson diagonalization with overlap
     ethr =  9.19E-06,  avg # of iterations =  1.0

     total cpu time spent up to now is      513.0 secs

     total energy              =   -1374.23971592 Ry
     estimated scf accuracy    <       0.00080406 Ry

     iteration # 31     ecut=    70.00 Ry     beta= 0.70
     Davidson diagonalization with overlap
     c_bands:  2 eigenvalues not converged
     ethr =  1.34E-06,  avg # of iterations =  2.5

     total cpu time spent up to now is      528.9 secs

     total energy              =   -1374.23970224 Ry
     estimated scf accuracy    <       0.00119840 Ry

     iteration # 32     ecut=    70.00 Ry     beta= 0.70
     Davidson diagonalization with overlap
     ethr =  1.34E-06,  avg # of iterations =  1.2

     total cpu time spent up to now is      544.1 secs

     total energy              =   -1374.23969011 Ry
     estimated scf accuracy    <       0.00518126 Ry

     iteration # 33     ecut=    70.00 Ry     beta= 0.70
     Davidson diagonalization with overlap
     ethr =  1.34E-06,  avg # of iterations =  1.0

     total cpu time spent up to now is      559.2 secs

     total energy              =   -1374.23970424 Ry
     estimated scf accuracy    <       0.00108607 Ry

     iteration # 34     ecut=    70.00 Ry     beta= 0.70
     Davidson diagonalization with overlap
     ethr =  1.34E-06,  avg # of iterations =  1.0

     total cpu time spent up to now is      574.2 secs

     total energy              =   -1374.23971265 Ry
     estimated scf accuracy    <       0.00068338 Ry

     iteration # 35     ecut=    70.00 Ry     beta= 0.70
     Davidson diagonalization with overlap
     ethr =  1.14E-06,  avg # of iterations =  1.0

     total cpu time spent up to now is      589.3 secs

     total energy              =   -1374.23971194 Ry
     estimated scf accuracy    <       0.00026154 Ry

     iteration # 36     ecut=    70.00 Ry     beta= 0.70
     Davidson diagonalization with overlap
     ethr =  4.36E-07,  avg # of iterations =  1.0

     total cpu time spent up to now is      604.4 secs

     total energy              =   -1374.23971190 Ry
     estimated scf accuracy    <       0.00026409 Ry

     iteration # 37     ecut=    70.00 Ry     beta= 0.70
     Davidson diagonalization with overlap
     ethr =  4.36E-07,  avg # of iterations =  1.0

     total cpu time spent up to now is      619.4 secs

     total energy              =   -1374.23971138 Ry
     estimated scf accuracy    <       0.00017059 Ry

     iteration # 38     ecut=    70.00 Ry     beta= 0.70
     Davidson diagonalization with overlap
     ethr =  2.84E-07,  avg # of iterations =  1.0

     total cpu time spent up to now is      634.5 secs

     total energy              =   -1374.23971816 Ry
     estimated scf accuracy    <       0.00021784 Ry

     iteration # 39     ecut=    70.00 Ry     beta= 0.70
     Davidson diagonalization with overlap
     ethr =  2.84E-07,  avg # of iterations =  1.0

     total cpu time spent up to now is      649.5 secs

     total energy              =   -1374.23971401 Ry
     estimated scf accuracy    <       0.00001712 Ry

     iteration # 40     ecut=    70.00 Ry     beta= 0.70
     Davidson diagonalization with overlap
     ethr =  2.85E-08,  avg # of iterations =  1.1

     total cpu time spent up to now is      664.7 secs

     total energy              =   -1374.23971410 Ry
     estimated scf accuracy    <       0.00000669 Ry

     iteration # 41     ecut=    70.00 Ry     beta= 0.70
     Davidson diagonalization with overlap
     ethr =  1.11E-08,  avg # of iterations =  1.0

     total cpu time spent up to now is      679.7 secs

     total energy              =   -1374.23971409 Ry
     estimated scf accuracy    <       0.00000111 Ry

     iteration # 42     ecut=    70.00 Ry     beta= 0.70
     Davidson diagonalization with overlap
     ethr =  1.84E-09,  avg # of iterations =  2.0

     total cpu time spent up to now is      695.4 secs

     total energy              =   -1374.23971411 Ry
     estimated scf accuracy    <       0.00000030 Ry

     iteration # 43     ecut=    70.00 Ry     beta= 0.70
     Davidson diagonalization with overlap
     ethr =  4.99E-10,  avg # of iterations =  1.7

     total cpu time spent up to now is      710.8 secs

     total energy              =   -1374.23971410 Ry
     estimated scf accuracy    <       0.00000007 Ry

     iteration # 44     ecut=    70.00 Ry     beta= 0.70
     Davidson diagonalization with overlap
     ethr =  1.12E-10,  avg # of iterations =  1.5

     total cpu time spent up to now is      726.2 secs

     total energy              =   -1374.23971410 Ry
     estimated scf accuracy    <          1.3E-09 Ry

     iteration # 45     ecut=    70.00 Ry     beta= 0.70
     Davidson diagonalization with overlap
     ethr =  2.19E-12,  avg # of iterations =  4.8

     total cpu time spent up to now is      744.2 secs

     total energy              =   -1374.23971410 Ry
     estimated scf accuracy    <          3.3E-09 Ry

     iteration # 46     ecut=    70.00 Ry     beta= 0.70
     Davidson diagonalization with overlap
     ethr =  2.19E-12,  avg # of iterations =  1.0

     total cpu time spent up to now is      759.3 secs

     total energy              =   -1374.23971410 Ry
     estimated scf accuracy    <          6.7E-09 Ry

     iteration # 47     ecut=    70.00 Ry     beta= 0.70
     Davidson diagonalization with overlap
     ethr =  2.19E-12,  avg # of iterations =  1.0

     total cpu time spent up to now is      774.3 secs

     total energy              =   -1374.23971410 Ry
     estimated scf accuracy    <          5.4E-11 Ry

     iteration # 48     ecut=    70.00 Ry     beta= 0.70
     Davidson diagonalization with overlap
     ethr =  1.00E-13,  avg # of iterations =  2.5

     total cpu time spent up to now is      790.3 secs

     total energy              =   -1374.23971410 Ry
     estimated scf accuracy    <          5.2E-12 Ry

     iteration # 49     ecut=    70.00 Ry     beta= 0.70
     Davidson diagonalization with overlap
     ethr =  1.00E-13,  avg # of iterations =  1.0

     total cpu time spent up to now is      805.4 secs

     End of self-consistent calculation

          k = 0.0000 0.0000 0.0000 ( 15945 PWs)   bands (ev):

   -68.9752 -68.9743 -35.5998 -35.5841 -34.9171 -34.9165 -34.9051 -34.9040
   -20.7597 -20.7588 -20.7220 -20.7212 -20.7178 -20.7168 -20.6742 -20.6740
   -20.6734 -20.6732 -20.6164 -20.6158 -20.5689 -20.5682 -10.0562  -6.4263
    -5.7759  -2.4186  -2.3458  -2.0146  -1.3571  -0.7422  -0.3659   0.2017
     0.2190   0.2226   0.2355   1.6267

          k = 0.0000 0.0925 0.0000 ( 15937 PWs)   bands (ev):

   -68.9725 -68.9717 -35.5944 -35.5791 -34.9546 -34.9539 -34.9174 -34.9165
   -20.7589 -20.7580 -20.7232 -20.7223 -20.7183 -20.7174 -20.6743 -20.6735
   -20.6731 -20.6724 -20.6145 -20.6139 -20.5713 -20.5707  -9.9730  -6.1959
    -5.5286  -2.3114  -2.2386  -1.9300  -1.2841  -0.6942  -0.4280   0.0031
     0.0268   0.4148   0.4317   1.3464

          k = 0.0000 0.1849 0.0000 ( 15883 PWs)   bands (ev):

   -68.9651 -68.9643 -35.5796 -35.5655 -35.0632 -35.0624 -34.9437 -34.9429
   -20.7565 -20.7556 -20.7267 -20.7258 -20.7197 -20.7187 -20.6745 -20.6738
   -20.6709 -20.6701 -20.6090 -20.6084 -20.5779 -20.5773  -9.7325  -5.5490
    -4.8395  -1.9994  -1.9264  -1.7512  -1.0772  -0.6562  -0.5862  -0.4461
    -0.3287   0.6190   1.0068   1.0247

          k = 0.0000 0.2774 0.0000 ( 15835 PWs)   bands (ev):

   -68.9551 -68.9543 -35.5593 -35.5470 -35.2095 -35.2086 -34.9789 -34.9780
   -20.7533 -20.7524 -20.7315 -20.7306 -20.7213 -20.7203 -20.6747 -20.6740
   -20.6677 -20.6670 -20.6015 -20.6009 -20.5866 -20.5860  -9.3650  -4.6441
    -3.9309  -1.7434  -1.5160  -1.4428  -0.9367  -0.8983  -0.7741  -0.6039
    -0.3273  -0.1809   0.8674   1.2197

          k = 0.0000 0.3699 0.0000 ( 15813 PWs)   bands (ev):

   -68.9450 -68.9442 -35.5388 -35.5287 -35.3528 -35.3518 -35.0137 -35.0128
   -20.7502 -20.7493 -20.7362 -20.7353 -20.7229 -20.7220 -20.6748 -20.6741
   -20.6646 -20.6639 -20.5949 -20.5943 -20.5939 -20.5933  -8.9352  -3.8372
    -3.3511  -1.9274  -1.2697  -1.1773  -0.9368  -0.9126  -0.8633  -0.4430
    -0.2775   0.4303   0.9288   1.0316

          k = 0.0000 0.4623 0.0000 ( 15860 PWs)   bands (ev):

   -68.9377 -68.9369 -35.5236 -35.5159 -35.4555 -35.4547 -35.0391 -35.0381
   -20.7480 -20.7471 -20.7395 -20.7386 -20.7242 -20.7232 -20.6748 -20.6741
   -20.6623 -20.6616 -20.6007 -20.6001 -20.5882 -20.5876  -8.5612  -3.5026
    -3.3056  -2.0414  -1.9863  -1.4687  -0.4171  -0.3859  -0.3438  -0.1788
     0.6651   0.8995   1.0019   1.3648

          k = 0.0000-0.5548 0.0000 ( 15870 PWs)   bands (ev):

   -68.9350 -68.9342 -35.5181 -35.5128 -35.4921 -35.4910 -35.0483 -35.0474
   -20.7472 -20.7464 -20.7406 -20.7398 -20.7246 -20.7237 -20.6748 -20.6741
   -20.6615 -20.6607 -20.6028 -20.6022 -20.5861 -20.5855  -8.4062  -3.4523
    -3.3529  -2.2614  -2.0732  -1.5894  -0.1946  -0.1236  -0.0763   0.0952
     0.6630   0.8523   1.4555   1.6829

          k = 0.0801 0.1387 0.0000 ( 15907 PWs)   bands (ev):

   -68.9675 -68.9667 -35.5842 -35.5700 -35.0206 -35.0199 -34.9436 -34.9430
   -20.7573 -20.7564 -20.7242 -20.7233 -20.7206 -20.7197 -20.6744 -20.6736
   -20.6716 -20.6709 -20.6108 -20.6102 -20.5759 -20.5753  -9.8111  -5.7547
    -5.0559  -2.1017  -2.0287  -1.7954  -1.1441  -0.6467  -0.4987  -0.3566
    -0.3091   0.8385   0.8497   0.8652

          k = 0.0801 0.2312 0.0000 ( 15867 PWs)   bands (ev):

   -68.9588 -68.9580 -35.5666 -35.5540 -35.1453 -35.1446 -34.9771 -34.9764
   -20.7546 -20.7537 -20.7285 -20.7276 -20.7219 -20.7209 -20.6745 -20.6738
   -20.6690 -20.6682 -20.6043 -20.6037 -20.5836 -20.5830  -9.5062  -4.9546
    -4.2108  -1.7028  -1.6675  -1.6296  -0.8884  -0.8595  -0.7971  -0.6500
    -0.4195   0.0776   0.9748   1.2122

          k = 0.0801 0.3236 0.0000 ( 15853 PWs)   bands (ev):

   -68.9487 -68.9479 -35.5461 -35.5357 -35.2852 -35.2843 -35.0170 -35.0162
   -20.7514 -20.7505 -20.7334 -20.7325 -20.7233 -20.7224 -20.6746 -20.6738
   -20.6660 -20.6653 -20.5967 -20.5961 -20.5921 -20.5915  -9.1039  -4.0190
    -3.3434  -1.7817  -1.1671  -1.1004  -1.0936  -1.0255  -0.8224  -0.7320
    -0.5692  -0.0333   0.8864   0.9609

          k = 0.0801 0.4161 0.0000 ( 15858 PWs)   bands (ev):

   -68.9400 -68.9392 -35.5283 -35.5200 -35.4038 -35.4029 -35.0515 -35.0506
   -20.7487 -20.7478 -20.7375 -20.7366 -20.7246 -20.7236 -20.6745 -20.6737
   -20.6635 -20.6628 -20.5993 -20.5987 -20.5901 -20.5894  -8.6927  -3.3959
    -3.0614  -1.9408  -1.6308  -1.2968  -0.7293  -0.6032  -0.5295  -0.2677
    -0.0601   0.6103   0.7559   0.9950

          k = 0.0801 0.5086 0.0000 ( 15845 PWs)   bands (ev):

   -68.9350 -68.9342 -35.5179 -35.5116 -35.4711 -35.4705 -35.0712 -35.0702
   -20.7471 -20.7462 -20.7399 -20.7390 -20.7253 -20.7243 -20.6743 -20.6736
   -20.6621 -20.6614 -20.6033 -20.6027 -20.5862 -20.5856  -8.4160  -3.2430
    -3.1216  -2.1241  -1.9905  -1.4887  -0.2111  -0.1394  -0.0802  -0.0569
     0.5740   0.6425   1.0727   1.3963

          k = 0.1602 0.2774 0.0000 ( 15858 PWs)   bands (ev):

   -68.9501 -68.9493 -35.5487 -35.5384 -35.2475 -35.2469 -35.0311 -35.0304
   -20.7519 -20.7510 -20.7311 -20.7302 -20.7246 -20.7237 -20.6741 -20.6734
   -20.6668 -20.6660 -20.5977 -20.5971 -20.5912 -20.5906  -9.1639  -4.0561
    -3.2609  -1.6138  -1.2644  -1.2480  -1.1836  -1.1745  -0.8170  -0.6150
    -0.5795  -0.2410   0.8325   0.9250

          k = 0.1602 0.3699 0.0000 ( 15848 PWs)   bands (ev):

   -68.9414 -68.9406 -35.5308 -35.5227 -35.3475 -35.3468 -35.0859 -35.0851
   -20.7491 -20.7482 -20.7350 -20.7341 -20.7261 -20.7251 -20.6737 -20.6729
   -20.6648 -20.6641 -20.5988 -20.5982 -20.5911 -20.5905  -8.7702  -3.1142
    -2.4566  -1.7162  -1.3060  -1.2475  -1.2162  -0.9161  -0.7121  -0.6382
    -0.3206   0.1718   0.4361   0.9501

          k = 0.1602 0.4623 0.0000 ( 15846 PWs)   bands (ev):

   -68.9350 -68.9342 -35.5177 -35.5113 -35.4184 -35.4176 -35.1271 -35.1261
   -20.7470 -20.7461 -20.7378 -20.7369 -20.7271 -20.7262 -20.6731 -20.6723
   -20.6637 -20.6629 -20.6042 -20.6036 -20.5862 -20.5856  -8.4354  -2.6692
    -2.4598  -1.7854  -1.7769  -1.2485  -0.5820  -0.2432  -0.1710  -0.1703
    -0.0883   0.1581   0.6190   0.6665

          k = 0.1602 0.5548 0.0000 ( 15864 PWs)   bands (ev):

   -68.9326 -68.9319 -35.5131 -35.5068 -35.4453 -35.4444 -35.1412 -35.1402
   -20.7461 -20.7452 -20.7392 -20.7383 -20.7271 -20.7262 -20.6728 -20.6720
   -20.6634 -20.6626 -20.6062 -20.6056 -20.5844 -20.5838  -8.2994  -2.6268
    -2.5310  -1.9846  -1.7603  -1.2950  -0.0468  -0.0086   0.0213   0.0320
     0.0608   0.1207   0.5266   0.9175

          k = 0.2402 0.4161 0.0000 ( 15846 PWs)   bands (ev):

   -68.9350 -68.9342 -35.5174 -35.5118 -35.3793 -35.3786 -35.1676 -35.1666
   -20.7470 -20.7461 -20.7354 -20.7345 -20.7292 -20.7283 -20.6721 -20.6713
   -20.6647 -20.6639 -20.6047 -20.6041 -20.5863 -20.5857  -8.4449  -2.1627
    -1.5937  -1.5252  -1.4662  -1.3867  -1.3123  -0.9289  -0.2593  -0.1853
    -0.1585  -0.0924   0.3176   0.5920

          k = 0.2402 0.5086 0.0000 ( 15834 PWs)   bands (ev):

   -68.9313 -68.9305 -35.5100 -35.5046 -35.3885 -35.3876 -35.2242 -35.2232
   -20.7456 -20.7447 -20.7369 -20.7359 -20.7299 -20.7290 -20.6708 -20.6700
   -20.6652 -20.6645 -20.6082 -20.6076 -20.5835 -20.5829  -8.2371  -1.7799
    -1.7098  -1.6410  -1.4255  -1.0004  -0.6257  -0.5673  -0.4470  -0.1179
     0.0277   0.0487   0.1167   0.3114

          k = 0.3203 0.5548 0.0000 ( 15774 PWs)   bands (ev):

   -68.9299 -68.9291 -35.5075 -35.5018 -35.3253 -35.3239 -35.3123 -35.3114
   -20.7451 -20.7442 -20.7360 -20.7351 -20.7315 -20.7305 -20.6680 -20.6678
   -20.6672 -20.6670 -20.6097 -20.6090 -20.5824 -20.5818  -8.1625  -1.2449
    -1.2154  -1.2153  -1.1283  -0.9653  -0.8510  -0.7612  -0.7256  -0.6758
    -0.1380   0.0842   0.1482   0.2228

          k =-0.0801 0.0462 0.0000 ( 15937 PWs)   bands (ev):

   -68.9725 -68.9717 -35.5945 -35.5791 -34.9558 -34.9551 -34.9163 -34.9152
   -20.7589 -20.7580 -20.7233 -20.7224 -20.7183 -20.7173 -20.6741 -20.6734
   -20.6733 -20.6726 -20.6145 -20.6139 -20.5713 -20.5707  -9.9730  -6.1959
    -5.5287  -2.3114  -2.2386  -1.9286  -1.2841  -0.6916  -0.4316   0.0075
     0.0246   0.4067   0.4375   1.3464

          k = 0.0801 0.0462 0.0000 ( 15937 PWs)   bands (ev):

   -68.9725 -68.9717 -35.5944 -35.5792 -34.9455 -34.9446 -34.9265 -34.9258
   -20.7589 -20.7580 -20.7223 -20.7215 -20.7192 -20.7182 -20.6741 -20.6734
   -20.6732 -20.6725 -20.6145 -20.6139 -20.5713 -20.5707  -9.9730  -6.1960
    -5.5288  -2.3114  -2.2386  -1.9321  -1.2841  -0.6979  -0.4229  -0.0065
     0.0362   0.4206   0.4269   1.3464

          k =-0.1602 0.0925 0.0000 ( 15883 PWs)   bands (ev):

   -68.9651 -68.9643 -35.5798 -35.5654 -35.0646 -35.0638 -34.9425 -34.9414
   -20.7565 -20.7556 -20.7269 -20.7260 -20.7195 -20.7185 -20.6743 -20.6736
   -20.6711 -20.6703 -20.6090 -20.6084 -20.5780 -20.5774  -9.7325  -5.5490
    -4.8397  -1.9994  -1.9264  -1.7436  -1.0772  -0.6577  -0.5861  -0.4455
    -0.3296   0.6190   0.9990   1.0306

          k = 0.1602 0.0925 0.0000 ( 15883 PWs)   bands (ev):

   -68.9651 -68.9643 -35.5795 -35.5658 -35.0546 -35.0537 -34.9523 -34.9515
   -20.7567 -20.7558 -20.7234 -20.7230 -20.7225 -20.7220 -20.6743 -20.6735
   -20.6710 -20.6702 -20.6090 -20.6084 -20.5780 -20.5774  -9.7325  -5.5495
    -4.8400  -1.9994  -1.9263  -1.7620  -1.0772  -0.6687  -0.5705  -0.4497
    -0.3204   0.6190   1.0097   1.0219

          k =-0.2402 0.1387 0.0000 ( 15835 PWs)   bands (ev):

   -68.9551 -68.9543 -35.5597 -35.5467 -35.2111 -35.2099 -34.9776 -34.9765
   -20.7533 -20.7524 -20.7318 -20.7309 -20.7210 -20.7200 -20.6746 -20.6738
   -20.6679 -20.6672 -20.6015 -20.6009 -20.5867 -20.5861  -9.3650  -4.6445
    -3.9312  -1.7376  -1.5160  -1.4428  -0.9424  -0.8902  -0.7741  -0.5470
    -0.3273  -0.2300   0.8622   1.2197

          k = 0.2402 0.1387 0.0000 ( 15835 PWs)   bands (ev):

   -68.9551 -68.9543 -35.5589 -35.5476 -35.2009 -35.2001 -34.9874 -34.9864
   -20.7537 -20.7528 -20.7280 -20.7271 -20.7246 -20.7237 -20.6743 -20.6736
   -20.6679 -20.6671 -20.6015 -20.6009 -20.5867 -20.5861  -9.3650  -4.6448
    -3.9324  -1.7525  -1.5161  -1.4427  -0.9526  -0.8842  -0.7741  -0.6562
    -0.3273  -0.1291   0.8770   1.2197

          k =-0.3203 0.1849 0.0000 ( 15813 PWs)   bands (ev):

   -68.9450 -68.9442 -35.5395 -35.5281 -35.3545 -35.3531 -35.0125 -35.0113
   -20.7502 -20.7493 -20.7365 -20.7356 -20.7225 -20.7215 -20.6747 -20.6739
   -20.6648 -20.6641 -20.5950 -20.5944 -20.5938 -20.5932  -8.9352  -3.8395
    -3.3482  -1.9452  -1.2696  -1.1308  -0.9368  -0.9093  -0.8635  -0.4429
    -0.2093   0.3216   0.9398   1.0316

          k = 0.3203 0.1849 0.0000 ( 15813 PWs)   bands (ev):

   -68.9450 -68.9442 -35.5381 -35.5299 -35.3440 -35.3431 -35.0222 -35.0211
   -20.7508 -20.7499 -20.7328 -20.7318 -20.7261 -20.7252 -20.6743 -20.6735
   -20.6647 -20.6640 -20.5950 -20.5944 -20.5938 -20.5932  -8.9352  -3.8365
    -3.3585  -1.9013  -1.2696  -1.2436  -0.9374  -0.9104  -0.8631  -0.4428
    -0.3317   0.5506   0.9166   1.0316

          k =-0.4004 0.2312 0.0000 ( 15860 PWs)   bands (ev):

   -68.9377 -68.9369 -35.5247 -35.5149 -35.4572 -35.4560 -35.0378 -35.0366
   -20.7480 -20.7471 -20.7398 -20.7389 -20.7238 -20.7228 -20.6747 -20.6739
   -20.6625 -20.6618 -20.6008 -20.6002 -20.5882 -20.5876  -8.5612  -3.5099
    -3.2942  -2.0879  -1.9863  -1.3715  -0.4171  -0.4133  -0.3444  -0.1782
     0.6705   0.8995   0.9895   1.3578

          k = 0.4004 0.2312 0.0000 ( 15860 PWs)   bands (ev):

   -68.9377 -68.9369 -35.5229 -35.5185 -35.4467 -35.4448 -35.0476 -35.0463
   -20.7489 -20.7480 -20.7360 -20.7350 -20.7273 -20.7263 -20.6741 -20.6734
   -20.6625 -20.6617 -20.6009 -20.6003 -20.5882 -20.5876  -8.5612  -3.4956
    -3.3242  -1.9863  -1.9512  -1.6151  -0.4186  -0.3522  -0.3428  -0.1781
     0.6646   0.8995   1.0246   1.3839

          k = 0.4805-0.2774 0.0000 ( 15870 PWs)   bands (ev):

   -68.9350 -68.9342 -35.5195 -35.5120 -35.4932 -35.4924 -35.0471 -35.0458
   -20.7473 -20.7464 -20.7410 -20.7401 -20.7242 -20.7232 -20.6747 -20.6739
   -20.6617 -20.6609 -20.6029 -20.6023 -20.5861 -20.5855  -8.4062  -3.4661
    -3.3340  -2.2614  -2.1346  -1.4733  -0.1947  -0.1261  -0.0738  -0.0113
     0.7788   0.8522   1.3535   1.6468

          k =-0.4805-0.2774 0.0000 ( 15870 PWs)   bands (ev):

   -68.9350 -68.9342 -35.5179 -35.5167 -35.4832 -35.4793 -35.0568 -35.0555
   -20.7482 -20.7473 -20.7371 -20.7362 -20.7277 -20.7268 -20.6741 -20.6733
   -20.6616 -20.6609 -20.6030 -20.6023 -20.5861 -20.5855  -8.4062  -3.4251
    -3.3930  -2.2614  -1.8619  -1.8601  -0.1986  -0.1194  -0.0765   0.3181
     0.4527   0.8522   1.6162   1.6888

          k =-0.0801 0.1387 0.0000 ( 15907 PWs)   bands (ev):

   -68.9675 -68.9666 -35.5845 -35.5697 -35.0302 -35.0295 -34.9342 -34.9333
   -20.7572 -20.7563 -20.7261 -20.7252 -20.7187 -20.7178 -20.6743 -20.6736
   -20.6718 -20.6710 -20.6108 -20.6102 -20.5759 -20.5753  -9.8111  -5.7543
    -5.0557  -2.1017  -2.0287  -1.7862  -1.1441  -0.6203  -0.5327  -0.3290
    -0.3274   0.8279   0.8534   0.8652

          k = 0.1602-0.0000 0.0000 ( 15907 PWs)   bands (ev):

   -68.9675 -68.9666 -35.5843 -35.5699 -35.0222 -35.0216 -34.9421 -34.9413
   -20.7573 -20.7564 -20.7244 -20.7236 -20.7204 -20.7194 -20.6742 -20.6734
   -20.6718 -20.6711 -20.6107 -20.6101 -20.5759 -20.5753  -9.8111  -5.7547
    -5.0560  -2.1017  -2.0287  -1.7916  -1.1441  -0.6380  -0.5114  -0.3467
    -0.3133   0.8339   0.8512   0.8652

          k =-0.0801 0.2312 0.0000 ( 15867 PWs)   bands (ev):

   -68.9588 -68.9580 -35.5669 -35.5536 -35.1518 -35.1511 -34.9707 -34.9698
   -20.7544 -20.7535 -20.7302 -20.7294 -20.7202 -20.7192 -20.6745 -20.6737
   -20.6692 -20.6684 -20.6043 -20.6037 -20.5836 -20.5830  -9.5062  -4.9541
    -4.2106  -1.7028  -1.6587  -1.6296  -0.8884  -0.8556  -0.8072  -0.6162
    -0.4368   0.0776   0.9630   1.2122

          k =-0.1602 0.1849 0.0000 ( 15867 PWs)   bands (ev):

   -68.9588 -68.9579 -35.5671 -35.5535 -35.1526 -35.1517 -34.9701 -34.9691
   -20.7544 -20.7535 -20.7304 -20.7295 -20.7201 -20.7191 -20.6744 -20.6736
   -20.6693 -20.6685 -20.6043 -20.6037 -20.5836 -20.5830  -9.5062  -4.9542
    -4.2108  -1.7028  -1.6531  -1.6296  -0.8884  -0.8588  -0.8041  -0.5986
    -0.4542   0.0776   0.9651   1.2122

          k = 0.2402 0.0462 0.0000 ( 15867 PWs)   bands (ev):

   -68.9588 -68.9580 -35.5666 -35.5540 -35.1421 -35.1415 -34.9802 -34.9795
   -20.7547 -20.7538 -20.7271 -20.7263 -20.7232 -20.7223 -20.6742 -20.6734
   -20.6692 -20.6684 -20.6043 -20.6037 -20.5836 -20.5830  -9.5062  -4.9549
    -4.2114  -1.7028  -1.6717  -1.6296  -0.8884  -0.8629  -0.8007  -0.6454
    -0.4074   0.0776   0.9686   1.2122

          k =-0.1602-0.1849 0.0000 ( 15867 PWs)   bands (ev):

   -68.9588 -68.9580 -35.5665 -35.5542 -35.1411 -35.1403 -34.9813 -34.9805
   -20.7547 -20.7538 -20.7268 -20.7259 -20.7235 -20.7227 -20.6743 -20.6736
   -20.6691 -20.6683 -20.6043 -20.6037 -20.5836 -20.5830  -9.5062  -4.9549
    -4.2113  -1.7028  -1.6757  -1.6296  -0.8884  -0.8647  -0.7955  -0.6567
    -0.4042   0.0776   0.9742   1.2122

          k = 0.2402-0.0462 0.0000 ( 15867 PWs)   bands (ev):

   -68.9588 -68.9580 -35.5669 -35.5537 -35.1471 -35.1463 -34.9755 -34.9746
   -20.7546 -20.7537 -20.7289 -20.7280 -20.7215 -20.7205 -20.6743 -20.6736
   -20.6692 -20.6684 -20.6043 -20.6037 -20.5836 -20.5830  -9.5062  -4.9546
    -4.2112  -1.7028  -1.6580  -1.6296  -0.8884  -0.8602  -0.8001  -0.6235
    -0.4375   0.0776   0.9715   1.2122

          k =-0.0801 0.3236 0.0000 ( 15853 PWs)   bands (ev):

   -68.9487 -68.9479 -35.5465 -35.5351 -35.2895 -35.2885 -35.0129 -35.0120
   -20.7512 -20.7503 -20.7347 -20.7338 -20.7220 -20.7211 -20.6745 -20.6737
   -20.6662 -20.6655 -20.5967 -20.5961 -20.5921 -20.5915  -9.1039  -4.0187
    -3.3421  -1.7788  -1.1670  -1.0944  -1.0925  -1.0281  -0.8224  -0.7230
    -0.5693  -0.0442   0.8867   0.9609

          k =-0.2402 0.2312 0.0000 ( 15853 PWs)   bands (ev):

   -68.9487 -68.9479 -35.5469 -35.5348 -35.2907 -35.2894 -35.0120 -35.0109
   -20.7512 -20.7503 -20.7349 -20.7340 -20.7218 -20.7208 -20.6744 -20.6736
   -20.6664 -20.6656 -20.5967 -20.5961 -20.5922 -20.5916  -9.1039  -4.0196
    -3.3420  -1.7858  -1.1670  -1.0970  -1.0935  -1.0217  -0.8224  -0.6337
    -0.5692  -0.1215   0.8806   0.9609

          k = 0.3203 0.0925 0.0000 ( 15853 PWs)   bands (ev):

   -68.9487 -68.9479 -35.5460 -35.5360 -35.2795 -35.2788 -35.0225 -35.0215
   -20.7518 -20.7508 -20.7311 -20.7302 -20.7255 -20.7246 -20.6741 -20.6733
   -20.6662 -20.6655 -20.5967 -20.5961 -20.5922 -20.5916  -9.1039  -4.0191
    -3.3455  -1.7718  -1.1671  -1.1032  -1.0936  -1.0249  -0.8224  -0.8110
    -0.5691   0.0393   0.8988   0.9609

          k =-0.2402-0.2312 0.0000 ( 15853 PWs)   bands (ev):

   -68.9487 -68.9479 -35.5458 -35.5363 -35.2789 -35.2781 -35.0232 -35.0222
   -20.7518 -20.7508 -20.7309 -20.7300 -20.7257 -20.7248 -20.6742 -20.6734
   -20.6661 -20.6654 -20.5967 -20.5961 -20.5922 -20.5916  -9.1039  -4.0191
    -3.3460  -1.7736  -1.1671  -1.1076  -1.0936  -1.0225  -0.8224  -0.8123
    -0.5692   0.0424   0.8984   0.9609

          k = 0.3203-0.0925 0.0000 ( 15853 PWs)   bands (ev):

   -68.9487 -68.9479 -35.5467 -35.5351 -35.2871 -35.2859 -35.0154 -35.0144
   -20.7514 -20.7505 -20.7338 -20.7329 -20.7229 -20.7219 -20.6744 -20.6736
   -20.6662 -20.6655 -20.5967 -20.5961 -20.5922 -20.5916  -9.1039  -4.0198
    -3.3429  -1.7868  -1.1671  -1.0991  -1.0936  -1.0220  -0.8224  -0.6434
    -0.5692  -0.1116   0.8807   0.9609

          k =-0.0801 0.4161 0.0000 ( 15858 PWs)   bands (ev):

   -68.9400 -68.9392 -35.5286 -35.5194 -35.4063 -35.4052 -35.0493 -35.0483
   -20.7485 -20.7476 -20.7383 -20.7374 -20.7238 -20.7229 -20.6744 -20.6737
   -20.6637 -20.6629 -20.5993 -20.5987 -20.5901 -20.5894  -8.6927  -3.3985
    -3.0558  -1.9389  -1.6308  -1.2734  -0.7729  -0.6030  -0.5296  -0.2677
    -0.0572   0.6176   0.7559   1.0153

          k =-0.3203 0.2774 0.0000 ( 15858 PWs)   bands (ev):

   -68.9400 -68.9392 -35.5293 -35.5188 -35.4078 -35.4063 -35.0482 -35.0470
   -20.7485 -20.7477 -20.7386 -20.7377 -20.7235 -20.7225 -20.6743 -20.6735
   -20.6638 -20.6631 -20.5994 -20.5988 -20.5900 -20.5894  -8.6927  -3.4017
    -3.0503  -1.9718  -1.6307  -1.2110  -0.7607  -0.6030  -0.5298  -0.2675
    -0.0014   0.4967   0.7559   1.0217

          k = 0.4004 0.1387 0.0000 ( 15858 PWs)   bands (ev):

   -68.9400 -68.9392 -35.5279 -35.5212 -35.3966 -35.3954 -35.0585 -35.0574
   -20.7493 -20.7484 -20.7346 -20.7336 -20.7272 -20.7263 -20.6738 -20.6731
   -20.6637 -20.6630 -20.5994 -20.5988 -20.5900 -20.5894  -8.6927  -3.3954
    -3.0696  -1.8865  -1.6307  -1.3766  -0.7590  -0.6039  -0.5291  -0.2673
    -0.1010   0.7559   0.7599   0.9941

          k =-0.3203-0.2774 0.0000 ( 15858 PWs)   bands (ev):

   -68.9400 -68.9392 -35.5276 -35.5215 -35.3962 -35.3950 -35.0589 -35.0577
   -20.7493 -20.7484 -20.7345 -20.7335 -20.7274 -20.7264 -20.6739 -20.6731
   -20.6637 -20.6629 -20.5994 -20.5988 -20.5900 -20.5894  -8.6927  -3.3941
    -3.0722  -1.8880  -1.6307  -1.3844  -0.7425  -0.6039  -0.5291  -0.2673
    -0.1021   0.7559   0.7649   0.9764

          k = 0.4004-0.1387 0.0000 ( 15858 PWs)   bands (ev):

   -68.9400 -68.9392 -35.5292 -35.5191 -35.4057 -35.4043 -35.0501 -35.0489
   -20.7487 -20.7478 -20.7379 -20.7369 -20.7242 -20.7232 -20.6743 -20.6735
   -20.6637 -20.6630 -20.5994 -20.5988 -20.5900 -20.5894  -8.6927  -3.4003
    -3.0533  -1.9724  -1.6307  -1.2269  -0.7332  -0.6032  -0.5298  -0.2674
    -0.0022   0.4880   0.7559   1.0134

          k =-0.0801 0.5086 0.0000 ( 15845 PWs)   bands (ev):

   -68.9350 -68.9342 -35.5181 -35.5113 -35.4720 -35.4714 -35.0704 -35.0695
   -20.7471 -20.7462 -20.7401 -20.7392 -20.7250 -20.7241 -20.6743 -20.6736
   -20.6622 -20.6614 -20.6033 -20.6027 -20.5862 -20.5856  -8.4160  -3.2470
    -3.1167  -2.1241  -1.9894  -1.4827  -0.2110  -0.1396  -0.0891  -0.0802
     0.5820   0.6425   1.1364   1.3212

          k =-0.4004 0.3236 0.0000 ( 15845 PWs)   bands (ev):

   -68.9350 -68.9342 -35.5192 -35.5103 -35.4735 -35.4725 -35.0692 -35.0680
   -20.7471 -20.7462 -20.7405 -20.7395 -20.7247 -20.7237 -20.6741 -20.6734
   -20.6624 -20.6616 -20.6034 -20.6028 -20.5861 -20.5855  -8.4160  -3.2568
    -3.1017  -2.1241  -2.0469  -1.3757  -0.2110  -0.1413  -0.1342  -0.0784
     0.6055   0.6425   1.0892   1.3430

          k = 0.4805 0.1849 0.0000 ( 15845 PWs)   bands (ev):

   -68.9350 -68.9342 -35.5174 -35.5146 -35.4629 -35.4603 -35.0792 -35.0780
   -20.7480 -20.7471 -20.7365 -20.7355 -20.7283 -20.7273 -20.6736 -20.6729
   -20.6623 -20.6616 -20.6034 -20.6028 -20.5861 -20.5855  -8.4160  -3.2317
    -3.1453  -2.1240  -1.8513  -1.6788  -0.2142  -0.1367  -0.0799  -0.0130
     0.5551   0.6425   1.1561   1.3209

          k =-0.4004-0.3236 0.0000 ( 15845 PWs)   bands (ev):

   -68.9350 -68.9342 -35.5172 -35.5149 -35.4627 -35.4602 -35.0793 -35.0781
   -20.7480 -20.7471 -20.7365 -20.7355 -20.7283 -20.7274 -20.6736 -20.6729
   -20.6623 -20.6615 -20.6034 -20.6028 -20.5861 -20.5855  -8.4160  -3.2290
    -3.1485  -2.1240  -1.8520  -1.6807  -0.2142  -0.1366  -0.0799   0.0002
     0.5531   0.6425   1.1203   1.3658

          k = 0.4805-0.1849 0.0000 ( 15845 PWs)   bands (ev):

   -68.9350 -68.9342 -35.5192 -35.5106 -35.4727 -35.4718 -35.0698 -35.0686
   -20.7472 -20.7463 -20.7402 -20.7393 -20.7249 -20.7239 -20.6742 -20.6734
   -20.6623 -20.6616 -20.6034 -20.6028 -20.5861 -20.5855  -8.4160  -3.2549
    -3.1040  -2.1241  -2.0473  -1.3799  -0.2111  -0.1412  -0.1150  -0.0784
     0.5996   0.6425   1.0577   1.3827

          k =-0.1602 0.2774 0.0000 ( 15858 PWs)   bands (ev):

   -68.9501 -68.9493 -35.5495 -35.5374 -35.2577 -35.2568 -35.0214 -35.0205
   -20.7515 -20.7506 -20.7341 -20.7332 -20.7217 -20.7208 -20.6741 -20.6734
   -20.6671 -20.6664 -20.5977 -20.5971 -20.5913 -20.5906  -9.1639  -4.0553
    -3.2610  -1.6035  -1.2479  -1.2329  -1.2267  -1.1745  -0.6984  -0.6150
    -0.5795  -0.3420   0.8325   0.9054

          k = 0.3203-0.0000 0.0000 ( 15858 PWs)   bands (ev):

   -68.9501 -68.9493 -35.5491 -35.5380 -35.2491 -35.2485 -35.0296 -35.0288
   -20.7519 -20.7510 -20.7315 -20.7306 -20.7242 -20.7233 -20.6740 -20.6732
   -20.6670 -20.6662 -20.5977 -20.5971 -20.5913 -20.5907  -9.1639  -4.0560
    -3.2615  -1.6085  -1.2570  -1.2480  -1.1976  -1.1745  -0.7718  -0.6150
    -0.5795  -0.2760   0.8325   0.9171

          k =-0.1602 0.3699 0.0000 ( 15848 PWs)   bands (ev):

   -68.9413 -68.9406 -35.5316 -35.5215 -35.3551 -35.3540 -35.0788 -35.0779
   -20.7487 -20.7478 -20.7372 -20.7363 -20.7239 -20.7230 -20.6736 -20.6728
   -20.6652 -20.6644 -20.5988 -20.5982 -20.5911 -20.5905  -8.7702  -3.1142
    -2.4526  -1.7132  -1.3045  -1.2475  -1.2175  -0.8714  -0.7118  -0.6384
    -0.3206   0.0852   0.4361   0.9901

          k =-0.2402 0.3236 0.0000 ( 15848 PWs)   bands (ev):

   -68.9413 -68.9405 -35.5319 -35.5212 -35.3558 -35.3545 -35.0783 -35.0773
   -20.7487 -20.7478 -20.7373 -20.7364 -20.7238 -20.7228 -20.6735 -20.6728
   -20.6653 -20.6645 -20.5988 -20.5982 -20.5911 -20.5905  -8.7702  -3.1150
    -2.4509  -1.7354  -1.3068  -1.2475  -1.2158  -0.7886  -0.7118  -0.6385
    -0.3206   0.0228   0.4361   0.9627

          k = 0.4004 0.0462 0.0000 ( 15848 PWs)   bands (ev):

   -68.9414 -68.9406 -35.5311 -35.5227 -35.3449 -35.3443 -35.0884 -35.0874
   -20.7493 -20.7484 -20.7338 -20.7330 -20.7271 -20.7262 -20.6733 -20.6725
   -20.6651 -20.6643 -20.5989 -20.5983 -20.5911 -20.5905  -8.7702  -3.1144
    -2.4600  -1.6829  -1.3018  -1.2474  -1.2165  -0.9890  -0.7124  -0.6382
    -0.3204   0.2012   0.4361   1.0296

          k =-0.2402-0.3236 0.0000 ( 15848 PWs)   bands (ev):

   -68.9414 -68.9406 -35.5306 -35.5232 -35.3438 -35.3431 -35.0895 -35.0885
   -20.7493 -20.7484 -20.7335 -20.7326 -20.7274 -20.7265 -20.6734 -20.6727
   -20.6649 -20.6642 -20.5988 -20.5982 -20.5911 -20.5905  -8.7702  -3.1143
    -2.4618  -1.6855  -1.3029  -1.2474  -1.2143  -1.0039  -0.7124  -0.6381
    -0.3205   0.2350   0.4361   1.0089

          k = 0.4004-0.0462 0.0000 ( 15848 PWs)   bands (ev):

   -68.9414 -68.9406 -35.5316 -35.5220 -35.3494 -35.3484 -35.0842 -35.0833
   -20.7491 -20.7482 -20.7354 -20.7345 -20.7257 -20.7247 -20.6734 -20.6727
   -20.6650 -20.6643 -20.5989 -20.5983 -20.5911 -20.5905  -8.7702  -3.1151
    -2.4533  -1.7359  -1.3072  -1.2474  -1.2164  -0.8214  -0.7121  -0.6384
    -0.3205   0.0787   0.4361   0.9400

          k =-0.1602 0.4623 0.0000 ( 15846 PWs)   bands (ev):

   -68.9350 -68.9342 -35.5183 -35.5102 -35.4226 -35.4215 -35.1234 -35.1224
   -20.7467 -20.7459 -20.7390 -20.7381 -20.7259 -20.7250 -20.6730 -20.6723
   -20.6639 -20.6631 -20.6042 -20.6036 -20.5862 -20.5856  -8.4354  -2.6798
    -2.4444  -1.7826  -1.7769  -1.2100  -0.6405  -0.2427  -0.1725  -0.1709
    -0.0882   0.1581   0.5276   0.7760

          k =-0.3203 0.3699 0.0000 ( 15846 PWs)   bands (ev):

   -68.9350 -68.9342 -35.5189 -35.5097 -35.4239 -35.4224 -35.1224 -35.1213
   -20.7468 -20.7459 -20.7392 -20.7383 -20.7257 -20.7247 -20.6729 -20.6721
   -20.6640 -20.6633 -20.6043 -20.6037 -20.5862 -20.5856  -8.4354  -2.6813
    -2.4360  -1.8290  -1.7769  -1.1501  -0.6169  -0.2427  -0.1716  -0.1137
    -0.0875   0.1581   0.4278   0.7007

          k = 0.4805 0.0925 0.0000 ( 15846 PWs)   bands (ev):

   -68.9350 -68.9342 -35.5176 -35.5123 -35.4124 -35.4111 -35.1330 -35.1318
   -20.7475 -20.7466 -20.7352 -20.7343 -20.7294 -20.7285 -20.6725 -20.6718
   -20.6639 -20.6632 -20.6043 -20.6037 -20.5862 -20.5856  -8.4354  -2.6742
    -2.4662  -1.7768  -1.7027  -1.3327  -0.6302  -0.2447  -0.2150  -0.1694
    -0.0878   0.1581   0.6151   0.9181

          k =-0.3203-0.3699 0.0000 ( 15846 PWs)   bands (ev):

   -68.9350 -68.9342 -35.5171 -35.5128 -35.4118 -35.4105 -35.1337 -35.1324
   -20.7475 -20.7466 -20.7350 -20.7341 -20.7296 -20.7287 -20.6726 -20.6718
   -20.6638 -20.6631 -20.6043 -20.6037 -20.5862 -20.5856  -8.4354  -2.6692
    -2.4734  -1.7768  -1.7049  -1.3462  -0.6073  -0.2447  -0.2146  -0.1692
    -0.0880   0.1581   0.6368   0.8906

          k = 0.4805-0.0925 0.0000 ( 15846 PWs)   bands (ev):

   -68.9350 -68.9342 -35.5187 -35.5104 -35.4203 -35.4192 -35.1255 -35.1244
   -20.7470 -20.7461 -20.7381 -20.7372 -20.7267 -20.7257 -20.6729 -20.6721
   -20.6639 -20.6631 -20.6043 -20.6037 -20.5862 -20.5856  -8.4354  -2.6758
    -2.4442  -1.8296  -1.7768  -1.1748  -0.5819  -0.2432  -0.1713  -0.1109
    -0.0874   0.1581   0.4577   0.6574

          k =-0.4004 0.4161 0.0000 ( 15864 PWs)   bands (ev):

   -68.9326 -68.9318 -35.5141 -35.5060 -35.4469 -35.4457 -35.1398 -35.1387
   -20.7461 -20.7452 -20.7395 -20.7385 -20.7268 -20.7258 -20.6726 -20.6719
   -20.6636 -20.6628 -20.6063 -20.6057 -20.5844 -20.5838  -8.2994  -2.6373
    -2.5119  -1.9846  -1.8227  -1.1887  -0.0469  -0.0105  -0.0051   0.0338
     0.0611   0.1309   0.5172   0.8351

          k = 0.5606 0.1387 0.0000 ( 15864 PWs)   bands (ev):

   -68.9326 -68.9319 -35.5123 -35.5094 -35.4364 -35.4345 -35.1498 -35.1485
   -20.7468 -20.7459 -20.7356 -20.7346 -20.7304 -20.7295 -20.6722 -20.6715
   -20.6635 -20.6628 -20.6063 -20.6057 -20.5844 -20.5838  -8.2994  -2.6089
    -2.5646  -1.9845  -1.5567  -1.5472  -0.0537   0.0014   0.0290   0.0607
     0.0641   0.1056   0.5217   0.9972

          k =-0.2402 0.4161 0.0000 ( 15846 PWs)   bands (ev):

   -68.9350 -68.9342 -35.5186 -35.5098 -35.3899 -35.3887 -35.1576 -35.1568
   -20.7466 -20.7457 -20.7384 -20.7375 -20.7264 -20.7254 -20.6721 -20.6713
   -20.6650 -20.6643 -20.6047 -20.6041 -20.5863 -20.5857  -8.4449  -2.1623
    -1.5475  -1.5409  -1.5252  -1.3761  -1.3183  -0.7905  -0.2582  -0.1867
    -0.1584  -0.0922   0.1493   0.5580

          k = 0.4805-0.0000 0.0000 ( 15846 PWs)   bands (ev):

   -68.9350 -68.9342 -35.5182 -35.5110 -35.3809 -35.3801 -35.1660 -35.1651
   -20.7471 -20.7462 -20.7357 -20.7349 -20.7288 -20.7279 -20.6719 -20.6712
   -20.6649 -20.6641 -20.6048 -20.6042 -20.5862 -20.5856  -8.4449  -2.1624
    -1.5828  -1.5252  -1.4912  -1.3818  -1.3140  -0.8734  -0.2593  -0.1858
    -0.1584  -0.0919   0.2591   0.5550

          k =-0.2402 0.5086 0.0000 ( 15834 PWs)   bands (ev):

   -68.9313 -68.9305 -35.5106 -35.5037 -35.3936 -35.3924 -35.2194 -35.2185
   -20.7454 -20.7445 -20.7381 -20.7372 -20.7287 -20.7278 -20.6707 -20.6700
   -20.6654 -20.6646 -20.6082 -20.6076 -20.5835 -20.5829  -8.2371  -1.8110
    -1.6768  -1.6410  -1.4262  -0.9508  -0.6487  -0.5673  -0.4508  -0.0927
     0.0310   0.0449   0.1172   0.2106

          k =-0.3203 0.4623 0.0000 ( 15834 PWs)   bands (ev):

   -68.9313 -68.9305 -35.5109 -35.5034 -35.3947 -35.3932 -35.2185 -35.2175
   -20.7454 -20.7445 -20.7383 -20.7373 -20.7286 -20.7276 -20.6706 -20.6699
   -20.6655 -20.6648 -20.6082 -20.6076 -20.5835 -20.5828  -8.2371  -1.7999
    -1.6672  -1.6410  -1.4852  -0.9090  -0.6364  -0.5673  -0.3823  -0.1057
     0.0307   0.0448   0.1176   0.1319

          k = 0.5606 0.0462 0.0000 ( 15834 PWs)   bands (ev):

   -68.9313 -68.9305 -35.5101 -35.5051 -35.3833 -35.3822 -35.2293 -35.2281
   -20.7459 -20.7450 -20.7347 -20.7338 -20.7319 -20.7310 -20.6704 -20.6696
   -20.6655 -20.6647 -20.6082 -20.6076 -20.5834 -20.5828  -8.2371  -1.8132
    -1.6981  -1.6410  -1.3251  -1.0738  -0.6458  -0.5674  -0.4989  -0.1028
     0.0232   0.0536   0.1163   0.3461

          k =-0.3203-0.4623 0.0000 ( 15834 PWs)   bands (ev):

   -68.9313 -68.9305 -35.5097 -35.5055 -35.3825 -35.3813 -35.2302 -35.2288
   -20.7459 -20.7450 -20.7343 -20.7335 -20.7323 -20.7314 -20.6705 -20.6697
   -20.6654 -20.6646 -20.6082 -20.6076 -20.5835 -20.5828  -8.2371  -1.8012
    -1.7105  -1.6410  -1.3242  -1.0941  -0.6363  -0.5674  -0.4972  -0.1108
     0.0233   0.0537   0.1161   0.3858

          k = 0.5606-0.0462 0.0000 ( 15834 PWs)   bands (ev):

   -68.9313 -68.9305 -35.5108 -35.5040 -35.3904 -35.3891 -35.2225 -35.2214
   -20.7456 -20.7447 -20.7372 -20.7362 -20.7296 -20.7286 -20.6706 -20.6698
   -20.6654 -20.6647 -20.6082 -20.6076 -20.5834 -20.5828  -8.2371  -1.7823
    -1.6871  -1.6410  -1.4832  -0.9383  -0.6242  -0.5674  -0.3821  -0.1246
     0.0273   0.0485   0.1173   0.1955

     the Fermi energy is    -0.6149 ev

!    total energy              =   -1374.23971410 Ry
     estimated scf accuracy    <          2.2E-13 Ry
     smearing contrib. (-TS)   =       0.00001665 Ry
     internal energy E=F+TS    =   -1374.23973075 Ry

     The total energy is F=E-TS. E is the sum of the following terms:
     one-electron contribution =   -7185.45052531 Ry
     hartree contribution      =    3620.27110688 Ry
     xc contribution           =    -138.19566314 Ry
     ewald contribution        =    2329.13535081 Ry

     convergence has been achieved in  49 iterations

     Forces acting on atoms (cartesian axes, Ry/au):

     atom    1 type  2   force =     0.00000315   -0.00000032    0.00002990
     atom    2 type  1   force =    -0.00384058   -0.00207626   -0.05125062
     atom    3 type  1   force =     0.00384055    0.00207624    0.05124363
     atom    4 type  3   force =    -0.00000089    0.00000158    0.00010294
     atom    5 type  3   force =    -0.00000223   -0.00000126   -0.00012586

     Total force =     0.072737     Total SCF correction =     0.000004


     Computing stress (Cartesian axis) and pressure

          total   stress  (Ry/bohr**3)                   (kbar)     P=      -88.66
  -0.00078660   0.00000645  -0.00001691         -115.71        0.95       -2.49
   0.00000645  -0.00078848  -0.00000915            0.95     -115.99       -1.35
  -0.00001691  -0.00000915  -0.00023294           -2.49       -1.35      -34.27


     BFGS Geometry Optimization
     Energy error            =      0.0E+00 Ry
     Gradient error          =      5.1E-02 Ry/Bohr
     Cell gradient error     =      1.2E+02 kbar

     number of scf cycles    =   1
     number of bfgs steps    =   0

     enthalpy           new  =   -1374.2397141045 Ry

     new trust radius        =       0.1578602155 bohr
     new conv_thr            =            1.0E-12 Ry

     new unit-cell volume =   1540.70798 a.u.^3 (   228.30937 Ang^3 )
     density =      2.73404 g/cm^3

CELL_PARAMETERS (alat=  5.55000000)
   1.020154124   0.000167816   0.000000000
  -0.509931729   0.883353135   0.000000000
   0.000000000   0.000000000  10.000000000

ATOMIC_POSITIONS (crystal)
C             0.0000000000        0.0000000000        0.0000000000    0   0   0
Ta            0.5079282584        0.2944261874       -0.4373745346
Ta            0.0001278368        0.5873558104        0.4373765087
H            -0.0007446963        0.5869410168        0.8341948548
H             0.5088002874        0.2948410485       -0.8341952677



     Writing output data file /scratch/as3359/Ta2CH2-VCrelax/Ta.save/
     NEW-OLD atomic charge density approx. for the potential
     extrapolated charge   57.56578, renormalised to   60.00000

     total cpu time spent up to now is      859.9 secs

     Self-consistent Calculation

     iteration #  1     ecut=    70.00 Ry     beta= 0.70
     Davidson diagonalization with overlap
     c_bands:  1 eigenvalues not converged
     c_bands:  1 eigenvalues not converged
     c_bands:  1 eigenvalues not converged
     c_bands:  4 eigenvalues not converged
     c_bands:  5 eigenvalues not converged
     c_bands:  4 eigenvalues not converged
     c_bands:  1 eigenvalues not converged
     c_bands:  1 eigenvalues not converged
     c_bands:  3 eigenvalues not converged
     c_bands:  2 eigenvalues not converged
     c_bands:  5 eigenvalues not converged
     c_bands:  2 eigenvalues not converged
     c_bands:  3 eigenvalues not converged
     c_bands:  5 eigenvalues not converged
     c_bands:  4 eigenvalues not converged
     c_bands:  4 eigenvalues not converged
     c_bands:  4 eigenvalues not converged
     c_bands:  1 eigenvalues not converged
     c_bands:  1 eigenvalues not converged
     c_bands:  1 eigenvalues not converged
     c_bands:  1 eigenvalues not converged
     c_bands:  4 eigenvalues not converged
     c_bands:  4 eigenvalues not converged
     c_bands:  3 eigenvalues not converged
     c_bands:  3 eigenvalues not converged
     c_bands:  1 eigenvalues not converged
     c_bands:  1 eigenvalues not converged
     c_bands:  2 eigenvalues not converged
     c_bands:  2 eigenvalues not converged
     c_bands:  2 eigenvalues not converged
     c_bands:  1 eigenvalues not converged
     c_bands:  2 eigenvalues not converged
     c_bands:  3 eigenvalues not converged
     c_bands:  2 eigenvalues not converged
     c_bands:  2 eigenvalues not converged
     c_bands:  3 eigenvalues not converged
     c_bands:  3 eigenvalues not converged
     c_bands:  3 eigenvalues not converged
     c_bands:  2 eigenvalues not converged
     c_bands:  2 eigenvalues not converged
     c_bands:  3 eigenvalues not converged
     c_bands:  3 eigenvalues not converged
     c_bands:  4 eigenvalues not converged
     c_bands:  5 eigenvalues not converged
     c_bands:  5 eigenvalues not converged
     c_bands:  4 eigenvalues not converged
     c_bands:  2 eigenvalues not converged
     c_bands:  3 eigenvalues not converged
     c_bands:  4 eigenvalues not converged
     c_bands:  5 eigenvalues not converged
     c_bands:  4 eigenvalues not converged
     c_bands:  5 eigenvalues not converged
     c_bands:  5 eigenvalues not converged
     c_bands:  5 eigenvalues not converged
     c_bands:  5 eigenvalues not converged
     c_bands:  5 eigenvalues not converged
     c_bands:  4 eigenvalues not converged
     c_bands:  4 eigenvalues not converged
     c_bands:  4 eigenvalues not converged
     c_bands:  4 eigenvalues not converged
     c_bands:  5 eigenvalues not converged
     c_bands:  5 eigenvalues not converged
     c_bands:  4 eigenvalues not converged
     c_bands:  4 eigenvalues not converged
     c_bands:  4 eigenvalues not converged
     ethr =  1.00E-06,  avg # of iterations = 21.3

     negative rho (up, down):  1.445E-07 0.000E+00

     total cpu time spent up to now is      929.7 secs

     total energy              =   -1213.02077698 Ry
     estimated scf accuracy    <     173.44432472 Ry

     iteration #  2     ecut=    70.00 Ry     beta= 0.70
     Davidson diagonalization with overlap
     c_bands:  2 eigenvalues not converged
     c_bands:  4 eigenvalues not converged
     c_bands:  4 eigenvalues not converged
     c_bands:  1 eigenvalues not converged
     c_bands:  2 eigenvalues not converged
     c_bands:  5 eigenvalues not converged
     c_bands:  1 eigenvalues not converged
     c_bands:  3 eigenvalues not converged
     c_bands:  1 eigenvalues not converged
     ethr =  1.00E-02,  avg # of iterations = 36.3

     negative rho (up, down):  3.673E-05 0.000E+00

     total cpu time spent up to now is     1103.8 secs

     total energy              =   -1333.70529495 Ry
     estimated scf accuracy    <   17430.60934145 Ry

     iteration #  3     ecut=    70.00 Ry     beta= 0.70
     Davidson diagonalization with overlap
     c_bands:  1 eigenvalues not converged
     ethr =  1.00E-02,  avg # of iterations = 15.4

     total cpu time spent up to now is     1168.1 secs

     total energy              =   -1340.41429466 Ry
     estimated scf accuracy    <    7992.26499419 Ry

     iteration #  4     ecut=    70.00 Ry     beta= 0.70
     Davidson diagonalization with overlap
     ethr =  1.00E-02,  avg # of iterations = 10.9

     total cpu time spent up to now is     1209.6 secs

     total energy              =   -1379.39770970 Ry
     estimated scf accuracy    <     469.05252174 Ry

     iteration #  5     ecut=    70.00 Ry     beta= 0.70
     Davidson diagonalization with overlap
     ethr =  1.00E-02,  avg # of iterations =  7.0

     total cpu time spent up to now is     1232.6 secs

     total energy              =   -1379.59709503 Ry
     estimated scf accuracy    <     199.12024132 Ry

     iteration #  6     ecut=    70.00 Ry     beta= 0.70
     Davidson diagonalization with overlap
     ethr =  1.00E-02,  avg # of iterations =  2.4

     total cpu time spent up to now is     1250.0 secs

     total energy              =   -1374.76720364 Ry
     estimated scf accuracy    <     253.24986862 Ry

     iteration #  7     ecut=    70.00 Ry     beta= 0.70
     Davidson diagonalization with overlap
     ethr =  1.00E-02,  avg # of iterations =  4.7

     negative rho (up, down):  3.708E-03 0.000E+00

     total cpu time spent up to now is     1268.4 secs

     total energy              =   -1374.24594025 Ry
     estimated scf accuracy    <     154.37003363 Ry

     iteration #  8     ecut=    70.00 Ry     beta= 0.70
     Davidson diagonalization with overlap
     ethr =  1.00E-02,  avg # of iterations =  4.1

     negative rho (up, down):  8.759E-03 0.000E+00

     total cpu time spent up to now is     1285.8 secs

     total energy              =   -1374.12142380 Ry
     estimated scf accuracy    <      44.16770682 Ry

     iteration #  9     ecut=    70.00 Ry     beta= 0.70
     Davidson diagonalization with overlap
     ethr =  1.00E-02,  avg # of iterations =  3.6

     negative rho (up, down):  2.323E-03 0.000E+00

     total cpu time spent up to now is     1302.7 secs

     total energy              =   -1374.32502806 Ry
     estimated scf accuracy    <       7.00439842 Ry

     iteration # 10     ecut=    70.00 Ry     beta= 0.70
     Davidson diagonalization with overlap
     ethr =  1.00E-02,  avg # of iterations =  2.4

     negative rho (up, down):  9.561E-02 0.000E+00

     total cpu time spent up to now is     1318.9 secs

     total energy              =   -1374.29066414 Ry
     estimated scf accuracy    <       2.52357194 Ry

     iteration # 11     ecut=    70.00 Ry     beta= 0.70
     Davidson diagonalization with overlap
     ethr =  4.21E-03,  avg # of iterations =  6.3

     negative rho (up, down):  1.207E-02 0.000E+00

     total cpu time spent up to now is     1341.2 secs

     total energy              =   -1371.39069928 Ry
     estimated scf accuracy    <     160.31089814 Ry

     iteration # 12     ecut=    70.00 Ry     beta= 0.70
     Davidson diagonalization with overlap
     ethr =  4.21E-03,  avg # of iterations =  7.7

     negative rho (up, down):  1.152E-02 0.000E+00

     total cpu time spent up to now is     1362.8 secs

     total energy              =   -1373.91657747 Ry
     estimated scf accuracy    <      12.70430096 Ry

     iteration # 13     ecut=    70.00 Ry     beta= 0.70
     Davidson diagonalization with overlap
     ethr =  4.21E-03,  avg # of iterations =  3.2

     negative rho (up, down):  8.521E-03 0.000E+00

     total cpu time spent up to now is     1379.8 secs

     total energy              =   -1373.66357346 Ry
     estimated scf accuracy    <       4.49354084 Ry

     iteration # 14     ecut=    70.00 Ry     beta= 0.70
     Davidson diagonalization with overlap
     ethr =  4.21E-03,  avg # of iterations =  4.5

     negative rho (up, down):  1.680E-04 0.000E+00

     total cpu time spent up to now is     1398.0 secs

     total energy              =   -1374.39770474 Ry
     estimated scf accuracy    <      21.40224741 Ry

     iteration # 15     ecut=    70.00 Ry     beta= 0.70
     Davidson diagonalization with overlap
     ethr =  4.21E-03,  avg # of iterations =  1.5

     negative rho (up, down):  1.528E-03 0.000E+00

     total cpu time spent up to now is     1413.7 secs

     total energy              =   -1374.58112641 Ry
     estimated scf accuracy    <      14.65817578 Ry

     iteration # 16     ecut=    70.00 Ry     beta= 0.70
     Davidson diagonalization with overlap
     ethr =  4.21E-03,  avg # of iterations =  1.2

     negative rho (up, down):  1.750E-03 0.000E+00

     total cpu time spent up to now is     1429.1 secs

     WARNING: integrated charge=    60.00240616, expected=    60.00000000

     total energy              =   -1374.62237213 Ry
     estimated scf accuracy    <      18.66189978 Ry

     iteration # 17     ecut=    70.00 Ry     beta= 0.70
     Davidson diagonalization with overlap
     ethr =  4.21E-03,  avg # of iterations =  3.6

     negative rho (up, down):  5.637E-03 0.000E+00

     total cpu time spent up to now is     1446.5 secs

     WARNING: integrated charge=    60.00429121, expected=    60.00000000

     total energy              =   -1373.59752812 Ry
     estimated scf accuracy    <       8.36959710 Ry

     iteration # 18     ecut=    70.00 Ry     beta= 0.70
     Davidson diagonalization with overlap
     ethr =  4.21E-03,  avg # of iterations =  3.6

     total cpu time spent up to now is     1464.5 secs

     WARNING: integrated charge=    60.00124950, expected=    60.00000000

     total energy              =   -1374.18305132 Ry
     estimated scf accuracy    <      14.47455313 Ry

     iteration # 19     ecut=    70.00 Ry     beta= 0.70
     Davidson diagonalization with overlap
     ethr =  4.21E-03,  avg # of iterations =  2.6

     negative rho (up, down):  1.460E-02 0.000E+00

     total cpu time spent up to now is     1481.4 secs

     WARNING: integrated charge=    60.00383663, expected=    60.00000000

     total energy              =   -1374.35569974 Ry
     estimated scf accuracy    <       2.93041000 Ry

     iteration # 20     ecut=    70.00 Ry     beta= 0.70
     Davidson diagonalization with overlap
     ethr =  4.21E-03,  avg # of iterations =  1.3

     negative rho (up, down):  7.933E-03 0.000E+00

     total cpu time spent up to now is     1497.0 secs

     WARNING: integrated charge=    60.00355289, expected=    60.00000000

     total energy              =   -1374.33494633 Ry
     estimated scf accuracy    <       3.65785544 Ry

     iteration # 21     ecut=    70.00 Ry     beta= 0.70
     Davidson diagonalization with overlap
     ethr =  4.21E-03,  avg # of iterations =  1.5

     negative rho (up, down):  4.822E-03 0.000E+00

     total cpu time spent up to now is     1512.5 secs

     WARNING: integrated charge=    60.00352739, expected=    60.00000000

     total energy              =   -1374.35155679 Ry
     estimated scf accuracy    <       5.00440437 Ry

     iteration # 22     ecut=    70.00 Ry     beta= 0.70
     Davidson diagonalization with overlap
     ethr =  4.21E-03,  avg # of iterations =  1.4

     negative rho (up, down):  6.424E-05 0.000E+00

     total cpu time spent up to now is     1528.2 secs

     WARNING: integrated charge=    60.00075497, expected=    60.00000000

     total energy              =   -1373.90755587 Ry
     estimated scf accuracy    <       6.70947742 Ry

     iteration # 23     ecut=    70.00 Ry     beta= 0.70
     Davidson diagonalization with overlap
     ethr =  4.21E-03,  avg # of iterations =  2.2

     total cpu time spent up to now is     1544.6 secs

     WARNING: integrated charge=    60.00127877, expected=    60.00000000

     total energy              =   -1374.15997664 Ry
     estimated scf accuracy    <      11.36803850 Ry

     iteration # 24     ecut=    70.00 Ry     beta= 0.70
     Davidson diagonalization with overlap
     ethr =  4.21E-03,  avg # of iterations =  1.2

     total cpu time spent up to now is     1559.8 secs

     WARNING: integrated charge=    60.00071360, expected=    60.00000000

     total energy              =   -1374.26324737 Ry
     estimated scf accuracy    <       1.68572191 Ry

     iteration # 25     ecut=    70.00 Ry     beta= 0.70
     Davidson diagonalization with overlap
     ethr =  2.81E-03,  avg # of iterations =  1.2

     total cpu time spent up to now is     1575.1 secs

     WARNING: integrated charge=    60.00073650, expected=    60.00000000

     total energy              =   -1374.28905151 Ry
     estimated scf accuracy    <       0.58705606 Ry

     iteration # 26     ecut=    70.00 Ry     beta= 0.70
     Davidson diagonalization with overlap
     ethr =  9.78E-04,  avg # of iterations =  1.4

     total cpu time spent up to now is     1590.6 secs

     WARNING: integrated charge=    60.00071653, expected=    60.00000000

     total energy              =   -1374.29292027 Ry
     estimated scf accuracy    <       0.35209407 Ry

     iteration # 27     ecut=    70.00 Ry     beta= 0.70
     Davidson diagonalization with overlap
     ethr =  5.87E-04,  avg # of iterations =  1.3

     total cpu time spent up to now is     1606.2 secs

     WARNING: integrated charge=    60.00072913, expected=    60.00000000

     total energy              =   -1374.29491317 Ry
     estimated scf accuracy    <       0.34074972 Ry

     iteration # 28     ecut=    70.00 Ry     beta= 0.70
     Davidson diagonalization with overlap
     ethr =  5.68E-04,  avg # of iterations =  1.1

     total cpu time spent up to now is     1621.9 secs

     WARNING: integrated charge=    60.00060364, expected=    60.00000000

     total energy              =   -1374.28784147 Ry
     estimated scf accuracy    <       0.40184549 Ry

     iteration # 29     ecut=    70.00 Ry     beta= 0.70
     Davidson diagonalization with overlap
     ethr =  5.68E-04,  avg # of iterations =  1.4

     total cpu time spent up to now is     1638.0 secs

     WARNING: integrated charge=    60.00059550, expected=    60.00000000

     total energy              =   -1374.29278717 Ry
     estimated scf accuracy    <       0.14831806 Ry

     iteration # 30     ecut=    70.00 Ry     beta= 0.70
     Davidson diagonalization with overlap
     ethr =  2.47E-04,  avg # of iterations =  1.3

     total cpu time spent up to now is     1654.2 secs

     WARNING: integrated charge=    60.00035259, expected=    60.00000000

     total energy              =   -1374.29116876 Ry
     estimated scf accuracy    <       0.11150429 Ry

     iteration # 31     ecut=    70.00 Ry     beta= 0.70
     Davidson diagonalization with overlap
     ethr =  1.86E-04,  avg # of iterations =  2.4

     total cpu time spent up to now is     1670.5 secs

     WARNING: integrated charge=    60.00005852, expected=    60.00000000

     total energy              =   -1374.28226785 Ry
     estimated scf accuracy    <       1.22251045 Ry

     iteration # 32     ecut=    70.00 Ry     beta= 0.70
     Davidson diagonalization with overlap
     ethr =  1.86E-04,  avg # of iterations =  1.6

     total cpu time spent up to now is     1686.5 secs

     WARNING: integrated charge=    60.00004816, expected=    60.00000000

     total energy              =   -1374.29020146 Ry
     estimated scf accuracy    <       0.68293410 Ry

     iteration # 33     ecut=    70.00 Ry     beta= 0.70
     Davidson diagonalization with overlap
     ethr =  1.86E-04,  avg # of iterations =  1.3

     total cpu time spent up to now is     1702.2 secs

     WARNING: integrated charge=    60.00003601, expected=    60.00000000

     total energy              =   -1374.29161131 Ry
     estimated scf accuracy    <       0.16516897 Ry

     iteration # 34     ecut=    70.00 Ry     beta= 0.70
     Davidson diagonalization with overlap
     ethr =  1.86E-04,  avg # of iterations =  1.0

     total cpu time spent up to now is     1717.9 secs

     WARNING: integrated charge=    60.00001870, expected=    60.00000000

     total energy              =   -1374.29038231 Ry
     estimated scf accuracy    <       0.70112466 Ry

     iteration # 35     ecut=    70.00 Ry     beta= 0.70
     Davidson diagonalization with overlap
     ethr =  1.86E-04,  avg # of iterations =  1.1

     total cpu time spent up to now is     1733.7 secs

     WARNING: integrated charge=    60.00002965, expected=    60.00000000

     total energy              =   -1374.28787286 Ry
     estimated scf accuracy    <       0.26292424 Ry

     iteration # 36     ecut=    70.00 Ry     beta= 0.70
     Davidson diagonalization with overlap
     ethr =  1.86E-04,  avg # of iterations =  1.1

     total cpu time spent up to now is     1749.6 secs

     WARNING: integrated charge=    60.00000639, expected=    60.00000000

     total energy              =   -1374.29136487 Ry
     estimated scf accuracy    <       0.26152971 Ry

     iteration # 37     ecut=    70.00 Ry     beta= 0.70
     Davidson diagonalization with overlap
     ethr =  1.86E-04,  avg # of iterations =  1.1

     total cpu time spent up to now is     1765.5 secs

     total energy              =   -1374.29223442 Ry
     estimated scf accuracy    <       0.05064324 Ry

     iteration # 38     ecut=    70.00 Ry     beta= 0.70
     Davidson diagonalization with overlap
     ethr =  8.44E-05,  avg # of iterations =  1.9

     total cpu time spent up to now is     1782.1 secs

     WARNING: integrated charge=    59.99999167, expected=    60.00000000

     total energy              =   -1374.29331244 Ry
     estimated scf accuracy    <       0.01309489 Ry

     iteration # 39     ecut=    70.00 Ry     beta= 0.70
     Davidson diagonalization with overlap
     ethr =  2.18E-05,  avg # of iterations =  1.9

     total cpu time spent up to now is     1798.6 secs

     total energy              =   -1374.29350435 Ry
     estimated scf accuracy    <       0.00731666 Ry

     iteration # 40     ecut=    70.00 Ry     beta= 0.70
     Davidson diagonalization with overlap
     c_bands:  1 eigenvalues not converged
     ethr =  1.22E-05,  avg # of iterations =  2.0

     total cpu time spent up to now is     1814.7 secs

     total energy              =   -1374.29356573 Ry
     estimated scf accuracy    <       0.00261274 Ry

     iteration # 41     ecut=    70.00 Ry     beta= 0.70
     Davidson diagonalization with overlap
     c_bands:  1 eigenvalues not converged
     c_bands:  1 eigenvalues not converged
     c_bands:  1 eigenvalues not converged
     c_bands:  1 eigenvalues not converged
     c_bands:  1 eigenvalues not converged
     ethr =  4.35E-06,  avg # of iterations =  3.6

     total cpu time spent up to now is     1831.6 secs

     total energy              =   -1374.29356678 Ry
     estimated scf accuracy    <       0.00034256 Ry

     iteration # 42     ecut=    70.00 Ry     beta= 0.70
     Davidson diagonalization with overlap
     c_bands:  1 eigenvalues not converged
     ethr =  5.71E-07,  avg # of iterations =  2.5

     total cpu time spent up to now is     1848.1 secs

     total energy              =   -1374.29356740 Ry
     estimated scf accuracy    <       0.00041711 Ry

     iteration # 43     ecut=    70.00 Ry     beta= 0.70
     Davidson diagonalization with overlap
     ethr =  5.71E-07,  avg # of iterations =  1.2

     total cpu time spent up to now is     1864.0 secs

     total energy              =   -1374.29356805 Ry
     estimated scf accuracy    <       0.00018173 Ry

     iteration # 44     ecut=    70.00 Ry     beta= 0.70
     Davidson diagonalization with overlap
     ethr =  3.03E-07,  avg # of iterations =  1.1

     total cpu time spent up to now is     1879.8 secs

[...]
     estimated scf accuracy    <       0.08585283 Ry

     iteration # 46     ecut=    70.00 Ry     beta= 0.70
     Davidson diagonalization with overlap
     ethr =  2.28E-07,  avg # of iterations =  2.0

     total cpu time spent up to now is     6889.8 secs

     total energy              =   -1374.49902891 Ry
     estimated scf accuracy    <       0.00011564 Ry

     iteration # 47     ecut=    70.00 Ry     beta= 0.70
     Davidson diagonalization with overlap
     ethr =  1.93E-07,  avg # of iterations =  1.0

     total cpu time spent up to now is     6905.5 secs

     total energy              =   -1374.49902327 Ry
     estimated scf accuracy    <       0.00008909 Ry

     iteration # 48     ecut=    70.00 Ry     beta= 0.70
     Davidson diagonalization with overlap
     ethr =  1.48E-07,  avg # of iterations =  1.0

     total cpu time spent up to now is     6921.1 secs

     total energy              =   -1374.49902289 Ry
     estimated scf accuracy    <       0.00019126 Ry

     iteration # 49     ecut=    70.00 Ry     beta= 0.70
     Davidson diagonalization with overlap
     ethr =  1.48E-07,  avg # of iterations =  1.0

     total cpu time spent up to now is     6936.8 secs

     total energy              =   -1374.49901259 Ry
     estimated scf accuracy    <       0.00017247 Ry

     iteration # 50     ecut=    70.00 Ry     beta= 0.70
     Davidson diagonalization with overlap
     ethr =  1.48E-07,  avg # of iterations =  1.0

     total cpu time spent up to now is     6952.6 secs

     total energy              =   -1374.49901142 Ry
     estimated scf accuracy    <       0.00029638 Ry

     iteration # 51     ecut=    70.00 Ry     beta= 0.70
     Davidson diagonalization with overlap
     ethr =  1.48E-07,  avg # of iterations =  1.0

     total cpu time spent up to now is     6968.2 secs

     total energy              =   -1374.49901467 Ry
     estimated scf accuracy    <       0.00036626 Ry

     iteration # 52     ecut=    70.00 Ry     beta= 0.70
     Davidson diagonalization with overlap
     ethr =  1.48E-07,  avg # of iterations =  1.0

     total cpu time spent up to now is     6984.0 secs

     total energy              =   -1374.49905494 Ry
     estimated scf accuracy    <       0.00058316 Ry

     iteration # 53     ecut=    70.00 Ry     beta= 0.70
     Davidson diagonalization with overlap
     ethr =  1.48E-07,  avg # of iterations =  1.0

     total cpu time spent up to now is     6999.6 secs

     total energy              =   -1374.49902658 Ry
     estimated scf accuracy    <       0.00010097 Ry

     iteration # 54     ecut=    70.00 Ry     beta= 0.70
     Davidson diagonalization with overlap
     ethr =  1.48E-07,  avg # of iterations =  1.0

     total cpu time spent up to now is     7015.3 secs

     total energy              =   -1374.49903594 Ry
     estimated scf accuracy    <       0.00010550 Ry

     iteration # 55     ecut=    70.00 Ry     beta= 0.70
     Davidson diagonalization with overlap
     ethr =  1.48E-07,  avg # of iterations =  1.0

     total cpu time spent up to now is     7031.0 secs

     total energy              =   -1374.49903609 Ry
     estimated scf accuracy    <       0.00010338 Ry

     iteration # 56     ecut=    70.00 Ry     beta= 0.70
     Davidson diagonalization with overlap
     ethr =  1.48E-07,  avg # of iterations =  1.0

     total cpu time spent up to now is     7046.5 secs

     total energy              =   -1374.49904369 Ry
     estimated scf accuracy    <       0.00009750 Ry

     iteration # 57     ecut=    70.00 Ry     beta= 0.70
     Davidson diagonalization with overlap
     ethr =  1.48E-07,  avg # of iterations =  1.0

     total cpu time spent up to now is     7062.2 secs

     total energy              =   -1374.49904113 Ry
     estimated scf accuracy    <       0.00014271 Ry

     iteration # 58     ecut=    70.00 Ry     beta= 0.70
     Davidson diagonalization with overlap
     ethr =  1.48E-07,  avg # of iterations =  1.0

     total cpu time spent up to now is     7077.8 secs

     total energy              =   -1374.49904291 Ry
     estimated scf accuracy    <       0.00011250 Ry

     iteration # 59     ecut=    70.00 Ry     beta= 0.70
     Davidson diagonalization with overlap
     ethr =  1.48E-07,  avg # of iterations =  1.0

     total cpu time spent up to now is     7093.4 secs

     total energy              =   -1374.49904668 Ry
     estimated scf accuracy    <       0.00011525 Ry

     iteration # 60     ecut=    70.00 Ry     beta= 0.70
     Davidson diagonalization with overlap
     ethr =  1.48E-07,  avg # of iterations =  1.0

     total cpu time spent up to now is     7109.2 secs

     total energy              =   -1374.49901009 Ry
     estimated scf accuracy    <       0.00012338 Ry

     iteration # 61     ecut=    70.00 Ry     beta= 0.70
     Davidson diagonalization with overlap
     ethr =  1.48E-07,  avg # of iterations =  1.5

     total cpu time spent up to now is     7125.2 secs

     total energy              =   -1374.49871645 Ry
     estimated scf accuracy    <       0.01165651 Ry

     iteration # 62     ecut=    70.00 Ry     beta= 0.70
     Davidson diagonalization with overlap
     ethr =  1.48E-07,  avg # of iterations =  1.5

     total cpu time spent up to now is     7141.5 secs

     total energy              =   -1374.49903890 Ry
     estimated scf accuracy    <       0.00010229 Ry

     iteration # 63     ecut=    70.00 Ry     beta= 0.70
     Davidson diagonalization with overlap
     ethr =  1.48E-07,  avg # of iterations =  1.0

     total cpu time spent up to now is     7157.2 secs

     total energy              =   -1374.49903595 Ry
     estimated scf accuracy    <       0.00010505 Ry

     iteration # 64     ecut=    70.00 Ry     beta= 0.70
     Davidson diagonalization with overlap
     ethr =  1.48E-07,  avg # of iterations =  1.0

     total cpu time spent up to now is     7172.9 secs

     total energy              =   -1374.49903498 Ry
     estimated scf accuracy    <       0.00009941 Ry

     iteration # 65     ecut=    70.00 Ry     beta= 0.70
     Davidson diagonalization with overlap
     ethr =  1.48E-07,  avg # of iterations =  1.0

     total cpu time spent up to now is     7188.5 secs

     total energy              =   -1374.49903460 Ry
     estimated scf accuracy    <       0.00009781 Ry

     iteration # 66     ecut=    70.00 Ry     beta= 0.70
     Davidson diagonalization with overlap
     ethr =  1.48E-07,  avg # of iterations =  1.0

     total cpu time spent up to now is     7204.2 secs

     total energy              =   -1374.49903207 Ry
     estimated scf accuracy    <       0.00009692 Ry

     iteration # 67     ecut=    70.00 Ry     beta= 0.70
     Davidson diagonalization with overlap
     ethr =  1.48E-07,  avg # of iterations =  1.0

     total cpu time spent up to now is     7219.8 secs

     total energy              =   -1374.49903022 Ry
     estimated scf accuracy    <       0.00009221 Ry

     iteration # 68     ecut=    70.00 Ry     beta= 0.70
     Davidson diagonalization with overlap
     ethr =  1.48E-07,  avg # of iterations =  1.0

     total cpu time spent up to now is     7235.6 secs

     total energy              =   -1374.49902858 Ry
     estimated scf accuracy    <       0.00008900 Ry

     iteration # 69     ecut=    70.00 Ry     beta= 0.70
     Davidson diagonalization with overlap
     ethr =  1.48E-07,  avg # of iterations =  1.0

     total cpu time spent up to now is     7251.3 secs

     total energy              =   -1374.49903107 Ry
     estimated scf accuracy    <       0.00008758 Ry

     iteration # 70     ecut=    70.00 Ry     beta= 0.70
     Davidson diagonalization with overlap
     ethr =  1.46E-07,  avg # of iterations =  1.0

     total cpu time spent up to now is     7267.0 secs

     total energy              =   -1374.49896724 Ry
     estimated scf accuracy    <       0.00008812 Ry

     iteration # 71     ecut=    70.00 Ry     beta= 0.70
     Davidson diagonalization with overlap
     ethr =  1.46E-07,  avg # of iterations =  2.1

     total cpu time spent up to now is     7284.0 secs

     total energy              =   -1374.49811136 Ry
     estimated scf accuracy    <       0.08172871 Ry

     iteration # 72     ecut=    70.00 Ry     beta= 0.70
     Davidson diagonalization with overlap
     ethr =  1.46E-07,  avg # of iterations =  2.1

     total cpu time spent up to now is     7301.0 secs

     total energy              =   -1374.49902797 Ry
     estimated scf accuracy    <       0.00010191 Ry

     iteration # 73     ecut=    70.00 Ry     beta= 0.70
     Davidson diagonalization with overlap
     ethr =  1.46E-07,  avg # of iterations =  1.0

     total cpu time spent up to now is     7316.6 secs

     total energy              =   -1374.49903366 Ry
     estimated scf accuracy    <       0.00008741 Ry

     iteration # 74     ecut=    70.00 Ry     beta= 0.70
     Davidson diagonalization with overlap
     ethr =  1.46E-07,  avg # of iterations =  1.0

     total cpu time spent up to now is     7332.4 secs

     total energy              =   -1374.49903324 Ry
     estimated scf accuracy    <       0.00009380 Ry

     iteration # 75     ecut=    70.00 Ry     beta= 0.70
     Davidson diagonalization with overlap
     ethr =  1.46E-07,  avg # of iterations =  1.0

     total cpu time spent up to now is     7348.2 secs

     total energy              =   -1374.49903123 Ry
     estimated scf accuracy    <       0.00009353 Ry

     iteration # 76     ecut=    70.00 Ry     beta= 0.70
     Davidson diagonalization with overlap
     ethr =  1.46E-07,  avg # of iterations =  1.0

     total cpu time spent up to now is     7363.9 secs

     total energy              =   -1374.49903037 Ry
     estimated scf accuracy    <       0.00008950 Ry

     iteration # 77     ecut=    70.00 Ry     beta= 0.70
     Davidson diagonalization with overlap
     ethr =  1.46E-07,  avg # of iterations =  1.0

     total cpu time spent up to now is     7379.7 secs

     total energy              =   -1374.49902934 Ry
     estimated scf accuracy    <       0.00008834 Ry

     iteration # 78     ecut=    70.00 Ry     beta= 0.70
     Davidson diagonalization with overlap
     ethr =  1.46E-07,  avg # of iterations =  1.0

     total cpu time spent up to now is     7395.4 secs

     total energy              =   -1374.49902437 Ry
     estimated scf accuracy    <       0.00008701 Ry

     iteration # 79     ecut=    70.00 Ry     beta= 0.70
     Davidson diagonalization with overlap
     ethr =  1.45E-07,  avg # of iterations =  1.0

     total cpu time spent up to now is     7411.2 secs

     total energy              =   -1374.49902664 Ry
     estimated scf accuracy    <       0.00012304 Ry

     iteration # 80     ecut=    70.00 Ry     beta= 0.70
     Davidson diagonalization with overlap
     ethr =  1.45E-07,  avg # of iterations =  1.0

     total cpu time spent up to now is     7426.9 secs

     total energy              =   -1374.49897155 Ry
     estimated scf accuracy    <       0.00009136 Ry

     iteration # 81     ecut=    70.00 Ry     beta= 0.70
     Davidson diagonalization with overlap
     ethr =  1.45E-07,  avg # of iterations =  2.0

     total cpu time spent up to now is     7443.7 secs

     total energy              =   -1374.49852490 Ry
     estimated scf accuracy    <       0.08051410 Ry

     iteration # 82     ecut=    70.00 Ry     beta= 0.70
     Davidson diagonalization with overlap
     ethr =  1.45E-07,  avg # of iterations =  2.0

     total cpu time spent up to now is     7460.4 secs

     total energy              =   -1374.49902607 Ry
     estimated scf accuracy    <       0.00011757 Ry

     iteration # 83     ecut=    70.00 Ry     beta= 0.70
     Davidson diagonalization with overlap
     ethr =  1.45E-07,  avg # of iterations =  1.0

     total cpu time spent up to now is     7476.2 secs

     total energy              =   -1374.49902613 Ry
     estimated scf accuracy    <       0.00009406 Ry

     iteration # 84     ecut=    70.00 Ry     beta= 0.70
     Davidson diagonalization with overlap
     ethr =  1.45E-07,  avg # of iterations =  1.0

     total cpu time spent up to now is     7491.9 secs

     total energy              =   -1374.49902767 Ry
     estimated scf accuracy    <       0.00009304 Ry

     iteration # 85     ecut=    70.00 Ry     beta= 0.70
     Davidson diagonalization with overlap
     ethr =  1.45E-07,  avg # of iterations =  1.0

     total cpu time spent up to now is     7507.6 secs

     total energy              =   -1374.49902719 Ry
     estimated scf accuracy    <       0.00008708 Ry

     iteration # 86     ecut=    70.00 Ry     beta= 0.70
     Davidson diagonalization with overlap
     ethr =  1.45E-07,  avg # of iterations =  1.0

     total cpu time spent up to now is     7523.5 secs

     total energy              =   -1374.49902717 Ry
     estimated scf accuracy    <       0.00008702 Ry

     iteration # 87     ecut=    70.00 Ry     beta= 0.70
     Davidson diagonalization with overlap
     ethr =  1.45E-07,  avg # of iterations =  1.0

     total cpu time spent up to now is     7539.2 secs

     total energy              =   -1374.49902627 Ry
     estimated scf accuracy    <       0.00008825 Ry

     iteration # 88     ecut=    70.00 Ry     beta= 0.70
     Davidson diagonalization with overlap
     ethr =  1.45E-07,  avg # of iterations =  1.0

     total cpu time spent up to now is     7555.1 secs

     total energy              =   -1374.49902613 Ry
     estimated scf accuracy    <       0.00009230 Ry

     iteration # 89     ecut=    70.00 Ry     beta= 0.70
     Davidson diagonalization with overlap
     ethr =  1.45E-07,  avg # of iterations =  1.0

     total cpu time spent up to now is     7570.9 secs

     total energy              =   -1374.49902471 Ry
     estimated scf accuracy    <       0.00009083 Ry

     iteration # 90     ecut=    70.00 Ry     beta= 0.70
     Davidson diagonalization with overlap
     ethr =  1.45E-07,  avg # of iterations =  1.2

     total cpu time spent up to now is     7586.8 secs

     total energy              =   -1374.49904466 Ry
     estimated scf accuracy    <       0.00011143 Ry

     iteration # 91     ecut=    70.00 Ry     beta= 0.70
     Davidson diagonalization with overlap
     ethr =  1.45E-07,  avg # of iterations =  1.0

     total cpu time spent up to now is     7602.6 secs

     total energy              =   -1374.49905444 Ry
     estimated scf accuracy    <       0.00011611 Ry

     iteration # 92     ecut=    70.00 Ry     beta= 0.70
     Davidson diagonalization with overlap
     ethr =  1.45E-07,  avg # of iterations =  1.0

     total cpu time spent up to now is     7618.4 secs

     total energy              =   -1374.49905855 Ry
     estimated scf accuracy    <       0.00014046 Ry

     iteration # 93     ecut=    70.00 Ry     beta= 0.70
     Davidson diagonalization with overlap
     ethr =  1.45E-07,  avg # of iterations =  1.0

     total cpu time spent up to now is     7634.2 secs

     total energy              =   -1374.49905717 Ry
     estimated scf accuracy    <       0.00014962 Ry

     iteration # 94     ecut=    70.00 Ry     beta= 0.70
     Davidson diagonalization with overlap
     ethr =  1.45E-07,  avg # of iterations =  1.0

     total cpu time spent up to now is     7650.0 secs

     total energy              =   -1374.49905729 Ry
     estimated scf accuracy    <       0.00014662 Ry

     iteration # 95     ecut=    70.00 Ry     beta= 0.70
     Davidson diagonalization with overlap
     ethr =  1.45E-07,  avg # of iterations =  1.0

     total cpu time spent up to now is     7665.8 secs

     total energy              =   -1374.49905714 Ry
     estimated scf accuracy    <       0.00014603 Ry

     iteration # 96     ecut=    70.00 Ry     beta= 0.70
     Davidson diagonalization with overlap
     ethr =  1.45E-07,  avg # of iterations =  1.0

     total cpu time spent up to now is     7681.6 secs

     total energy              =   -1374.49907399 Ry
     estimated scf accuracy    <       0.00014604 Ry

     iteration # 97     ecut=    70.00 Ry     beta= 0.70
     Davidson diagonalization with overlap
     c_bands:  1 eigenvalues not converged
     ethr =  1.45E-07,  avg # of iterations =  1.3

     total cpu time spent up to now is     7697.4 secs

     total energy              =   -1374.49904455 Ry
     estimated scf accuracy    <       0.00021842 Ry

     iteration # 98     ecut=    70.00 Ry     beta= 0.70
     Davidson diagonalization with overlap
     ethr =  1.45E-07,  avg # of iterations =  1.5

     total cpu time spent up to now is     7713.6 secs

     total energy              =   -1374.49895857 Ry
     estimated scf accuracy    <       0.00240501 Ry

     iteration # 99     ecut=    70.00 Ry     beta= 0.70
     Davidson diagonalization with overlap
     ethr =  1.45E-07,  avg # of iterations =  2.5

     total cpu time spent up to now is     7731.0 secs

     total energy              =   -1374.49500356 Ry
     estimated scf accuracy    <       0.19141337 Ry

     iteration #100     ecut=    70.00 Ry     beta= 0.70
     Davidson diagonalization with overlap
     ethr =  1.45E-07,  avg # of iterations =  2.5

     total cpu time spent up to now is     7748.4 secs

     total energy              =   -1374.49904289 Ry
     estimated scf accuracy    <       0.00011462 Ry

     End of self-consistent calculation

     convergence NOT achieved after 100 iterations: stopping

     Writing output data file /scratch/as3359/Ta2CH2-VCrelax/Ta.save/
 
     init_run     :     35.53s CPU     22.43s WALL (       1 calls)
     electrons    :  14442.67s CPU   7507.00s WALL (       5 calls)
     update_pot   :    111.53s CPU     69.62s WALL (       4 calls)
     forces       :     75.79s CPU     39.01s WALL (       4 calls)
     stress       :    202.47s CPU    104.56s WALL (       4 calls)

     Called by init_run:
     wfcinit      :     11.07s CPU      5.72s WALL (       1 calls)
     potinit      :      7.74s CPU      3.91s WALL (       1 calls)
     hinit0       :     14.50s CPU     11.34s WALL (       1 calls)

     Called by electrons:
     c_bands      :  10806.75s CPU   5482.86s WALL (     377 calls)
     sum_band     :   2648.44s CPU   1432.05s WALL (     377 calls)
     v_of_rho     :    148.52s CPU     76.92s WALL (     382 calls)
     newd         :    802.83s CPU    496.73s WALL (     382 calls)
     mix_rho      :     30.07s CPU     15.48s WALL (     377 calls)

     Called by c_bands:
     init_us_2    :    250.69s CPU    125.59s WALL (   56462 calls)
     cegterg      :   9896.01s CPU   5023.89s WALL (   28402 calls)

     Called by *egterg:
     cdiaghg      :    240.36s CPU    122.84s WALL (  105673 calls)
     h_psi        :   7807.36s CPU   3973.03s WALL (  106199 calls)
     s_psi        :    331.95s CPU    166.30s WALL (  106199 calls)
     g_psi        :     54.74s CPU     27.53s WALL (   77723 calls)

     Called by h_psi:
     h_psi:calbec :    327.60s CPU    164.52s WALL (  106199 calls)
     vloc_psi     :   7016.27s CPU   3575.63s WALL (  106199 calls)
     add_vuspsi   :    389.42s CPU    195.15s WALL (  106199 calls)

     General routines
     calbec       :    434.76s CPU    218.37s WALL (  135577 calls)
     fft          :     85.53s CPU     43.81s WALL (    5062 calls)
     ffts         :      3.01s CPU      1.55s WALL (     759 calls)
     fftw         :   7095.33s CPU   3619.46s WALL ( 6534400 calls)
     interpolate  :      9.53s CPU      4.88s WALL (     382 calls)
     davcio       :      0.01s CPU      0.15s WALL (      92 calls)
 
     Parallel routines
 
     PWSCF        :      4h 7m CPU      2h 9m WALL

 
   This run was terminated on:  13:54: 8  19Apr2022            

=------------------------------------------------------------------------------=
   JOB DONE.
=------------------------------------------------------------------------------=
