
     Program PWSCF v.6.8 starts on 19Apr2022 at 13:54:10 

     This program is part of the open-source Quantum ESPRESSO suite
     for quantum simulation of materials; please cite
         "P. Giannozzi et al., J. Phys.:Condens. Matter 21 395502 (2009);
         "P. Giannozzi et al., J. Phys.:Condens. Matter 29 465901 (2017);
         "P. Giannozzi et al., J. Chem. Phys. 152 154105 (2020);
          URL http://www.quantum-espresso.org", 
     in publications or presentations arising from this work. More details at
     http://www.quantum-espresso.org/quote

     Parallel version (MPI & OpenMP), running on       4 processor cores
     Number of MPI processes:                 2
     Threads/MPI process:                     2

     MPI processes distributed on     1 nodes
     R & G space division:  proc/nbgrp/npool/nimage =       2
     124301 MiB available memory on the printing compute node when the environment starts
 
     Reading input from Ta2CH2.relax.in
Warning: card  &CELL ignored
Warning: card     CELL_DYNAMICS='BFGS', CELL_DOFREE ='2DXY' ignored
Warning: card  / ignored

     Current dimensions of program PWSCF are:
     Max number of different atomic species (ntypx) = 10
     Max number of k-points (npk) =  40000
     Max angular momentum in pseudopotentials (lmaxx) =  4

     File /scratch/as3359/Ta2CH2-VCrelax/Ta.update deleted, as requested

     File /scratch/as3359/Ta2CH2-VCrelax/Ta.bfgs deleted, as requested
     file Ta.pbesol-spfn-rrkjus_psl.1.0.0.UPF: wavefunction(s)  5S 5P renormalized

     Subspace diagonalization in iterative solution of the eigenvalue problem:
     a serial algorithm will be used

 
     Parallelization info
     --------------------
     sticks:   dense  smooth     PW     G-vecs:    dense   smooth      PW
     Min         618     249     81               193064    48939    9253
     Max         619     250     82               193111    48974    9270
     Sum        1237     499    163               386175    97913   18523
 
     Using Slab Decomposition
 


     bravais-lattice index     =            0
     lattice parameter (alat)  =       5.5500  a.u.
     unit-cell volume          =    1234.4000 (a.u.)^3
     number of atoms/cell      =            5
     number of atomic types    =            3
     number of electrons       =        60.00
     number of Kohn-Sham states=           36
     kinetic-energy cutoff     =      70.0000  Ry
     charge density cutoff     =     700.0000  Ry
     scf convergence threshold =      1.0E-12
     mixing beta               =       0.7000
     number of iterations used =            8  plain     mixing
     energy convergence thresh.=      1.0E-04
     force convergence thresh. =      1.0E-03
     Exchange-correlation= PBESOL
                           (   1   4  10   8   0   0   0)
     nstep                     =           50


     celldm(1)=   5.550000  celldm(2)=   0.000000  celldm(3)=   0.000000
     celldm(4)=   0.000000  celldm(5)=   0.000000  celldm(6)=   0.000000

     crystal axes: (cart. coord. in units of alat)
               a(1) = (   0.913236   0.001113   0.000000 )  
               a(2) = (  -0.455654   0.790112   0.000000 )  
               a(3) = (   0.000000   0.000000  10.000000 )  

     reciprocal axes: (cart. coord. in units 2 pi/alat)
               b(1) = (  1.094238  0.631042  0.000000 )  
               b(2) = ( -0.001541  1.264754  0.000000 )  
               b(3) = (  0.000000  0.000000  0.100000 )  


     PseudoPot. # 1 for Ta read from file:
     /shared/home/as3359/pseudo/Ta.pbesol-spfn-rrkjus_psl.1.0.0.UPF
     MD5 check sum: f099565ffaca9b150a52e9412a28e20b
     Pseudo is Ultrasoft + core correction, Zval = 27.0
     Generated using &quot;atomic&quot; code by A. Dal Corso  v.6.3
     Using radial grid of 1273 points,  8 beta functions with: 
                l(1) =   0
                l(2) =   0
                l(3) =   1
                l(4) =   1
                l(5) =   2
                l(6) =   2
                l(7) =   3
                l(8) =   3
     Q(r) pseudized with 0 coefficients 


     PseudoPot. # 2 for C  read from file:
     /shared/home/as3359/pseudo/C.pbesol-n-rrkjus_psl.1.0.0.UPF
     MD5 check sum: 05995be603a8a7c99da3dc4413f31573
     Pseudo is Ultrasoft + core correction, Zval =  4.0
     Generated using &quot;atomic&quot; code by A. Dal Corso  v.6.3MaX
     Using radial grid of 1073 points,  4 beta functions with: 
                l(1) =   0
                l(2) =   0
                l(3) =   1
                l(4) =   1
     Q(r) pseudized with 0 coefficients 


     PseudoPot. # 3 for H  read from file:
     /shared/home/as3359/pseudo/H.pbesol-rrkjus_psl.0.1.UPF
     MD5 check sum: 1dbb1a5c48b1283557b8117eb856a7ca
     Pseudo is Ultrasoft, Zval =  1.0
     Generated using "atomic" code by A. Dal Corso  v.5.0.2 svn rev. 9415
     Using radial grid of  929 points,  2 beta functions with: 
                l(1) =   0
                l(2) =   0
     Q(r) pseudized with 0 coefficients 


     atomic species   valence    mass     pseudopotential
        Ta            27.00   180.94788     Ta( 1.00)
        C              4.00    12.01070     C ( 1.00)
        H              1.00     1.00000     H ( 1.00)

     No symmetry found



   Cartesian axes

     site n.     atom                  positions (alat units)
         1           C   tau(   1) = (   0.0000000   0.0000000   0.0000000  )
         2           Ta  tau(   2) = (   0.3760587   0.2657114  -4.3645110  )
         3           Ta  tau(   3) = (  -0.3061655   0.5289519   4.3645320  )
         4           H   tau(   4) = (  -0.3061655   0.5289519   8.3419300  )
         5           H   tau(   5) = (   0.3760587   0.2657114  -8.3419300  )

     number of k points=    74  Marzari-Vanderbilt smearing, width (Ry)=  0.0010
                       cart. coord. in units 2pi/alat
        k(    1) = (   0.0000000   0.0000000   0.0000000), wk =   0.0138889
        k(    2) = (  -0.0001284   0.1053962   0.0000000), wk =   0.0277778
        k(    3) = (  -0.0002569   0.2107923   0.0000000), wk =   0.0277778
        k(    4) = (  -0.0003853   0.3161885   0.0000000), wk =   0.0277778
        k(    5) = (  -0.0005137   0.4215847   0.0000000), wk =   0.0277778
        k(    6) = (  -0.0006421   0.5269809   0.0000000), wk =   0.0277778
        k(    7) = (   0.0007706  -0.6323770   0.0000000), wk =   0.0138889
        k(    8) = (   0.0911865   0.0525869   0.0000000), wk =   0.0277778
        k(    9) = (   0.0910581   0.1579830   0.0000000), wk =   0.0277778
        k(   10) = (   0.0909297   0.2633792   0.0000000), wk =   0.0277778
        k(   11) = (   0.0908012   0.3687754   0.0000000), wk =   0.0277778
        k(   12) = (   0.0906728   0.4741716   0.0000000), wk =   0.0277778
        k(   13) = (   0.0905444   0.5795677   0.0000000), wk =   0.0277778
        k(   14) = (   0.0919571  -0.5797902   0.0000000), wk =   0.0277778
        k(   15) = (   0.0918287  -0.4743940   0.0000000), wk =   0.0277778
        k(   16) = (   0.0917002  -0.3689978   0.0000000), wk =   0.0277778
        k(   17) = (   0.0915718  -0.2636017   0.0000000), wk =   0.0277778
        k(   18) = (   0.0914434  -0.1582055   0.0000000), wk =   0.0277778
        k(   19) = (   0.0913149  -0.0528093   0.0000000), wk =   0.0277778
        k(   20) = (   0.1823730   0.1051737   0.0000000), wk =   0.0277778
        k(   21) = (   0.1822446   0.2105699   0.0000000), wk =   0.0277778
        k(   22) = (   0.1821162   0.3159661   0.0000000), wk =   0.0277778
        k(   23) = (   0.1819877   0.4213622   0.0000000), wk =   0.0277778
        k(   24) = (   0.1818593   0.5267584   0.0000000), wk =   0.0277778
        k(   25) = (   0.1817309   0.6321546   0.0000000), wk =   0.0277778
        k(   26) = (   0.1831436  -0.5272033   0.0000000), wk =   0.0277778
        k(   27) = (   0.1830152  -0.4218071   0.0000000), wk =   0.0277778
        k(   28) = (   0.1828867  -0.3164110   0.0000000), wk =   0.0277778
        k(   29) = (   0.1827583  -0.2110148   0.0000000), wk =   0.0277778
        k(   30) = (   0.1826299  -0.1056186   0.0000000), wk =   0.0277778
        k(   31) = (   0.1825015  -0.0002225   0.0000000), wk =   0.0277778
        k(   32) = (   0.2735595   0.1577606   0.0000000), wk =   0.0277778
        k(   33) = (   0.2734311   0.2631568   0.0000000), wk =   0.0277778
        k(   34) = (   0.2733027   0.3685529   0.0000000), wk =   0.0277778
        k(   35) = (   0.2731743   0.4739491   0.0000000), wk =   0.0277778
        k(   36) = (   0.2730458   0.5793453   0.0000000), wk =   0.0277778
        k(   37) = (   0.2729174   0.6847414   0.0000000), wk =   0.0277778
        k(   38) = (   0.2743301  -0.4746165   0.0000000), wk =   0.0277778
        k(   39) = (   0.2742017  -0.3692203   0.0000000), wk =   0.0277778
        k(   40) = (   0.2740733  -0.2638241   0.0000000), wk =   0.0277778
        k(   41) = (   0.2739448  -0.1584279   0.0000000), wk =   0.0277778
        k(   42) = (   0.2738164  -0.0530318   0.0000000), wk =   0.0277778
        k(   43) = (   0.2736880   0.0523644   0.0000000), wk =   0.0277778
        k(   44) = (   0.3647461   0.2103474   0.0000000), wk =   0.0277778
        k(   45) = (   0.3646176   0.3157436   0.0000000), wk =   0.0277778
        k(   46) = (   0.3644892   0.4211398   0.0000000), wk =   0.0277778
        k(   47) = (   0.3643608   0.5265360   0.0000000), wk =   0.0277778
        k(   48) = (   0.3642324   0.6319321   0.0000000), wk =   0.0277778
        k(   49) = (   0.3641039   0.7373283   0.0000000), wk =   0.0277778
        k(   50) = (   0.3655166  -0.4220296   0.0000000), wk =   0.0277778
        k(   51) = (   0.3653882  -0.3166334   0.0000000), wk =   0.0277778
        k(   52) = (   0.3652598  -0.2112372   0.0000000), wk =   0.0277778
        k(   53) = (   0.3651313  -0.1058411   0.0000000), wk =   0.0277778
        k(   54) = (   0.3650029  -0.0004449   0.0000000), wk =   0.0277778
        k(   55) = (   0.3648745   0.1049513   0.0000000), wk =   0.0277778
        k(   56) = (   0.4559326   0.2629343   0.0000000), wk =   0.0277778
        k(   57) = (   0.4558042   0.3683305   0.0000000), wk =   0.0277778
        k(   58) = (   0.4556757   0.4737266   0.0000000), wk =   0.0277778
        k(   59) = (   0.4555473   0.5791228   0.0000000), wk =   0.0277778
        k(   60) = (   0.4554189   0.6845190   0.0000000), wk =   0.0277778
        k(   61) = (   0.4552904   0.7899152   0.0000000), wk =   0.0277778
        k(   62) = (   0.4567031  -0.3694427   0.0000000), wk =   0.0277778
        k(   63) = (   0.4565747  -0.2640466   0.0000000), wk =   0.0277778
        k(   64) = (   0.4564463  -0.1586504   0.0000000), wk =   0.0277778
        k(   65) = (   0.4563179  -0.0532542   0.0000000), wk =   0.0277778
        k(   66) = (   0.4561894   0.0521420   0.0000000), wk =   0.0277778
        k(   67) = (   0.4560610   0.1575381   0.0000000), wk =   0.0277778
        k(   68) = (  -0.5471191  -0.3155212   0.0000000), wk =   0.0138889
        k(   69) = (  -0.5472475  -0.2101250   0.0000000), wk =   0.0277778
        k(   70) = (  -0.5473760  -0.1047288   0.0000000), wk =   0.0277778
        k(   71) = (  -0.5475044   0.0006674   0.0000000), wk =   0.0277778
        k(   72) = (  -0.5476328   0.1060635   0.0000000), wk =   0.0277778
        k(   73) = (  -0.5477612   0.2114597   0.0000000), wk =   0.0277778
        k(   74) = (  -0.5463485  -0.9478982   0.0000000), wk =   0.0138889

     Dense  grid:   386175 G-vectors     FFT dimensions: (  45,  45, 480)

     Smooth grid:    97913 G-vectors     FFT dimensions: (  27,  27, 300)

     Estimated max dynamical RAM per process >       2.06 GB

     Estimated total dynamical RAM >       4.13 GB

     Initial potential from superposition of free atoms

     starting charge   59.99840, renormalised to   60.00000
     Starting wfcs are   40 randomized atomic wfcs

     total cpu time spent up to now is       11.8 secs

     Self-consistent Calculation

     iteration #  1     ecut=    70.00 Ry     beta= 0.70
     Davidson diagonalization with overlap
     ethr =  1.00E-02,  avg # of iterations =  2.4

     total cpu time spent up to now is       25.1 secs

     total energy              =   -1367.15346133 Ry
     estimated scf accuracy    <       8.30977975 Ry

     iteration #  2     ecut=    70.00 Ry     beta= 0.70
     Davidson diagonalization with overlap
     c_bands:  1 eigenvalues not converged
     c_bands:  4 eigenvalues not converged
     c_bands:  4 eigenvalues not converged
     c_bands:  2 eigenvalues not converged
     c_bands:  2 eigenvalues not converged
     c_bands:  1 eigenvalues not converged
     c_bands:  3 eigenvalues not converged
     c_bands:  3 eigenvalues not converged
     c_bands:  1 eigenvalues not converged
     c_bands:  1 eigenvalues not converged
     c_bands:  5 eigenvalues not converged
     c_bands:  2 eigenvalues not converged
     c_bands:  1 eigenvalues not converged
     c_bands:  2 eigenvalues not converged
     c_bands:  1 eigenvalues not converged
     c_bands:  1 eigenvalues not converged
     c_bands:  1 eigenvalues not converged
     c_bands:  1 eigenvalues not converged
     ethr =  1.00E-02,  avg # of iterations = 18.3

     total cpu time spent up to now is       82.1 secs

     total energy              =   -1206.08167422 Ry
     estimated scf accuracy    <   16520.06626953 Ry

     iteration #  3     ecut=    70.00 Ry     beta= 0.70
     Davidson diagonalization with overlap
     ethr =  1.00E-02,  avg # of iterations = 11.4

     total cpu time spent up to now is      113.7 secs

     total energy              =   -1372.80077212 Ry
     estimated scf accuracy    <     185.13680911 Ry

     iteration #  4     ecut=    70.00 Ry     beta= 0.70
     Davidson diagonalization with overlap
     ethr =  1.00E-02,  avg # of iterations =  7.2

     total cpu time spent up to now is      129.9 secs

     total energy              =   -1374.03419624 Ry
     estimated scf accuracy    <       6.31282658 Ry

     iteration #  5     ecut=    70.00 Ry     beta= 0.70
     Davidson diagonalization with overlap
     ethr =  1.00E-02,  avg # of iterations =  3.0

     total cpu time spent up to now is      143.0 secs

     total energy              =   -1374.36388833 Ry
     estimated scf accuracy    <       0.56285096 Ry

     iteration #  6     ecut=    70.00 Ry     beta= 0.70
     Davidson diagonalization with overlap
     ethr =  9.38E-04,  avg # of iterations =  7.6

     total cpu time spent up to now is      159.7 secs

     total energy              =   -1374.44154975 Ry
     estimated scf accuracy    <       1.91909049 Ry

     iteration #  7     ecut=    70.00 Ry     beta= 0.70
     Davidson diagonalization with overlap
     ethr =  9.38E-04,  avg # of iterations =  1.3

     total cpu time spent up to now is      172.0 secs

     total energy              =   -1374.46269694 Ry
     estimated scf accuracy    <       1.10327963 Ry

     iteration #  8     ecut=    70.00 Ry     beta= 0.70
     Davidson diagonalization with overlap
     ethr =  9.38E-04,  avg # of iterations =  1.0

     total cpu time spent up to now is      183.9 secs

     total energy              =   -1374.44747606 Ry
     estimated scf accuracy    <       1.24570355 Ry

     iteration #  9     ecut=    70.00 Ry     beta= 0.70
     Davidson diagonalization with overlap
     ethr =  9.38E-04,  avg # of iterations =  1.0

     total cpu time spent up to now is      196.0 secs

     total energy              =   -1374.46442632 Ry
     estimated scf accuracy    <       0.27252293 Ry

     iteration # 10     ecut=    70.00 Ry     beta= 0.70
     Davidson diagonalization with overlap
     ethr =  4.54E-04,  avg # of iterations =  1.1

     total cpu time spent up to now is      208.1 secs

     total energy              =   -1374.46346614 Ry
     estimated scf accuracy    <       0.09463075 Ry

     iteration # 11     ecut=    70.00 Ry     beta= 0.70
     Davidson diagonalization with overlap
     ethr =  1.58E-04,  avg # of iterations =  1.5

     total cpu time spent up to now is      220.6 secs

     total energy              =   -1374.46152925 Ry
     estimated scf accuracy    <       0.37903485 Ry

     iteration # 12     ecut=    70.00 Ry     beta= 0.70
     Davidson diagonalization with overlap
     ethr =  1.58E-04,  avg # of iterations =  1.2

     total cpu time spent up to now is      232.9 secs

     total energy              =   -1374.46497355 Ry
     estimated scf accuracy    <       0.15051349 Ry

     iteration # 13     ecut=    70.00 Ry     beta= 0.70
     Davidson diagonalization with overlap
     ethr =  1.58E-04,  avg # of iterations =  1.1

     total cpu time spent up to now is      245.1 secs

     total energy              =   -1374.46484921 Ry
     estimated scf accuracy    <       0.10143125 Ry

     iteration # 14     ecut=    70.00 Ry     beta= 0.70
     Davidson diagonalization with overlap
     ethr =  1.58E-04,  avg # of iterations =  1.2

     total cpu time spent up to now is      257.3 secs

     total energy              =   -1374.46460770 Ry
     estimated scf accuracy    <       0.09438560 Ry

     iteration # 15     ecut=    70.00 Ry     beta= 0.70
     Davidson diagonalization with overlap
     ethr =  1.57E-04,  avg # of iterations =  1.3

     total cpu time spent up to now is      269.7 secs

     total energy              =   -1374.46407544 Ry
     estimated scf accuracy    <       0.09210875 Ry

     iteration # 16     ecut=    70.00 Ry     beta= 0.70
     Davidson diagonalization with overlap
     ethr =  1.54E-04,  avg # of iterations =  1.0

     total cpu time spent up to now is      281.9 secs

     total energy              =   -1374.46428561 Ry
     estimated scf accuracy    <       0.07800098 Ry

     iteration # 17     ecut=    70.00 Ry     beta= 0.70
     Davidson diagonalization with overlap
     ethr =  1.30E-04,  avg # of iterations =  1.6

     total cpu time spent up to now is      294.1 secs

     total energy              =   -1374.46336125 Ry
     estimated scf accuracy    <       0.15100478 Ry

     iteration # 18     ecut=    70.00 Ry     beta= 0.70
     Davidson diagonalization with overlap
     ethr =  1.30E-04,  avg # of iterations =  1.3

     total cpu time spent up to now is      306.6 secs

     total energy              =   -1374.46448132 Ry
     estimated scf accuracy    <       0.13544720 Ry

     iteration # 19     ecut=    70.00 Ry     beta= 0.70
     Davidson diagonalization with overlap
     ethr =  1.30E-04,  avg # of iterations =  1.0

     total cpu time spent up to now is      318.8 secs

     total energy              =   -1374.46410171 Ry
     estimated scf accuracy    <       0.17072159 Ry

     iteration # 20     ecut=    70.00 Ry     beta= 0.70
     Davidson diagonalization with overlap
     ethr =  1.30E-04,  avg # of iterations =  1.2

     total cpu time spent up to now is      331.1 secs

     total energy              =   -1374.46437177 Ry
     estimated scf accuracy    <       0.01775075 Ry

     iteration # 21     ecut=    70.00 Ry     beta= 0.70
     Davidson diagonalization with overlap
     ethr =  2.96E-05,  avg # of iterations =  2.1

     total cpu time spent up to now is      343.7 secs

     total energy              =   -1374.46436647 Ry
     estimated scf accuracy    <       0.00187256 Ry

     iteration # 22     ecut=    70.00 Ry     beta= 0.70
     Davidson diagonalization with overlap
     c_bands:  1 eigenvalues not converged
     ethr =  3.12E-06,  avg # of iterations =  3.8

     total cpu time spent up to now is      357.1 secs

     total energy              =   -1374.46434636 Ry
     estimated scf accuracy    <       0.00507310 Ry

     iteration # 23     ecut=    70.00 Ry     beta= 0.70
     Davidson diagonalization with overlap
     ethr =  3.12E-06,  avg # of iterations =  1.5

     total cpu time spent up to now is      369.3 secs

     total energy              =   -1374.46433840 Ry
     estimated scf accuracy    <       0.02703907 Ry

     iteration # 24     ecut=    70.00 Ry     beta= 0.70
     Davidson diagonalization with overlap
     ethr =  3.12E-06,  avg # of iterations =  1.0

     total cpu time spent up to now is      381.4 secs

     total energy              =   -1374.46433751 Ry
     estimated scf accuracy    <       0.00138001 Ry

     iteration # 25     ecut=    70.00 Ry     beta= 0.70
     Davidson diagonalization with overlap
     c_bands:  1 eigenvalues not converged
     ethr =  2.30E-06,  avg # of iterations =  1.5

     total cpu time spent up to now is      393.7 secs

     total energy              =   -1374.46434582 Ry
     estimated scf accuracy    <       0.00287074 Ry

     iteration # 26     ecut=    70.00 Ry     beta= 0.70
     Davidson diagonalization with overlap
     ethr =  2.30E-06,  avg # of iterations =  1.2

     total cpu time spent up to now is      405.9 secs

     total energy              =   -1374.46434880 Ry
     estimated scf accuracy    <       0.00034857 Ry

     iteration # 27     ecut=    70.00 Ry     beta= 0.70
     Davidson diagonalization with overlap
     ethr =  5.81E-07,  avg # of iterations =  1.1

     total cpu time spent up to now is      417.9 secs

     total energy              =   -1374.46435128 Ry
     estimated scf accuracy    <       0.00003985 Ry

     iteration # 28     ecut=    70.00 Ry     beta= 0.70
     Davidson diagonalization with overlap
     ethr =  6.64E-08,  avg # of iterations =  1.2

     total cpu time spent up to now is      430.2 secs

     total energy              =   -1374.46435066 Ry
     estimated scf accuracy    <       0.00009284 Ry

     iteration # 29     ecut=    70.00 Ry     beta= 0.70
     Davidson diagonalization with overlap
     ethr =  6.64E-08,  avg # of iterations =  1.0

     total cpu time spent up to now is      442.3 secs

     total energy              =   -1374.46435116 Ry
     estimated scf accuracy    <       0.00001978 Ry

     iteration # 30     ecut=    70.00 Ry     beta= 0.70
     Davidson diagonalization with overlap
     ethr =  3.30E-08,  avg # of iterations =  1.0

     total cpu time spent up to now is      454.4 secs

     total energy              =   -1374.46435131 Ry
     estimated scf accuracy    <       0.00000344 Ry

     iteration # 31     ecut=    70.00 Ry     beta= 0.70
     Davidson diagonalization with overlap
     c_bands:  1 eigenvalues not converged
     ethr =  5.73E-09,  avg # of iterations =  1.8

     total cpu time spent up to now is      466.9 secs

     total energy              =   -1374.46435134 Ry
     estimated scf accuracy    <       0.00000054 Ry

     iteration # 32     ecut=    70.00 Ry     beta= 0.70
     Davidson diagonalization with overlap
     ethr =  9.03E-10,  avg # of iterations =  1.2

     total cpu time spent up to now is      479.0 secs

     total energy              =   -1374.46435134 Ry
     estimated scf accuracy    <       0.00000091 Ry

     iteration # 33     ecut=    70.00 Ry     beta= 0.70
     Davidson diagonalization with overlap
     ethr =  9.03E-10,  avg # of iterations =  1.0

     total cpu time spent up to now is      491.3 secs

     total energy              =   -1374.46435134 Ry
     estimated scf accuracy    <       0.00000061 Ry

     iteration # 34     ecut=    70.00 Ry     beta= 0.70
     Davidson diagonalization with overlap
     ethr =  9.03E-10,  avg # of iterations =  1.0

     total cpu time spent up to now is      503.2 secs

     total energy              =   -1374.46435134 Ry
     estimated scf accuracy    <       0.00000003 Ry

     iteration # 35     ecut=    70.00 Ry     beta= 0.70
     Davidson diagonalization with overlap
     ethr =  4.26E-11,  avg # of iterations =  1.5

     total cpu time spent up to now is      515.6 secs

     total energy              =   -1374.46435134 Ry
     estimated scf accuracy    <          7.2E-10 Ry

     iteration # 36     ecut=    70.00 Ry     beta= 0.70
     Davidson diagonalization with overlap
     ethr =  1.21E-12,  avg # of iterations =  3.6

     total cpu time spent up to now is      529.6 secs

     total energy              =   -1374.46435134 Ry
     estimated scf accuracy    <          9.6E-09 Ry

     iteration # 37     ecut=    70.00 Ry     beta= 0.70
     Davidson diagonalization with overlap
     ethr =  1.21E-12,  avg # of iterations =  1.2

     total cpu time spent up to now is      541.7 secs

     total energy              =   -1374.46435134 Ry
     estimated scf accuracy    <          6.9E-10 Ry

     iteration # 38     ecut=    70.00 Ry     beta= 0.70
     Davidson diagonalization with overlap
     ethr =  1.15E-12,  avg # of iterations =  1.0

     total cpu time spent up to now is      553.9 secs

     total energy              =   -1374.46435134 Ry
     estimated scf accuracy    <          7.1E-11 Ry

     iteration # 39     ecut=    70.00 Ry     beta= 0.70
     Davidson diagonalization with overlap
     c_bands:  1 eigenvalues not converged
     ethr =  1.18E-13,  avg # of iterations =  1.9

     total cpu time spent up to now is      566.5 secs

     total energy              =   -1374.46435134 Ry
     estimated scf accuracy    <          4.2E-11 Ry

     iteration # 40     ecut=    70.00 Ry     beta= 0.70
     Davidson diagonalization with overlap
     ethr =  1.00E-13,  avg # of iterations =  1.2

     total cpu time spent up to now is      578.7 secs

     total energy              =   -1374.46435134 Ry
     estimated scf accuracy    <          8.3E-10 Ry

     iteration # 41     ecut=    70.00 Ry     beta= 0.70
     Davidson diagonalization with overlap
     ethr =  1.00E-13,  avg # of iterations =  1.0

     total cpu time spent up to now is      590.9 secs

     total energy              =   -1374.46435134 Ry
     estimated scf accuracy    <          2.4E-10 Ry

     iteration # 42     ecut=    70.00 Ry     beta= 0.70
     Davidson diagonalization with overlap
     ethr =  1.00E-13,  avg # of iterations =  1.0

     total cpu time spent up to now is      603.1 secs

     total energy              =   -1374.46435134 Ry
     estimated scf accuracy    <          2.4E-11 Ry

     iteration # 43     ecut=    70.00 Ry     beta= 0.70
     Davidson diagonalization with overlap
     ethr =  1.00E-13,  avg # of iterations =  1.0

     total cpu time spent up to now is      615.3 secs

     total energy              =   -1374.46435134 Ry
     estimated scf accuracy    <          2.5E-11 Ry

     iteration # 44     ecut=    70.00 Ry     beta= 0.70
     Davidson diagonalization with overlap
     ethr =  1.00E-13,  avg # of iterations =  1.0

     total cpu time spent up to now is      627.4 secs

     total energy              =   -1374.46435134 Ry
     estimated scf accuracy    <          2.9E-11 Ry

     iteration # 45     ecut=    70.00 Ry     beta= 0.70
     Davidson diagonalization with overlap
     ethr =  1.00E-13,  avg # of iterations =  1.0

     total cpu time spent up to now is      639.4 secs

     total energy              =   -1374.46435134 Ry
     estimated scf accuracy    <          1.2E-12 Ry

     iteration # 46     ecut=    70.00 Ry     beta= 0.70
     Davidson diagonalization with overlap
     ethr =  1.00E-13,  avg # of iterations =  1.0

     total cpu time spent up to now is      651.6 secs

     total energy              =   -1374.46435134 Ry
     estimated scf accuracy    <          1.9E-12 Ry

     iteration # 47     ecut=    70.00 Ry     beta= 0.70
     Davidson diagonalization with overlap
     ethr =  1.00E-13,  avg # of iterations =  1.0

     total cpu time spent up to now is      663.5 secs

     End of self-consistent calculation

          k = 0.0000 0.0000 0.0000 ( 12231 PWs)   bands (ev):

   -67.1589 -67.1584 -33.8386 -33.8137 -32.5624 -32.5622 -32.5531 -32.5525
   -18.7622 -18.7619 -18.7218 -18.7218 -18.6851 -18.6851 -18.6846 -18.6845
   -18.6809 -18.6806 -18.6767 -18.6763 -18.5493 -18.5493  -9.9863  -6.1710
    -5.5992  -2.0834  -2.0797  -1.8984  -0.8076  -0.0065   0.6180   1.4811
     1.4999   1.5594   1.5680   4.3498

          k =-0.0001 0.1054 0.0000 ( 12231 PWs)   bands (ev):

   -67.1444 -67.1440 -33.8174 -33.7933 -32.7021 -32.7018 -32.5938 -32.5937
   -18.7593 -18.7591 -18.7149 -18.7148 -18.6865 -18.6864 -18.6835 -18.6834
   -18.6821 -18.6820 -18.6790 -18.6789 -18.5581 -18.5581  -9.8493  -5.8054
    -5.1988  -1.9264  -1.9227  -1.7361  -0.6859   0.0993   0.5601   1.1677
     1.1879   1.8632   1.8641   3.6815

          k =-0.0003 0.2108 0.0000 ( 12214 PWs)   bands (ev):

   -67.1048 -67.1043 -33.7591 -33.7372 -33.0949 -33.0943 -32.6814 -32.6814
   -18.7519 -18.7517 -18.7022 -18.7021 -18.6913 -18.6911 -18.6863 -18.6861
   -18.6840 -18.6839 -18.6728 -18.6728 -18.5804 -18.5804  -9.4451  -4.8511
    -4.1613  -1.4648  -1.4612  -1.3714  -0.3355   0.2195   0.3262   0.5588
     0.6459   2.5254   2.8457   2.8663

          k =-0.0004 0.3162 0.0000 ( 12192 PWs)   bands (ev):

   -67.0501 -67.0498 -33.6788 -33.6603 -33.6046 -33.6042 -32.7991 -32.7991
   -18.7432 -18.7430 -18.7168 -18.7166 -18.6932 -18.6931 -18.6840 -18.6838
   -18.6654 -18.6653 -18.6613 -18.6613 -18.6064 -18.6064  -8.7984  -3.7955
    -3.1924  -1.3546  -0.7328  -0.7293  -0.0687  -0.0307   0.1940   0.5563
     1.0961   1.3968   2.1052   3.6438

          k =-0.0005 0.4216 0.0000 ( 12209 PWs)   bands (ev):

   -66.9950 -66.9947 -34.0893 -34.0879 -33.5964 -33.5819 -32.9146 -32.9146
   -18.7373 -18.7372 -18.7315 -18.7314 -18.7047 -18.7047 -18.6799 -18.6796
   -18.6505 -18.6505 -18.6358 -18.6358 -18.6261 -18.6261  -7.9715  -3.4211
    -3.1835  -1.5929  -0.6873  -0.1680   0.1832   0.1868   0.2398   0.8014
     1.7536   2.4691   2.7095   3.3251

          k =-0.0006 0.5270 0.0000 ( 12222 PWs)   bands (ev):

   -66.9543 -66.9541 -34.4290 -34.4274 -33.5354 -33.5245 -32.9979 -32.9979
   -18.7426 -18.7418 -18.7344 -18.7341 -18.7159 -18.7159 -18.6743 -18.6740
   -18.6424 -18.6423 -18.6364 -18.6364 -18.6135 -18.6135  -7.1324  -3.6013
    -3.5194  -1.8079  -1.5059  -1.2844   1.0686   1.0719   1.2197   1.3153
     2.8525   3.1045   3.5717   4.1733

          k = 0.0008-0.6324 0.0000 ( 12242 PWs)   bands (ev):

   -66.9394 -66.9392 -34.5505 -34.5489 -33.5127 -33.5036 -33.0281 -33.0281
   -18.7461 -18.7453 -18.7340 -18.7337 -18.7205 -18.7205 -18.6718 -18.6714
   -18.6409 -18.6409 -18.6379 -18.6378 -18.6052 -18.6052  -6.7179  -3.7133
    -3.6689  -2.0957  -1.8939  -1.5138   1.4759   1.4797   1.5237   1.9835
     2.7684   3.0262   4.2369   4.3147

          k = 0.0912 0.0526 0.0000 ( 12235 PWs)   bands (ev):

   -67.1445 -67.1441 -33.8175 -33.7934 -32.7054 -32.7050 -32.5897 -32.5895
   -18.7594 -18.7591 -18.7149 -18.7149 -18.6862 -18.6861 -18.6835 -18.6833
   -18.6823 -18.6821 -18.6791 -18.6790 -18.5580 -18.5580  -9.8498  -5.8064
    -5.1998  -1.9269  -1.9232  -1.7373  -0.6863   0.0979   0.5608   1.1371
     1.1621   1.8928   1.8990   3.6759

          k = 0.0911 0.1580 0.0000 ( 12219 PWs)   bands (ev):

   -67.1176 -67.1172 -33.7779 -33.7555 -32.9610 -32.9606 -32.6633 -32.6630
   -18.7544 -18.7541 -18.7030 -18.7029 -18.6924 -18.6921 -18.6861 -18.6860
   -18.6832 -18.6829 -18.6749 -18.6749 -18.5737 -18.5737  -9.5798  -5.1360
    -4.4619  -1.6182  -1.6146  -1.4507  -0.4507   0.2541   0.4612   0.5663
     0.6028   2.5955   2.6065   2.8272

          k = 0.0909 0.2634 0.0000 ( 12203 PWs)   bands (ev):

   -67.0705 -67.0702 -33.7084 -33.6890 -33.3898 -33.3892 -32.7878 -32.7875
   -18.7459 -18.7456 -18.7083 -18.7081 -18.6939 -18.6939 -18.6856 -18.6854
   -18.6735 -18.6734 -18.6650 -18.6650 -18.5989 -18.5989  -9.0541  -4.0360
    -3.2791  -1.1574  -1.0206  -1.0171  -0.0928  -0.0351  -0.0099   0.3140
     0.5085   2.0595   2.1312   3.6094

          k = 0.0908 0.3688 0.0000 ( 12191 PWs)   bands (ev):

   -67.0156 -67.0153 -33.8639 -33.8625 -33.6267 -33.6111 -32.9281 -32.9278
   -18.7376 -18.7374 -18.7241 -18.7239 -18.7005 -18.7005 -18.6837 -18.6835
   -18.6544 -18.6544 -18.6464 -18.6464 -18.6233 -18.6233  -8.3130  -3.1515
    -2.6790  -1.3959  -0.3375  -0.1900  -0.1866  -0.0617   0.5417   0.5631
     0.6090   1.3593   2.3086   3.1746

          k = 0.0907 0.4742 0.0000 ( 12204 PWs)   bands (ev):

   -66.9675 -66.9673 -34.2577 -34.2563 -33.5550 -33.5433 -33.0464 -33.0460
   -18.7370 -18.7362 -18.7324 -18.7318 -18.7116 -18.7115 -18.6783 -18.6780
   -18.6460 -18.6460 -18.6393 -18.6393 -18.6207 -18.6207  -7.4585  -3.1110
    -2.9718  -1.6279  -0.9442  -0.8250   0.7147   0.7364   0.7399   1.1351
     2.2411   2.6886   2.8337   2.9931

          k = 0.0905 0.5796 0.0000 ( 12228 PWs)   bands (ev):

   -66.9395 -66.9393 -34.4801 -34.4785 -33.5129 -33.5038 -33.1128 -33.1124
   -18.7434 -18.7427 -18.7309 -18.7305 -18.7197 -18.7196 -18.6730 -18.6727
   -18.6466 -18.6466 -18.6410 -18.6409 -18.6057 -18.6057  -6.7697  -3.3053
    -3.2538  -1.8356  -1.7586  -1.3416   1.4354   1.4400   1.5107   1.7800
     2.6505   2.8435   3.4611   3.7683

          k = 0.0920-0.5798 0.0000 ( 12227 PWs)   bands (ev):

   -66.9393 -66.9391 -34.4829 -34.4813 -33.5130 -33.5033 -33.1111 -33.1107
   -18.7443 -18.7437 -18.7308 -18.7305 -18.7188 -18.7187 -18.6726 -18.6723
   -18.6466 -18.6466 -18.6413 -18.6413 -18.6058 -18.6058  -6.7672  -3.3104
    -3.2492  -1.8399  -1.7595  -1.3417   1.4376   1.4422   1.5119   1.7615
     2.6533   2.8611   3.5392   3.6392

          k = 0.0918-0.4744 0.0000 ( 12208 PWs)   bands (ev):

   -66.9670 -66.9668 -34.2657 -34.2642 -33.5551 -33.5421 -33.0417 -33.0413
   -18.7391 -18.7384 -18.7322 -18.7318 -18.7093 -18.7092 -18.6775 -18.6772
   -18.6469 -18.6468 -18.6392 -18.6392 -18.6210 -18.6209  -7.4537  -3.1176
    -2.9646  -1.6300  -0.9393  -0.8347   0.6806   0.7409   0.7443   1.1379
     2.2428   2.7055   2.8410   2.9860

          k = 0.0917-0.3690 0.0000 ( 12177 PWs)   bands (ev):

   -67.0149 -67.0146 -33.8754 -33.8740 -33.6266 -33.6098 -32.9212 -32.9211
   -18.7370 -18.7368 -18.7272 -18.7269 -18.6972 -18.6971 -18.6831 -18.6829
   -18.6556 -18.6556 -18.6465 -18.6464 -18.6235 -18.6235  -8.3084  -3.1512
    -2.6727  -1.3973  -0.3122  -0.1854  -0.1821  -0.1046   0.5399   0.5665
     0.5980   1.3649   2.3123   3.1838

          k = 0.0916-0.2636 0.0000 ( 12211 PWs)   bands (ev):

   -67.0699 -67.0695 -33.7082 -33.6877 -33.4026 -33.4018 -32.7803 -32.7802
   -18.7451 -18.7448 -18.7120 -18.7118 -18.6890 -18.6888 -18.6856 -18.6855
   -18.6749 -18.6749 -18.6658 -18.6657 -18.5990 -18.5990  -9.0506  -4.0320
    -3.2750  -1.1532  -1.0170  -1.0134  -0.0641  -0.0502  -0.0071   0.3377
     0.5023   2.0522   2.1221   3.6155

          k = 0.0914-0.1582 0.0000 ( 12217 PWs)   bands (ev):

   -67.1171 -67.1167 -33.7776 -33.7546 -32.9719 -32.9712 -32.6568 -32.6563
   -18.7537 -18.7534 -18.7016 -18.7016 -18.6966 -18.6965 -18.6854 -18.6853
   -18.6815 -18.6812 -18.6752 -18.6752 -18.5738 -18.5738  -9.5776  -5.1314
    -4.4572  -1.6159  -1.6123  -1.4418  -0.4488   0.2739   0.4378   0.6183
     0.6278   2.5427   2.5556   2.8354

          k = 0.0913-0.0528 0.0000 ( 12235 PWs)   bands (ev):

   -67.1444 -67.1439 -33.8174 -33.7931 -32.7108 -32.7102 -32.5863 -32.5856
   -18.7591 -18.7589 -18.7146 -18.7146 -18.6878 -18.6877 -18.6852 -18.6851
   -18.6810 -18.6807 -18.6779 -18.6775 -18.5580 -18.5580  -9.8490  -5.8043
    -5.1976  -1.9261  -1.9224  -1.7335  -0.6857   0.1029   0.5558   1.1938
     1.2098   1.8259   1.8457   3.6933

          k = 0.1824 0.1052 0.0000 ( 12210 PWs)   bands (ev):

   -67.1052 -67.1047 -33.7595 -33.7378 -33.0963 -33.0961 -32.6766 -32.6761
   -18.7522 -18.7519 -18.7025 -18.7024 -18.6905 -18.6903 -18.6857 -18.6856
   -18.6849 -18.6848 -18.6728 -18.6727 -18.5802 -18.5802  -9.4468  -4.8545
    -4.1650  -1.4666  -1.4630  -1.3779  -0.3370   0.2123   0.3200   0.5445
     0.6359   2.5179   2.8574   2.8715

          k = 0.1822 0.2106 0.0000 ( 12209 PWs)   bands (ev):

   -67.0708 -67.0705 -33.7087 -33.6895 -33.3906 -33.3903 -32.7844 -32.7839
   -18.7462 -18.7458 -18.7083 -18.7081 -18.6938 -18.6937 -18.6857 -18.6854
   -18.6735 -18.6734 -18.6651 -18.6651 -18.5988 -18.5988  -9.0554  -4.0384
    -3.2815  -1.1631  -1.0220  -1.0185  -0.0977  -0.0422  -0.0111   0.3067
     0.5155   2.0526   2.1285   3.6188

          k = 0.1821 0.3160 0.0000 ( 12215 PWs)   bands (ev):

   -67.0234 -67.0231 -33.7455 -33.7440 -33.6378 -33.6220 -32.9698 -32.9692
   -18.7372 -18.7369 -18.7204 -18.7203 -18.6990 -18.6989 -18.6860 -18.6857
   -18.6558 -18.6558 -18.6498 -18.6497 -18.6243 -18.6243  -8.4323  -2.8662
    -1.9434  -0.9481  -0.6928  -0.6272  -0.3212  -0.3178  -0.0594   0.4767
     0.7676   1.0442   2.2396   2.9193

          k = 0.1820 0.4214 0.0000 ( 12182 PWs)   bands (ev):

   -66.9754 -66.9751 -34.0730 -34.0716 -33.5665 -33.5545 -33.1689 -33.1681
   -18.7321 -18.7312 -18.7283 -18.7274 -18.7068 -18.7066 -18.6832 -18.6829
   -18.6496 -18.6496 -18.6465 -18.6465 -18.6251 -18.6251  -7.6455  -2.0888
    -1.6778  -1.2859  -0.5797  -0.1116  -0.1090   0.2982   0.5436   0.5473
     1.0269   1.5951   2.2324   2.6837

          k = 0.1819 0.5268 0.0000 ( 12203 PWs)   bands (ev):

   -66.9398 -66.9396 -34.3048 -34.3033 -33.5134 -33.5044 -33.3156 -33.3147
   -18.7378 -18.7371 -18.7236 -18.7231 -18.7168 -18.7165 -18.6768 -18.6765
   -18.6608 -18.6608 -18.6460 -18.6459 -18.6067 -18.6067  -6.8666  -2.1761
    -2.0926  -1.4241  -1.1854  -0.9041   1.2286   1.3582   1.3633   1.4840
     1.7889   1.9988   2.4808   2.6142

          k = 0.1817 0.6322 0.0000 ( 12240 PWs)   bands (ev):

   -66.9265 -66.9263 -34.3924 -34.3908 -33.4940 -33.4854 -33.3664 -33.3656
   -18.7406 -18.7400 -18.7223 -18.7218 -18.7204 -18.7204 -18.6724 -18.6721
   -18.6646 -18.6645 -18.6466 -18.6466 -18.5999 -18.5999  -6.4920  -2.2981
    -2.2430  -1.6783  -1.4185  -1.0499   1.6435   1.6593   1.7314   1.7332
     2.0037   2.2670   2.4273   2.7091

          k = 0.1831-0.5272 0.0000 ( 12210 PWs)   bands (ev):

   -66.9392 -66.9389 -34.3169 -34.3154 -33.5137 -33.5026 -33.3078 -33.3073
   -18.7412 -18.7406 -18.7231 -18.7227 -18.7132 -18.7131 -18.6759 -18.6756
   -18.6608 -18.6607 -18.6473 -18.6472 -18.6067 -18.6067  -6.8586  -2.1971
    -2.0768  -1.4273  -1.2007  -0.8930   1.1755   1.3652   1.3703   1.4881
     1.7983   1.9972   2.4966   2.5917

          k = 0.1830-0.4218 0.0000 ( 12171 PWs)   bands (ev):

   -66.9742 -66.9739 -34.0929 -34.0914 -33.5666 -33.5518 -33.1567 -33.1566
   -18.7362 -18.7357 -18.7271 -18.7268 -18.7021 -18.7019 -18.6826 -18.6824
   -18.6505 -18.6504 -18.6473 -18.6473 -18.6253 -18.6253  -7.6359  -2.0977
    -1.6622  -1.2925  -0.5307  -0.1740  -0.1290   0.2895   0.5529   0.5565
     1.0332   1.5499   2.2457   2.7243

          k = 0.1829-0.3164 0.0000 ( 12194 PWs)   bands (ev):

   -67.0220 -67.0217 -33.7664 -33.7648 -33.6377 -33.6195 -32.9586 -32.9583
   -18.7351 -18.7349 -18.7257 -18.7252 -18.6939 -18.6936 -18.6862 -18.6861
   -18.6574 -18.6574 -18.6501 -18.6500 -18.6243 -18.6243  -8.4242  -2.8586
    -1.9376  -0.9491  -0.6723  -0.6544  -0.3129  -0.3095   0.0248   0.4830
     0.6906   1.0324   2.2372   2.9250

          k = 0.1828-0.2110 0.0000 ( 12207 PWs)   bands (ev):

   -67.0697 -67.0692 -33.7082 -33.6871 -33.4073 -33.4059 -32.7780 -32.7773
   -18.7442 -18.7440 -18.7129 -18.7124 -18.6892 -18.6888 -18.6860 -18.6859
   -18.6751 -18.6751 -18.6656 -18.6655 -18.5987 -18.5987  -9.0497  -4.0284
    -3.2717  -1.1392  -1.0160  -1.0125  -0.0763  -0.0293  -0.0063   0.3887
     0.4424   2.0567   2.1246   3.6088

          k = 0.1826-0.1056 0.0000 ( 12206 PWs)   bands (ev):

   -67.1045 -67.1040 -33.7592 -33.7365 -33.1047 -33.1035 -32.6747 -32.6739
   -18.7510 -18.7508 -18.7024 -18.7021 -18.6940 -18.6939 -18.6870 -18.6868
   -18.6818 -18.6815 -18.6729 -18.6727 -18.5802 -18.5801  -9.4440  -4.8469
    -4.1570  -1.4636  -1.4600  -1.3560  -0.3345   0.2210   0.3346   0.5636
     0.6501   2.5414   2.8117   2.8332

          k = 0.1825-0.0002 0.0000 ( 12221 PWs)   bands (ev):

   -67.1174 -67.1170 -33.7779 -33.7550 -32.9719 -32.9713 -32.6543 -32.6539
   -18.7539 -18.7536 -18.7020 -18.7020 -18.6960 -18.6959 -18.6858 -18.6857
   -18.6811 -18.6808 -18.6754 -18.6752 -18.5736 -18.5736  -9.5789  -5.1335
    -4.4594  -1.6173  -1.6136  -1.4445  -0.4500   0.2684   0.4421   0.5940
     0.6122   2.5706   2.5830   2.8329

          k = 0.2736 0.1578 0.0000 ( 12190 PWs)   bands (ev):

   -67.0509 -67.0506 -33.6797 -33.6617 -33.6041 -33.6035 -32.7932 -32.7925
   -18.7439 -18.7435 -18.7164 -18.7163 -18.6933 -18.6931 -18.6839 -18.6836
   -18.6651 -18.6651 -18.6617 -18.6617 -18.6061 -18.6060  -8.8024  -3.8007
    -3.1974  -1.3606  -0.7369  -0.7335  -0.0834  -0.0303   0.1907   0.5205
     1.1149   1.3883   2.1024   3.6584

          k = 0.2734 0.2632 0.0000 ( 12198 PWs)   bands (ev):

   -67.0163 -67.0160 -33.8640 -33.8630 -33.6272 -33.6121 -32.9224 -32.9217
   -18.7383 -18.7379 -18.7238 -18.7236 -18.7005 -18.7002 -18.6835 -18.6832
   -18.6544 -18.6544 -18.6466 -18.6466 -18.6231 -18.6230  -8.3166  -3.1539
    -2.6800  -1.3931  -0.3553  -0.1937  -0.1904  -0.0726   0.5109   0.5602
     0.6000   1.3894   2.3026   3.1899

          k = 0.2733 0.3686 0.0000 ( 12184 PWs)   bands (ev):

   -66.9758 -66.9756 -34.0728 -34.0718 -33.5668 -33.5551 -33.1658 -33.1648
   -18.7322 -18.7314 -18.7285 -18.7274 -18.7067 -18.7064 -18.6830 -18.6827
   -18.6498 -18.6497 -18.6463 -18.6463 -18.6253 -18.6252  -7.6480  -2.0881
    -1.6709  -1.2698  -0.5927  -0.1308  -0.1148   0.2678   0.5411   0.5448
     1.0252   1.6247   2.2421   2.6876

          k = 0.2732 0.4739 0.0000 ( 12181 PWs)   bands (ev):

   -66.9403 -66.9401 -34.1825 -34.1813 -33.5138 -33.5050 -33.4498 -33.4484
   -18.7348 -18.7343 -18.7193 -18.7186 -18.7137 -18.7133 -18.6796 -18.6793
   -18.6695 -18.6695 -18.6483 -18.6481 -18.6073 -18.6073  -6.9139  -1.3481
    -0.8409  -0.7241  -0.6994  -0.6278   0.0923   0.5359   1.2078   1.3192
     1.3246   1.4696   1.8555   2.2061

          k = 0.2730 0.5793 0.0000 ( 12212 PWs)   bands (ev):

   -66.9194 -66.9192 -34.2043 -34.2029 -33.6569 -33.6554 -33.4830 -33.4750
   -18.7338 -18.7332 -18.7217 -18.7213 -18.7136 -18.7130 -18.6810 -18.6810
   -18.6727 -18.6725 -18.6531 -18.6529 -18.5969 -18.5969  -6.3685  -1.1033
    -1.0082  -0.8607  -0.6963  -0.4889   0.5592   1.0185   1.2029   1.4711
     1.6028   1.7399   1.8740   1.8753

          k = 0.2729 0.6847 0.0000 ( 12223 PWs)   bands (ev):

   -66.9189 -66.9187 -34.2168 -34.2153 -33.6475 -33.6467 -33.4834 -33.4734
   -18.7373 -18.7367 -18.7183 -18.7180 -18.7129 -18.7122 -18.6810 -18.6809
   -18.6722 -18.6721 -18.6541 -18.6540 -18.5968 -18.5968  -6.3619  -1.1166
    -1.0452  -0.8464  -0.7143  -0.4507   0.5665   1.1408   1.2264   1.2765
     1.6112   1.7430   1.8795   1.8806

          k = 0.2743-0.4746 0.0000 ( 12168 PWs)   bands (ev):

   -66.9389 -66.9386 -34.2072 -34.2053 -33.5145 -33.5020 -33.4340 -33.4335
   -18.7401 -18.7394 -18.7170 -18.7168 -18.7090 -18.7087 -18.6800 -18.6799
   -18.6689 -18.6689 -18.6498 -18.6497 -18.6072 -18.6072  -6.9001  -1.3827
    -0.8405  -0.7903  -0.7212  -0.5330   0.0936   0.5766   1.2170   1.3317
     1.3370   1.4772   1.8242   2.0329

          k = 0.2742-0.3692 0.0000 ( 12174 PWs)   bands (ev):

   -66.9739 -66.9736 -34.0975 -34.0954 -33.5669 -33.5509 -33.1549 -33.1543
   -18.7368 -18.7361 -18.7255 -18.7253 -18.7026 -18.7023 -18.6844 -18.6843
   -18.6500 -18.6499 -18.6466 -18.6466 -18.6253 -18.6253  -7.6343  -2.0857
    -1.6582  -1.3442  -0.5085  -0.1291  -0.1252   0.3729   0.5545   0.5581
     1.0344   1.4159   2.2393   2.7059

          k = 0.2741-0.2638 0.0000 ( 12183 PWs)   bands (ev):

   -67.0144 -67.0141 -33.8831 -33.8809 -33.6270 -33.6084 -32.9183 -32.9175
   -18.7346 -18.7344 -18.7288 -18.7281 -18.6972 -18.6968 -18.6856 -18.6853
   -18.6552 -18.6552 -18.6467 -18.6467 -18.6224 -18.6224  -8.3060  -3.1430
    -2.6659  -1.4162  -0.2661  -0.1829  -0.1796  -0.0823   0.5684   0.6039
     0.6436   1.2044   2.3201   3.1737

          k = 0.2739-0.1584 0.0000 ( 12178 PWs)   bands (ev):

   -67.0496 -67.0492 -33.6790 -33.6585 -33.6161 -33.6145 -32.7935 -32.7926
   -18.7410 -18.7409 -18.7194 -18.7188 -18.6920 -18.6915 -18.6856 -18.6854
   -18.6662 -18.6661 -18.6612 -18.6611 -18.6056 -18.6055  -8.7958  -3.7874
    -3.1838  -1.3455  -0.7301  -0.7266  -0.0465  -0.0346   0.1962   0.6924
     0.9608   1.4023   2.1018   3.6343

          k = 0.2738-0.0530 0.0000 ( 12211 PWs)   bands (ev):

   -67.0701 -67.0696 -33.7086 -33.6877 -33.4041 -33.4028 -32.7780 -32.7774
   -18.7444 -18.7441 -18.7123 -18.7119 -18.6903 -18.6900 -18.6856 -18.6855
   -18.6748 -18.6747 -18.6656 -18.6656 -18.5986 -18.5985  -9.0518  -4.0304
    -3.2734  -1.1403  -1.0182  -1.0147  -0.0829  -0.0301  -0.0080   0.3727
     0.4540   2.0610   2.1268   3.6056

          k = 0.2737 0.0524 0.0000 ( 12207 PWs)   bands (ev):

   -67.0706 -67.0702 -33.7088 -33.6887 -33.4002 -33.3997 -32.7771 -32.7767
   -18.7455 -18.7452 -18.7114 -18.7113 -18.6900 -18.6898 -18.6853 -18.6851
   -18.6745 -18.6744 -18.6659 -18.6659 -18.5987 -18.5987  -9.0540  -4.0363
    -3.2791  -1.1601  -1.0206  -1.0170  -0.0778  -0.0556  -0.0099   0.3226
     0.5126   2.0495   2.1217   3.6212

          k = 0.3647 0.2103 0.0000 ( 12213 PWs)   bands (ev):

   -66.9962 -66.9959 -34.0870 -34.0862 -33.5973 -33.5837 -32.9076 -32.9068
   -18.7383 -18.7381 -18.7309 -18.7307 -18.7048 -18.7045 -18.6794 -18.6791
   -18.6506 -18.6506 -18.6361 -18.6361 -18.6258 -18.6257  -7.9786  -3.4232
    -3.1856  -1.5814  -0.7273  -0.1746   0.1759   0.1795   0.2428   0.7961
     1.7294   2.5259   2.6603   3.3423

          k = 0.3646 0.3157 0.0000 ( 12216 PWs)   bands (ev):

   -66.9686 -66.9684 -34.2560 -34.2552 -33.5556 -33.5451 -33.0394 -33.0385
   -18.7371 -18.7364 -18.7329 -18.7319 -18.7115 -18.7112 -18.6777 -18.6775
   -18.6464 -18.6463 -18.6390 -18.6388 -18.6211 -18.6210  -7.4656  -3.1094
    -2.9694  -1.6040  -0.9945  -0.8320   0.7151   0.7292   0.7329   1.1302
     2.2164   2.7349   2.8517   2.9536

          k = 0.3645 0.4211 0.0000 ( 12210 PWs)   bands (ev):

   -66.9406 -66.9405 -34.3031 -34.3023 -33.5137 -33.5058 -33.3111 -33.3099
   -18.7375 -18.7371 -18.7243 -18.7235 -18.7166 -18.7162 -18.6763 -18.6760
   -18.6609 -18.6608 -18.6461 -18.6459 -18.6070 -18.6070  -6.8729  -2.1715
    -2.0825  -1.3856  -1.1904  -0.9602   1.2172   1.3517   1.3574   1.4807
     1.8028   1.9688   2.4889   2.7173

          k = 0.3644 0.5265 0.0000 ( 12220 PWs)   bands (ev):

   -66.9198 -66.9196 -34.2023 -34.2014 -33.6558 -33.6541 -33.4832 -33.4759
   -18.7333 -18.7330 -18.7218 -18.7212 -18.7140 -18.7132 -18.6811 -18.6811
   -18.6724 -18.6722 -18.6533 -18.6531 -18.5970 -18.5970  -6.3726  -1.1049
    -0.9958  -0.8527  -0.6519  -0.5392   0.5657   1.0253   1.1873   1.4634
     1.5964   1.7373   1.8705   1.8721

          k = 0.3642 0.6319 0.0000 ( 12193 PWs)   bands (ev):

   -66.9117 -66.9115 -33.9865 -33.9842 -33.9657 -33.9645 -33.4724 -33.4634
   -18.7302 -18.7294 -18.7250 -18.7245 -18.7084 -18.7077 -18.6892 -18.6892
   -18.6645 -18.6644 -18.6640 -18.6638 -18.5933 -18.5933  -6.1686  -0.4964
    -0.4903  -0.2868  -0.1393   0.2113   0.4136   0.5040   0.5169   0.5401
     0.7367   1.8391   2.0752   2.0755

          k = 0.3641 0.7373 0.0000 ( 12224 PWs)   bands (ev):

   -66.9186 -66.9184 -34.2252 -34.2228 -33.6418 -33.6408 -33.4839 -33.4721
   -18.7386 -18.7377 -18.7184 -18.7181 -18.7111 -18.7106 -18.6797 -18.6796
   -18.6743 -18.6742 -18.6537 -18.6535 -18.5968 -18.5968  -6.3591  -1.1156
    -1.0725  -0.8378  -0.7703  -0.3377   0.5622   1.1208   1.2035   1.2851
     1.6390   1.7443   1.8818   1.8831

          k = 0.3655-0.4220 0.0000 ( 12206 PWs)   bands (ev):

   -66.9386 -66.9383 -34.3261 -34.3235 -33.5147 -33.5004 -33.3036 -33.3027
   -18.7426 -18.7416 -18.7199 -18.7197 -18.7141 -18.7138 -18.6794 -18.6790
   -18.6588 -18.6587 -18.6468 -18.6467 -18.6068 -18.6068  -6.8544  -2.1853
    -2.0703  -1.5355  -1.1974  -0.7406   1.1738   1.3687   1.3742   1.4911
     1.7891   2.1017   2.2687   2.4851

          k = 0.3654-0.3166 0.0000 ( 12198 PWs)   bands (ev):

   -66.9663 -66.9659 -34.2762 -34.2734 -33.5560 -33.5395 -33.0383 -33.0374
   -18.7408 -18.7398 -18.7287 -18.7285 -18.7097 -18.7094 -18.6815 -18.6809
   -18.6462 -18.6461 -18.6376 -18.6375 -18.6210 -18.6210  -7.4489  -3.1100
    -2.9546  -1.7095  -0.8302  -0.7863   0.6471   0.7454   0.7489   1.1414
     2.3012   2.5284   2.8290   3.0386

          k = 0.3653-0.2112 0.0000 ( 12216 PWs)   bands (ev):

   -66.9942 -66.9938 -34.1017 -34.0991 -33.5972 -33.5792 -32.9101 -32.9092
   -18.7351 -18.7342 -18.7333 -18.7333 -18.7040 -18.7036 -18.6833 -18.6828
   -18.6503 -18.6503 -18.6360 -18.6360 -18.6246 -18.6245  -7.9668  -3.4126
    -3.1709  -1.6402  -0.5544  -0.1637   0.1879   0.1914   0.2020   0.8051
     1.8154   2.2937   2.7774   3.3136

          k = 0.3651-0.1058 0.0000 ( 12187 PWs)   bands (ev):

   -67.0148 -67.0145 -33.8791 -33.8768 -33.6273 -33.6089 -32.9196 -32.9188
   -18.7347 -18.7346 -18.7283 -18.7276 -18.6978 -18.6974 -18.6855 -18.6852
   -18.6552 -18.6551 -18.6469 -18.6468 -18.6223 -18.6222  -8.3087  -3.1441
    -2.6679  -1.4147  -0.2717  -0.1857  -0.1823  -0.0699   0.5664   0.6104
     0.6480   1.2057   2.3191   3.1682

          k = 0.3650-0.0004 0.0000 ( 12213 PWs)   bands (ev):

   -67.0228 -67.0225 -33.7605 -33.7589 -33.6383 -33.6205 -32.9589 -32.9584
   -18.7356 -18.7353 -18.7248 -18.7245 -18.6947 -18.6944 -18.6860 -18.6858
   -18.6573 -18.6572 -18.6503 -18.6503 -18.6240 -18.6240  -8.4291  -2.8623
    -1.9399  -0.9476  -0.6787  -0.6438  -0.3179  -0.3145   0.0057   0.4792
     0.7093   1.0393   2.2364   2.9218

          k = 0.3649 0.1050 0.0000 ( 12194 PWs)   bands (ev):

   -67.0160 -67.0157 -33.8713 -33.8704 -33.6274 -33.6113 -32.9170 -32.9163
   -18.7378 -18.7374 -18.7263 -18.7262 -18.6976 -18.6974 -18.6828 -18.6826
   -18.6556 -18.6556 -18.6468 -18.6467 -18.6232 -18.6231  -8.3148  -3.1547
    -2.6756  -1.3932  -0.3359  -0.1919  -0.1886  -0.1025   0.5134   0.5616
     0.5955   1.3961   2.3054   3.1937

          k = 0.4559 0.2629 0.0000 ( 12224 PWs)   bands (ev):

   -66.9558 -66.9556 -34.4253 -34.4245 -33.5361 -33.5272 -32.9900 -32.9892
   -18.7421 -18.7417 -18.7353 -18.7344 -18.7158 -18.7156 -18.6736 -18.6734
   -18.6428 -18.6428 -18.6360 -18.6358 -18.6140 -18.6140  -7.1435  -3.5985
    -3.5187  -1.7647  -1.5091  -1.3568   1.0576   1.0613   1.2480   1.3086
     2.8181   3.1235   3.5781   4.1406

          k = 0.4558 0.3683 0.0000 ( 12236 PWs)   bands (ev):

   -66.9409 -66.9407 -34.4766 -34.4758 -33.5134 -33.5064 -33.1055 -33.1045
   -18.7429 -18.7425 -18.7318 -18.7310 -18.7195 -18.7193 -18.6723 -18.6721
   -18.6469 -18.6467 -18.6409 -18.6408 -18.6062 -18.6062  -6.7813  -3.2995
    -3.2500  -1.8380  -1.6927  -1.4357   1.4232   1.4296   1.5056   1.8444
     2.6689   2.7620   3.4788   3.7487

          k = 0.4557 0.4737 0.0000 ( 12240 PWs)   bands (ev):

   -66.9276 -66.9275 -34.3882 -34.3874 -33.4943 -33.4873 -33.3624 -33.3612
   -18.7399 -18.7396 -18.7230 -18.7223 -18.7205 -18.7203 -18.6717 -18.6716
   -18.6647 -18.6646 -18.6468 -18.6467 -18.6002 -18.6002  -6.5027  -2.2883
    -2.2335  -1.6780  -1.3339  -1.1570   1.6515   1.6562   1.7221   1.7260
     2.1050   2.2867   2.3331   2.7103

          k = 0.4555 0.5791 0.0000 ( 12217 PWs)   bands (ev):

   -66.9196 -66.9194 -34.2105 -34.2096 -33.6487 -33.6475 -33.4838 -33.4748
   -18.7364 -18.7360 -18.7188 -18.7183 -18.7134 -18.7126 -18.6810 -18.6810
   -18.6718 -18.6716 -18.6543 -18.6542 -18.5970 -18.5970  -6.3699  -1.1103
    -1.0254  -0.8380  -0.6714  -0.4984   0.5687   1.1031   1.1977   1.3434
     1.5976   1.7385   1.8727   1.8744

          k = 0.4554 0.6845 0.0000 ( 12225 PWs)   bands (ev):

   -66.9189 -66.9187 -34.2211 -34.2186 -33.6441 -33.6429 -33.4841 -33.4726
   -18.7381 -18.7372 -18.7189 -18.7184 -18.7113 -18.7107 -18.6797 -18.6796
   -18.6743 -18.6741 -18.6537 -18.6536 -18.5969 -18.5969  -6.3631  -1.1077
    -1.0651  -0.8376  -0.7637  -0.3433   0.5579   1.0761   1.2089   1.3331
     1.6405   1.7423   1.8785   1.8800

          k = 0.4553 0.7899 0.0000 ( 12238 PWs)   bands (ev):

   -66.9258 -66.9255 -34.4060 -34.4031 -33.4956 -33.4822 -33.3593 -33.3582
   -18.7436 -18.7425 -18.7203 -18.7199 -18.7184 -18.7182 -18.6762 -18.6757
   -18.6622 -18.6620 -18.6465 -18.6464 -18.5999 -18.5999  -6.4848  -2.3000
    -2.2282  -1.6787  -1.5693  -0.8303   1.6351   1.6624   1.7376   1.7401
     1.7481   2.2527   2.5586   2.7295

          k = 0.4567-0.3694 0.0000 ( 12223 PWs)   bands (ev):

   -66.9383 -66.9380 -34.4956 -34.4926 -33.5146 -33.4994 -33.1070 -33.1060
   -18.7468 -18.7457 -18.7268 -18.7265 -18.7191 -18.7188 -18.6771 -18.6764
   -18.6439 -18.6437 -18.6412 -18.6412 -18.6059 -18.6058  -6.7594  -3.3112
    -3.2337  -1.8961  -1.8384  -1.1240   1.4432   1.4491   1.5177   1.5435
     2.6411   3.1388   3.3697   3.7234

          k = 0.4566-0.2640 0.0000 ( 12218 PWs)   bands (ev):

   -66.9533 -66.9529 -34.4423 -34.4393 -33.5368 -33.5207 -32.9941 -32.9931
   -18.7453 -18.7441 -18.7304 -18.7302 -18.7158 -18.7155 -18.6786 -18.6778
   -18.6419 -18.6418 -18.6344 -18.6342 -18.6137 -18.6137  -7.1249  -3.5998
    -3.5028  -1.9204  -1.5039  -1.0858   1.0752   1.0788   1.0866   1.3205
     2.9610   3.0919   3.4845   4.2464

          k = 0.4564-0.1587 0.0000 ( 12204 PWs)   bands (ev):

   -66.9666 -66.9662 -34.2730 -34.2703 -33.5562 -33.5399 -33.0396 -33.0386
   -18.7404 -18.7394 -18.7287 -18.7286 -18.7101 -18.7097 -18.6815 -18.6810
   -18.6462 -18.6462 -18.6376 -18.6375 -18.6210 -18.6210  -7.4517  -3.1089
    -2.9561  -1.7075  -0.8244  -0.7861   0.6552   0.7427   0.7462   1.1397
     2.3040   2.5305   2.8246   3.0441

          k = 0.4563-0.0533 0.0000 ( 12182 PWs)   bands (ev):

   -66.9746 -66.9743 -34.0905 -34.0883 -33.5675 -33.5519 -33.1573 -33.1566
   -18.7361 -18.7354 -18.7257 -18.7254 -18.7033 -18.7030 -18.6843 -18.6841
   -18.6502 -18.6501 -18.6463 -18.6462 -18.6254 -18.6254  -7.6400  -2.0855
    -1.6620  -1.3394  -0.5154  -0.1133  -0.1114   0.3816   0.5489   0.5525
     1.0307   1.4272   2.2314   2.6963

          k = 0.4562 0.0521 0.0000 ( 12181 PWs)   bands (ev):

   -66.9753 -66.9750 -34.0857 -34.0845 -33.5674 -33.5534 -33.1562 -33.1555
   -18.7355 -18.7349 -18.7278 -18.7271 -18.7027 -18.7024 -18.6823 -18.6820
   -18.6509 -18.6508 -18.6467 -18.6466 -18.6256 -18.6256  -7.6441  -2.0967
    -1.6590  -1.2721  -0.5516  -0.1745  -0.1229   0.2679   0.5448   0.5485
     1.0277   1.5906   2.2476   2.7194

          k = 0.4561 0.1575 0.0000 ( 12214 PWs)   bands (ev):

   -66.9684 -66.9682 -34.2608 -34.2600 -33.5559 -33.5443 -33.0360 -33.0352
   -18.7385 -18.7381 -18.7329 -18.7321 -18.7094 -18.7092 -18.6769 -18.6767
   -18.6472 -18.6472 -18.6389 -18.6387 -18.6214 -18.6213  -7.4637  -3.1149
    -2.9635  -1.6042  -0.9894  -0.8359   0.6895   0.7310   0.7346   1.1313
     2.2220   2.7507   2.8547   2.9540

          k =-0.5471-0.3155 0.0000 ( 12234 PWs)   bands (ev):

   -66.9410 -66.9408 -34.5464 -34.5456 -33.5132 -33.5067 -33.0199 -33.0191
   -18.7455 -18.7451 -18.7350 -18.7342 -18.7204 -18.7202 -18.6710 -18.6708
   -18.6414 -18.6413 -18.6374 -18.6373 -18.6058 -18.6058  -6.7317  -3.7079
    -3.6679  -2.0964  -1.8107  -1.6260   1.4603   1.4675   1.5189   2.1373
     2.5777   3.0459   4.2459   4.3900

          k =-0.5472-0.2101 0.0000 ( 12230 PWs)   bands (ev):

   -66.9408 -66.9406 -34.4783 -34.4775 -33.5136 -33.5060 -33.1043 -33.1034
   -18.7436 -18.7433 -18.7318 -18.7310 -18.7187 -18.7185 -18.6719 -18.6718
   -18.6469 -18.6468 -18.6412 -18.6411 -18.6063 -18.6062  -6.7803  -3.3037
    -3.2461  -1.8397  -1.6927  -1.4352   1.4240   1.4304   1.5062   1.8271
     2.6700   2.7780   3.5439   3.6503

          k =-0.5474-0.1047 0.0000 ( 12214 PWs)   bands (ev):

   -66.9404 -66.9401 -34.3105 -34.3096 -33.5144 -33.5045 -33.3054 -33.3045
   -18.7403 -18.7399 -18.7239 -18.7232 -18.7135 -18.7133 -18.6753 -18.6751
   -18.6609 -18.6608 -18.6474 -18.6473 -18.6071 -18.6071  -6.8697  -2.1877
    -2.0695  -1.3862  -1.1966  -0.9492   1.1787   1.3544   1.3602   1.4824
     1.8065   1.9726   2.4986   2.6957

          k =-0.5475 0.0007 0.0000 ( 12178 PWs)   bands (ev):

   -66.9397 -66.9394 -34.1992 -34.1974 -33.5150 -33.5029 -33.4367 -33.4362
   -18.7392 -18.7386 -18.7175 -18.7170 -18.7096 -18.7094 -18.6797 -18.6795
   -18.6688 -18.6688 -18.6499 -18.6497 -18.6074 -18.6074  -6.9084  -1.3741
    -0.8317  -0.7672  -0.7083  -0.5503   0.0910   0.5644   1.2117   1.3240
     1.3295   1.4729   1.8409   2.0533

          k =-0.5476 0.1061 0.0000 ( 12205 PWs)   bands (ev):

   -66.9390 -66.9387 -34.3215 -34.3189 -33.5150 -33.5010 -33.3057 -33.3047
   -18.7420 -18.7411 -18.7200 -18.7198 -18.7146 -18.7143 -18.6794 -18.6790
   -18.6588 -18.6586 -18.6468 -18.6467 -18.6069 -18.6069  -6.8592  -2.1808
    -2.0729  -1.5325  -1.1883  -0.7408   1.1874   1.3643   1.3699   1.4888
     1.7836   2.1065   2.2750   2.4799

          k =-0.5478 0.2115 0.0000 ( 12228 PWs)   bands (ev):

   -66.9385 -66.9381 -34.4944 -34.4914 -33.5147 -33.4996 -33.1075 -33.1065
   -18.7467 -18.7455 -18.7268 -18.7266 -18.7192 -18.7189 -18.6771 -18.6764
   -18.6440 -18.6438 -18.6412 -18.6412 -18.6059 -18.6059  -6.7609  -3.3103
    -3.2343  -1.8952  -1.8358  -1.1233   1.4419   1.4478   1.5171   1.5459
     2.6394   3.1328   3.3661   3.7580

          k =-0.5463-0.9479 0.0000 ( 12246 PWs)   bands (ev):

   -66.9382 -66.9379 -34.5641 -34.5610 -33.5146 -33.4991 -33.0245 -33.0236
   -18.7489 -18.7477 -18.7298 -18.7296 -18.7206 -18.7204 -18.6762 -18.6754
   -18.6389 -18.6389 -18.6371 -18.6369 -18.6054 -18.6053  -6.7086  -3.7175
    -3.6485  -2.0954  -2.0410  -1.2820   1.4816   1.4879   1.5313   1.6448
     3.0132   3.2667   3.8294   4.2082

     the Fermi energy is     0.5633 ev

!    total energy              =   -1374.46435134 Ry
     estimated scf accuracy    <          8.5E-13 Ry
     smearing contrib. (-TS)   =      -0.00003549 Ry
     internal energy E=F+TS    =   -1374.46431586 Ry

     The total energy is F=E-TS. E is the sum of the following terms:
     one-electron contribution =   -8927.21705311 Ry
     hartree contribution      =    4495.17607888 Ry
     xc contribution           =    -138.90156030 Ry
     ewald contribution        =    3196.47821868 Ry

     convergence has been achieved in  47 iterations

     Forces acting on atoms (cartesian axes, Ry/au):

     atom    1 type  2   force =     0.00000065   -0.00000068   -0.00000105
     atom    2 type  1   force =    -0.00350792   -0.00370667   -0.03476080
     atom    3 type  1   force =     0.00350794    0.00370668    0.03476022
     atom    4 type  3   force =    -0.00000042    0.00000073    0.00009725
     atom    5 type  3   force =    -0.00000024   -0.00000007   -0.00009562

     Total force =     0.049686     Total SCF correction =     0.000005


     Computing stress (Cartesian axis) and pressure

          total   stress  (Ry/bohr**3)                   (kbar)     P=      -36.35
  -0.00028065   0.00004586  -0.00002004          -41.28        6.75       -2.95
   0.00004586  -0.00025488  -0.00002119            6.75      -37.49       -3.12
  -0.00002004  -0.00002119  -0.00020573           -2.95       -3.12      -30.26


     BFGS Geometry Optimization
     Energy error            =      0.0E+00 Ry
     Gradient error          =      3.5E-02 Ry/Bohr

     number of scf cycles    =   1
     number of bfgs steps    =   0

     energy             new  =   -1374.4643513438 Ry

     new trust radius        =       0.0351334336 bohr
     new conv_thr            =            1.0E-12 Ry


ATOMIC_POSITIONS (alat)
C             0.0000001167       -0.0000001226       -0.0000001900
Ta            0.3754266417        0.2650435323       -4.3707742073
Ta           -0.3055334394        0.5296197706        4.3707951034
H            -0.3061655752        0.5289520316        8.3419475227
H             0.3760586562        0.2657113882       -8.3419472287



     Writing output data file /scratch/as3359/Ta2CH2-VCrelax/Ta.save/
     NEW-OLD atomic charge density approx. for the potential

     total cpu time spent up to now is      687.7 secs

     Self-consistent Calculation

     iteration #  1     ecut=    70.00 Ry     beta= 0.70
     Davidson diagonalization with overlap
     ethr =  1.00E-06,  avg # of iterations =  7.9

     total cpu time spent up to now is      716.3 secs

     total energy              =   -1374.46602959 Ry
     estimated scf accuracy    <       0.00114298 Ry

     iteration #  2     ecut=    70.00 Ry     beta= 0.70
     Davidson diagonalization with overlap
     ethr =  1.90E-06,  avg # of iterations =  4.3

     total cpu time spent up to now is      733.9 secs

     total energy              =   -1374.46139202 Ry
     estimated scf accuracy    <       0.41928133 Ry

     iteration #  3     ecut=    70.00 Ry     beta= 0.70
     Davidson diagonalization with overlap
     ethr =  1.90E-06,  avg # of iterations =  2.0

     total cpu time spent up to now is      746.9 secs

     total energy              =   -1374.46190469 Ry
     estimated scf accuracy    <       1.18704145 Ry

     iteration #  4     ecut=    70.00 Ry     beta= 0.70
     Davidson diagonalization with overlap
     ethr =  1.90E-06,  avg # of iterations =  3.3

     total cpu time spent up to now is      761.4 secs

     total energy              =   -1374.46253124 Ry
     estimated scf accuracy    <       0.19140807 Ry

     iteration #  5     ecut=    70.00 Ry     beta= 0.70
     Davidson diagonalization with overlap
     ethr =  1.90E-06,  avg # of iterations =  2.9

     total cpu time spent up to now is      775.6 secs

     total energy              =   -1374.46693669 Ry
     estimated scf accuracy    <       0.07993491 Ry

     iteration #  6     ecut=    70.00 Ry     beta= 0.70
     Davidson diagonalization with overlap
     ethr =  1.90E-06,  avg # of iterations =  1.0

     total cpu time spent up to now is      787.8 secs

     total energy              =   -1374.46697490 Ry
     estimated scf accuracy    <       0.02951377 Ry

     iteration #  7     ecut=    70.00 Ry     beta= 0.70
     Davidson diagonalization with overlap
     ethr =  1.90E-06,  avg # of iterations =  1.0

     total cpu time spent up to now is      800.1 secs

     total energy              =   -1374.46698126 Ry
     estimated scf accuracy    <       0.02808801 Ry

     iteration #  8     ecut=    70.00 Ry     beta= 0.70
     Davidson diagonalization with overlap
     ethr =  1.90E-06,  avg # of iterations =  1.0

     total cpu time spent up to now is      812.4 secs

     total energy              =   -1374.46696856 Ry
     estimated scf accuracy    <       0.02721299 Ry

     iteration #  9     ecut=    70.00 Ry     beta= 0.70
     Davidson diagonalization with overlap
     ethr =  1.90E-06,  avg # of iterations =  1.0

     total cpu time spent up to now is      824.7 secs

     total energy              =   -1374.46691665 Ry
     estimated scf accuracy    <       0.02434840 Ry

     iteration # 10     ecut=    70.00 Ry     beta= 0.70
     Davidson diagonalization with overlap
     ethr =  1.90E-06,  avg # of iterations =  1.0

     total cpu time spent up to now is      836.9 secs

     total energy              =   -1374.46639052 Ry
     estimated scf accuracy    <       0.01406893 Ry

     iteration # 11     ecut=    70.00 Ry     beta= 0.70
     Davidson diagonalization with overlap
     ethr =  1.90E-06,  avg # of iterations =  2.0

     total cpu time spent up to now is      850.1 secs

     total energy              =   -1374.46788840 Ry
     estimated scf accuracy    <       0.32923760 Ry

     iteration # 12     ecut=    70.00 Ry     beta= 0.70
     Davidson diagonalization with overlap
     ethr =  1.90E-06,  avg # of iterations =  1.0

     total cpu time spent up to now is      862.4 secs

     total energy              =   -1374.46858078 Ry
     estimated scf accuracy    <       0.23549380 Ry

     iteration # 13     ecut=    70.00 Ry     beta= 0.70
     Davidson diagonalization with overlap
     ethr =  1.90E-06,  avg # of iterations =  1.0

     total cpu time spent up to now is      874.5 secs

     total energy              =   -1374.46605609 Ry
     estimated scf accuracy    <       0.28079536 Ry

     iteration # 14     ecut=    70.00 Ry     beta= 0.70
     Davidson diagonalization with overlap
     ethr =  1.90E-06,  avg # of iterations =  1.0

     total cpu time spent up to now is      886.8 secs

     total energy              =   -1374.46698148 Ry
     estimated scf accuracy    <       0.01697387 Ry

     iteration # 15     ecut=    70.00 Ry     beta= 0.70
     Davidson diagonalization with overlap
     ethr =  1.90E-06,  avg # of iterations =  1.0

     total cpu time spent up to now is      899.1 secs

     total energy              =   -1374.46621351 Ry
     estimated scf accuracy    <       0.05847562 Ry

     iteration # 16     ecut=    70.00 Ry     beta= 0.70
     Davidson diagonalization with overlap
     ethr =  1.90E-06,  avg # of iterations =  1.0

     total cpu time spent up to now is      911.4 secs

     total energy              =   -1374.46694369 Ry
     estimated scf accuracy    <       0.11470658 Ry

     iteration # 17     ecut=    70.00 Ry     beta= 0.70
     Davidson diagonalization with overlap
     ethr =  1.90E-06,  avg # of iterations =  1.0

     total cpu time spent up to now is      923.6 secs

     total energy              =   -1374.46683172 Ry
     estimated scf accuracy    <       0.06011549 Ry

     iteration # 18     ecut=    70.00 Ry     beta= 0.70
     Davidson diagonalization with overlap
     ethr =  1.90E-06,  avg # of iterations =  4.0

     total cpu time spent up to now is      937.4 secs

     total energy              =   -1374.46630610 Ry
     estimated scf accuracy    <       0.06441520 Ry

     iteration # 19     ecut=    70.00 Ry     beta= 0.70
     Davidson diagonalization with overlap
     ethr =  1.90E-06,  avg # of iterations =  2.9

     total cpu time spent up to now is      950.6 secs

     total energy              =   -1374.46687834 Ry
     estimated scf accuracy    <       0.00111122 Ry

     iteration # 20     ecut=    70.00 Ry     beta= 0.70
     Davidson diagonalization with overlap
     ethr =  1.85E-06,  avg # of iterations =  1.0

     total cpu time spent up to now is      962.8 secs

     total energy              =   -1374.46688284 Ry
     estimated scf accuracy    <       0.00210380 Ry

     iteration # 21     ecut=    70.00 Ry     beta= 0.70
     Davidson diagonalization with overlap
     ethr =  1.85E-06,  avg # of iterations =  1.0

     total cpu time spent up to now is      975.2 secs

     total energy              =   -1374.46688524 Ry
     estimated scf accuracy    <       0.00137789 Ry

     iteration # 22     ecut=    70.00 Ry     beta= 0.70
     Davidson diagonalization with overlap
     ethr =  1.85E-06,  avg # of iterations =  1.0

     total cpu time spent up to now is      987.4 secs

     total energy              =   -1374.46688380 Ry
     estimated scf accuracy    <       0.00091350 Ry

     iteration # 23     ecut=    70.00 Ry     beta= 0.70
     Davidson diagonalization with overlap
     ethr =  1.52E-06,  avg # of iterations =  1.0

     total cpu time spent up to now is      999.7 secs

     total energy              =   -1374.46688489 Ry
     estimated scf accuracy    <       0.00058837 Ry

     iteration # 24     ecut=    70.00 Ry     beta= 0.70
     Davidson diagonalization with overlap
     ethr =  9.81E-07,  avg # of iterations =  1.0

     total cpu time spent up to now is     1011.9 secs

     total energy              =   -1374.46688722 Ry
     estimated scf accuracy    <       0.00047269 Ry

     iteration # 25     ecut=    70.00 Ry     beta= 0.70
     Davidson diagonalization with overlap
     ethr =  7.88E-07,  avg # of iterations =  1.0

     total cpu time spent up to now is     1024.1 secs

     total energy              =   -1374.46689049 Ry
     estimated scf accuracy    <       0.00044653 Ry

     iteration # 26     ecut=    70.00 Ry     beta= 0.70
     Davidson diagonalization with overlap
     ethr =  7.44E-07,  avg # of iterations =  1.0

     total cpu time spent up to now is     1036.4 secs

     total energy              =   -1374.46689026 Ry
     estimated scf accuracy    <       0.00032372 Ry

     iteration # 27     ecut=    70.00 Ry     beta= 0.70
     Davidson diagonalization with overlap
     ethr =  5.40E-07,  avg # of iterations =  1.0

     total cpu time spent up to now is     1048.7 secs

     total energy              =   -1374.46689019 Ry
     estimated scf accuracy    <       0.00027169 Ry

     iteration # 28     ecut=    70.00 Ry     beta= 0.70
     Davidson diagonalization with overlap
     ethr =  4.53E-07,  avg # of iterations =  1.1

     total cpu time spent up to now is     1061.0 secs

     total energy              =   -1374.46684494 Ry
     estimated scf accuracy    <       0.00534507 Ry

     iteration # 29     ecut=    70.00 Ry     beta= 0.70
     Davidson diagonalization with overlap
     ethr =  4.53E-07,  avg # of iterations =  1.1

     total cpu time spent up to now is     1073.3 secs

     total energy              =   -1374.46687777 Ry
     estimated scf accuracy    <       0.01200427 Ry

     iteration # 30     ecut=    70.00 Ry     beta= 0.70
     Davidson diagonalization with overlap
     ethr =  4.53E-07,  avg # of iterations =  1.0

     total cpu time spent up to now is     1085.5 secs

     total energy              =   -1374.46689385 Ry
     estimated scf accuracy    <       0.00033715 Ry

     iteration # 31     ecut=    70.00 Ry     beta= 0.70
     Davidson diagonalization with overlap
     ethr =  4.53E-07,  avg # of iterations =  1.0

     total cpu time spent up to now is     1097.7 secs

     total energy              =   -1374.46686979 Ry
     estimated scf accuracy    <       0.00094530 Ry

     iteration # 32     ecut=    70.00 Ry     beta= 0.70
     Davidson diagonalization with overlap
     ethr =  4.53E-07,  avg # of iterations =  1.4

     total cpu time spent up to now is     1110.3 secs

     total energy              =   -1374.46686625 Ry
     estimated scf accuracy    <       0.00075782 Ry

     iteration # 33     ecut=    70.00 Ry     beta= 0.70
     Davidson diagonalization with overlap
     ethr =  4.53E-07,  avg # of iterations =  1.0

     total cpu time spent up to now is     1122.5 secs

     total energy              =   -1374.46646471 Ry
     estimated scf accuracy    <       0.04550961 Ry

     iteration # 34     ecut=    70.00 Ry     beta= 0.70
     Davidson diagonalization with overlap
     ethr =  4.53E-07,  avg # of iterations =  1.0

     total cpu time spent up to now is     1134.7 secs

     total energy              =   -1374.46688841 Ry
     estimated scf accuracy    <       0.00016841 Ry

     iteration # 35     ecut=    70.00 Ry     beta= 0.70
     Davidson diagonalization with overlap
     ethr =  2.81E-07,  avg # of iterations =  1.0

     total cpu time spent up to now is     1146.9 secs

     total energy              =   -1374.46688775 Ry
     estimated scf accuracy    <       0.00014340 Ry

     iteration # 36     ecut=    70.00 Ry     beta= 0.70
     Davidson diagonalization with overlap
     ethr =  2.39E-07,  avg # of iterations =  1.0

     total cpu time spent up to now is     1159.3 secs

     total energy              =   -1374.46688727 Ry
     estimated scf accuracy    <       0.00009549 Ry

     iteration # 37     ecut=    70.00 Ry     beta= 0.70
     Davidson diagonalization with overlap
     ethr =  1.59E-07,  avg # of iterations =  1.0

     total cpu time spent up to now is     1171.4 secs

     total energy              =   -1374.46688642 Ry
     estimated scf accuracy    <       0.00010290 Ry

     iteration # 38     ecut=    70.00 Ry     beta= 0.70
     Davidson diagonalization with overlap
     ethr =  1.59E-07,  avg # of iterations =  1.0

     total cpu time spent up to now is     1183.6 secs

     total energy              =   -1374.46688618 Ry
     estimated scf accuracy    <       0.00009688 Ry

     iteration # 39     ecut=    70.00 Ry     beta= 0.70
     Davidson diagonalization with overlap
     ethr =  1.59E-07,  avg # of iterations =  1.0

     total cpu time spent up to now is     1195.9 secs

     total energy              =   -1374.46688350 Ry
     estimated scf accuracy    <       0.00011346 Ry

     iteration # 40     ecut=    70.00 Ry     beta= 0.70
     Davidson diagonalization with overlap
     ethr =  1.59E-07,  avg # of iterations =  1.0

     total cpu time spent up to now is     1208.1 secs

     total energy              =   -1374.46688224 Ry
     estimated scf accuracy    <       0.00034545 Ry

     iteration # 41     ecut=    70.00 Ry     beta= 0.70
     Davidson diagonalization with overlap
     ethr =  1.59E-07,  avg # of iterations =  1.0

     total cpu time spent up to now is     1220.4 secs

     total energy              =   -1374.46688027 Ry
     estimated scf accuracy    <       0.00021571 Ry

     iteration # 42     ecut=    70.00 Ry     beta= 0.70
     Davidson diagonalization with overlap
     ethr =  1.59E-07,  avg # of iterations =  1.0

     total cpu time spent up to now is     1232.5 secs

     total energy              =   -1374.46689972 Ry
     estimated scf accuracy    <       0.00030855 Ry

     iteration # 43     ecut=    70.00 Ry     beta= 0.70
     Davidson diagonalization with overlap
     ethr =  1.59E-07,  avg # of iterations =  1.0

     total cpu time spent up to now is     1244.8 secs

     total energy              =   -1374.46689292 Ry
     estimated scf accuracy    <       0.00010297 Ry

     iteration # 44     ecut=    70.00 Ry     beta= 0.70
     Davidson diagonalization with overlap
     ethr =  1.59E-07,  avg # of iterations =  1.0

     total cpu time spent up to now is     1257.0 secs

     total energy              =   -1374.46689416 Ry
     estimated scf accuracy    <       0.00011352 Ry

     iteration # 45     ecut=    70.00 Ry     beta= 0.70
     Davidson diagonalization with overlap
     ethr =  1.59E-07,  avg # of iterations =  1.0

     total cpu time spent up to now is     1269.2 secs

     total energy              =   -1374.46689736 Ry
     estimated scf accuracy    <       0.00010267 Ry

     iteration # 46     ecut=    70.00 Ry     beta= 0.70
     Davidson diagonalization with overlap
     ethr =  1.59E-07,  avg # of iterations =  1.0

     total cpu time spent up to now is     1281.5 secs

     total energy              =   -1374.46689954 Ry
     estimated scf accuracy    <       0.00010926 Ry

     iteration # 47     ecut=    70.00 Ry     beta= 0.70
     Davidson diagonalization with overlap
     ethr =  1.59E-07,  avg # of iterations =  1.0

     total cpu time spent up to now is     1293.8 secs

     total energy              =   -1374.46690262 Ry
     estimated scf accuracy    <       0.00011368 Ry

     iteration # 48     ecut=    70.00 Ry     beta= 0.70
     Davidson diagonalization with overlap
     ethr =  1.59E-07,  avg # of iterations =  1.0

     total cpu time spent up to now is     1306.0 secs

     total energy              =   -1374.46692501 Ry
     estimated scf accuracy    <       0.00015126 Ry

     iteration # 49     ecut=    70.00 Ry     beta= 0.70
     Davidson diagonalization with overlap
     ethr =  1.59E-07,  avg # of iterations =  1.0

     total cpu time spent up to now is     1318.3 secs

     total energy              =   -1374.46689518 Ry
     estimated scf accuracy    <       0.00018981 Ry

     iteration # 50     ecut=    70.00 Ry     beta= 0.70
     Davidson diagonalization with overlap
     ethr =  1.59E-07,  avg # of iterations =  1.3

     total cpu time spent up to now is     1330.7 secs

     total energy              =   -1374.46691206 Ry
     estimated scf accuracy    <       0.00060392 Ry

     iteration # 51     ecut=    70.00 Ry     beta= 0.70
     Davidson diagonalization with overlap
     ethr =  1.59E-07,  avg # of iterations =  1.0

     total cpu time spent up to now is     1343.0 secs

     total energy              =   -1374.46681924 Ry
     estimated scf accuracy    <       0.00014298 Ry

     iteration # 52     ecut=    70.00 Ry     beta= 0.70
     Davidson diagonalization with overlap
     ethr =  1.59E-07,  avg # of iterations =  2.3

     total cpu time spent up to now is     1356.3 secs

     total energy              =   -1374.46628034 Ry
     estimated scf accuracy    <       0.08074502 Ry

     iteration # 53     ecut=    70.00 Ry     beta= 0.70
     Davidson diagonalization with overlap
     ethr =  1.59E-07,  avg # of iterations =  2.0

     total cpu time spent up to now is     1369.4 secs

     total energy              =   -1374.46688209 Ry
     estimated scf accuracy    <       0.00009165 Ry

     iteration # 54     ecut=    70.00 Ry     beta= 0.70
     Davidson diagonalization with overlap
     ethr =  1.53E-07,  avg # of iterations =  1.0

     total cpu time spent up to now is     1381.7 secs

     total energy              =   -1374.46688433 Ry
     estimated scf accuracy    <       0.00029036 Ry

     iteration # 55     ecut=    70.00 Ry     beta= 0.70
     Davidson diagonalization with overlap
     ethr =  1.53E-07,  avg # of iterations =  1.0

     total cpu time spent up to now is     1394.0 secs

     total energy              =   -1374.46687550 Ry
     estimated scf accuracy    <       0.00014826 Ry

     iteration # 56     ecut=    70.00 Ry     beta= 0.70
     Davidson diagonalization with overlap
     ethr =  1.53E-07,  avg # of iterations =  1.0

     total cpu time spent up to now is     1406.3 secs

     total energy              =   -1374.46682977 Ry
     estimated scf accuracy    <       0.00048766 Ry

     iteration # 57     ecut=    70.00 Ry     beta= 0.70
     Davidson diagonalization with overlap
     ethr =  1.53E-07,  avg # of iterations =  1.0

     total cpu time spent up to now is     1418.5 secs

     total energy              =   -1374.46673731 Ry
     estimated scf accuracy    <       0.07564750 Ry

     iteration # 58     ecut=    70.00 Ry     beta= 0.70
     Davidson diagonalization with overlap
     ethr =  1.53E-07,  avg # of iterations =  1.0

     total cpu time spent up to now is     1430.9 secs

     total energy              =   -1374.46687012 Ry
     estimated scf accuracy    <       0.00114644 Ry

     iteration # 59     ecut=    70.00 Ry     beta= 0.70
     Davidson diagonalization with overlap
     ethr =  1.53E-07,  avg # of iterations =  1.0

     total cpu time spent up to now is     1443.1 secs

     total energy              =   -1374.46684423 Ry
     estimated scf accuracy    <       0.00114381 Ry

     iteration # 60     ecut=    70.00 Ry     beta= 0.70
     Davidson diagonalization with overlap
     ethr =  1.53E-07,  avg # of iterations =  1.0

     total cpu time spent up to now is     1455.5 secs

     total energy              =   -1374.46687817 Ry
     estimated scf accuracy    <       0.00043532 Ry

     iteration # 61     ecut=    70.00 Ry     beta= 0.70
     Davidson diagonalization with overlap
     ethr =  1.53E-07,  avg # of iterations =  1.0

     total cpu time spent up to now is     1467.7 secs

     total energy              =   -1374.46687827 Ry
     estimated scf accuracy    <       0.00042300 Ry

     iteration # 62     ecut=    70.00 Ry     beta= 0.70
     Davidson diagonalization with overlap
     ethr =  1.53E-07,  avg # of iterations =  1.0

     total cpu time spent up to now is     1480.1 secs

     total energy              =   -1374.46687627 Ry
     estimated scf accuracy    <       0.00042196 Ry

     iteration # 63     ecut=    70.00 Ry     beta= 0.70
     Davidson diagonalization with overlap
     ethr =  1.53E-07,  avg # of iterations =  1.0

     total cpu time spent up to now is     1492.3 secs

     total energy              =   -1374.46687197 Ry
     estimated scf accuracy    <       0.00052545 Ry

     iteration # 64     ecut=    70.00 Ry     beta= 0.70
     Davidson diagonalization with overlap
     ethr =  1.53E-07,  avg # of iterations =  1.0

     total cpu time spent up to now is     1504.4 secs

     total energy              =   -1374.46687298 Ry
     estimated scf accuracy    <       0.00055396 Ry

     iteration # 65     ecut=    70.00 Ry     beta= 0.70
     Davidson diagonalization with overlap
     ethr =  1.53E-07,  avg # of iterations =  1.0

     total cpu time spent up to now is     1516.7 secs

     total energy              =   -1374.46687054 Ry
     estimated scf accuracy    <       0.00058859 Ry

     iteration # 66     ecut=    70.00 Ry     beta= 0.70
     Davidson diagonalization with overlap
     ethr =  1.53E-07,  avg # of iterations =  1.0

     total cpu time spent up to now is     1529.0 secs

     total energy              =   -1374.46687728 Ry
     estimated scf accuracy    <       0.00049435 Ry

     iteration # 67     ecut=    70.00 Ry     beta= 0.70
     Davidson diagonalization with overlap
     ethr =  1.53E-07,  avg # of iterations =  1.0

     total cpu time spent up to now is     1541.1 secs

     total energy              =   -1374.46687954 Ry
     estimated scf accuracy    <       0.00046067 Ry

     iteration # 68     ecut=    70.00 Ry     beta= 0.70
     Davidson diagonalization with overlap
     ethr =  1.53E-07,  avg # of iterations =  1.0

     total cpu time spent up to now is     1553.4 secs

     total energy              =   -1374.46689589 Ry
     estimated scf accuracy    <       0.00035683 Ry

     iteration # 69     ecut=    70.00 Ry     beta= 0.70
     Davidson diagonalization with overlap
     ethr =  1.53E-07,  avg # of iterations =  1.0

     total cpu time spent up to now is     1565.6 secs

     total energy              =   -1374.46688930 Ry
     estimated scf accuracy    <       0.00011272 Ry

     iteration # 70     ecut=    70.00 Ry     beta= 0.70
     Davidson diagonalization with overlap
     ethr =  1.53E-07,  avg # of iterations =  1.0

     total cpu time spent up to now is     1577.9 secs

     total energy              =   -1374.46689024 Ry
     estimated scf accuracy    <       0.00009400 Ry

     iteration # 71     ecut=    70.00 Ry     beta= 0.70
     Davidson diagonalization with overlap
     ethr =  1.53E-07,  avg # of iterations =  1.0

     total cpu time spent up to now is     1590.2 secs

     total energy              =   -1374.46689121 Ry
     estimated scf accuracy    <       0.00009548 Ry

     iteration # 72     ecut=    70.00 Ry     beta= 0.70
     Davidson diagonalization with overlap
     ethr =  1.53E-07,  avg # of iterations =  1.0

     total cpu time spent up to now is     1602.4 secs

     total energy              =   -1374.46689409 Ry
     estimated scf accuracy    <       0.00009793 Ry

     iteration # 73     ecut=    70.00 Ry     beta= 0.70
     Davidson diagonalization with overlap
     ethr =  1.53E-07,  avg # of iterations =  1.0

     total cpu time spent up to now is     1614.5 secs

     total energy              =   -1374.46689173 Ry
     estimated scf accuracy    <       0.00010273 Ry

     iteration # 74     ecut=    70.00 Ry     beta= 0.70
     Davidson diagonalization with overlap
     ethr =  1.53E-07,  avg # of iterations =  1.0

     total cpu time spent up to now is     1626.8 secs

     total energy              =   -1374.46690750 Ry
     estimated scf accuracy    <       0.00010497 Ry

     iteration # 75     ecut=    70.00 Ry     beta= 0.70
     Davidson diagonalization with overlap
     ethr =  1.53E-07,  avg # of iterations =  1.0

     total cpu time spent up to now is     1639.0 secs

     total energy              =   -1374.46691072 Ry
     estimated scf accuracy    <       0.00012887 Ry

     iteration # 76     ecut=    70.00 Ry     beta= 0.70
     Davidson diagonalization with overlap
     ethr =  1.53E-07,  avg # of iterations =  1.0

     total cpu time spent up to now is     1651.2 secs

     total energy              =   -1374.46692403 Ry
     estimated scf accuracy    <       0.00014010 Ry

     iteration # 77     ecut=    70.00 Ry     beta= 0.70
     Davidson diagonalization with overlap
     ethr =  1.53E-07,  avg # of iterations =  1.0

     total cpu time spent up to now is     1663.3 secs

     total energy              =   -1374.46681543 Ry
     estimated scf accuracy    <       0.00016276 Ry

     iteration # 78     ecut=    70.00 Ry     beta= 0.70
     Davidson diagonalization with overlap
     ethr =  1.53E-07,  avg # of iterations =  2.5

     total cpu time spent up to now is     1676.6 secs

     total energy              =   -1374.46660774 Ry
     estimated scf accuracy    <       0.08141766 Ry

     iteration # 79     ecut=    70.00 Ry     beta= 0.70
     Davidson diagonalization with overlap
     ethr =  1.53E-07,  avg # of iterations =  2.0

     total cpu time spent up to now is     1689.6 secs

     total energy              =   -1374.46686883 Ry
     estimated scf accuracy    <       0.00039416 Ry

     iteration # 80     ecut=    70.00 Ry     beta= 0.70
     Davidson diagonalization with overlap
     ethr =  1.53E-07,  avg # of iterations =  1.0

     total cpu time spent up to now is     1701.8 secs

     total energy              =   -1374.46687243 Ry
     estimated scf accuracy    <       0.00034245 Ry

     iteration # 81     ecut=    70.00 Ry     beta= 0.70
     Davidson diagonalization with overlap
     ethr =  1.53E-07,  avg # of iterations =  1.0

     total cpu time spent up to now is     1714.1 secs

     total energy              =   -1374.46685770 Ry
     estimated scf accuracy    <       0.00060083 Ry

     iteration # 82     ecut=    70.00 Ry     beta= 0.70
     Davidson diagonalization with overlap
     ethr =  1.53E-07,  avg # of iterations =  1.0

     total cpu time spent up to now is     1726.3 secs

     total energy              =   -1374.46666773 Ry
     estimated scf accuracy    <       0.00238446 Ry

     iteration # 83     ecut=    70.00 Ry     beta= 0.70
     Davidson diagonalization with overlap
     ethr =  1.53E-07,  avg # of iterations =  1.5

     total cpu time spent up to now is     1738.9 secs

     total energy              =   -1374.46691953 Ry
     estimated scf accuracy    <       0.00014276 Ry

     iteration # 84     ecut=    70.00 Ry     beta= 0.70
     Davidson diagonalization with overlap
     ethr =  1.53E-07,  avg # of iterations =  1.0

     total cpu time spent up to now is     1751.2 secs

     total energy              =   -1374.46691684 Ry
     estimated scf accuracy    <       0.00015139 Ry

     iteration # 85     ecut=    70.00 Ry     beta= 0.70
     Davidson diagonalization with overlap
     ethr =  1.53E-07,  avg # of iterations =  1.0

     total cpu time spent up to now is     1763.5 secs

     total energy              =   -1374.46691030 Ry
     estimated scf accuracy    <       0.00014358 Ry

     iteration # 86     ecut=    70.00 Ry     beta= 0.70
     Davidson diagonalization with overlap
     ethr =  1.53E-07,  avg # of iterations =  1.0

     total cpu time spent up to now is     1775.7 secs

     total energy              =   -1374.46690253 Ry
     estimated scf accuracy    <       0.00013193 Ry

     iteration # 87     ecut=    70.00 Ry     beta= 0.70
     Davidson diagonalization with overlap
     ethr =  1.53E-07,  avg # of iterations =  1.0

     total cpu time spent up to now is     1788.0 secs

     total energy              =   -1374.46690768 Ry
     estimated scf accuracy    <       0.00011602 Ry

     iteration # 88     ecut=    70.00 Ry     beta= 0.70
     Davidson diagonalization with overlap
     ethr =  1.53E-07,  avg # of iterations =  1.0

     total cpu time spent up to now is     1800.3 secs

     total energy              =   -1374.46690881 Ry
     estimated scf accuracy    <       0.00012648 Ry

     iteration # 89     ecut=    70.00 Ry     beta= 0.70
     Davidson diagonalization with overlap
     ethr =  1.53E-07,  avg # of iterations =  1.0

     total cpu time spent up to now is     1812.5 secs

     total energy              =   -1374.46690644 Ry
     estimated scf accuracy    <       0.00012621 Ry

     iteration # 90     ecut=    70.00 Ry     beta= 0.70
     Davidson diagonalization with overlap
     ethr =  1.53E-07,  avg # of iterations =  1.0

     total cpu time spent up to now is     1824.8 secs

     total energy              =   -1374.46690597 Ry
     estimated scf accuracy    <       0.00012931 Ry

     iteration # 91     ecut=    70.00 Ry     beta= 0.70
     Davidson diagonalization with overlap
     ethr =  1.53E-07,  avg # of iterations =  1.0

     total cpu time spent up to now is     1837.0 secs

     total energy              =   -1374.46681867 Ry
     estimated scf accuracy    <       0.00012326 Ry

     iteration # 92     ecut=    70.00 Ry     beta= 0.70
     Davidson diagonalization with overlap
     ethr =  1.53E-07,  avg # of iterations =  2.3

     total cpu time spent up to now is     1850.3 secs

     total energy              =   -1374.46637784 Ry
     estimated scf accuracy    <       0.08183437 Ry

     iteration # 93     ecut=    70.00 Ry     beta= 0.70
     Davidson diagonalization with overlap
     ethr =  1.53E-07,  avg # of iterations =  2.0

     total cpu time spent up to now is     1863.4 secs

     total energy              =   -1374.46687893 Ry
     estimated scf accuracy    <       0.00013016 Ry

     iteration # 94     ecut=    70.00 Ry     beta= 0.70
     Davidson diagonalization with overlap
     ethr =  1.53E-07,  avg # of iterations =  1.0

     total cpu time spent up to now is     1875.7 secs

     total energy              =   -1374.46694650 Ry
     estimated scf accuracy    <       0.00052716 Ry

     iteration # 95     ecut=    70.00 Ry     beta= 0.70
     Davidson diagonalization with overlap
     ethr =  1.53E-07,  avg # of iterations =  1.5

     total cpu time spent up to now is     1888.2 secs

     total energy              =   -1374.46690810 Ry
     estimated scf accuracy    <       0.00013262 Ry

     iteration # 96     ecut=    70.00 Ry     beta= 0.70
     Davidson diagonalization with overlap
     ethr =  1.53E-07,  avg # of iterations =  1.0

     total cpu time spent up to now is     1900.6 secs

     total energy              =   -1374.46691875 Ry
     estimated scf accuracy    <       0.00012597 Ry

     iteration # 97     ecut=    70.00 Ry     beta= 0.70
     Davidson diagonalization with overlap
     ethr =  1.53E-07,  avg # of iterations =  1.0

     total cpu time spent up to now is     1912.8 secs

     total energy              =   -1374.46694205 Ry
     estimated scf accuracy    <       0.00015257 Ry

     iteration # 98     ecut=    70.00 Ry     beta= 0.70
     Davidson diagonalization with overlap
     ethr =  1.53E-07,  avg # of iterations =  1.0

     total cpu time spent up to now is     1925.0 secs

     total energy              =   -1374.46695303 Ry
     estimated scf accuracy    <       0.00019852 Ry

     iteration # 99     ecut=    70.00 Ry     beta= 0.70
     Davidson diagonalization with overlap
     ethr =  1.53E-07,  avg # of iterations =  1.0

     total cpu time spent up to now is     1937.3 secs

     total energy              =   -1374.46694761 Ry
     estimated scf accuracy    <       0.00055853 Ry

     iteration #100     ecut=    70.00 Ry     beta= 0.70
     Davidson diagonalization with overlap
     ethr =  1.53E-07,  avg # of iterations =  1.0

     total cpu time spent up to now is     1949.6 secs

     total energy              =   -1374.46695974 Ry
     estimated scf accuracy    <       0.00025409 Ry

     End of self-consistent calculation

     convergence NOT achieved after 100 iterations: stopping

     Writing output data file /scratch/as3359/Ta2CH2-VCrelax/Ta.save/
 
     init_run     :     19.29s CPU     11.51s WALL (       1 calls)
     electrons    :   3658.04s CPU   1913.80s WALL (       2 calls)
     update_pot   :      7.37s CPU      3.69s WALL (       1 calls)
     forces       :      9.08s CPU      4.76s WALL (       1 calls)
     stress       :     27.73s CPU     14.53s WALL (       1 calls)

     Called by init_run:
     wfcinit      :      9.17s CPU      4.70s WALL (       1 calls)
     potinit      :      2.92s CPU      1.48s WALL (       1 calls)
     hinit0       :      5.49s CPU      4.20s WALL (       1 calls)

     Called by electrons:
     c_bands      :   2554.32s CPU   1296.27s WALL (     147 calls)
     sum_band     :    805.32s CPU    438.22s WALL (     147 calls)
     v_of_rho     :     46.47s CPU     24.09s WALL (     149 calls)
     newd         :    240.92s CPU    149.66s WALL (     149 calls)
     mix_rho      :      9.16s CPU      4.71s WALL (     147 calls)

     Called by c_bands:
     init_us_2    :     76.30s CPU     38.30s WALL (   21978 calls)
     cegterg      :   2322.38s CPU   1179.27s WALL (   10882 calls)

     Called by *egterg:
     cdiaghg      :     58.76s CPU     30.00s WALL (   28164 calls)
     h_psi        :   1918.39s CPU    975.48s WALL (   28312 calls)
     s_psi        :     76.10s CPU     38.17s WALL (   28312 calls)
     g_psi        :      9.20s CPU      4.63s WALL (   17356 calls)

     Called by h_psi:
     h_psi:calbec :     72.51s CPU     36.47s WALL (   28312 calls)
     vloc_psi     :   1735.23s CPU    883.34s WALL (   28312 calls)
     add_vuspsi   :     93.18s CPU     46.75s WALL (   28312 calls)

     General routines
     calbec       :    103.51s CPU     52.07s WALL (   39560 calls)
     fft          :     25.51s CPU     12.99s WALL (    1961 calls)
     ffts         :      0.83s CPU      0.43s WALL (     296 calls)
     fftw         :   1889.04s CPU    961.61s WALL ( 2089276 calls)
     interpolate  :      2.75s CPU      1.40s WALL (     149 calls)
     davcio       :      0.02s CPU      0.10s WALL (      92 calls)
 
     Parallel routines
 
     PWSCF        :      1h 2m CPU  32m30.29s WALL

 
   This run was terminated on:  14:26:40  19Apr2022            

=------------------------------------------------------------------------------=
   JOB DONE.
=------------------------------------------------------------------------------=
