
     Program PWSCF v.6.8 starts on 19Apr2022 at 14:48:36 

     This program is part of the open-source Quantum ESPRESSO suite
     for quantum simulation of materials; please cite
         "P. Giannozzi et al., J. Phys.:Condens. Matter 21 395502 (2009);
         "P. Giannozzi et al., J. Phys.:Condens. Matter 29 465901 (2017);
         "P. Giannozzi et al., J. Chem. Phys. 152 154105 (2020);
          URL http://www.quantum-espresso.org", 
     in publications or presentations arising from this work. More details at
     http://www.quantum-espresso.org/quote

     Parallel version (MPI & OpenMP), running on       4 processor cores
     Number of MPI processes:                 2
     Threads/MPI process:                     2

     MPI processes distributed on     1 nodes
     R & G space division:  proc/nbgrp/npool/nimage =       2
     124298 MiB available memory on the printing compute node when the environment starts
 
     Waiting for input...
     Reading input from standard input

     Current dimensions of program PWSCF are:
     Max number of different atomic species (ntypx) = 10
     Max number of k-points (npk) =  40000
     Max angular momentum in pseudopotentials (lmaxx) =  4
     file Ta.pbesol-spfn-rrkjus_psl.1.0.0.UPF: wavefunction(s)  5S 5P renormalized

     Subspace diagonalization in iterative solution of the eigenvalue problem:
     a serial algorithm will be used

 
     Parallelization info
     --------------------
     sticks:   dense  smooth     PW     G-vecs:    dense   smooth      PW
     Min         618     249     81               193064    48939    9253
     Max         619     250     82               193111    48974    9270
     Sum        1237     499    163               386175    97913   18523
 
     Using Slab Decomposition
 


     bravais-lattice index     =            0
     lattice parameter (alat)  =       5.5500  a.u.
     unit-cell volume          =    1234.4000 (a.u.)^3
     number of atoms/cell      =            5
     number of atomic types    =            3
     number of electrons       =        60.00
     number of Kohn-Sham states=           36
     kinetic-energy cutoff     =      70.0000  Ry
     charge density cutoff     =     700.0000  Ry
     scf convergence threshold =      1.0E-12
     mixing beta               =       0.7000
     number of iterations used =            8  plain     mixing
     Exchange-correlation= PBESOL
                           (   1   4  10   8   0   0   0)

     celldm(1)=   5.550000  celldm(2)=   0.000000  celldm(3)=   0.000000
     celldm(4)=   0.000000  celldm(5)=   0.000000  celldm(6)=   0.000000

     crystal axes: (cart. coord. in units of alat)
               a(1) = (   0.913236   0.001113   0.000000 )  
               a(2) = (  -0.455654   0.790112   0.000000 )  
               a(3) = (   0.000000   0.000000  10.000000 )  

     reciprocal axes: (cart. coord. in units 2 pi/alat)
               b(1) = (  1.094238  0.631042  0.000000 )  
               b(2) = ( -0.001541  1.264754  0.000000 )  
               b(3) = (  0.000000  0.000000  0.100000 )  


     PseudoPot. # 1 for Ta read from file:
     /shared/home/as3359/pseudo/Ta.pbesol-spfn-rrkjus_psl.1.0.0.UPF
     MD5 check sum: f099565ffaca9b150a52e9412a28e20b
     Pseudo is Ultrasoft + core correction, Zval = 27.0
     Generated using &quot;atomic&quot; code by A. Dal Corso  v.6.3
     Using radial grid of 1273 points,  8 beta functions with: 
                l(1) =   0
                l(2) =   0
                l(3) =   1
                l(4) =   1
                l(5) =   2
                l(6) =   2
                l(7) =   3
                l(8) =   3
     Q(r) pseudized with 0 coefficients 


     PseudoPot. # 2 for C  read from file:
     /shared/home/as3359/pseudo/C.pbesol-n-rrkjus_psl.1.0.0.UPF
     MD5 check sum: 05995be603a8a7c99da3dc4413f31573
     Pseudo is Ultrasoft + core correction, Zval =  4.0
     Generated using &quot;atomic&quot; code by A. Dal Corso  v.6.3MaX
     Using radial grid of 1073 points,  4 beta functions with: 
                l(1) =   0
                l(2) =   0
                l(3) =   1
                l(4) =   1
     Q(r) pseudized with 0 coefficients 


     PseudoPot. # 3 for H  read from file:
     /shared/home/as3359/pseudo/H.pbesol-rrkjus_psl.0.1.UPF
     MD5 check sum: 1dbb1a5c48b1283557b8117eb856a7ca
     Pseudo is Ultrasoft, Zval =  1.0
     Generated using "atomic" code by A. Dal Corso  v.5.0.2 svn rev. 9415
     Using radial grid of  929 points,  2 beta functions with: 
                l(1) =   0
                l(2) =   0
     Q(r) pseudized with 0 coefficients 


     atomic species   valence    mass     pseudopotential
        Ta            27.00   180.94788     Ta( 1.00)
        C              4.00    12.01070     C ( 1.00)
        H              1.00     1.00000     H ( 1.00)

     No symmetry found



   Cartesian axes

     site n.     atom                  positions (alat units)
         1           C   tau(   1) = (   0.0000001  -0.0000001  -0.0000002  )
         2           Ta  tau(   2) = (   0.3754266   0.2650435  -4.3707742  )
         3           Ta  tau(   3) = (  -0.3055334   0.5296198   4.3707951  )
         4           H   tau(   4) = (  -0.3061656   0.5289520   8.3419475  )
         5           H   tau(   5) = (   0.3760587   0.2657114  -8.3419472  )

     number of k points=    74  Marzari-Vanderbilt smearing, width (Ry)=  0.0010
                       cart. coord. in units 2pi/alat
        k(    1) = (   0.0000000   0.0000000   0.0000000), wk =   0.0138889
        k(    2) = (  -0.0001284   0.1053962   0.0000000), wk =   0.0277778
        k(    3) = (  -0.0002569   0.2107923   0.0000000), wk =   0.0277778
        k(    4) = (  -0.0003853   0.3161885   0.0000000), wk =   0.0277778
        k(    5) = (  -0.0005137   0.4215847   0.0000000), wk =   0.0277778
        k(    6) = (  -0.0006421   0.5269809   0.0000000), wk =   0.0277778
        k(    7) = (   0.0007706  -0.6323770   0.0000000), wk =   0.0138889
        k(    8) = (   0.0911865   0.0525869   0.0000000), wk =   0.0277778
        k(    9) = (   0.0910581   0.1579830   0.0000000), wk =   0.0277778
        k(   10) = (   0.0909297   0.2633792   0.0000000), wk =   0.0277778
        k(   11) = (   0.0908012   0.3687754   0.0000000), wk =   0.0277778
        k(   12) = (   0.0906728   0.4741716   0.0000000), wk =   0.0277778
        k(   13) = (   0.0905444   0.5795677   0.0000000), wk =   0.0277778
        k(   14) = (   0.0919571  -0.5797902   0.0000000), wk =   0.0277778
        k(   15) = (   0.0918287  -0.4743940   0.0000000), wk =   0.0277778
        k(   16) = (   0.0917002  -0.3689978   0.0000000), wk =   0.0277778
        k(   17) = (   0.0915718  -0.2636017   0.0000000), wk =   0.0277778
        k(   18) = (   0.0914434  -0.1582055   0.0000000), wk =   0.0277778
        k(   19) = (   0.0913149  -0.0528093   0.0000000), wk =   0.0277778
        k(   20) = (   0.1823730   0.1051737   0.0000000), wk =   0.0277778
        k(   21) = (   0.1822446   0.2105699   0.0000000), wk =   0.0277778
        k(   22) = (   0.1821162   0.3159661   0.0000000), wk =   0.0277778
        k(   23) = (   0.1819877   0.4213622   0.0000000), wk =   0.0277778
        k(   24) = (   0.1818593   0.5267584   0.0000000), wk =   0.0277778
        k(   25) = (   0.1817309   0.6321546   0.0000000), wk =   0.0277778
        k(   26) = (   0.1831436  -0.5272033   0.0000000), wk =   0.0277778
        k(   27) = (   0.1830152  -0.4218071   0.0000000), wk =   0.0277778
        k(   28) = (   0.1828867  -0.3164110   0.0000000), wk =   0.0277778
        k(   29) = (   0.1827583  -0.2110148   0.0000000), wk =   0.0277778
        k(   30) = (   0.1826299  -0.1056186   0.0000000), wk =   0.0277778
        k(   31) = (   0.1825015  -0.0002225   0.0000000), wk =   0.0277778
        k(   32) = (   0.2735595   0.1577606   0.0000000), wk =   0.0277778
        k(   33) = (   0.2734311   0.2631568   0.0000000), wk =   0.0277778
        k(   34) = (   0.2733027   0.3685529   0.0000000), wk =   0.0277778
        k(   35) = (   0.2731743   0.4739491   0.0000000), wk =   0.0277778
        k(   36) = (   0.2730458   0.5793453   0.0000000), wk =   0.0277778
        k(   37) = (   0.2729174   0.6847414   0.0000000), wk =   0.0277778
        k(   38) = (   0.2743301  -0.4746165   0.0000000), wk =   0.0277778
        k(   39) = (   0.2742017  -0.3692203   0.0000000), wk =   0.0277778
        k(   40) = (   0.2740733  -0.2638241   0.0000000), wk =   0.0277778
        k(   41) = (   0.2739448  -0.1584279   0.0000000), wk =   0.0277778
        k(   42) = (   0.2738164  -0.0530318   0.0000000), wk =   0.0277778
        k(   43) = (   0.2736880   0.0523644   0.0000000), wk =   0.0277778
        k(   44) = (   0.3647461   0.2103474   0.0000000), wk =   0.0277778
        k(   45) = (   0.3646176   0.3157436   0.0000000), wk =   0.0277778
        k(   46) = (   0.3644892   0.4211398   0.0000000), wk =   0.0277778
        k(   47) = (   0.3643608   0.5265360   0.0000000), wk =   0.0277778
        k(   48) = (   0.3642324   0.6319321   0.0000000), wk =   0.0277778
        k(   49) = (   0.3641039   0.7373283   0.0000000), wk =   0.0277778
        k(   50) = (   0.3655166  -0.4220296   0.0000000), wk =   0.0277778
        k(   51) = (   0.3653882  -0.3166334   0.0000000), wk =   0.0277778
        k(   52) = (   0.3652598  -0.2112372   0.0000000), wk =   0.0277778
        k(   53) = (   0.3651313  -0.1058411   0.0000000), wk =   0.0277778
        k(   54) = (   0.3650029  -0.0004449   0.0000000), wk =   0.0277778
        k(   55) = (   0.3648745   0.1049513   0.0000000), wk =   0.0277778
        k(   56) = (   0.4559326   0.2629343   0.0000000), wk =   0.0277778
        k(   57) = (   0.4558042   0.3683305   0.0000000), wk =   0.0277778
        k(   58) = (   0.4556757   0.4737266   0.0000000), wk =   0.0277778
        k(   59) = (   0.4555473   0.5791228   0.0000000), wk =   0.0277778
        k(   60) = (   0.4554189   0.6845190   0.0000000), wk =   0.0277778
        k(   61) = (   0.4552904   0.7899152   0.0000000), wk =   0.0277778
        k(   62) = (   0.4567031  -0.3694427   0.0000000), wk =   0.0277778
        k(   63) = (   0.4565747  -0.2640466   0.0000000), wk =   0.0277778
        k(   64) = (   0.4564463  -0.1586504   0.0000000), wk =   0.0277778
        k(   65) = (   0.4563179  -0.0532542   0.0000000), wk =   0.0277778
        k(   66) = (   0.4561894   0.0521420   0.0000000), wk =   0.0277778
        k(   67) = (   0.4560610   0.1575381   0.0000000), wk =   0.0277778
        k(   68) = (  -0.5471191  -0.3155212   0.0000000), wk =   0.0138889
        k(   69) = (  -0.5472475  -0.2101250   0.0000000), wk =   0.0277778
        k(   70) = (  -0.5473760  -0.1047288   0.0000000), wk =   0.0277778
        k(   71) = (  -0.5475044   0.0006674   0.0000000), wk =   0.0277778
        k(   72) = (  -0.5476328   0.1060635   0.0000000), wk =   0.0277778
        k(   73) = (  -0.5477612   0.2114597   0.0000000), wk =   0.0277778
        k(   74) = (  -0.5463485  -0.9478982   0.0000000), wk =   0.0138889

     Dense  grid:   386175 G-vectors     FFT dimensions: (  45,  45, 480)

     Smooth grid:    97913 G-vectors     FFT dimensions: (  27,  27, 300)

     Estimated max dynamical RAM per process >       2.06 GB

     Estimated total dynamical RAM >       4.13 GB

     Initial potential from superposition of free atoms

     starting charge   59.99840, renormalised to   60.00000
     Starting wfcs are   40 randomized atomic wfcs

     total cpu time spent up to now is       11.9 secs

     Self-consistent Calculation

     iteration #  1     ecut=    70.00 Ry     beta= 0.70
     Davidson diagonalization with overlap
     ethr =  1.00E-02,  avg # of iterations =  2.3

     total cpu time spent up to now is       25.5 secs

     total energy              =   -1367.12704996 Ry
     estimated scf accuracy    <       8.34060799 Ry

     iteration #  2     ecut=    70.00 Ry     beta= 0.70
     Davidson diagonalization with overlap
     c_bands:  2 eigenvalues not converged
     c_bands:  4 eigenvalues not converged
     c_bands:  1 eigenvalues not converged
     c_bands:  1 eigenvalues not converged
     c_bands:  1 eigenvalues not converged
     c_bands:  2 eigenvalues not converged
     c_bands:  1 eigenvalues not converged
     c_bands:  1 eigenvalues not converged
     c_bands:  3 eigenvalues not converged
     c_bands:  5 eigenvalues not converged
     c_bands:  1 eigenvalues not converged
     c_bands:  1 eigenvalues not converged
     c_bands:  3 eigenvalues not converged
     c_bands:  2 eigenvalues not converged
     c_bands:  2 eigenvalues not converged
     c_bands:  1 eigenvalues not converged
     ethr =  1.00E-02,  avg # of iterations = 18.4

     total cpu time spent up to now is       83.1 secs

     total energy              =   -1206.10209421 Ry
     estimated scf accuracy    <   16549.90170388 Ry

     iteration #  3     ecut=    70.00 Ry     beta= 0.70
     Davidson diagonalization with overlap
     c_bands:  1 eigenvalues not converged
     c_bands:  1 eigenvalues not converged
     ethr =  1.00E-02,  avg # of iterations = 11.4

     total cpu time spent up to now is      115.7 secs

     total energy              =   -1372.81934316 Ry
     estimated scf accuracy    <     185.30116228 Ry

     iteration #  4     ecut=    70.00 Ry     beta= 0.70
     Davidson diagonalization with overlap
     ethr =  1.00E-02,  avg # of iterations =  7.0

     total cpu time spent up to now is      132.1 secs

     total energy              =   -1374.03218852 Ry
     estimated scf accuracy    <       6.32436724 Ry

     iteration #  5     ecut=    70.00 Ry     beta= 0.70
     Davidson diagonalization with overlap
     ethr =  1.00E-02,  avg # of iterations =  3.1

     total cpu time spent up to now is      145.4 secs

     total energy              =   -1374.35693449 Ry
     estimated scf accuracy    <       0.57814479 Ry

     iteration #  6     ecut=    70.00 Ry     beta= 0.70
     Davidson diagonalization with overlap
     c_bands:  1 eigenvalues not converged
     ethr =  9.64E-04,  avg # of iterations =  8.2

     total cpu time spent up to now is      162.5 secs

     total energy              =   -1374.46395247 Ry
     estimated scf accuracy    <       1.30782870 Ry

     iteration #  7     ecut=    70.00 Ry     beta= 0.70
     Davidson diagonalization with overlap
     ethr =  9.64E-04,  avg # of iterations =  1.7

     total cpu time spent up to now is      175.1 secs

     total energy              =   -1374.41698235 Ry
     estimated scf accuracy    <       2.94960331 Ry

     iteration #  8     ecut=    70.00 Ry     beta= 0.70
     Davidson diagonalization with overlap
     ethr =  9.64E-04,  avg # of iterations =  1.1

     total cpu time spent up to now is      187.3 secs

     total energy              =   -1374.45964745 Ry
     estimated scf accuracy    <       0.66036759 Ry

     iteration #  9     ecut=    70.00 Ry     beta= 0.70
     Davidson diagonalization with overlap
     ethr =  9.64E-04,  avg # of iterations =  1.0

     total cpu time spent up to now is      199.6 secs

     total energy              =   -1374.46721780 Ry
     estimated scf accuracy    <       0.19912748 Ry

     iteration # 10     ecut=    70.00 Ry     beta= 0.70
     Davidson diagonalization with overlap
     ethr =  3.32E-04,  avg # of iterations =  1.3

     total cpu time spent up to now is      211.9 secs

     total energy              =   -1374.46122721 Ry
     estimated scf accuracy    <       0.14362274 Ry

     iteration # 11     ecut=    70.00 Ry     beta= 0.70
     Davidson diagonalization with overlap
     ethr =  2.39E-04,  avg # of iterations =  1.0

     total cpu time spent up to now is      224.2 secs

     total energy              =   -1374.46670415 Ry
     estimated scf accuracy    <       0.28716726 Ry

     iteration # 12     ecut=    70.00 Ry     beta= 0.70
     Davidson diagonalization with overlap
     ethr =  2.39E-04,  avg # of iterations =  1.0

     total cpu time spent up to now is      236.4 secs

     total energy              =   -1374.46678188 Ry
     estimated scf accuracy    <       0.08681767 Ry

     iteration # 13     ecut=    70.00 Ry     beta= 0.70
     Davidson diagonalization with overlap
     ethr =  1.45E-04,  avg # of iterations =  1.1

     total cpu time spent up to now is      248.6 secs

     total energy              =   -1374.46700258 Ry
     estimated scf accuracy    <       0.03017007 Ry

     iteration # 14     ecut=    70.00 Ry     beta= 0.70
     Davidson diagonalization with overlap
     ethr =  5.03E-05,  avg # of iterations =  2.6

     total cpu time spent up to now is      261.5 secs

     total energy              =   -1374.46644981 Ry
     estimated scf accuracy    <       0.21949718 Ry

     iteration # 15     ecut=    70.00 Ry     beta= 0.70
     Davidson diagonalization with overlap
     ethr =  5.03E-05,  avg # of iterations =  1.1

     total cpu time spent up to now is      273.8 secs

     total energy              =   -1374.46633478 Ry
     estimated scf accuracy    <       0.33082399 Ry

     iteration # 16     ecut=    70.00 Ry     beta= 0.70
     Davidson diagonalization with overlap
     ethr =  5.03E-05,  avg # of iterations =  1.1

     total cpu time spent up to now is      286.0 secs

     total energy              =   -1374.46684582 Ry
     estimated scf accuracy    <       0.00791639 Ry

     iteration # 17     ecut=    70.00 Ry     beta= 0.70
     Davidson diagonalization with overlap
     ethr =  1.32E-05,  avg # of iterations =  2.6

     total cpu time spent up to now is      299.1 secs

     total energy              =   -1374.46667744 Ry
     estimated scf accuracy    <       0.04641101 Ry

     iteration # 18     ecut=    70.00 Ry     beta= 0.70
     Davidson diagonalization with overlap
     c_bands:  1 eigenvalues not converged
     ethr =  1.32E-05,  avg # of iterations =  2.0

     total cpu time spent up to now is      311.8 secs

     total energy              =   -1374.46606066 Ry
     estimated scf accuracy    <       0.08068732 Ry

     iteration # 19     ecut=    70.00 Ry     beta= 0.70
     Davidson diagonalization with overlap
     ethr =  1.32E-05,  avg # of iterations =  1.1

     total cpu time spent up to now is      324.0 secs

     total energy              =   -1374.46670247 Ry
     estimated scf accuracy    <       0.07981974 Ry

     iteration # 20     ecut=    70.00 Ry     beta= 0.70
     Davidson diagonalization with overlap
     ethr =  1.32E-05,  avg # of iterations =  1.2

     total cpu time spent up to now is      336.2 secs

     total energy              =   -1374.46689772 Ry
     estimated scf accuracy    <       0.00046818 Ry

     iteration # 21     ecut=    70.00 Ry     beta= 0.70
     Davidson diagonalization with overlap
     ethr =  7.80E-07,  avg # of iterations =  2.9

     total cpu time spent up to now is      349.3 secs

     total energy              =   -1374.46689387 Ry
     estimated scf accuracy    <       0.00175357 Ry

     iteration # 22     ecut=    70.00 Ry     beta= 0.70
     Davidson diagonalization with overlap
     ethr =  7.80E-07,  avg # of iterations =  1.0

     total cpu time spent up to now is      361.4 secs

     total energy              =   -1374.46689515 Ry
     estimated scf accuracy    <       0.00076567 Ry

     iteration # 23     ecut=    70.00 Ry     beta= 0.70
     Davidson diagonalization with overlap
     ethr =  7.80E-07,  avg # of iterations =  1.0

     total cpu time spent up to now is      373.6 secs

     total energy              =   -1374.46689471 Ry
     estimated scf accuracy    <       0.00017124 Ry

     iteration # 24     ecut=    70.00 Ry     beta= 0.70
     Davidson diagonalization with overlap
     ethr =  2.85E-07,  avg # of iterations =  1.0

     total cpu time spent up to now is      385.8 secs

     total energy              =   -1374.46689360 Ry
     estimated scf accuracy    <       0.00013013 Ry

     iteration # 25     ecut=    70.00 Ry     beta= 0.70
     Davidson diagonalization with overlap
     ethr =  2.17E-07,  avg # of iterations =  1.0

     total cpu time spent up to now is      398.0 secs

     total energy              =   -1374.46689262 Ry
     estimated scf accuracy    <       0.00009758 Ry

     iteration # 26     ecut=    70.00 Ry     beta= 0.70
     Davidson diagonalization with overlap
     ethr =  1.63E-07,  avg # of iterations =  1.0

     total cpu time spent up to now is      410.3 secs

     total energy              =   -1374.46689142 Ry
     estimated scf accuracy    <       0.00009672 Ry

     iteration # 27     ecut=    70.00 Ry     beta= 0.70
     Davidson diagonalization with overlap
     ethr =  1.61E-07,  avg # of iterations =  1.1

     total cpu time spent up to now is      422.5 secs

     total energy              =   -1374.46682135 Ry
     estimated scf accuracy    <       0.00009845 Ry

     iteration # 28     ecut=    70.00 Ry     beta= 0.70
     Davidson diagonalization with overlap
     ethr =  1.61E-07,  avg # of iterations =  2.1

     total cpu time spent up to now is      435.8 secs

     total energy              =   -1374.46622327 Ry
     estimated scf accuracy    <       0.07962273 Ry

     iteration # 29     ecut=    70.00 Ry     beta= 0.70
     Davidson diagonalization with overlap
     ethr =  1.61E-07,  avg # of iterations =  2.1

     total cpu time spent up to now is      448.9 secs

     total energy              =   -1374.46688930 Ry
     estimated scf accuracy    <       0.00009442 Ry

     iteration # 30     ecut=    70.00 Ry     beta= 0.70
     Davidson diagonalization with overlap
     ethr =  1.57E-07,  avg # of iterations =  1.0

     total cpu time spent up to now is      461.1 secs

     total energy              =   -1374.46688808 Ry
     estimated scf accuracy    <       0.00009096 Ry

     iteration # 31     ecut=    70.00 Ry     beta= 0.70
     Davidson diagonalization with overlap
     ethr =  1.52E-07,  avg # of iterations =  1.0

     total cpu time spent up to now is      473.3 secs

     total energy              =   -1374.46688714 Ry
     estimated scf accuracy    <       0.00009637 Ry

     iteration # 32     ecut=    70.00 Ry     beta= 0.70
     Davidson diagonalization with overlap
     ethr =  1.52E-07,  avg # of iterations =  1.0

     total cpu time spent up to now is      485.3 secs

     total energy              =   -1374.46688709 Ry
     estimated scf accuracy    <       0.00010143 Ry

     iteration # 33     ecut=    70.00 Ry     beta= 0.70
     Davidson diagonalization with overlap
     ethr =  1.52E-07,  avg # of iterations =  1.0

     total cpu time spent up to now is      497.4 secs

     total energy              =   -1374.46688872 Ry
     estimated scf accuracy    <       0.00010006 Ry

     iteration # 34     ecut=    70.00 Ry     beta= 0.70
     Davidson diagonalization with overlap
     ethr =  1.52E-07,  avg # of iterations =  1.0

     total cpu time spent up to now is      509.5 secs

     total energy              =   -1374.46688919 Ry
     estimated scf accuracy    <       0.00009504 Ry

     iteration # 35     ecut=    70.00 Ry     beta= 0.70
     Davidson diagonalization with overlap
     ethr =  1.52E-07,  avg # of iterations =  1.0

     total cpu time spent up to now is      521.7 secs

     total energy              =   -1374.46689067 Ry
     estimated scf accuracy    <       0.00013597 Ry

     iteration # 36     ecut=    70.00 Ry     beta= 0.70
     Davidson diagonalization with overlap
     ethr =  1.52E-07,  avg # of iterations =  1.0

     total cpu time spent up to now is      533.8 secs

     total energy              =   -1374.46688921 Ry
     estimated scf accuracy    <       0.00009368 Ry

     iteration # 37     ecut=    70.00 Ry     beta= 0.70
     Davidson diagonalization with overlap
     ethr =  1.52E-07,  avg # of iterations =  1.0

     total cpu time spent up to now is      546.0 secs

     total energy              =   -1374.46694114 Ry
     estimated scf accuracy    <       0.00009463 Ry

     iteration # 38     ecut=    70.00 Ry     beta= 0.70
     Davidson diagonalization with overlap
     ethr =  1.52E-07,  avg # of iterations =  1.5

     total cpu time spent up to now is      558.5 secs

     total energy              =   -1374.46696986 Ry
     estimated scf accuracy    <       0.00298682 Ry

     iteration # 39     ecut=    70.00 Ry     beta= 0.70
     Davidson diagonalization with overlap
     ethr =  1.52E-07,  avg # of iterations =  1.4

     total cpu time spent up to now is      570.9 secs

     total energy              =   -1374.46537760 Ry
     estimated scf accuracy    <       0.08246018 Ry

     iteration # 40     ecut=    70.00 Ry     beta= 0.70
     Davidson diagonalization with overlap
     ethr =  1.52E-07,  avg # of iterations =  1.7

     total cpu time spent up to now is      583.6 secs

     total energy              =   -1374.46688779 Ry
     estimated scf accuracy    <       0.00010689 Ry

     iteration # 41     ecut=    70.00 Ry     beta= 0.70
     Davidson diagonalization with overlap
     ethr =  1.52E-07,  avg # of iterations =  1.0

     total cpu time spent up to now is      595.7 secs

     total energy              =   -1374.46688680 Ry
     estimated scf accuracy    <       0.00010140 Ry

     iteration # 42     ecut=    70.00 Ry     beta= 0.70
     Davidson diagonalization with overlap
     ethr =  1.52E-07,  avg # of iterations =  1.0

     total cpu time spent up to now is      607.8 secs

     total energy              =   -1374.46688600 Ry
     estimated scf accuracy    <       0.00010503 Ry

     iteration # 43     ecut=    70.00 Ry     beta= 0.70
     Davidson diagonalization with overlap
     ethr =  1.52E-07,  avg # of iterations =  1.0

     total cpu time spent up to now is      619.8 secs

     total energy              =   -1374.46688548 Ry
     estimated scf accuracy    <       0.00011432 Ry

     iteration # 44     ecut=    70.00 Ry     beta= 0.70
     Davidson diagonalization with overlap
     ethr =  1.52E-07,  avg # of iterations =  1.0

     total cpu time spent up to now is      631.9 secs

     total energy              =   -1374.46688522 Ry
     estimated scf accuracy    <       0.00012146 Ry

     iteration # 45     ecut=    70.00 Ry     beta= 0.70
     Davidson diagonalization with overlap
     ethr =  1.52E-07,  avg # of iterations =  1.0

     total cpu time spent up to now is      643.9 secs

     total energy              =   -1374.46688485 Ry
     estimated scf accuracy    <       0.00012750 Ry

     iteration # 46     ecut=    70.00 Ry     beta= 0.70
     Davidson diagonalization with overlap
     ethr =  1.52E-07,  avg # of iterations =  1.0

     total cpu time spent up to now is      656.0 secs

     total energy              =   -1374.46688472 Ry
     estimated scf accuracy    <       0.00013416 Ry

     iteration # 47     ecut=    70.00 Ry     beta= 0.70
     Davidson diagonalization with overlap
     ethr =  1.52E-07,  avg # of iterations =  1.0

     total cpu time spent up to now is      668.1 secs

     total energy              =   -1374.46688397 Ry
     estimated scf accuracy    <       0.00013625 Ry

     iteration # 48     ecut=    70.00 Ry     beta= 0.70
     Davidson diagonalization with overlap
     ethr =  1.52E-07,  avg # of iterations =  1.0

     total cpu time spent up to now is      680.2 secs

     total energy              =   -1374.46690001 Ry
     estimated scf accuracy    <       0.00015817 Ry

     iteration # 49     ecut=    70.00 Ry     beta= 0.70
     Davidson diagonalization with overlap
     ethr =  1.52E-07,  avg # of iterations =  1.0

     total cpu time spent up to now is      692.2 secs

     total energy              =   -1374.46689870 Ry
     estimated scf accuracy    <       0.00011399 Ry

     iteration # 50     ecut=    70.00 Ry     beta= 0.70
     Davidson diagonalization with overlap
     ethr =  1.52E-07,  avg # of iterations =  1.0

     total cpu time spent up to now is      704.3 secs

     total energy              =   -1374.46689717 Ry
     estimated scf accuracy    <       0.00011360 Ry

     iteration # 51     ecut=    70.00 Ry     beta= 0.70
     Davidson diagonalization with overlap
     ethr =  1.52E-07,  avg # of iterations =  1.0

     total cpu time spent up to now is      716.5 secs

     total energy              =   -1374.46689737 Ry
     estimated scf accuracy    <       0.00011015 Ry

     iteration # 52     ecut=    70.00 Ry     beta= 0.70
     Davidson diagonalization with overlap
     ethr =  1.52E-07,  avg # of iterations =  1.0

     total cpu time spent up to now is      728.6 secs

     total energy              =   -1374.46689274 Ry
     estimated scf accuracy    <       0.00011051 Ry

     iteration # 53     ecut=    70.00 Ry     beta= 0.70
     Davidson diagonalization with overlap
     ethr =  1.52E-07,  avg # of iterations =  1.0

     total cpu time spent up to now is      740.6 secs

     total energy              =   -1374.46689340 Ry
     estimated scf accuracy    <       0.00010746 Ry

     iteration # 54     ecut=    70.00 Ry     beta= 0.70
     Davidson diagonalization with overlap
     ethr =  1.52E-07,  avg # of iterations =  1.0

     total cpu time spent up to now is      752.6 secs

     total energy              =   -1374.46689062 Ry
     estimated scf accuracy    <       0.00010230 Ry

     iteration # 55     ecut=    70.00 Ry     beta= 0.70
     Davidson diagonalization with overlap
     ethr =  1.52E-07,  avg # of iterations =  1.0

     total cpu time spent up to now is      764.6 secs

     total energy              =   -1374.46689311 Ry
     estimated scf accuracy    <       0.00010944 Ry

     iteration # 56     ecut=    70.00 Ry     beta= 0.70
     Davidson diagonalization with overlap
     ethr =  1.52E-07,  avg # of iterations =  1.0

     total cpu time spent up to now is      776.8 secs

     total energy              =   -1374.46692817 Ry
     estimated scf accuracy    <       0.00013811 Ry

     iteration # 57     ecut=    70.00 Ry     beta= 0.70
     Davidson diagonalization with overlap
     ethr =  1.52E-07,  avg # of iterations =  1.5

     total cpu time spent up to now is      789.2 secs

     total energy              =   -1374.46681294 Ry
     estimated scf accuracy    <       0.00017330 Ry

     iteration # 58     ecut=    70.00 Ry     beta= 0.70
     Davidson diagonalization with overlap
     ethr =  1.52E-07,  avg # of iterations =  2.5

     total cpu time spent up to now is      802.5 secs

     total energy              =   -1374.46630414 Ry
     estimated scf accuracy    <       0.08134494 Ry

     iteration # 59     ecut=    70.00 Ry     beta= 0.70
     Davidson diagonalization with overlap
     ethr =  1.52E-07,  avg # of iterations =  2.1

     total cpu time spent up to now is      815.4 secs

     total energy              =   -1374.46688723 Ry
     estimated scf accuracy    <       0.00009561 Ry

     iteration # 60     ecut=    70.00 Ry     beta= 0.70
     Davidson diagonalization with overlap
     ethr =  1.52E-07,  avg # of iterations =  1.0

     total cpu time spent up to now is      827.6 secs

     total energy              =   -1374.46687752 Ry
     estimated scf accuracy    <       0.00009481 Ry

     iteration # 61     ecut=    70.00 Ry     beta= 0.70
     Davidson diagonalization with overlap
     ethr =  1.52E-07,  avg # of iterations =  1.0

     total cpu time spent up to now is      839.5 secs

     total energy              =   -1374.46686754 Ry
     estimated scf accuracy    <       0.00045793 Ry

     iteration # 62     ecut=    70.00 Ry     beta= 0.70
     Davidson diagonalization with overlap
     ethr =  1.52E-07,  avg # of iterations =  1.0

     total cpu time spent up to now is      851.8 secs

     total energy              =   -1374.46686582 Ry
     estimated scf accuracy    <       0.00018925 Ry

     iteration # 63     ecut=    70.00 Ry     beta= 0.70
     Davidson diagonalization with overlap
     ethr =  1.52E-07,  avg # of iterations =  1.0

     total cpu time spent up to now is      863.8 secs

     total energy              =   -1374.46686399 Ry
     estimated scf accuracy    <       0.00002266 Ry

     iteration # 64     ecut=    70.00 Ry     beta= 0.70
     Davidson diagonalization with overlap
     ethr =  3.78E-08,  avg # of iterations =  1.0

     total cpu time spent up to now is      875.9 secs

     total energy              =   -1374.46687857 Ry
     estimated scf accuracy    <       0.00032842 Ry

     iteration # 65     ecut=    70.00 Ry     beta= 0.70
     Davidson diagonalization with overlap
     ethr =  3.78E-08,  avg # of iterations =  1.0

     total cpu time spent up to now is      887.9 secs

     total energy              =   -1374.46686788 Ry
     estimated scf accuracy    <       0.00058990 Ry

     iteration # 66     ecut=    70.00 Ry     beta= 0.70
     Davidson diagonalization with overlap
     ethr =  3.78E-08,  avg # of iterations =  1.0

     total cpu time spent up to now is      900.2 secs

     total energy              =   -1374.46688099 Ry
     estimated scf accuracy    <       0.00011443 Ry

     iteration # 67     ecut=    70.00 Ry     beta= 0.70
     Davidson diagonalization with overlap
     ethr =  3.78E-08,  avg # of iterations =  1.3

     total cpu time spent up to now is      912.4 secs

     total energy              =   -1374.46689119 Ry
     estimated scf accuracy    <       0.00009569 Ry

     iteration # 68     ecut=    70.00 Ry     beta= 0.70
     Davidson diagonalization with overlap
     ethr =  3.78E-08,  avg # of iterations =  1.0

     total cpu time spent up to now is      924.4 secs

     total energy              =   -1374.46689291 Ry
     estimated scf accuracy    <       0.00009905 Ry

     iteration # 69     ecut=    70.00 Ry     beta= 0.70
     Davidson diagonalization with overlap
     ethr =  3.78E-08,  avg # of iterations =  1.0

     total cpu time spent up to now is      936.7 secs

     total energy              =   -1374.46689284 Ry
     estimated scf accuracy    <       0.00010146 Ry

     iteration # 70     ecut=    70.00 Ry     beta= 0.70
     Davidson diagonalization with overlap
     ethr =  3.78E-08,  avg # of iterations =  1.0

     total cpu time spent up to now is      948.7 secs

     total energy              =   -1374.46689500 Ry
     estimated scf accuracy    <       0.00010565 Ry

     iteration # 71     ecut=    70.00 Ry     beta= 0.70
     Davidson diagonalization with overlap
     ethr =  3.78E-08,  avg # of iterations =  1.0

     total cpu time spent up to now is      960.8 secs

     total energy              =   -1374.46689601 Ry
     estimated scf accuracy    <       0.00010405 Ry

     iteration # 72     ecut=    70.00 Ry     beta= 0.70
     Davidson diagonalization with overlap
     ethr =  3.78E-08,  avg # of iterations =  1.0

     total cpu time spent up to now is      972.9 secs

     total energy              =   -1374.46691312 Ry
     estimated scf accuracy    <       0.00025604 Ry

     iteration # 73     ecut=    70.00 Ry     beta= 0.70
     Davidson diagonalization with overlap
     ethr =  3.78E-08,  avg # of iterations =  1.5

     total cpu time spent up to now is      985.5 secs

     total energy              =   -1374.46699505 Ry
     estimated scf accuracy    <       0.00017367 Ry

     iteration # 74     ecut=    70.00 Ry     beta= 0.70
     Davidson diagonalization with overlap
     ethr =  3.78E-08,  avg # of iterations =  2.5

     total cpu time spent up to now is      998.9 secs

     total energy              =   -1374.46594562 Ry
     estimated scf accuracy    <       0.10763086 Ry

     iteration # 75     ecut=    70.00 Ry     beta= 0.70
     Davidson diagonalization with overlap
     ethr =  3.78E-08,  avg # of iterations =  2.2

     total cpu time spent up to now is     1012.0 secs

     total energy              =   -1374.46689122 Ry
     estimated scf accuracy    <       0.00125124 Ry

     iteration # 76     ecut=    70.00 Ry     beta= 0.70
     Davidson diagonalization with overlap
     ethr =  3.78E-08,  avg # of iterations =  1.5

     total cpu time spent up to now is     1024.4 secs

     total energy              =   -1374.46689349 Ry
     estimated scf accuracy    <       0.00010762 Ry

     iteration # 77     ecut=    70.00 Ry     beta= 0.70
     Davidson diagonalization with overlap
     ethr =  3.78E-08,  avg # of iterations =  1.0

     total cpu time spent up to now is     1036.4 secs

     total energy              =   -1374.46689303 Ry
     estimated scf accuracy    <       0.00010792 Ry

     iteration # 78     ecut=    70.00 Ry     beta= 0.70
     Davidson diagonalization with overlap
     ethr =  3.78E-08,  avg # of iterations =  1.0

     total cpu time spent up to now is     1048.6 secs

     total energy              =   -1374.46689250 Ry
     estimated scf accuracy    <       0.00010479 Ry

     iteration # 79     ecut=    70.00 Ry     beta= 0.70
     Davidson diagonalization with overlap
     ethr =  3.78E-08,  avg # of iterations =  1.0

     total cpu time spent up to now is     1060.7 secs

     total energy              =   -1374.46689161 Ry
     estimated scf accuracy    <       0.00010437 Ry

     iteration # 80     ecut=    70.00 Ry     beta= 0.70
     Davidson diagonalization with overlap
     ethr =  3.78E-08,  avg # of iterations =  1.0

     total cpu time spent up to now is     1072.6 secs

     total energy              =   -1374.46689088 Ry
     estimated scf accuracy    <       0.00010251 Ry

     iteration # 81     ecut=    70.00 Ry     beta= 0.70
     Davidson diagonalization with overlap
     ethr =  3.78E-08,  avg # of iterations =  1.0

     total cpu time spent up to now is     1084.8 secs

     total energy              =   -1374.46689123 Ry
     estimated scf accuracy    <       0.00010103 Ry

     iteration # 82     ecut=    70.00 Ry     beta= 0.70
     Davidson diagonalization with overlap
     ethr =  3.78E-08,  avg # of iterations =  1.0

     total cpu time spent up to now is     1097.0 secs

     total energy              =   -1374.46688873 Ry
     estimated scf accuracy    <       0.00011265 Ry

     iteration # 83     ecut=    70.00 Ry     beta= 0.70
     Davidson diagonalization with overlap
     ethr =  3.78E-08,  avg # of iterations =  1.0

     total cpu time spent up to now is     1109.3 secs

     total energy              =   -1374.46682549 Ry
     estimated scf accuracy    <       0.00009939 Ry

     iteration # 84     ecut=    70.00 Ry     beta= 0.70
     Davidson diagonalization with overlap
     ethr =  3.78E-08,  avg # of iterations =  2.5

     total cpu time spent up to now is     1122.6 secs

     total energy              =   -1374.46635958 Ry
     estimated scf accuracy    <       0.08074663 Ry

     iteration # 85     ecut=    70.00 Ry     beta= 0.70
     Davidson diagonalization with overlap
     ethr =  3.78E-08,  avg # of iterations =  2.5

     total cpu time spent up to now is     1135.8 secs

     total energy              =   -1374.46688692 Ry
     estimated scf accuracy    <       0.00017802 Ry

     iteration # 86     ecut=    70.00 Ry     beta= 0.70
     Davidson diagonalization with overlap
     ethr =  3.78E-08,  avg # of iterations =  1.0

     total cpu time spent up to now is     1147.9 secs

     total energy              =   -1374.46688825 Ry
     estimated scf accuracy    <       0.00009536 Ry

     iteration # 87     ecut=    70.00 Ry     beta= 0.70
     Davidson diagonalization with overlap
     ethr =  3.78E-08,  avg # of iterations =  1.0

     total cpu time spent up to now is     1159.9 secs

     total energy              =   -1374.46688502 Ry
     estimated scf accuracy    <       0.00009480 Ry

     iteration # 88     ecut=    70.00 Ry     beta= 0.70
     Davidson diagonalization with overlap
     ethr =  3.78E-08,  avg # of iterations =  1.0

     total cpu time spent up to now is     1171.9 secs

     total energy              =   -1374.46688295 Ry
     estimated scf accuracy    <       0.00012819 Ry

     iteration # 89     ecut=    70.00 Ry     beta= 0.70
     Davidson diagonalization with overlap
     ethr =  3.78E-08,  avg # of iterations =  1.0

     total cpu time spent up to now is     1183.9 secs

     total energy              =   -1374.46688273 Ry
     estimated scf accuracy    <       0.00019275 Ry

     iteration # 90     ecut=    70.00 Ry     beta= 0.70
     Davidson diagonalization with overlap
     ethr =  3.78E-08,  avg # of iterations =  1.0

     total cpu time spent up to now is     1196.0 secs

     total energy              =   -1374.46688201 Ry
     estimated scf accuracy    <       0.00019374 Ry

     iteration # 91     ecut=    70.00 Ry     beta= 0.70
     Davidson diagonalization with overlap
     ethr =  3.78E-08,  avg # of iterations =  1.0

     total cpu time spent up to now is     1208.0 secs

     total energy              =   -1374.46688287 Ry
     estimated scf accuracy    <       0.00022722 Ry

     iteration # 92     ecut=    70.00 Ry     beta= 0.70
     Davidson diagonalization with overlap
     ethr =  3.78E-08,  avg # of iterations =  1.0

     total cpu time spent up to now is     1220.1 secs

     total energy              =   -1374.46688482 Ry
     estimated scf accuracy    <       0.00019219 Ry

     iteration # 93     ecut=    70.00 Ry     beta= 0.70
     Davidson diagonalization with overlap
     ethr =  3.78E-08,  avg # of iterations =  1.0

     total cpu time spent up to now is     1232.1 secs

     total energy              =   -1374.46689304 Ry
     estimated scf accuracy    <       0.00013166 Ry

     iteration # 94     ecut=    70.00 Ry     beta= 0.70
     Davidson diagonalization with overlap
     ethr =  3.78E-08,  avg # of iterations =  1.0

     total cpu time spent up to now is     1244.3 secs

     total energy              =   -1374.46689443 Ry
     estimated scf accuracy    <       0.00010384 Ry

     iteration # 95     ecut=    70.00 Ry     beta= 0.70
     Davidson diagonalization with overlap
     ethr =  3.78E-08,  avg # of iterations =  1.0

     total cpu time spent up to now is     1256.6 secs

     total energy              =   -1374.46689454 Ry
     estimated scf accuracy    <       0.00010545 Ry

     iteration # 96     ecut=    70.00 Ry     beta= 0.70
     Davidson diagonalization with overlap
     ethr =  3.78E-08,  avg # of iterations =  1.0

     total cpu time spent up to now is     1268.7 secs

     total energy              =   -1374.46689658 Ry
     estimated scf accuracy    <       0.00010274 Ry

     iteration # 97     ecut=    70.00 Ry     beta= 0.70
     Davidson diagonalization with overlap
     ethr =  3.78E-08,  avg # of iterations =  1.0

     total cpu time spent up to now is     1280.8 secs

     total energy              =   -1374.46689943 Ry
     estimated scf accuracy    <       0.00010894 Ry

     iteration # 98     ecut=    70.00 Ry     beta= 0.70
     Davidson diagonalization with overlap
     ethr =  3.78E-08,  avg # of iterations =  1.0

     total cpu time spent up to now is     1292.9 secs

     total energy              =   -1374.46691492 Ry
     estimated scf accuracy    <       0.00011445 Ry

     iteration # 99     ecut=    70.00 Ry     beta= 0.70
     Davidson diagonalization with overlap
     ethr =  3.78E-08,  avg # of iterations =  1.5

     total cpu time spent up to now is     1305.3 secs

     total energy              =   -1374.46691670 Ry
     estimated scf accuracy    <       0.00014858 Ry

     iteration #100     ecut=    70.00 Ry     beta= 0.70
     Davidson diagonalization with overlap
     ethr =  3.78E-08,  avg # of iterations =  1.0

     total cpu time spent up to now is     1317.4 secs

     total energy              =   -1374.46695333 Ry
     estimated scf accuracy    <       0.00014997 Ry

     End of self-consistent calculation

     convergence NOT achieved after 100 iterations: stopping

     Writing output data file /scratch/as3359/Ta2CH2-VCrelax/Ta.save/
 
     init_run     :     19.47s CPU     11.63s WALL (       1 calls)
     electrons    :   2497.34s CPU   1305.65s WALL (       1 calls)

     Called by init_run:
     wfcinit      :      9.31s CPU      4.79s WALL (       1 calls)
     potinit      :      2.91s CPU      1.48s WALL (       1 calls)
     hinit0       :      5.53s CPU      4.23s WALL (       1 calls)

     Called by electrons:
     c_bands      :   1750.36s CPU    888.01s WALL (     100 calls)
     sum_band     :    545.06s CPU    296.28s WALL (     100 calls)
     v_of_rho     :     31.17s CPU     16.16s WALL (     101 calls)
     newd         :    162.51s CPU    101.02s WALL (     101 calls)
     mix_rho      :      6.32s CPU      3.22s WALL (     100 calls)

     Called by c_bands:
     init_us_2    :     50.87s CPU     25.53s WALL (   14874 calls)
     cegterg      :   1592.93s CPU    808.61s WALL (    7403 calls)

     Called by *egterg:
     cdiaghg      :     41.39s CPU     21.13s WALL (   19743 calls)
     h_psi        :   1314.75s CPU    668.27s WALL (   19817 calls)
     s_psi        :     52.26s CPU     26.22s WALL (   19817 calls)
     g_psi        :      6.38s CPU      3.21s WALL (   12340 calls)

     Called by h_psi:
     h_psi:calbec :     49.66s CPU     24.96s WALL (   19817 calls)
     vloc_psi     :   1189.84s CPU    605.46s WALL (   19817 calls)
     add_vuspsi   :     63.46s CPU     31.83s WALL (   19817 calls)

     General routines
     calbec       :     69.62s CPU     35.01s WALL (   27217 calls)
     fft          :     16.79s CPU      8.56s WALL (    1313 calls)
     ffts         :      0.63s CPU      0.32s WALL (     201 calls)
     fftw         :   1295.79s CPU    659.37s WALL ( 1432788 calls)
     interpolate  :      1.88s CPU      0.97s WALL (     101 calls)
     davcio       :      0.02s CPU      0.09s WALL (      92 calls)
 
     Parallel routines
 
     PWSCF        :  41m57.10s CPU  21m58.91s WALL

 
   This run was terminated on:  15:10:35  19Apr2022            

=------------------------------------------------------------------------------=
   JOB DONE.
=------------------------------------------------------------------------------=
