
     Program PWSCF v.6.8 starts on 16Apr2022 at 21:48:30 

     This program is part of the open-source Quantum ESPRESSO suite
     for quantum simulation of materials; please cite
         "P. Giannozzi et al., J. Phys.:Condens. Matter 21 395502 (2009);
         "P. Giannozzi et al., J. Phys.:Condens. Matter 29 465901 (2017);
         "P. Giannozzi et al., J. Chem. Phys. 152 154105 (2020);
          URL http://www.quantum-espresso.org", 
     in publications or presentations arising from this work. More details at
     http://www.quantum-espresso.org/quote

     Parallel version (MPI & OpenMP), running on       4 processor cores
     Number of MPI processes:                 2
     Threads/MPI process:                     2

     MPI processes distributed on     1 nodes
     R & G space division:  proc/nbgrp/npool/nimage =       2
     117833 MiB available memory on the printing compute node when the environment starts
 
     Waiting for input...
     Reading input from standard input
Warning: card  O             -0.1374362000        0.0185582000       -0.8211192000 ignored

     Current dimensions of program PWSCF are:
     Max number of different atomic species (ntypx) = 10
     Max number of k-points (npk) =  40000
     Max angular momentum in pseudopotentials (lmaxx) =  4

     Atomic positions and unit cell read from directory:
     /scratch/as3359/Ta2CO2_bandsdos/Ta.save/
 
     file Ta.pbesol-spfn-rrkjus_psl.1.0.0.UPF: wavefunction(s)  5S 5P renormalized

     Subspace diagonalization in iterative solution of the eigenvalue problem:
     a serial algorithm will be used

 
     Parallelization info
     --------------------
     sticks:   dense  smooth     PW     G-vecs:    dense   smooth      PW
     Min         831     708    198               265345   210352   31066
     Max         832     709    199               265384   210405   31083
     Sum        1663    1417    397               530729   420757   62149
 
     Using Slab Decomposition
 


     bravais-lattice index     =            0
     lattice parameter (alat)  =       5.6500  a.u.
     unit-cell volume          =    1697.2493 (a.u.)^3
     number of atoms/cell      =            4
     number of atomic types    =            3
     number of electrons       =        64.00
     number of Kohn-Sham states=           42
     kinetic-energy cutoff     =     150.0000  Ry
     charge density cutoff     =     700.0000  Ry
     Exchange-correlation= PBESOL
                           (   1   4  10   8   0   0   0)

     celldm(1)=   5.650000  celldm(2)=   0.000000  celldm(3)=   0.000000
     celldm(4)=   0.000000  celldm(5)=   0.000000  celldm(6)=   0.000000

     crystal axes: (cart. coord. in units of alat)
               a(1) = (   1.043485   0.000819   0.000000 )  
               a(2) = (  -0.521734   0.901399   0.000000 )  
               a(3) = (   0.000000   0.000000  10.000000 )  

     reciprocal axes: (cart. coord. in units 2 pi/alat)
               b(1) = (  0.957892  0.554433  0.000000 )  
               b(2) = ( -0.000870  1.108883  0.000000 )  
               b(3) = (  0.000000  0.000000  0.100000 )  


     PseudoPot. # 1 for Ta read from file:
     /shared/home/as3359/pseudo/Ta.pbesol-spfn-rrkjus_psl.1.0.0.UPF
     MD5 check sum: f099565ffaca9b150a52e9412a28e20b
     Pseudo is Ultrasoft + core correction, Zval = 27.0
     Generated using &quot;atomic&quot; code by A. Dal Corso  v.6.3
     Using radial grid of 1273 points,  8 beta functions with: 
                l(1) =   0
                l(2) =   0
                l(3) =   1
                l(4) =   1
                l(5) =   2
                l(6) =   2
                l(7) =   3
                l(8) =   3
     Q(r) pseudized with 0 coefficients 


     PseudoPot. # 2 for C  read from file:
     /shared/home/as3359/pseudo/C.pbesol-n-rrkjus_psl.1.0.0.UPF
     MD5 check sum: 05995be603a8a7c99da3dc4413f31573
     Pseudo is Ultrasoft + core correction, Zval =  4.0
     Generated using &quot;atomic&quot; code by A. Dal Corso  v.6.3MaX
     Using radial grid of 1073 points,  4 beta functions with: 
                l(1) =   0
                l(2) =   0
                l(3) =   1
                l(4) =   1
     Q(r) pseudized with 0 coefficients 


     PseudoPot. # 3 for O  read from file:
     /shared/home/as3359/pseudo/O.pbesol-n-rrkjus_psl.1.0.0.UPF
     MD5 check sum: dd9bad2534826f832ffc9296591fc5de
     Pseudo is Ultrasoft + core correction, Zval =  6.0
     Generated using &quot;atomic&quot; code by A. Dal Corso  v.6.3MaX
     Using radial grid of 1095 points,  4 beta functions with: 
                l(1) =   0
                l(2) =   0
                l(3) =   1
                l(4) =   1
     Q(r) pseudized with 0 coefficients 


     atomic species   valence    mass     pseudopotential
        Ta            27.00   180.94788     Ta( 1.00)
        C              4.00    12.01070     C ( 1.00)
        O              6.00    15.99940     O ( 1.00)

     No symmetry found



   Cartesian axes

     site n.     atom                  positions (alat units)
         1           C   tau(   1) = (  -0.1376285   0.0180317   0.0193959  )
         2           Ta  tau(   2) = (   0.3841511   0.3192090  -0.4303689  )
         3           Ta  tau(   3) = (  -0.1376464   0.6197159   0.4272142  )
         4           O   tau(   4) = (   0.3845753   0.3202170   0.8049305  )

     number of k points=    91  Marzari-Vanderbilt smearing, width (Ry)=  0.0010
                       cart. coord. in units 2pi/alat
        k(    1) = (   0.0000000   0.0000000   0.0000000), wk =   0.0219780
        k(    2) = (   0.0212962  -0.0000002   0.0000000), wk =   0.0219780
        k(    3) = (   0.0425923  -0.0000004   0.0000000), wk =   0.0219780
        k(    4) = (   0.0638885  -0.0000006   0.0000000), wk =   0.0219780
        k(    5) = (   0.0851847  -0.0000008   0.0000000), wk =   0.0219780
        k(    6) = (   0.1064808  -0.0000010   0.0000000), wk =   0.0219780
        k(    7) = (   0.1277770  -0.0000012   0.0000000), wk =   0.0219780
        k(    8) = (   0.1490731  -0.0000014   0.0000000), wk =   0.0219780
        k(    9) = (   0.1703693  -0.0000016   0.0000000), wk =   0.0219780
        k(   10) = (   0.1916655  -0.0000018   0.0000000), wk =   0.0219780
        k(   11) = (   0.2129616  -0.0000020   0.0000000), wk =   0.0219780
        k(   12) = (   0.2342578  -0.0000022   0.0000000), wk =   0.0219780
        k(   13) = (   0.2555540  -0.0000024   0.0000000), wk =   0.0219780
        k(   14) = (   0.2768501  -0.0000026   0.0000000), wk =   0.0219780
        k(   15) = (   0.2981463  -0.0000028   0.0000000), wk =   0.0219780
        k(   16) = (   0.3194425  -0.0000030   0.0000000), wk =   0.0219780
        k(   17) = (   0.3407386  -0.0000032   0.0000000), wk =   0.0219780
        k(   18) = (   0.3620348  -0.0000034   0.0000000), wk =   0.0219780
        k(   19) = (   0.3833310  -0.0000036   0.0000000), wk =   0.0219780
        k(   20) = (   0.4046271  -0.0000038   0.0000000), wk =   0.0219780
        k(   21) = (   0.4259233  -0.0000040   0.0000000), wk =   0.0219780
        k(   22) = (   0.4472194  -0.0000042   0.0000000), wk =   0.0219780
        k(   23) = (   0.4685156  -0.0000044   0.0000000), wk =   0.0219780
        k(   24) = (   0.4898118  -0.0000046   0.0000000), wk =   0.0219780
        k(   25) = (   0.5111079  -0.0000048   0.0000000), wk =   0.0219780
        k(   26) = (   0.5324041  -0.0000050   0.0000000), wk =   0.0219780
        k(   27) = (   0.5537003  -0.0000052   0.0000000), wk =   0.0219780
        k(   28) = (   0.5749964  -0.0000054   0.0000000), wk =   0.0219780
        k(   29) = (   0.5962926  -0.0000056   0.0000000), wk =   0.0219780
        k(   30) = (   0.6175888  -0.0000058   0.0000000), wk =   0.0219780
        k(   31) = (   0.6388849  -0.0000060   0.0000000), wk =   0.0219780
        k(   32) = (   0.6335681  -0.0092466   0.0000000), wk =   0.0219780
        k(   33) = (   0.6282514  -0.0184873   0.0000000), wk =   0.0219780
        k(   34) = (   0.6229346  -0.0277279   0.0000000), wk =   0.0219780
        k(   35) = (   0.6176178  -0.0369686   0.0000000), wk =   0.0219780
        k(   36) = (   0.6123010  -0.0462092   0.0000000), wk =   0.0219780
        k(   37) = (   0.6069842  -0.0554499   0.0000000), wk =   0.0219780
        k(   38) = (   0.6016674  -0.0646905   0.0000000), wk =   0.0219780
        k(   39) = (   0.5963506  -0.0739311   0.0000000), wk =   0.0219780
        k(   40) = (   0.5910338  -0.0831718   0.0000000), wk =   0.0219780
        k(   41) = (   0.5857170  -0.0924124   0.0000000), wk =   0.0219780
        k(   42) = (   0.5804003  -0.1016531   0.0000000), wk =   0.0219780
        k(   43) = (   0.5750835  -0.1108937   0.0000000), wk =   0.0219780
        k(   44) = (   0.5697667  -0.1201344   0.0000000), wk =   0.0219780
        k(   45) = (   0.5644499  -0.1293750   0.0000000), wk =   0.0219780
        k(   46) = (   0.5591331  -0.1386157   0.0000000), wk =   0.0219780
        k(   47) = (   0.5538163  -0.1478563   0.0000000), wk =   0.0219780
        k(   48) = (   0.5484995  -0.1570969   0.0000000), wk =   0.0219780
        k(   49) = (   0.5431827  -0.1663376   0.0000000), wk =   0.0219780
        k(   50) = (   0.5378660  -0.1755782   0.0000000), wk =   0.0219780
        k(   51) = (   0.5325492  -0.1848189   0.0000000), wk =   0.0219780
        k(   52) = (   0.5272324  -0.1940595   0.0000000), wk =   0.0219780
        k(   53) = (   0.5219156  -0.2033002   0.0000000), wk =   0.0219780
        k(   54) = (   0.5165988  -0.2125408   0.0000000), wk =   0.0219780
        k(   55) = (   0.5112820  -0.2217814   0.0000000), wk =   0.0219780
        k(   56) = (   0.5059652  -0.2310221   0.0000000), wk =   0.0219780
        k(   57) = (   0.5006484  -0.2402627   0.0000000), wk =   0.0219780
        k(   58) = (   0.4953316  -0.2495034   0.0000000), wk =   0.0219780
        k(   59) = (   0.4900149  -0.2587440   0.0000000), wk =   0.0219780
        k(   60) = (   0.4846981  -0.2679847   0.0000000), wk =   0.0219780
        k(   61) = (   0.4793813  -0.2772253   0.0000000), wk =   0.0219780
        k(   62) = (   0.4634019  -0.2679845   0.0000000), wk =   0.0219780
        k(   63) = (   0.4474225  -0.2587436   0.0000000), wk =   0.0219780
        k(   64) = (   0.4314432  -0.2495028   0.0000000), wk =   0.0219780
        k(   65) = (   0.4154638  -0.2402619   0.0000000), wk =   0.0219780
        k(   66) = (   0.3994844  -0.2310211   0.0000000), wk =   0.0219780
        k(   67) = (   0.3835050  -0.2217802   0.0000000), wk =   0.0219780
        k(   68) = (   0.3675256  -0.2125394   0.0000000), wk =   0.0219780
        k(   69) = (   0.3515463  -0.2032986   0.0000000), wk =   0.0219780
        k(   70) = (   0.3355669  -0.1940577   0.0000000), wk =   0.0219780
        k(   71) = (   0.3195875  -0.1848169   0.0000000), wk =   0.0219780
        k(   72) = (   0.3036081  -0.1755760   0.0000000), wk =   0.0219780
        k(   73) = (   0.2876288  -0.1663352   0.0000000), wk =   0.0219780
        k(   74) = (   0.2716494  -0.1570943   0.0000000), wk =   0.0219780
        k(   75) = (   0.2556700  -0.1478535   0.0000000), wk =   0.0219780
        k(   76) = (   0.2396906  -0.1386127   0.0000000), wk =   0.0219780
        k(   77) = (   0.2237113  -0.1293718   0.0000000), wk =   0.0219780
        k(   78) = (   0.2077319  -0.1201310   0.0000000), wk =   0.0219780
        k(   79) = (   0.1917525  -0.1108901   0.0000000), wk =   0.0219780
        k(   80) = (   0.1757731  -0.1016493   0.0000000), wk =   0.0219780
        k(   81) = (   0.1597938  -0.0924084   0.0000000), wk =   0.0219780
        k(   82) = (   0.1438144  -0.0831676   0.0000000), wk =   0.0219780
        k(   83) = (   0.1278350  -0.0739267   0.0000000), wk =   0.0219780
        k(   84) = (   0.1118556  -0.0646859   0.0000000), wk =   0.0219780
        k(   85) = (   0.0958763  -0.0554451   0.0000000), wk =   0.0219780
        k(   86) = (   0.0798969  -0.0462042   0.0000000), wk =   0.0219780
        k(   87) = (   0.0639175  -0.0369634   0.0000000), wk =   0.0219780
        k(   88) = (   0.0479381  -0.0277225   0.0000000), wk =   0.0219780
        k(   89) = (   0.0319588  -0.0184817   0.0000000), wk =   0.0219780
        k(   90) = (   0.0159794  -0.0092408   0.0000000), wk =   0.0219780
        k(   91) = (   0.0000000   0.0000000   0.0000000), wk =   0.0219780

     Dense  grid:   530729 G-vectors     FFT dimensions: (  50,  50, 480)

     Smooth grid:   420757 G-vectors     FFT dimensions: (  45,  45, 450)

     Estimated max dynamical RAM per process >       2.36 GB

     Estimated total dynamical RAM >       4.71 GB

     The potential is recalculated from file :
     /scratch/as3359/Ta2CO2_bandsdos/Ta.save/charge-density


     negative rho (up, down):  1.122E-04 0.000E+00
     Starting wfcs are   42 randomized atomic wfcs

     Band Structure Calculation
     Davidson diagonalization with overlap

     ethr =  1.00E-13,  avg # of iterations = 72.7

     total cpu time spent up to now is      901.1 secs

     End of band structure calculation

          k = 0.0000 0.0000 0.0000 ( 52817 PWs)   bands (ev):

   -69.6003 -68.6965 -36.2084 -35.8427 -35.8403 -35.3396 -34.7813 -34.7798
   -21.3057 -21.2095 -21.2029 -21.2025 -21.1865 -21.1860 -21.1641 -20.4203
   -20.3843 -20.3829 -20.3529 -20.3528 -20.3193 -20.2726 -19.6937 -13.1245
    -7.8747  -6.1933  -6.1728  -4.6244  -3.0720  -3.0536  -1.2470  -0.8070
    -0.5512  -0.5193   1.5079   1.5283   2.1864   2.2094   2.2233   4.1572
     4.5093   4.7930

          k = 0.0213-0.0000 0.0000 ( 52821 PWs)   bands (ev):

   -69.6002 -68.6964 -36.2079 -35.8452 -35.8409 -35.3394 -34.7819 -34.7816
   -21.3054 -21.2095 -21.2029 -21.2025 -21.1865 -21.1860 -21.1642 -20.4203
   -20.3843 -20.3830 -20.3529 -20.3528 -20.3191 -20.2727 -19.6913 -13.1217
    -7.8664  -6.2018  -6.1691  -4.6106  -3.1017  -3.0620  -1.2510  -0.8243
    -0.5310  -0.5096   1.4982   1.5392   2.1880   2.2189   2.2312   4.1655
     4.5240   4.8015

          k = 0.0426-0.0000 0.0000 ( 52797 PWs)   bands (ev):

   -69.5998 -68.6961 -36.2062 -35.8528 -35.8425 -35.3385 -34.7877 -34.7831
   -21.3045 -21.2093 -21.2031 -21.2023 -21.1865 -21.1863 -21.1646 -20.4201
   -20.3844 -20.3832 -20.3529 -20.3526 -20.3188 -20.2730 -19.6840 -13.1132
    -7.8416  -6.2263  -6.1572  -4.5706  -3.1877  -3.0865  -1.2646  -0.8644
    -0.5000  -0.4627   1.4720   1.5708   2.1933   2.2220   2.2786   4.1904
     4.5665   4.8271

          k = 0.0639-0.0000 0.0000 ( 52792 PWs)   bands (ev):

   -69.5991 -68.6955 -36.2035 -35.8652 -35.8452 -35.3372 -34.7973 -34.7854
   -21.3031 -21.2090 -21.2034 -21.2019 -21.1867 -21.1865 -21.1653 -20.4198
   -20.3845 -20.3835 -20.3530 -20.3524 -20.3183 -20.2736 -19.6722 -13.0990
    -7.8006  -6.2632  -6.1376  -4.5088  -3.3205  -3.1282  -1.2914  -0.9097
    -0.4790  -0.3773   1.4369   1.6195   2.1969   2.2283   2.3599   4.2319
     4.6325   4.8697

          k = 0.0852-0.0000 0.0000 ( 52803 PWs)   bands (ev):

   -69.5983 -68.6947 -36.1997 -35.8823 -35.8490 -35.3354 -34.8105 -34.7887
   -21.3012 -21.2086 -21.2038 -21.2015 -21.1871 -21.1867 -21.1662 -20.4195
   -20.3846 -20.3840 -20.3531 -20.3520 -20.3176 -20.2744 -19.6560 -13.0792
    -7.7442  -6.3076  -6.1110  -4.4310  -3.4879  -3.1879  -1.3339  -0.9491
    -0.4640  -0.2698   1.4023   1.6806   2.1905   2.2453   2.4729   4.2901
     4.7167   4.9291

          k = 0.1065-0.0000 0.0000 ( 52765 PWs)   bands (ev):

   -69.5971 -68.6937 -36.1950 -35.9036 -35.8538 -35.3332 -34.8269 -34.7929
   -21.2988 -21.2082 -21.2042 -21.2009 -21.1877 -21.1868 -21.1673 -20.4190
   -20.3849 -20.3845 -20.3532 -20.3516 -20.3167 -20.2755 -19.6361 -13.0539
    -7.6734  -6.3546  -6.0785  -4.3434  -3.6781  -3.2659  -1.3930  -0.9770
    -0.4562  -0.1460   1.3768   1.7503   2.1757   2.2699   2.6163   4.3651
     4.8138   5.0051

          k = 0.1278-0.0000 0.0000 ( 52757 PWs)   bands (ev):

   -69.5958 -68.6925 -36.1893 -35.9286 -35.8598 -35.3307 -34.8464 -34.7980
   -21.2960 -21.2076 -21.2048 -21.2002 -21.1885 -21.1870 -21.1686 -20.4185
   -20.3854 -20.3848 -20.3533 -20.3511 -20.3156 -20.2767 -19.6130 -13.0229
    -7.5893  -6.4001  -6.0417  -4.2543  -3.8788  -3.3617  -1.4666  -0.9928
    -0.4535  -0.0097   1.3666   1.8262   2.1553   2.2983   2.7867   4.4569
     4.9204   5.0963

          k = 0.1491-0.0000 0.0000 ( 52772 PWs)   bands (ev):

   -69.5942 -68.6911 -36.1828 -35.9568 -35.8669 -35.3279 -34.8684 -34.8040
   -21.2928 -21.2070 -21.2053 -21.1993 -21.1893 -21.1872 -21.1701 -20.4179
   -20.3861 -20.3850 -20.3534 -20.3506 -20.3143 -20.2780 -19.5872 -12.9864
    -7.4937  -6.4407  -6.0029  -4.1988  -4.0513  -3.4732  -1.5510  -1.0006
    -0.4498   0.1362   1.3743   1.9077   2.1325   2.3280   2.9797   4.5656
     5.0345   5.2011

          k = 0.1704-0.0000 0.0000 ( 52743 PWs)   bands (ev):

   -69.5925 -68.6896 -36.1755 -35.9877 -35.8751 -35.3248 -34.8926 -34.8110
   -21.2893 -21.2064 -21.2056 -21.1984 -21.1902 -21.1874 -21.1718 -20.4172
   -20.3869 -20.3853 -20.3536 -20.3500 -20.3129 -20.2796 -19.5595 -12.9445
    -7.3885  -6.4739  -5.9653  -4.3360  -4.0336  -3.5973  -1.6416  -1.0068
    -0.4365   0.2894   1.3991   1.9952   2.1112   2.3578   3.1898   4.6915
     5.1555   5.3174

          k = 0.1917-0.0000 0.0000 ( 52743 PWs)   bands (ev):

   -69.5906 -68.6879 -36.1676 -36.0205 -35.8844 -35.3216 -34.9185 -34.8190
   -21.2856 -21.2065 -21.2052 -21.1974 -21.1912 -21.1876 -21.1736 -20.4165
   -20.3878 -20.3856 -20.3537 -20.3493 -20.3114 -20.2812 -19.5306 -12.8971
    -7.2765  -6.4974  -5.9336  -4.5305  -3.9593  -3.7287  -1.7332  -1.0179
    -0.4058   0.4478   1.4361   2.0875   2.1000   2.3874   3.4120   4.8343
     5.2819   5.4436

          k = 0.2130-0.0000 0.0000 ( 52747 PWs)   bands (ev):

   -69.5886 -68.6861 -36.1592 -36.0548 -35.8949 -35.3183 -34.9456 -34.8278
   -21.2818 -21.2069 -21.2044 -21.1963 -21.1923 -21.1879 -21.1754 -20.4157
   -20.3888 -20.3859 -20.3538 -20.3486 -20.3097 -20.2830 -19.5011 -12.8444
    -7.1610  -6.5093  -5.9145  -4.7138  -3.9195  -3.8363  -1.8203  -1.0369
    -0.3537   0.6088   1.4767   2.0993   2.1938   2.4182   3.6418   4.9938
     5.4103   5.5793

          k = 0.2343-0.0000 0.0000 ( 52734 PWs)   bands (ev):

   -69.5865 -68.6842 -36.1503 -36.0899 -35.9066 -35.3150 -34.9734 -34.8376
   -21.2778 -21.2072 -21.2035 -21.1953 -21.1934 -21.1881 -21.1774 -20.4149
   -20.3897 -20.3862 -20.3539 -20.3479 -20.3080 -20.2848 -19.4715 -12.7865
    -7.0467  -6.5073  -5.9166  -4.8710  -4.0303  -3.8084  -1.8972  -1.0625
    -0.2815   0.7687   1.5107   2.1278   2.3041   2.4550   3.8755   5.1694
     5.5346   5.7259

          k = 0.2556-0.0000 0.0000 ( 52733 PWs)   bands (ev):

   -69.5843 -68.6823 -36.1411 -36.1250 -35.9193 -35.3116 -35.0013 -34.8483
   -21.2739 -21.2074 -21.2025 -21.1945 -21.1942 -21.1883 -21.1793 -20.4141
   -20.3907 -20.3866 -20.3540 -20.3472 -20.3063 -20.2867 -19.4425 -12.7238
    -6.9398  -6.4890  -5.9482  -4.9912  -4.1704  -3.7674  -1.9578  -1.0913
    -0.1938   0.9221   1.5317   2.1890   2.4089   2.5150   4.1102   5.3599
     5.6471   5.8844

          k = 0.2769-0.0000 0.0000 ( 52707 PWs)   bands (ev):

   -69.5821 -68.6803 -36.1597 -36.1317 -35.9332 -35.3082 -35.0289 -34.8599
   -21.2700 -21.2074 -21.2014 -21.1957 -21.1932 -21.1885 -21.1813 -20.4132
   -20.3917 -20.3870 -20.3540 -20.3465 -20.3045 -20.2886 -19.4145 -12.6565
    -6.8477  -6.4542  -6.0097  -5.0695  -4.3098  -3.7433  -1.9971  -1.1199
    -0.0951   1.0611   1.5420   2.2826   2.4803   2.6311   4.3436   5.5632
     5.7437   6.0453

          k = 0.2981-0.0000 0.0000 ( 52726 PWs)   bands (ev):

   -69.5799 -68.6783 -36.1933 -36.1223 -35.9482 -35.3049 -35.0557 -34.8724
   -21.2663 -21.2074 -21.2003 -21.1968 -21.1924 -21.1885 -21.1832 -20.4123
   -20.3926 -20.3875 -20.3541 -20.3458 -20.3026 -20.2905 -19.3878 -12.5853
    -6.7753  -6.4148  -6.0817  -5.1113  -4.4442  -3.7393  -2.0111  -1.1459
     0.0107   1.1735   1.5527   2.4017   2.5364   2.7890   4.5732   5.7710
     5.8286   6.1417

          k = 0.3194-0.0000 0.0000 ( 52729 PWs)   bands (ev):

   -69.5777 -68.6763 -36.2252 -36.1129 -35.9643 -35.3017 -35.0813 -34.8857
   -21.2628 -21.2071 -21.1991 -21.1978 -21.1918 -21.1884 -21.1851 -20.4115
   -20.3935 -20.3879 -20.3541 -20.3452 -20.3008 -20.2924 -19.3627 -12.5108
    -6.7220  -6.4148  -6.1122  -5.1287  -4.5709  -3.7553  -1.9986  -1.1682
     0.1210   1.2460   1.5785   2.5307   2.6038   2.9716   4.7955   5.8808
     5.9865   6.1708

          k = 0.3407-0.0000 0.0000 ( 52702 PWs)   bands (ev):

   -69.5755 -68.6744 -36.2549 -36.1038 -35.9814 -35.2986 -35.1052 -34.8998
   -21.2595 -21.2068 -21.1989 -21.1978 -21.1916 -21.1880 -21.1869 -20.4106
   -20.3943 -20.3884 -20.3540 -20.3446 -20.2991 -20.2943 -19.3393 -12.4338
    -6.6854  -6.4839  -6.0654  -5.1337  -4.6873  -3.7889  -1.9606  -1.1861
     0.2346   1.2756   1.6242   2.6234   2.7221   3.1745   5.0045   5.9294
     6.0805   6.3113

          k = 0.3620-0.0000 0.0000 ( 52681 PWs)   bands (ev):

   -69.5734 -68.6725 -36.2820 -36.0949 -35.9995 -35.2957 -35.1270 -34.9146
   -21.2565 -21.2063 -21.1998 -21.1967 -21.1915 -21.1887 -21.1874 -20.4098
   -20.3950 -20.3889 -20.3539 -20.3441 -20.2975 -20.2960 -19.3177 -12.3555
    -6.6790  -6.5642  -5.9806  -5.1360  -4.7894  -3.8364  -1.9002  -1.1996
     0.3511   1.2760   1.6794   2.6869   2.8704   3.3965   5.1895   5.9503
     6.1241   6.5496

          k = 0.3833-0.0000 0.0000 ( 52697 PWs)   bands (ev):

   -69.5714 -68.6707 -36.3061 -36.0866 -36.0183 -35.2929 -35.1464 -34.9302
   -21.2537 -21.2057 -21.2007 -21.1957 -21.1915 -21.1903 -21.1868 -20.4090
   -20.3957 -20.3895 -20.3538 -20.3437 -20.2980 -20.2956 -19.2979 -12.2771
    -6.7462  -6.5796  -5.8887  -5.1454  -4.8702  -3.8940  -1.8219  -1.2082
     0.4703   1.2627   1.7332   2.7404   3.0118   3.6360   5.3353   5.9512
     6.2071   6.8120

          k = 0.4046-0.0000 0.0000 ( 52673 PWs)   bands (ev):

   -69.5695 -68.6690 -36.3267 -36.0791 -36.0377 -35.2903 -35.1632 -34.9464
   -21.2512 -21.2051 -21.2013 -21.1950 -21.1920 -21.1911 -21.1864 -20.4082
   -20.3962 -20.3900 -20.3536 -20.3433 -20.2996 -20.2941 -19.2800 -12.2000
    -6.8408  -6.5636  -5.8025  -5.1733  -4.9181  -3.9581  -1.7307  -1.2110
     0.5920   1.2444   1.7810   2.7815   3.1312   3.8907   5.4311   5.9468
     6.3387   7.0892

          k = 0.4259-0.0000 0.0000 ( 52645 PWs)   bands (ev):

   -69.5677 -68.6674 -36.3437 -36.0744 -36.0557 -35.2879 -35.1771 -34.9632
   -21.2490 -21.2046 -21.2017 -21.1948 -21.1933 -21.1905 -21.1860 -20.4075
   -20.3967 -20.3906 -20.3533 -20.3431 -20.3012 -20.2926 -19.2637 -12.1256
    -6.9270  -6.5458  -5.7302  -5.2220  -4.9288  -4.0262  -1.6321  -1.2061
     0.7156   1.2255   1.8219   2.8045   3.2198   4.1561   5.4805   5.9391
     6.5134   7.3801

          k = 0.4472-0.0000 0.0000 ( 52633 PWs)   bands (ev):

   -69.5661 -68.6660 -36.3567 -36.0846 -36.0600 -35.2857 -35.1879 -34.9805
   -21.2470 -21.2044 -21.2017 -21.1950 -21.1946 -21.1898 -21.1857 -20.4068
   -20.3970 -20.3912 -20.3530 -20.3430 -20.3026 -20.2913 -19.2490 -12.0555
    -6.9965  -6.5313  -5.6809  -5.2744  -4.9133  -4.0963  -1.5325  -1.1907
     0.8398   1.2083   1.8560   2.8042   3.2744   4.4264   5.4917   5.9311
     6.7134   7.6840

          k = 0.4685-0.0000 0.0000 ( 52619 PWs)   bands (ev):

   -69.5646 -68.6647 -36.3657 -36.1051 -36.0553 -35.2838 -35.1955 -34.9982
   -21.2451 -21.2044 -21.2014 -21.1957 -21.1952 -21.1891 -21.1854 -20.4061
   -20.3973 -20.3918 -20.3527 -20.3429 -20.3039 -20.2901 -19.2359 -11.9911
    -7.0453  -6.5213  -5.6697  -5.3054  -4.8843  -4.1675  -1.4396  -1.1601
     0.9627   1.1944   1.8834   2.7774   3.2965   4.6926   5.4656   5.9359
     6.9150   7.9886

          k = 0.4898-0.0000 0.0000 ( 52594 PWs)   bands (ev):

   -69.5633 -68.6635 -36.3705 -36.1273 -36.0502 -35.2820 -35.1999 -35.0163
   -21.2435 -21.2045 -21.2008 -21.1966 -21.1957 -21.1889 -21.1850 -20.4056
   -20.3974 -20.3924 -20.3523 -20.3430 -20.3051 -20.2890 -19.2243 -11.9338
    -7.0714  -6.5157  -5.7083  -5.2968  -4.8501  -4.2392  -1.3609  -1.1102
     1.0821   1.1843   1.9042   2.7233   3.2909   4.9340   5.4166   5.9642
     7.0915   8.1741

          k = 0.5111-0.0000 0.0000 ( 52535 PWs)   bands (ev):

   -69.5622 -68.6625 -36.3712 -36.1501 -36.0456 -35.2805 -35.2010 -35.0345
   -21.2419 -21.2047 -21.2003 -21.1973 -21.1961 -21.1891 -21.1844 -20.4050
   -20.3974 -20.3930 -20.3519 -20.3432 -20.3061 -20.2881 -19.2141 -11.8844
    -7.0732  -6.5137  -5.7873  -5.2541  -4.8169  -4.3111  -1.2982  -1.0433
     1.1787   1.1954   1.9179   2.6454   3.2639   5.0711   5.4324   6.0144
     7.2186   8.2835

          k = 0.5324-0.0000 0.0000 ( 52526 PWs)   bands (ev):

   -69.5613 -68.6617 -36.3679 -36.1731 -36.0416 -35.2793 -35.1990 -35.0528
   -21.2406 -21.2048 -21.2001 -21.1976 -21.1965 -21.1897 -21.1838 -20.4046
   -20.3973 -20.3936 -20.3515 -20.3434 -20.3070 -20.2874 -19.2053 -11.8437
    -7.0502  -6.5142  -5.8907  -5.1913  -4.7888  -4.3831  -1.2457  -0.9700
     1.1781   1.3003   1.9216   2.5516   3.2221   5.0346   5.5941   6.0807
     7.2917   8.4407

          k = 0.5537-0.0000 0.0000 ( 52542 PWs)   bands (ev):

   -69.5605 -68.6610 -36.3608 -36.1961 -36.0384 -35.2782 -35.1940 -35.0709
   -21.2394 -21.2048 -21.2001 -21.1977 -21.1966 -21.1905 -21.1832 -20.4042
   -20.3971 -20.3942 -20.3511 -20.3437 -20.3077 -20.2868 -19.1980 -11.8117
    -7.0025  -6.5159  -6.0091  -5.1168  -4.7685  -4.4550  -1.1970  -0.9024
     1.1830   1.3952   1.9083   2.4565   3.1729   4.9440   5.7836   6.1645
     7.3290   8.6246

          k = 0.5750-0.0000 0.0000 ( 52530 PWs)   bands (ev):

   -69.5600 -68.6605 -36.3503 -36.2188 -36.0359 -35.2774 -35.1862 -35.0887
   -21.2383 -21.2048 -21.2002 -21.1980 -21.1963 -21.1915 -21.1827 -20.4039
   -20.3968 -20.3948 -20.3507 -20.3441 -20.3083 -20.2863 -19.1923 -11.7882
    -6.9309  -6.5174  -6.1379  -5.0354  -4.7573  -4.5263  -1.1492  -0.8503
     1.1937   1.4791   1.8672   2.3803   3.1237   4.8589   5.9298   6.2724
     7.3533   8.7639

          k = 0.5963-0.0000 0.0000 ( 52520 PWs)   bands (ev):

   -69.5596 -68.6602 -36.3371 -36.2406 -36.0341 -35.2768 -35.1764 -35.1056
   -21.2376 -21.2049 -21.2002 -21.1983 -21.1958 -21.1925 -21.1823 -20.4037
   -20.3964 -20.3954 -20.3503 -20.3444 -20.3087 -20.2860 -19.1880 -11.7726
    -6.8374  -6.5179  -6.2739  -4.9513  -4.7558  -4.5952  -1.1028  -0.8199
     1.2095   1.5519   1.7964   2.3364   3.0819   4.7946   6.0182   6.3891
     7.3794   8.7107

          k = 0.6176-0.0000 0.0000 ( 52532 PWs)   bands (ev):

   -69.5593 -68.6600 -36.3233 -36.2595 -36.0331 -35.2765 -35.1662 -35.1200
   -21.2371 -21.2049 -21.2003 -21.1986 -21.1952 -21.1934 -21.1820 -20.4036
   -20.3963 -20.3956 -20.3501 -20.3446 -20.3089 -20.2858 -19.1855 -11.7639
    -6.7261  -6.5179  -6.4112  -4.8730  -4.7624  -4.6565  -1.0632  -0.8117
     1.2263   1.6131   1.7155   2.3195   3.0539   4.7557   6.0646   6.4750
     7.4085   8.5930

          k = 0.6389-0.0000 0.0000 ( 52552 PWs)   bands (ev):

   -69.5592 -68.6599 -36.3160 -36.2686 -36.0327 -35.2763 -35.1622 -35.1256
   -21.2369 -21.2049 -21.2003 -21.1988 -21.1950 -21.1937 -21.1819 -20.4035
   -20.3968 -20.3952 -20.3500 -20.3447 -20.3090 -20.2858 -19.1846 -11.7611
    -6.6352  -6.5400  -6.4892  -4.8372  -4.7649  -4.6867  -1.0454  -0.8135
     1.2343   1.6551   1.6626   2.3168   3.0442   4.7432   6.0798   6.5055
     7.4237   8.5454

          k = 0.6336-0.0092 0.0000 ( 52556 PWs)   bands (ev):

   -69.5593 -68.6599 -36.3183 -36.2659 -36.0328 -35.2764 -35.1638 -35.1236
   -21.2370 -21.2049 -21.2003 -21.1987 -21.1951 -21.1936 -21.1819 -20.4035
   -20.3968 -20.3952 -20.3501 -20.3447 -20.3090 -20.2858 -19.1848 -11.7617
    -6.6726  -6.5183  -6.4713  -4.8471  -4.7668  -4.6758  -1.0518  -0.8109
     1.2317   1.6450   1.6769   2.3176   3.0466   4.7463   6.0754   6.4994
     7.4191   8.5568

          k = 0.6283-0.0185 0.0000 ( 52556 PWs)   bands (ev):

   -69.5593 -68.6599 -36.3245 -36.2586 -36.0330 -35.2765 -35.1684 -35.1181
   -21.2371 -21.2049 -21.2003 -21.1986 -21.1952 -21.1933 -21.1820 -20.4035
   -20.3969 -20.3951 -20.3501 -20.3446 -20.3089 -20.2858 -19.1854 -11.7633
    -6.7406  -6.5025  -6.4130  -4.8701  -4.7746  -4.6480  -1.0727  -0.8012
     1.2236   1.6441   1.6910   2.3201   3.0537   4.7558   6.0608   6.4840
     7.4058   8.5875

          k = 0.6229-0.0277 0.0000 ( 52546 PWs)   bands (ev):

   -69.5594 -68.6600 -36.3326 -36.2487 -36.0334 -35.2766 -35.1746 -35.1105
   -21.2373 -21.2049 -21.2004 -21.1985 -21.1952 -21.1931 -21.1820 -20.4036
   -20.3970 -20.3949 -20.3502 -20.3445 -20.3088 -20.2859 -19.1865 -11.7658
    -6.8145  -6.4933  -6.3382  -4.8989  -4.7853  -4.6134  -1.1073  -0.7844
     1.2110   1.6559   1.7006   2.3248   3.0650   4.7713   6.0336   6.4637
     7.3858   8.6279

          k = 0.6176-0.0370 0.0000 ( 52534 PWs)   bands (ev):

   -69.5595 -68.6601 -36.3416 -36.2373 -36.0339 -35.2768 -35.1815 -35.1016
   -21.2377 -21.2049 -21.2005 -21.1984 -21.1952 -21.1927 -21.1821 -20.4037
   -20.3972 -20.3946 -20.3504 -20.3443 -20.3087 -20.2860 -19.1880 -11.7691
    -6.8905  -6.4841  -6.2575  -4.9303  -4.7972  -4.5771  -1.1531  -0.7620
     1.1959   1.6778   1.7059   2.3322   3.0798   4.7925   5.9919   6.4430
     7.3617   8.6641

          k = 0.6123-0.0462 0.0000 ( 52544 PWs)   bands (ev):

   -69.5596 -68.6602 -36.3510 -36.2250 -36.0345 -35.2770 -35.1886 -35.0920
   -21.2381 -21.2049 -21.2007 -21.1982 -21.1950 -21.1924 -21.1822 -20.4037
   -20.3975 -20.3943 -20.3506 -20.3441 -20.3086 -20.2861 -19.1899 -11.7730
    -6.9671  -6.4740  -6.1737  -4.9627  -4.8095  -4.5412  -1.2073  -0.7356
     1.1801   1.6995   1.7150   2.3425   3.0975   4.8190   5.9348   6.4251
     7.3357   8.6815

          k = 0.6070-0.0554 0.0000 ( 52544 PWs)   bands (ev):

   -69.5598 -68.6604 -36.3605 -36.2121 -36.0352 -35.2772 -35.1958 -35.0820
   -21.2387 -21.2049 -21.2009 -21.1979 -21.1948 -21.1920 -21.1823 -20.4038
   -20.3977 -20.3940 -20.3508 -20.3439 -20.3084 -20.2862 -19.1921 -11.7775
    -7.0438  -6.4625  -6.0878  -4.9953  -4.8219  -4.5069  -1.2677  -0.7067
     1.1652   1.6981   1.7492   2.3563   3.1173   4.8499   5.8639   6.4116
     7.3092   8.6734

          k = 0.6017-0.0647 0.0000 ( 52548 PWs)   bands (ev):

   -69.5599 -68.6605 -36.3699 -36.1987 -36.0360 -35.2776 -35.2030 -35.0716
   -21.2393 -21.2049 -21.2012 -21.1976 -21.1945 -21.1916 -21.1825 -20.4040
   -20.3979 -20.3937 -20.3510 -20.3437 -20.3082 -20.2863 -19.1948 -11.7823
    -7.1202  -6.4496  -6.0011  -5.0274  -4.8342  -4.4745  -1.3322  -0.6761
     1.1521   1.6899   1.7907   2.3734   3.1385   4.8841   5.7823   6.4024
     7.2832   8.6426

          k = 0.5964-0.0739 0.0000 ( 52546 PWs)   bands (ev):

   -69.5601 -68.6607 -36.3792 -36.1851 -36.0368 -35.2779 -35.2100 -35.0609
   -21.2400 -21.2049 -21.2014 -21.1973 -21.1942 -21.1912 -21.1826 -20.4041
   -20.3982 -20.3934 -20.3513 -20.3434 -20.3079 -20.2865 -19.1978 -11.7874
    -7.1959  -6.4352  -5.9145  -5.0585  -4.8459  -4.4446  -1.3992  -0.6444
     1.1412   1.6786   1.8357   2.3938   3.1602   4.9198   5.6945   6.3966
     7.2579   8.5950

          k = 0.5910-0.0832 0.0000 ( 52567 PWs)   bands (ev):

   -69.5603 -68.6609 -36.3882 -36.1714 -36.0378 -35.2783 -35.2168 -35.0502
   -21.2407 -21.2050 -21.2017 -21.1969 -21.1938 -21.1908 -21.1827 -20.4042
   -20.3984 -20.3931 -20.3515 -20.3432 -20.3077 -20.2866 -19.2011 -11.7928
    -7.2705  -6.4193  -5.8294  -5.0881  -4.8567  -4.4173  -1.4677  -0.6122
     1.1328   1.6653   1.8829   2.4173   3.1818   4.9538   5.6061   6.3934
     7.2335   8.5348

          k = 0.5857-0.0924 0.0000 ( 52574 PWs)   bands (ev):

   -69.5606 -68.6611 -36.3971 -36.1575 -36.0388 -35.2788 -35.2234 -35.0394
   -21.2416 -21.2049 -21.2020 -21.1965 -21.1935 -21.1903 -21.1829 -20.4044
   -20.3986 -20.3927 -20.3518 -20.3429 -20.3074 -20.2868 -19.2047 -11.7983
    -7.3438  -6.4017  -5.7474  -5.1156  -4.8659  -4.3926  -1.5364  -0.5796
     1.1267   1.6513   1.9313   2.4434   3.2026   4.9800   5.5251   6.3918
     7.2099   8.4649

          k = 0.5804-0.1017 0.0000 ( 52574 PWs)   bands (ev):

   -69.5608 -68.6613 -36.4056 -36.1437 -36.0398 -35.2793 -35.2298 -35.0286
   -21.2424 -21.2049 -21.2023 -21.1960 -21.1931 -21.1898 -21.1830 -20.4045
   -20.3989 -20.3924 -20.3521 -20.3426 -20.3071 -20.2870 -19.2086 -11.8039
    -7.4156  -6.3825  -5.6709  -5.1402  -4.8724  -4.3703  -1.6048  -0.5472
     1.1228   1.6377   1.9802   2.4719   3.2220   4.9886   5.4632   6.3913
     7.1869   8.3868

          k = 0.5751-0.1109 0.0000 ( 52573 PWs)   bands (ev):

   -69.5610 -68.6615 -36.4139 -36.1301 -36.0409 -35.2799 -35.2359 -35.0180
   -21.2433 -21.2049 -21.2026 -21.1956 -21.1927 -21.1893 -21.1832 -20.4047
   -20.3991 -20.3921 -20.3523 -20.3424 -20.3068 -20.2872 -19.2127 -11.8095
    -7.4854  -6.3616  -5.6028  -5.1610  -4.8749  -4.3501  -1.6722  -0.5150
     1.1208   1.6255   2.0291   2.5022   3.2392   4.9678   5.4331   6.3914
     7.1644   8.3018

          k = 0.5698-0.1201 0.0000 ( 52575 PWs)   bands (ev):

   -69.5612 -68.6617 -36.4218 -36.1166 -36.0420 -35.2805 -35.2417 -35.0075
   -21.2442 -21.2049 -21.2029 -21.1951 -21.1924 -21.1887 -21.1833 -20.4048
   -20.3993 -20.3918 -20.3526 -20.3421 -20.3065 -20.2873 -19.2170 -11.8150
    -7.5531  -6.3390  -5.5466  -5.1773  -4.8717  -4.3312  -1.7383  -0.4834
     1.1202   1.6158   2.0776   2.5340   3.2535   4.9152   5.4385   6.3916
     7.1425   8.2109

          k = 0.5644-0.1294 0.0000 ( 52575 PWs)   bands (ev):

   -69.5615 -68.6619 -36.4294 -36.1034 -36.0431 -35.2812 -35.2471 -34.9972
   -21.2451 -21.2049 -21.2032 -21.1946 -21.1920 -21.1882 -21.1835 -20.4050
   -20.3995 -20.3915 -20.3528 -20.3418 -20.3062 -20.2875 -19.2214 -11.8204
    -7.6184  -6.3147  -5.5057  -5.1887  -4.8606  -4.3127  -1.8029  -0.4526
     1.1207   1.6096   2.1254   2.5667   3.2644   4.8403   5.4704   6.3917
     7.1210   8.1154

          k = 0.5591-0.1386 0.0000 ( 52586 PWs)   bands (ev):

   -69.5617 -68.6621 -36.4366 -36.0906 -36.0442 -35.2821 -35.2521 -34.9872
   -21.2460 -21.2049 -21.2034 -21.1942 -21.1917 -21.1876 -21.1836 -20.4052
   -20.3997 -20.3912 -20.3530 -20.3416 -20.3059 -20.2877 -19.2258 -11.8257
    -7.6810  -6.2888  -5.4813  -5.1966  -4.8405  -4.2934  -1.8659  -0.4227
     1.1218   1.6074   2.1723   2.5998   3.2710   4.7550   5.5177   6.3914
     7.1003   8.0168

          k = 0.5538-0.1479 0.0000 ( 52597 PWs)   bands (ev):

   -69.5620 -68.6623 -36.4434 -36.0783 -36.0453 -35.2830 -35.2568 -34.9776
   -21.2469 -21.2049 -21.2037 -21.1938 -21.1913 -21.1871 -21.1837 -20.4054
   -20.3999 -20.3909 -20.3533 -20.3413 -20.3056 -20.2879 -19.2303 -11.8308
    -7.7407  -6.2612  -5.4718  -5.2038  -4.8119  -4.2717  -1.9274  -0.3939
     1.1231   1.6100   2.2182   2.6327   3.2727   4.6670   5.5729   6.3905
     7.0804   7.9169

          k = 0.5485-0.1571 0.0000 ( 52587 PWs)   bands (ev):

   -69.5622 -68.6625 -36.4498 -36.0665 -36.0463 -35.2841 -35.2609 -34.9683
   -21.2478 -21.2048 -21.2039 -21.1934 -21.1910 -21.1865 -21.1838 -20.4055
   -20.4000 -20.3907 -20.3535 -20.3411 -20.3053 -20.2881 -19.2348 -11.8357
    -7.7973  -6.2320  -5.4733  -5.2132  -4.7777  -4.2455  -1.9875  -0.3665
     1.1243   1.6177   2.2630   2.6649   3.2687   4.5813   5.6313   6.3887
     7.0618   7.8176

          k = 0.5432-0.1663 0.0000 ( 52575 PWs)   bands (ev):

   -69.5624 -68.6627 -36.4558 -36.0555 -36.0470 -35.2854 -35.2646 -34.9595
   -21.2486 -21.2048 -21.2041 -21.1931 -21.1906 -21.1860 -21.1839 -20.4057
   -20.4002 -20.3904 -20.3537 -20.3408 -20.3050 -20.2883 -19.2393 -11.8403
    -7.8506  -6.2013  -5.4819  -5.2262  -4.7421  -4.2132  -2.0462  -0.3406
     1.1253   1.6304   2.3067   2.6957   3.2586   4.5009   5.6900   6.3856
     7.0449   7.7207

          k = 0.5379-0.1756 0.0000 ( 52577 PWs)   bands (ev):

   -69.5626 -68.6629 -36.4613 -36.0494 -36.0435 -35.2869 -35.2677 -34.9512
   -21.2494 -21.2048 -21.2043 -21.1928 -21.1902 -21.1855 -21.1839 -20.4059
   -20.4004 -20.3902 -20.3539 -20.3406 -20.3047 -20.2884 -19.2436 -11.8447
    -7.9003  -6.1691  -5.4949  -5.2429  -4.7094  -4.1733  -2.1037  -0.3163
     1.1260   1.6481   2.3491   2.7246   3.2421   4.4279   5.7466   6.3811
     7.0304   7.6282

          k = 0.5325-0.1848 0.0000 ( 52597 PWs)   bands (ev):

   -69.5628 -68.6631 -36.4664 -36.0497 -36.0341 -35.2885 -35.2703 -34.9435
   -21.2502 -21.2048 -21.2045 -21.1926 -21.1899 -21.1852 -21.1838 -20.4060
   -20.4005 -20.3900 -20.3540 -20.3404 -20.3044 -20.2886 -19.2477 -11.8488
    -7.9463  -6.1356  -5.5105  -5.2627  -4.6820  -4.1256  -2.1600  -0.2939
     1.1265   1.6702   2.3901   2.7511   3.2193   4.3634   5.7994   6.3747
     7.0190   7.5420

          k = 0.5272-0.1941 0.0000 ( 52581 PWs)   bands (ev):

   -69.5630 -68.6632 -36.4711 -36.0505 -36.0250 -35.2904 -35.2723 -34.9363
   -21.2509 -21.2048 -21.2046 -21.1924 -21.1895 -21.1850 -21.1836 -20.4061
   -20.4006 -20.3898 -20.3542 -20.3403 -20.3041 -20.2887 -19.2516 -11.8525
    -7.9885  -6.1008  -5.5276  -5.2849  -4.6611  -4.0710  -2.2151  -0.2733
     1.1269   1.6962   2.4293   2.7746   3.1907   4.3082   5.8467   6.3663
     7.0114   7.4634

          k = 0.5219-0.2033 0.0000 ( 52574 PWs)   bands (ev):

   -69.5632 -68.6634 -36.4753 -36.0513 -36.0166 -35.2923 -35.2739 -34.9298
   -21.2515 -21.2049 -21.2046 -21.1923 -21.1892 -21.1849 -21.1833 -20.4063
   -20.4007 -20.3896 -20.3543 -20.3401 -20.3039 -20.2889 -19.2552 -11.8559
    -8.0266  -6.0649  -5.5459  -5.3085  -4.6461  -4.0115  -2.2686  -0.2548
     1.1272   1.7252   2.4662   2.7949   3.1577   4.2622   5.8877   6.3556
     7.0083   7.3936

          k = 0.5166-0.2125 0.0000 ( 52558 PWs)   bands (ev):

   -69.5633 -68.6635 -36.4790 -36.0520 -36.0091 -35.2941 -35.2752 -34.9240
   -21.2521 -21.2050 -21.2046 -21.1921 -21.1888 -21.1849 -21.1830 -20.4064
   -20.4008 -20.3895 -20.3545 -20.3399 -20.3037 -20.2890 -19.2586 -11.8589
    -8.0606  -6.0280  -5.5653  -5.3327  -4.6361  -3.9496  -2.3203  -0.2384
     1.1276   1.7561   2.5002   2.8118   3.1218   4.2248   5.9214   6.3429
     7.0099   7.3333

          k = 0.5113-0.2218 0.0000 ( 52540 PWs)   bands (ev):

   -69.5635 -68.6637 -36.4822 -36.0526 -36.0025 -35.2959 -35.2761 -34.9188
   -21.2526 -21.2052 -21.2046 -21.1920 -21.1886 -21.1849 -21.1827 -20.4065
   -20.4009 -20.3893 -20.3546 -20.3398 -20.3035 -20.2891 -19.2615 -11.8616
    -8.0902  -5.9905  -5.5859  -5.3563  -4.6297  -3.8878  -2.3694  -0.2241
     1.1280   1.7880   2.5304   2.8253   3.0852   4.1952   5.9479   6.3287
     7.0160   7.2825

          k = 0.5060-0.2310 0.0000 ( 52542 PWs)   bands (ev):

   -69.5636 -68.6638 -36.4850 -36.0532 -35.9969 -35.2975 -35.2769 -34.9144
   -21.2531 -21.2053 -21.2046 -21.1919 -21.1883 -21.1849 -21.1824 -20.4066
   -20.4010 -20.3892 -20.3547 -20.3397 -20.3033 -20.2892 -19.2641 -11.8639
    -8.1155  -5.9525  -5.6081  -5.3784  -4.6260  -3.8290  -2.4151  -0.2121
     1.1286   1.8194   2.5556   2.8362   3.0501   4.1724   5.9676   6.3140
     7.0257   7.2410

          k = 0.5006-0.2403 0.0000 ( 52519 PWs)   bands (ev):

   -69.5637 -68.6638 -36.4873 -36.0536 -35.9922 -35.2988 -35.2774 -34.9108
   -21.2534 -21.2053 -21.2046 -21.1919 -21.1881 -21.1849 -21.1821 -20.4067
   -20.4011 -20.3891 -20.3547 -20.3396 -20.3032 -20.2893 -19.2663 -11.8658
    -8.1363  -5.9144  -5.6323  -5.3979  -4.6240  -3.7756  -2.4560  -0.2023
     1.1292   1.8489   2.5749   2.8452   3.0183   4.1553   5.9812   6.2998
     7.0377   7.2081

          k = 0.4953-0.2495 0.0000 ( 52521 PWs)   bands (ev):

   -69.5638 -68.6639 -36.4890 -36.0540 -35.9885 -35.2999 -35.2779 -34.9080
   -21.2537 -21.2054 -21.2045 -21.1918 -21.1879 -21.1849 -21.1819 -20.4067
   -20.4011 -20.3890 -20.3548 -20.3395 -20.3030 -20.2893 -19.2680 -11.8673
    -8.1526  -5.8767  -5.6585  -5.4139  -4.6230  -3.7303  -2.4907  -0.1947
     1.1298   1.8746   2.5878   2.8537   2.9911   4.1431   5.9898   6.2874
     7.0501   7.1831

          k = 0.4900-0.2587 0.0000 ( 52515 PWs)   bands (ev):

   -69.5638 -68.6640 -36.4903 -36.0542 -35.9859 -35.3007 -35.2781 -34.9059
   -21.2539 -21.2055 -21.2045 -21.1918 -21.1878 -21.1850 -21.1818 -20.4068
   -20.4012 -20.3890 -20.3548 -20.3395 -20.3030 -20.2894 -19.2692 -11.8683
    -8.1643  -5.8404  -5.6865  -5.4257  -4.6227  -3.6956  -2.5172  -0.1893
     1.1303   1.8949   2.5950   2.8622   2.9693   4.1349   5.9948   6.2779
     7.0613   7.1652

          k = 0.4847-0.2680 0.0000 ( 52514 PWs)   bands (ev):

   -69.5638 -68.6640 -36.4910 -36.0544 -35.9843 -35.3011 -35.2783 -34.9047
   -21.2540 -21.2055 -21.2045 -21.1918 -21.1877 -21.1850 -21.1817 -20.4068
   -20.4012 -20.3889 -20.3549 -20.3394 -20.3029 -20.2894 -19.2700 -11.8690
    -8.1713  -5.8079  -5.7139  -5.4329  -4.6226  -3.6738  -2.5340  -0.1860
     1.1306   1.9079   2.5981   2.8696   2.9543   4.1302   5.9973   6.2719
     7.0691   7.1542

          k = 0.4794-0.2772 0.0000 ( 52512 PWs)   bands (ev):

   -69.5639 -68.6640 -36.4913 -36.0545 -35.9838 -35.3013 -35.2784 -34.9043
   -21.2541 -21.2055 -21.2045 -21.1918 -21.1877 -21.1850 -21.1817 -20.4068
   -20.4012 -20.3889 -20.3549 -20.3394 -20.3029 -20.2894 -19.2702 -11.8692
    -8.1736  -5.7908  -5.7292  -5.4353  -4.6225  -3.6663  -2.5398  -0.1850
     1.1307   1.9123   2.5988   2.8728   2.9486   4.1287   5.9980   6.2699
     7.0720   7.1504

          k = 0.4634-0.2680 0.0000 ( 52527 PWs)   bands (ev):

   -69.5640 -68.6641 -36.4896 -36.0549 -35.9834 -35.3003 -35.2781 -34.9039
   -21.2541 -21.2055 -21.2044 -21.1919 -21.1877 -21.1851 -21.1817 -20.4069
   -20.4011 -20.3889 -20.3549 -20.3395 -20.3028 -20.2895 -19.2707 -11.8753
    -8.1627  -5.7898  -5.7519  -5.4135  -4.6242  -3.6679  -2.5384  -0.1974
     1.1271   1.9095   2.5872   2.8654   2.9454   4.1171   5.9869   6.2582
     7.0756   7.1794

          k = 0.4474-0.2587 0.0000 ( 52541 PWs)   bands (ev):

   -69.5643 -68.6644 -36.4846 -36.0561 -35.9823 -35.2977 -35.2772 -34.9029
   -21.2542 -21.2053 -21.2042 -21.1921 -21.1878 -21.1856 -21.1818 -20.4069
   -20.4010 -20.3889 -20.3549 -20.3396 -20.3026 -20.2897 -19.2722 -11.8935
    -8.1305  -5.8075  -5.7844  -5.3638  -4.6282  -3.6726  -2.5341  -0.2344
     1.1165   1.9011   2.5540   2.8436   2.9337   4.0838   5.9561   6.2233
     7.0858   7.2594

          k = 0.4314-0.2495 0.0000 ( 52561 PWs)   bands (ev):

   -69.5648 -68.6648 -36.4764 -36.0582 -35.9804 -35.2942 -35.2746 -34.9013
   -21.2544 -21.2052 -21.2038 -21.1924 -21.1879 -21.1862 -21.1819 -20.4071
   -20.4008 -20.3888 -20.3549 -20.3398 -20.3022 -20.2902 -19.2746 -11.9230
    -8.0779  -5.8725  -5.7791  -5.3090  -4.6309  -3.6803  -2.5264  -0.2946
     1.0998   1.8877   2.5029   2.8088   2.9092   4.0327   5.9092   6.1676
     7.1012   7.3637

          k = 0.4155-0.2403 0.0000 ( 52574 PWs)   bands (ev):

   -69.5654 -68.6654 -36.4650 -36.0610 -35.9777 -35.2915 -35.2691 -34.8990
   -21.2546 -21.2049 -21.2032 -21.1929 -21.1881 -21.1870 -21.1821 -20.4073
   -20.4005 -20.3887 -20.3549 -20.3400 -20.3017 -20.2907 -19.2782 -11.9626
    -8.0065  -5.9403  -5.7712  -5.2650  -4.6257  -3.6905  -2.5148  -0.3756
     1.0779   1.8701   2.4377   2.7628   2.8672   3.9692   5.8446   6.0990
     7.1200   7.3981

          k = 0.3995-0.2310 0.0000 ( 52608 PWs)   bands (ev):

   -69.5663 -68.6662 -36.4504 -36.0647 -35.9744 -35.2903 -35.2596 -34.8961
   -21.2550 -21.2047 -21.2024 -21.1936 -21.1888 -21.1876 -21.1823 -20.4076
   -20.4001 -20.3885 -20.3549 -20.3403 -20.3010 -20.2914 -19.2830 -12.0108
    -7.9184  -6.0058  -5.7617  -5.2439  -4.6045  -3.7028  -2.4986  -0.4742
     1.0510   1.8494   2.3612   2.7082   2.8050   3.8990   5.7553   6.0294
     7.1405   7.2810

          k = 0.3835-0.2218 0.0000 ( 52622 PWs)   bands (ev):

   -69.5673 -68.6671 -36.4329 -36.0690 -35.9704 -35.2904 -35.2468 -34.8926
   -21.2555 -21.2043 -21.2015 -21.1944 -21.1899 -21.1880 -21.1825 -20.4080
   -20.3996 -20.3883 -20.3548 -20.3407 -20.3002 -20.2923 -19.2891 -12.0661
    -7.8164  -6.0661  -5.7514  -5.2533  -4.5617  -3.7163  -2.4773  -0.5865
     1.0192   1.8271   2.2746   2.6476   2.7232   3.8263   5.6369   5.9672
     7.1154   7.1608

          k = 0.3675-0.2125 0.0000 ( 52635 PWs)   bands (ev):

   -69.5686 -68.6682 -36.4127 -36.0741 -35.9657 -35.2913 -35.2312 -34.8886
   -21.2561 -21.2041 -21.2005 -21.1953 -21.1910 -21.1883 -21.1826 -20.4084
   -20.3991 -20.3881 -20.3548 -20.3412 -20.2993 -20.2933 -19.2966 -12.1269
    -7.7035  -6.1188  -5.7409  -5.2931  -4.4979  -3.7303  -2.4504  -0.7079
     0.9817   1.8042   2.1772   2.5837   2.6262   3.7533   5.4933   5.9123
     6.9436   7.1796

          k = 0.3515-0.2033 0.0000 ( 52652 PWs)   bands (ev):

   -69.5699 -68.6694 -36.3898 -36.0798 -35.9605 -35.2926 -35.2133 -34.8840
   -21.2570 -21.2038 -21.1995 -21.1963 -21.1922 -21.1887 -21.1827 -20.4088
   -20.3984 -20.3879 -20.3548 -20.3417 -20.2982 -20.2944 -19.3057 -12.1916
    -7.5838  -6.1617  -5.7312  -5.3576  -4.4186  -3.7436  -2.4177  -0.8339
     0.9380   1.7810   2.0668   2.5188   2.5224   3.6799   5.3322   5.8611
     6.7716   7.1960

          k = 0.3356-0.1941 0.0000 ( 52663 PWs)   bands (ev):

   -69.5714 -68.6707 -36.3646 -36.0860 -35.9548 -35.2943 -35.1933 -34.8791
   -21.2581 -21.2038 -21.1984 -21.1971 -21.1932 -21.1891 -21.1827 -20.4094
   -20.3977 -20.3877 -20.3548 -20.3422 -20.2971 -20.2957 -19.3165 -12.2588
    -7.4621  -6.1921  -5.7232  -5.4393  -4.3301  -3.7551  -2.3792  -0.9596
     0.8877   1.7571   1.9405   2.4189   2.4582   3.6049   5.1602   5.8114
     6.5993   7.2094

          k = 0.3196-0.1848 0.0000 ( 52656 PWs)   bands (ev):

   -69.5730 -68.6722 -36.3372 -36.0928 -35.9486 -35.2962 -35.1715 -34.8737
   -21.2595 -21.2041 -21.1980 -21.1968 -21.1943 -21.1896 -21.1825 -20.4099
   -20.3970 -20.3874 -20.3547 -20.3428 -20.2970 -20.2958 -19.3291 -12.3273
    -7.3448  -6.2075  -5.7180  -5.5303  -4.2379  -3.7635  -2.3354  -1.0806
     0.8308   1.7308   1.7972   2.3255   2.4020   3.5266   4.9820   5.7625
     6.4264   7.0190

          k = 0.3036-0.1756 0.0000 ( 52692 PWs)   bands (ev):

   -69.5747 -68.6737 -36.3079 -36.0999 -35.9420 -35.2984 -35.1482 -34.8679
   -21.2612 -21.2046 -21.1980 -21.1958 -21.1951 -21.1902 -21.1823 -20.4105
   -20.3962 -20.3872 -20.3546 -20.3434 -20.2984 -20.2944 -19.3435 -12.3960
    -7.2394  -6.2072  -5.7165  -5.6202  -4.1470  -3.7674  -2.2868  -1.1920
     0.7680   1.6359   1.7029   2.2452   2.3540   3.4437   4.8008   5.7145
     6.2532   6.8037

          k = 0.2876-0.1663 0.0000 ( 52726 PWs)   bands (ev):

   -69.5765 -68.6753 -36.2771 -36.1074 -35.9351 -35.3007 -35.1236 -34.8619
   -21.2632 -21.2054 -21.1979 -21.1961 -21.1945 -21.1907 -21.1819 -20.4112
   -20.3954 -20.3869 -20.3546 -20.3441 -20.2999 -20.2930 -19.3598 -12.4640
    -7.1539  -6.1973  -5.7196  -5.6926  -4.0616  -3.7655  -2.2344  -1.2894
     0.6999   1.4659   1.6671   2.1781   2.3160   3.3551   4.6186   5.6667
     6.0820   6.5991

          k = 0.2716-0.1571 0.0000 ( 52750 PWs)   bands (ev):

   -69.5783 -68.6769 -36.2451 -36.1152 -35.9279 -35.3032 -35.0980 -34.8557
   -21.2655 -21.2061 -21.1982 -21.1963 -21.1939 -21.1909 -21.1813 -20.4118
   -20.3945 -20.3866 -20.3545 -20.3448 -20.3014 -20.2915 -19.3779 -12.5304
    -7.0939  -6.1981  -5.7280  -5.7191  -3.9862  -3.7568  -2.1791  -1.3681
     0.6275   1.2890   1.6255   2.1229   2.2886   3.2605   4.4369   5.6162
     5.9173   6.4055

          k = 0.2557-0.1479 0.0000 ( 52754 PWs)   bands (ev):

   -69.5802 -68.6786 -36.2122 -36.1230 -35.9205 -35.3058 -35.0716 -34.8493
   -21.2681 -21.2067 -21.1989 -21.1959 -21.1938 -21.1907 -21.1805 -20.4125
   -20.3936 -20.3863 -20.3544 -20.3455 -20.3029 -20.2900 -19.3977 -12.5947
    -7.0612  -6.2323  -5.7422  -5.6737  -3.9250  -3.7405  -2.1216  -1.4242
     0.5519   1.1100   1.5787   2.0780   2.2709   3.1600   4.2563   5.5523
     5.7702   6.2229

          k = 0.2397-0.1386 0.0000 ( 52748 PWs)   bands (ev):

   -69.5821 -68.6803 -36.1790 -36.1306 -35.9131 -35.3086 -35.0447 -34.8429
   -21.2710 -21.2072 -21.1998 -21.1953 -21.1942 -21.1901 -21.1796 -20.4132
   -20.3927 -20.3860 -20.3543 -20.3462 -20.3045 -20.2884 -19.4192 -12.6563
    -7.0545  -6.2934  -5.7622  -5.5624  -3.8820  -3.7161  -2.0622  -1.4552
     0.4739   0.9324   1.5286   2.0419   2.2612   3.0544   4.0773   5.4549
     5.6597   6.0520

          k = 0.2237-0.1294 0.0000 ( 52750 PWs)   bands (ev):

   -69.5840 -68.6820 -36.1490 -36.1347 -35.9056 -35.3114 -35.0177 -34.8364
   -21.2741 -21.2074 -21.2007 -21.1953 -21.1942 -21.1894 -21.1785 -20.4140
   -20.3918 -20.3858 -20.3542 -20.3469 -20.3060 -20.2868 -19.4420 -12.7149
    -7.0722  -6.3596  -5.7878  -5.4079  -3.8600  -3.6836  -2.0002  -1.4607
     0.3944   0.7590   1.4781   2.0130   2.2571   2.9447   3.9001   5.3231
     5.5833   5.8936

          k = 0.2077-0.1201 0.0000 ( 52742 PWs)   bands (ev):

   -69.5859 -68.6837 -36.1488 -36.1091 -35.8983 -35.3142 -34.9909 -34.8300
   -21.2773 -21.2075 -21.2017 -21.1959 -21.1935 -21.1888 -21.1772 -20.4147
   -20.3909 -20.3855 -20.3541 -20.3476 -20.3076 -20.2852 -19.4660 -12.7700
    -7.1125  -6.4150  -5.8182  -5.2269  -3.8601  -3.6435  -1.9341  -1.4430
     0.3140   0.5920   1.4303   1.9898   2.2562   2.8326   3.7248   5.1796
     5.5132   5.7490

          k = 0.1918-0.1109 0.0000 ( 52748 PWs)   bands (ev):

   -69.5878 -68.6853 -36.1560 -36.0765 -35.8910 -35.3171 -34.9645 -34.8238
   -21.2805 -21.2075 -21.2025 -21.1967 -21.1926 -21.1883 -21.1758 -20.4154
   -20.3900 -20.3852 -20.3539 -20.3482 -20.3091 -20.2836 -19.4907 -12.8216
    -7.1727  -6.4519  -5.8526  -5.0299  -3.8814  -3.5965  -1.8629  -1.4065
     0.2333   0.4331   1.3880   1.9703   2.2567   2.7203   3.5518   5.0374
     5.4322   5.6188

          k = 0.1758-0.1016 0.0000 ( 52764 PWs)   bands (ev):

   -69.5895 -68.6869 -36.1633 -36.0442 -35.8840 -35.3199 -34.9388 -34.8177
   -21.2838 -21.2073 -21.2034 -21.1975 -21.1918 -21.1879 -21.1743 -20.4160
   -20.3891 -20.3850 -20.3538 -20.3489 -20.3105 -20.2821 -19.5158 -12.8693
    -7.2479  -6.4692  -5.8898  -4.8238  -3.9211  -3.5438  -1.7864  -1.3565
     0.1529   0.2837   1.3538   1.9521   2.2571   2.6109   3.3816   4.9019
     5.3371   5.5012

          k = 0.1598-0.0924 0.0000 ( 52758 PWs)   bands (ev):

   -69.5912 -68.6884 -36.1704 -36.0132 -35.8773 -35.3227 -34.9142 -34.8119
   -21.2871 -21.2072 -21.2040 -21.1983 -21.1909 -21.1875 -21.1728 -20.4167
   -20.3883 -20.3848 -20.3537 -20.3495 -20.3119 -20.2806 -19.5409 -12.9132
    -7.3318  -6.4689  -5.9288  -4.6147  -3.9739  -3.4867  -1.7063  -1.2979
     0.0732   0.1449   1.3297   1.9321   2.2563   2.5082   3.2153   4.7755
     5.2335   5.3921

          k = 0.1438-0.0832 0.0000 ( 52760 PWs)   bands (ev):

   -69.5928 -68.6899 -36.1771 -35.9837 -35.8710 -35.3254 -34.8910 -34.8065
   -21.2902 -21.2071 -21.2045 -21.1991 -21.1901 -21.1873 -21.1714 -20.4173
   -20.3875 -20.3845 -20.3536 -20.3501 -20.3132 -20.2792 -19.5655 -12.9530
    -7.4188  -6.4546  -5.9682  -4.4130  -4.0298  -3.4269  -1.6251  -1.2347
    -0.0054   0.0177   1.3172   1.9063   2.2538   2.4170   3.0541   4.6597
     5.1285   5.2889

          k = 0.1278-0.0739 0.0000 ( 52754 PWs)   bands (ev):

   -69.5943 -68.6912 -36.1833 -35.9561 -35.8652 -35.3280 -34.8693 -34.8014
   -21.2931 -21.2073 -21.2046 -21.1998 -21.1894 -21.1870 -21.1700 -20.4179
   -20.3868 -20.3843 -20.3534 -20.3506 -20.3144 -20.2779 -19.5891 -12.9887
    -7.5043  -6.4295  -6.0068  -4.2621  -4.0447  -3.3661  -1.5461  -1.1703
    -0.0977  -0.0819   1.3169   1.8707   2.2492   2.3427   2.9001   4.5551
     5.0259   5.1918

          k = 0.1119-0.0647 0.0000 ( 52754 PWs)   bands (ev):

   -69.5957 -68.6924 -36.1889 -35.9309 -35.8599 -35.3305 -34.8496 -34.7968
   -21.2959 -21.2076 -21.2044 -21.2004 -21.1887 -21.1868 -21.1687 -20.4184
   -20.3862 -20.3841 -20.3533 -20.3511 -20.3155 -20.2767 -19.6114 -13.0204
    -7.5848  -6.3964  -6.0436  -4.2629  -3.9179  -3.3061  -1.4724  -1.1073
    -0.1997  -0.1571   1.3285   1.8231   2.2425   2.2885   2.7555   4.4623
     4.9277   5.1022

          k = 0.0959-0.0554 0.0000 ( 52770 PWs)   bands (ev):

   -69.5969 -68.6934 -36.1939 -35.9082 -35.8551 -35.3327 -34.8319 -34.7927
   -21.2983 -21.2080 -21.2041 -21.2010 -21.1881 -21.1866 -21.1676 -20.4189
   -20.3856 -20.3839 -20.3532 -20.3516 -20.3164 -20.2757 -19.6317 -13.0479
    -7.6581  -6.3581  -6.0775  -4.3288  -3.7363  -3.2489  -1.4069  -1.0475
    -0.2887  -0.2298   1.3509   1.7657   2.2334   2.2540   2.6230   4.3816
     4.8347   5.0219

          k = 0.0799-0.0462 0.0000 ( 52784 PWs)   bands (ev):

   -69.5979 -68.6944 -36.1983 -35.8885 -35.8510 -35.3347 -34.8166 -34.7891
   -21.3005 -21.2085 -21.2038 -21.2015 -21.1875 -21.1865 -21.1665 -20.4193
   -20.3852 -20.3836 -20.3531 -20.3519 -20.3173 -20.2748 -19.6498 -13.0712
    -7.7222  -6.3173  -6.1076  -4.4031  -3.5578  -3.1963  -1.3520  -0.9916
    -0.3642  -0.2997   1.3817   1.7042   2.2222   2.2352   2.5052   4.3132
     4.7482   4.9527

          k = 0.0639-0.0370 0.0000 ( 52810 PWs)   bands (ev):

   -69.5988 -68.6951 -36.2019 -35.8720 -35.8475 -35.3364 -34.8038 -34.7862
   -21.3023 -21.2088 -21.2035 -21.2019 -21.1871 -21.1864 -21.1657 -20.4197
   -20.3848 -20.3834 -20.3530 -20.3523 -20.3180 -20.2740 -19.6651 -13.0904
    -7.7761  -6.2771  -6.1332  -4.4739  -3.3959  -3.1502  -1.3092  -0.9399
    -0.4263  -0.3658   1.4174   1.6452   2.2114   2.2252   2.4047   4.2571
     4.6702   4.8954

          k = 0.0479-0.0277 0.0000 ( 52799 PWs)   bands (ev):

   -69.5994 -68.6957 -36.2047 -35.8589 -35.8448 -35.3378 -34.7936 -34.7838
   -21.3038 -21.2091 -21.2032 -21.2022 -21.1868 -21.1862 -21.1650 -20.4199
   -20.3846 -20.3832 -20.3530 -20.3525 -20.3185 -20.2734 -19.6774 -13.1053
    -7.8188  -6.2409  -6.1534  -4.5355  -3.2590  -3.1122  -1.2789  -0.8925
    -0.4753  -0.4262   1.4534   1.5943   2.2022   2.2196   2.3239   4.2134
     4.6038   4.8506

          k = 0.0320-0.0185 0.0000 ( 52791 PWs)   bands (ev):

   -69.5999 -68.6962 -36.2068 -35.8495 -35.8427 -35.3388 -34.7864 -34.7820
   -21.3048 -21.2094 -21.2030 -21.2024 -21.1866 -21.1861 -21.1645 -20.4201
   -20.3844 -20.3831 -20.3529 -20.3527 -20.3189 -20.2729 -19.6864 -13.1160
    -7.8498  -6.2126  -6.1673  -4.5834  -3.1544  -3.0834  -1.2599  -0.8509
    -0.5125  -0.4765   1.4842   1.5556   2.1943   2.2167   2.2651   4.1822
     4.5527   4.8186

          k = 0.0160-0.0092 0.0000 ( 52799 PWs)   bands (ev):

   -69.6002 -68.6965 -36.2080 -35.8441 -35.8412 -35.3394 -34.7822 -34.7807
   -21.3054 -21.2095 -21.2029 -21.2025 -21.1865 -21.1860 -21.1642 -20.4203
   -20.3843 -20.3830 -20.3529 -20.3528 -20.3192 -20.2726 -19.6919 -13.1224
    -7.8685  -6.1967  -6.1731  -4.6139  -3.0904  -3.0637  -1.2500  -0.8194
    -0.5396  -0.5090   1.5036   1.5333   2.1886   2.2136   2.2313   4.1634
     4.5204   4.7994

          k = 0.0000 0.0000 0.0000 ( 52817 PWs)   bands (ev):

   -69.6003 -68.6965 -36.2084 -35.8427 -35.8403 -35.3396 -34.7813 -34.7798
   -21.3057 -21.2095 -21.2029 -21.2025 -21.1865 -21.1860 -21.1641 -20.4203
   -20.3843 -20.3829 -20.3529 -20.3528 -20.3193 -20.2726 -19.6937 -13.1245
    -7.8747  -6.1933  -6.1728  -4.6244  -3.0720  -3.0536  -1.2470  -0.8070
    -0.5512  -0.5193   1.5079   1.5283   2.1864   2.2094   2.2233   4.1572
     4.5093   4.7930

     Writing output data file /scratch/as3359/Ta2CO2_bandsdos/Ta.save/
 
     init_run     :     11.85s CPU      8.50s WALL (       1 calls)
     electrons    :   1763.47s CPU    892.10s WALL (       1 calls)

     Called by init_run:
     wfcinit      :      0.00s CPU      0.00s WALL (       1 calls)
     potinit      :      0.46s CPU      0.28s WALL (       1 calls)
     hinit0       :      8.89s CPU      6.52s WALL (       1 calls)

     Called by electrons:
     c_bands      :   1763.46s CPU    892.09s WALL (       1 calls)
     v_of_rho     :      0.35s CPU      0.20s WALL (       1 calls)
     newd         :      2.17s CPU      1.36s WALL (       1 calls)

     Called by c_bands:
     init_us_2    :      1.30s CPU      0.66s WALL (      91 calls)
     cegterg      :   1704.73s CPU    861.56s WALL (     376 calls)

     Called by *egterg:
     cdiaghg      :     23.10s CPU     11.80s WALL (    6705 calls)
     h_psi        :   1297.93s CPU    656.86s WALL (    7081 calls)
     s_psi        :     69.00s CPU     34.54s WALL (    7081 calls)
     g_psi        :     10.48s CPU      5.26s WALL (    6614 calls)

     Called by h_psi:
     h_psi:calbec :     50.88s CPU     25.55s WALL (    7081 calls)
     vloc_psi     :   1166.15s CPU    590.30s WALL (    7081 calls)
     add_vuspsi   :     72.01s CPU     36.06s WALL (    7081 calls)

     General routines
     calbec       :     50.82s CPU     25.52s WALL (    7081 calls)
     fft          :      0.20s CPU      0.11s WALL (      13 calls)
     ffts         :      0.01s CPU      0.01s WALL (       1 calls)
     fftw         :   1013.84s CPU    513.63s WALL (  250642 calls)
     interpolate  :      0.03s CPU      0.02s WALL (       1 calls)
     davcio       :      1.02s CPU      1.05s WALL (     182 calls)
 
     Parallel routines
 
     PWSCF        :  29m52.63s CPU  15m13.64s WALL

 
   This run was terminated on:  22: 3:44  16Apr2022            

=------------------------------------------------------------------------------=
   JOB DONE.
=------------------------------------------------------------------------------=
