
     Program BANDS v.6.8 starts on 16Apr2022 at 22: 3:45 

     This program is part of the open-source Quantum ESPRESSO suite
     for quantum simulation of materials; please cite
         "P. Giannozzi et al., J. Phys.:Condens. Matter 21 395502 (2009);
         "P. Giannozzi et al., J. Phys.:Condens. Matter 29 465901 (2017);
         "P. Giannozzi et al., J. Chem. Phys. 152 154105 (2020);
          URL http://www.quantum-espresso.org", 
     in publications or presentations arising from this work. More details at
     http://www.quantum-espresso.org/quote

     Parallel version (MPI & OpenMP), running on       4 processor cores
     Number of MPI processes:                 2
     Threads/MPI process:                     2

     MPI processes distributed on     1 nodes
     R & G space division:  proc/nbgrp/npool/nimage =       2
     118010 MiB available memory on the printing compute node when the environment starts
 

     Reading xml data from directory:

     /scratch/as3359/Ta2CO2_bandsdos/Ta.save/
     file Ta.pbesol-spfn-rrkjus_psl.1.0.0.UPF: wavefunction(s)  5S 5P renormalized

     IMPORTANT: XC functional enforced from input :
     Exchange-correlation= PBESOL
                           (   1   4  10   8   0   0   0)
     Any further DFT definition will be discarded
     Please, verify this is what you really want

 
     Parallelization info
     --------------------
     sticks:   dense  smooth     PW     G-vecs:    dense   smooth      PW
     Min         831     708    198               265345   210352   31066
     Max         832     709    199               265384   210405   31083
     Sum        1663    1417    397               530729   420757   62149
 
     Using Slab Decomposition
 

     negative rho (up, down):  1.122E-04 0.000E+00
     Reading collected, re-writing distributed wavefunctions
     high-symmetry point:  0.0000 0.0000 0.0000   x coordinate   0.0000
     high-symmetry point:  0.6389-0.0000 0.0000   x coordinate   0.6389
     high-symmetry point:  0.4794-0.2772 0.0000   x coordinate   0.9587
     high-symmetry point:  0.0000 0.0000 0.0000   x coordinate   1.5125

     Plottable bands (eV) written to file Ta2CO2.Bandx.dat.gnu
     Bands written to file Ta2CO2.Bandx.dat

 **************************************************************************

                    xk=(   0.00000,   0.00000,   0.00000  )

     point group C_1 (1)    
     there are  1 classes
     the character table:

       E    
A      1.00

     the symmetry operations in each class and the name of the first element:

     E        1
                                                                 

     Band symmetry, C_1 (1)     point group:

     e(  1 -  1) =    -69.60032  eV     1   --> A              
     e(  2 -  2) =    -68.69654  eV     1   --> A              
     e(  3 -  3) =    -36.20844  eV     1   --> A              
     e(  4 -  4) =    -35.84269  eV     1   --> A              
     e(  5 -  5) =    -35.84029  eV     1   --> A              
     e(  6 -  6) =    -35.33965  eV     1   --> A              
     e(  7 -  7) =    -34.78129  eV     1   --> A              
     e(  8 -  8) =    -34.77982  eV     1   --> A              
     e(  9 -  9) =    -21.30566  eV     1   --> A              
     e( 10 - 10) =    -21.20955  eV     1   --> A              
     e( 11 - 11) =    -21.20286  eV     1   --> A              
     e( 12 - 12) =    -21.20252  eV     1   --> A              
     e( 13 - 13) =    -21.18647  eV     1   --> A              
     e( 14 - 14) =    -21.18597  eV     1   --> A              
     e( 15 - 15) =    -21.16407  eV     1   --> A              
     e( 16 - 16) =    -20.42030  eV     1   --> A              
     e( 17 - 17) =    -20.38431  eV     1   --> A              
     e( 18 - 18) =    -20.38294  eV     1   --> A              
     e( 19 - 20) =    -20.35289  eV     2   -->   2 A              
     e( 21 - 21) =    -20.31926  eV     1   --> A              
     e( 22 - 22) =    -20.27256  eV     1   --> A              
     e( 23 - 23) =    -19.69374  eV     1   --> A              
     e( 24 - 24) =    -13.12451  eV     1   --> A              
     e( 25 - 25) =     -7.87473  eV     1   --> A              
     e( 26 - 26) =     -6.19332  eV     1   --> A              
     e( 27 - 27) =     -6.17282  eV     1   --> A              
     e( 28 - 28) =     -4.62443  eV     1   --> A              
     e( 29 - 29) =     -3.07196  eV     1   --> A              
     e( 30 - 30) =     -3.05364  eV     1   --> A              
     e( 31 - 31) =     -1.24696  eV     1   --> A              
     e( 32 - 32) =     -0.80704  eV     1   --> A              
     e( 33 - 33) =     -0.55122  eV     1   --> A              
     e( 34 - 34) =     -0.51932  eV     1   --> A              
     e( 35 - 35) =      1.50786  eV     1   --> A              
     e( 36 - 36) =      1.52828  eV     1   --> A              
     e( 37 - 37) =      2.18639  eV     1   --> A              
     e( 38 - 38) =      2.20941  eV     1   --> A              
     e( 39 - 39) =      2.22335  eV     1   --> A              
     e( 40 - 40) =      4.15717  eV     1   --> A              
     e( 41 - 41) =      4.50933  eV     1   --> A              
     e( 42 - 42) =      4.79303  eV     1   --> A              

 **************************************************************************

 **************************************************************************

                    xk=(   0.02130,  -0.00000,   0.00000  )

     Band symmetry, C_1 (1)     point group:

     e(  1 -  1) =    -69.60019  eV     1   --> A              
     e(  2 -  2) =    -68.69643  eV     1   --> A              
     e(  3 -  3) =    -36.20789  eV     1   --> A              
     e(  4 -  4) =    -35.84520  eV     1   --> A              
     e(  5 -  5) =    -35.84086  eV     1   --> A              
     e(  6 -  6) =    -35.33937  eV     1   --> A              
     e(  7 -  7) =    -34.78191  eV     1   --> A              
     e(  8 -  8) =    -34.78163  eV     1   --> A              
     e(  9 -  9) =    -21.30538  eV     1   --> A              
     e( 10 - 10) =    -21.20949  eV     1   --> A              
     e( 11 - 11) =    -21.20292  eV     1   --> A              
     e( 12 - 12) =    -21.20246  eV     1   --> A              
     e( 13 - 13) =    -21.18649  eV     1   --> A              
     e( 14 - 14) =    -21.18605  eV     1   --> A              
     e( 15 - 15) =    -21.16421  eV     1   --> A              
     e( 16 - 16) =    -20.42025  eV     1   --> A              
     e( 17 - 17) =    -20.38433  eV     1   --> A              
     e( 18 - 18) =    -20.38301  eV     1   --> A              
     e( 19 - 19) =    -20.35290  eV     1   --> A              
     e( 20 - 20) =    -20.35276  eV     1   --> A              
     e( 21 - 21) =    -20.31915  eV     1   --> A              
     e( 22 - 22) =    -20.27268  eV     1   --> A              
     e( 23 - 23) =    -19.69130  eV     1   --> A              
     e( 24 - 24) =    -13.12167  eV     1   --> A              
     e( 25 - 25) =     -7.86640  eV     1   --> A              
     e( 26 - 26) =     -6.20176  eV     1   --> A              
     e( 27 - 27) =     -6.16906  eV     1   --> A              
     e( 28 - 28) =     -4.61057  eV     1   --> A              
     e( 29 - 29) =     -3.10165  eV     1   --> A              
     e( 30 - 30) =     -3.06198  eV     1   --> A              
     e( 31 - 31) =     -1.25098  eV     1   --> A              
     e( 32 - 32) =     -0.82433  eV     1   --> A              
     e( 33 - 33) =     -0.53096  eV     1   --> A              
     e( 34 - 34) =     -0.50955  eV     1   --> A              
     e( 35 - 35) =      1.49817  eV     1   --> A              
     e( 36 - 36) =      1.53922  eV     1   --> A              
     e( 37 - 37) =      2.18799  eV     1   --> A              
     e( 38 - 38) =      2.21886  eV     1   --> A              
     e( 39 - 39) =      2.23120  eV     1   --> A              
     e( 40 - 40) =      4.16548  eV     1   --> A              
     e( 41 - 41) =      4.52401  eV     1   --> A              
     e( 42 - 42) =      4.80154  eV     1   --> A              

 **************************************************************************

 **************************************************************************

                    xk=(   0.04259,  -0.00000,   0.00000  )

     Band symmetry, C_1 (1)     point group:

     e(  1 -  1) =    -69.59980  eV     1   --> A              
     e(  2 -  2) =    -68.69607  eV     1   --> A              
     e(  3 -  3) =    -36.20624  eV     1   --> A              
     e(  4 -  4) =    -35.85278  eV     1   --> A              
     e(  5 -  5) =    -35.84250  eV     1   --> A              
     e(  6 -  6) =    -35.33854  eV     1   --> A              
     e(  7 -  7) =    -34.78765  eV     1   --> A              
     e(  8 -  8) =    -34.78312  eV     1   --> A              
     e(  9 -  9) =    -21.30452  eV     1   --> A              
     e( 10 - 10) =    -21.20931  eV     1   --> A              
     e( 11 - 11) =    -21.20310  eV     1   --> A              
     e( 12 - 12) =    -21.20226  eV     1   --> A              
     e( 13 - 13) =    -21.18654  eV     1   --> A              
     e( 14 - 14) =    -21.18625  eV     1   --> A              
     e( 15 - 15) =    -21.16461  eV     1   --> A              
     e( 16 - 16) =    -20.42009  eV     1   --> A              
     e( 17 - 17) =    -20.38438  eV     1   --> A              
     e( 18 - 18) =    -20.38321  eV     1   --> A              
     e( 19 - 19) =    -20.35294  eV     1   --> A              
     e( 20 - 20) =    -20.35262  eV     1   --> A              
     e( 21 - 21) =    -20.31883  eV     1   --> A              
     e( 22 - 22) =    -20.27304  eV     1   --> A              
     e( 23 - 23) =    -19.68403  eV     1   --> A              
     e( 24 - 24) =    -13.11317  eV     1   --> A              
     e( 25 - 25) =     -7.84156  eV     1   --> A              
     e( 26 - 26) =     -6.22628  eV     1   --> A              
     e( 27 - 27) =     -6.15723  eV     1   --> A              
     e( 28 - 28) =     -4.57061  eV     1   --> A              
     e( 29 - 29) =     -3.18772  eV     1   --> A              
     e( 30 - 30) =     -3.08653  eV     1   --> A              
     e( 31 - 31) =     -1.26464  eV     1   --> A              
     e( 32 - 32) =     -0.86442  eV     1   --> A              
     e( 33 - 33) =     -0.50001  eV     1   --> A              
     e( 34 - 34) =     -0.46272  eV     1   --> A              
     e( 35 - 35) =      1.47196  eV     1   --> A              
     e( 36 - 36) =      1.57083  eV     1   --> A              
     e( 37 - 37) =      2.19330  eV     1   --> A              
     e( 38 - 38) =      2.22200  eV     1   --> A              
     e( 39 - 39) =      2.27864  eV     1   --> A              
     e( 40 - 40) =      4.19040  eV     1   --> A              
     e( 41 - 41) =      4.56648  eV     1   --> A              
     e( 42 - 42) =      4.82708  eV     1   --> A              

 **************************************************************************

 **************************************************************************

                    xk=(   0.06389,  -0.00000,   0.00000  )

     Band symmetry, C_1 (1)     point group:

     e(  1 -  1) =    -69.59915  eV     1   --> A              
     e(  2 -  2) =    -68.69549  eV     1   --> A              
     e(  3 -  3) =    -36.20351  eV     1   --> A              
     e(  4 -  4) =    -35.86525  eV     1   --> A              
     e(  5 -  5) =    -35.84519  eV     1   --> A              
     e(  6 -  6) =    -35.33721  eV     1   --> A              
     e(  7 -  7) =    -34.79727  eV     1   --> A              
     e(  8 -  8) =    -34.78544  eV     1   --> A              
     e(  9 -  9) =    -21.30312  eV     1   --> A              
     e( 10 - 10) =    -21.20903  eV     1   --> A              
     e( 11 - 11) =    -21.20340  eV     1   --> A              
     e( 12 - 12) =    -21.20193  eV     1   --> A              
     e( 13 - 13) =    -21.18669  eV     1   --> A              
     e( 14 - 14) =    -21.18654  eV     1   --> A              
     e( 15 - 15) =    -21.16527  eV     1   --> A              
     e( 16 - 16) =    -20.41984  eV     1   --> A              
     e( 17 - 17) =    -20.38447  eV     1   --> A              
     e( 18 - 18) =    -20.38354  eV     1   --> A              
     e( 19 - 19) =    -20.35301  eV     1   --> A              
     e( 20 - 20) =    -20.35238  eV     1   --> A              
     e( 21 - 21) =    -20.31830  eV     1   --> A              
     e( 22 - 22) =    -20.27363  eV     1   --> A              
     e( 23 - 23) =    -19.67215  eV     1   --> A              
     e( 24 - 24) =    -13.09902  eV     1   --> A              
     e( 25 - 25) =     -7.80061  eV     1   --> A              
     e( 26 - 26) =     -6.26321  eV     1   --> A              
     e( 27 - 27) =     -6.13760  eV     1   --> A              
     e( 28 - 28) =     -4.50882  eV     1   --> A              
     e( 29 - 29) =     -3.32047  eV     1   --> A              
     e( 30 - 30) =     -3.12817  eV     1   --> A              
     e( 31 - 31) =     -1.29136  eV     1   --> A              
     e( 32 - 32) =     -0.90975  eV     1   --> A              
     e( 33 - 33) =     -0.47896  eV     1   --> A              
     e( 34 - 34) =     -0.37725  eV     1   --> A              
     e( 35 - 35) =      1.43689  eV     1   --> A              
     e( 36 - 36) =      1.61949  eV     1   --> A              
     e( 37 - 37) =      2.19685  eV     1   --> A              
     e( 38 - 38) =      2.22826  eV     1   --> A              
     e( 39 - 39) =      2.35986  eV     1   --> A              
     e( 40 - 40) =      4.23195  eV     1   --> A              
     e( 41 - 41) =      4.63252  eV     1   --> A              
     e( 42 - 42) =      4.86965  eV     1   --> A              

 **************************************************************************

 **************************************************************************

                    xk=(   0.08518,  -0.00000,   0.00000  )

     Band symmetry, C_1 (1)     point group:

     e(  1 -  1) =    -69.59825  eV     1   --> A              
     e(  2 -  2) =    -68.69469  eV     1   --> A              
     e(  3 -  3) =    -36.19974  eV     1   --> A              
     e(  4 -  4) =    -35.88231  eV     1   --> A              
     e(  5 -  5) =    -35.84897  eV     1   --> A              
     e(  6 -  6) =    -35.33541  eV     1   --> A              
     e(  7 -  7) =    -34.81045  eV     1   --> A              
     e(  8 -  8) =    -34.78869  eV     1   --> A              
     e(  9 -  9) =    -21.30121  eV     1   --> A              
     e( 10 - 10) =    -21.20864  eV     1   --> A              
     e( 11 - 11) =    -21.20379  eV     1   --> A              
     e( 12 - 12) =    -21.20146  eV     1   --> A              
     e( 13 - 13) =    -21.18713  eV     1   --> A              
     e( 14 - 14) =    -21.18669  eV     1   --> A              
     e( 15 - 15) =    -21.16617  eV     1   --> A              
     e( 16 - 16) =    -20.41948  eV     1   --> A              
     e( 17 - 17) =    -20.38461  eV     1   --> A              
     e( 18 - 18) =    -20.38397  eV     1   --> A              
     e( 19 - 19) =    -20.35309  eV     1   --> A              
     e( 20 - 20) =    -20.35205  eV     1   --> A              
     e( 21 - 21) =    -20.31757  eV     1   --> A              
     e( 22 - 22) =    -20.27444  eV     1   --> A              
     e( 23 - 23) =    -19.65602  eV     1   --> A              
     e( 24 - 24) =    -13.07924  eV     1   --> A              
     e( 25 - 25) =     -7.74422  eV     1   --> A              
     e( 26 - 26) =     -6.30759  eV     1   --> A              
     e( 27 - 27) =     -6.11100  eV     1   --> A              
     e( 28 - 28) =     -4.43096  eV     1   --> A              
     e( 29 - 29) =     -3.48788  eV     1   --> A              
     e( 30 - 30) =     -3.18785  eV     1   --> A              
     e( 31 - 31) =     -1.33395  eV     1   --> A              
     e( 32 - 32) =     -0.94913  eV     1   --> A              
     e( 33 - 33) =     -0.46395  eV     1   --> A              
     e( 34 - 34) =     -0.26980  eV     1   --> A              
     e( 35 - 35) =      1.40232  eV     1   --> A              
     e( 36 - 36) =      1.68062  eV     1   --> A              
     e( 37 - 37) =      2.19051  eV     1   --> A              
     e( 38 - 38) =      2.24528  eV     1   --> A              
     e( 39 - 39) =      2.47290  eV     1   --> A              
     e( 40 - 40) =      4.29014  eV     1   --> A              
     e( 41 - 41) =      4.71668  eV     1   --> A              
     e( 42 - 42) =      4.92914  eV     1   --> A              

 **************************************************************************

 **************************************************************************

                    xk=(   0.10648,  -0.00000,   0.00000  )

     Band symmetry, C_1 (1)     point group:

     e(  1 -  1) =    -69.59712  eV     1   --> A              
     e(  2 -  2) =    -68.69368  eV     1   --> A              
     e(  3 -  3) =    -36.19499  eV     1   --> A              
     e(  4 -  4) =    -35.90357  eV     1   --> A              
     e(  5 -  5) =    -35.85383  eV     1   --> A              
     e(  6 -  6) =    -35.33321  eV     1   --> A              
     e(  7 -  7) =    -34.82694  eV     1   --> A              
     e(  8 -  8) =    -34.79287  eV     1   --> A              
     e(  9 -  9) =    -21.29882  eV     1   --> A              
     e( 10 - 10) =    -21.20815  eV     1   --> A              
     e( 11 - 11) =    -21.20425  eV     1   --> A              
     e( 12 - 12) =    -21.20087  eV     1   --> A              
     e( 13 - 13) =    -21.18774  eV     1   --> A              
     e( 14 - 14) =    -21.18683  eV     1   --> A              
     e( 15 - 15) =    -21.16730  eV     1   --> A              
     e( 16 - 16) =    -20.41903  eV     1   --> A              
     e( 17 - 17) =    -20.38485  eV     1   --> A              
     e( 18 - 18) =    -20.38445  eV     1   --> A              
     e( 19 - 19) =    -20.35319  eV     1   --> A              
     e( 20 - 20) =    -20.35163  eV     1   --> A              
     e( 21 - 21) =    -20.31665  eV     1   --> A              
     e( 22 - 22) =    -20.27545  eV     1   --> A              
     e( 23 - 23) =    -19.63611  eV     1   --> A              
     e( 24 - 24) =    -13.05386  eV     1   --> A              
     e( 25 - 25) =     -7.67336  eV     1   --> A              
     e( 26 - 26) =     -6.35459  eV     1   --> A              
     e( 27 - 27) =     -6.07851  eV     1   --> A              
     e( 28 - 28) =     -4.34341  eV     1   --> A              
     e( 29 - 29) =     -3.67814  eV     1   --> A              
     e( 30 - 30) =     -3.26592  eV     1   --> A              
     e( 31 - 31) =     -1.39302  eV     1   --> A              
     e( 32 - 32) =     -0.97699  eV     1   --> A              
     e( 33 - 33) =     -0.45624  eV     1   --> A              
     e( 34 - 34) =     -0.14602  eV     1   --> A              
     e( 35 - 35) =      1.37682  eV     1   --> A              
     e( 36 - 36) =      1.75030  eV     1   --> A              
     e( 37 - 37) =      2.17567  eV     1   --> A              
     e( 38 - 38) =      2.26994  eV     1   --> A              
     e( 39 - 39) =      2.61625  eV     1   --> A              
     e( 40 - 40) =      4.36507  eV     1   --> A              
     e( 41 - 41) =      4.81383  eV     1   --> A              
     e( 42 - 42) =      5.00507  eV     1   --> A              

 **************************************************************************

 **************************************************************************

                    xk=(   0.12778,  -0.00000,   0.00000  )

     Band symmetry, C_1 (1)     point group:

     e(  1 -  1) =    -69.59577  eV     1   --> A              
     e(  2 -  2) =    -68.69248  eV     1   --> A              
     e(  3 -  3) =    -36.18931  eV     1   --> A              
     e(  4 -  4) =    -35.92858  eV     1   --> A              
     e(  5 -  5) =    -35.85980  eV     1   --> A              
     e(  6 -  6) =    -35.33067  eV     1   --> A              
     e(  7 -  7) =    -34.84640  eV     1   --> A              
     e(  8 -  8) =    -34.79798  eV     1   --> A              
     e(  9 -  9) =    -21.29600  eV     1   --> A              
     e( 10 - 10) =    -21.20759  eV     1   --> A              
     e( 11 - 11) =    -21.20475  eV     1   --> A              
     e( 12 - 12) =    -21.20016  eV     1   --> A              
     e( 13 - 13) =    -21.18847  eV     1   --> A              
     e( 14 - 14) =    -21.18699  eV     1   --> A              
     e( 15 - 15) =    -21.16863  eV     1   --> A              
     e( 16 - 16) =    -20.41850  eV     1   --> A              
     e( 17 - 17) =    -20.38538  eV     1   --> A              
     e( 18 - 18) =    -20.38479  eV     1   --> A              
     e( 19 - 19) =    -20.35331  eV     1   --> A              
     e( 20 - 20) =    -20.35114  eV     1   --> A              
     e( 21 - 21) =    -20.31556  eV     1   --> A              
     e( 22 - 22) =    -20.27666  eV     1   --> A              
     e( 23 - 23) =    -19.61296  eV     1   --> A              
     e( 24 - 24) =    -13.02291  eV     1   --> A              
     e( 25 - 25) =     -7.58930  eV     1   --> A              
     e( 26 - 26) =     -6.40008  eV     1   --> A              
     e( 27 - 27) =     -6.04174  eV     1   --> A              
     e( 28 - 28) =     -4.25430  eV     1   --> A              
     e( 29 - 29) =     -3.87881  eV     1   --> A              
     e( 30 - 30) =     -3.36169  eV     1   --> A              
     e( 31 - 31) =     -1.46663  eV     1   --> A              
     e( 32 - 32) =     -0.99285  eV     1   --> A              
     e( 33 - 33) =     -0.45354  eV     1   --> A              
     e( 34 - 34) =     -0.00974  eV     1   --> A              
     e( 35 - 35) =      1.36655  eV     1   --> A              
     e( 36 - 36) =      1.82621  eV     1   --> A              
     e( 37 - 37) =      2.15535  eV     1   --> A              
     e( 38 - 38) =      2.29830  eV     1   --> A              
     e( 39 - 39) =      2.78674  eV     1   --> A              
     e( 40 - 40) =      4.45685  eV     1   --> A              
     e( 41 - 41) =      4.92038  eV     1   --> A              
     e( 42 - 42) =      5.09634  eV     1   --> A              

 **************************************************************************

 **************************************************************************

                    xk=(   0.14907,  -0.00000,   0.00000  )

     Band symmetry, C_1 (1)     point group:

     e(  1 -  1) =    -69.59422  eV     1   --> A              
     e(  2 -  2) =    -68.69110  eV     1   --> A              
     e(  3 -  3) =    -36.18280  eV     1   --> A              
     e(  4 -  4) =    -35.95680  eV     1   --> A              
     e(  5 -  5) =    -35.86688  eV     1   --> A              
     e(  6 -  6) =    -35.32786  eV     1   --> A              
     e(  7 -  7) =    -34.86845  eV     1   --> A              
     e(  8 -  8) =    -34.80403  eV     1   --> A              
     e(  9 -  9) =    -21.29282  eV     1   --> A              
     e( 10 - 10) =    -21.20696  eV     1   --> A              
     e( 11 - 11) =    -21.20526  eV     1   --> A              
     e( 12 - 12) =    -21.19933  eV     1   --> A              
     e( 13 - 13) =    -21.18930  eV     1   --> A              
     e( 14 - 14) =    -21.18717  eV     1   --> A              
     e( 15 - 15) =    -21.17014  eV     1   --> A              
     e( 16 - 16) =    -20.41789  eV     1   --> A              
     e( 17 - 17) =    -20.38611  eV     1   --> A              
     e( 18 - 18) =    -20.38504  eV     1   --> A              
     e( 19 - 19) =    -20.35343  eV     1   --> A              
     e( 20 - 20) =    -20.35058  eV     1   --> A              
     e( 21 - 21) =    -20.31430  eV     1   --> A              
     e( 22 - 22) =    -20.27804  eV     1   --> A              
     e( 23 - 23) =    -19.58722  eV     1   --> A              
     e( 24 - 24) =    -12.98642  eV     1   --> A              
     e( 25 - 25) =     -7.49367  eV     1   --> A              
     e( 26 - 26) =     -6.44072  eV     1   --> A              
     e( 27 - 27) =     -6.00294  eV     1   --> A              
     e( 28 - 28) =     -4.19883  eV     1   --> A              
     e( 29 - 29) =     -4.05130  eV     1   --> A              
     e( 30 - 30) =     -3.47322  eV     1   --> A              
     e( 31 - 31) =     -1.55101  eV     1   --> A              
     e( 32 - 32) =     -1.00059  eV     1   --> A              
     e( 33 - 33) =     -0.44981  eV     1   --> A              
     e( 34 - 34) =      0.13617  eV     1   --> A              
     e( 35 - 35) =      1.37431  eV     1   --> A              
     e( 36 - 36) =      1.90769  eV     1   --> A              
     e( 37 - 37) =      2.13249  eV     1   --> A              
     e( 38 - 38) =      2.32801  eV     1   --> A              
     e( 39 - 39) =      2.97971  eV     1   --> A              
     e( 40 - 40) =      4.56563  eV     1   --> A              
     e( 41 - 41) =      5.03453  eV     1   --> A              
     e( 42 - 42) =      5.20114  eV     1   --> A              

 **************************************************************************

 **************************************************************************

                    xk=(   0.17037,  -0.00000,   0.00000  )

     Band symmetry, C_1 (1)     point group:

     e(  1 -  1) =    -69.59249  eV     1   --> A              
     e(  2 -  2) =    -68.68956  eV     1   --> A              
     e(  3 -  3) =    -36.17553  eV     1   --> A              
     e(  4 -  4) =    -35.98766  eV     1   --> A              
     e(  5 -  5) =    -35.87509  eV     1   --> A              
     e(  6 -  6) =    -35.32482  eV     1   --> A              
     e(  7 -  7) =    -34.89264  eV     1   --> A              
     e(  8 -  8) =    -34.81102  eV     1   --> A              
     e(  9 -  9) =    -21.28934  eV     1   --> A              
     e( 10 - 10) =    -21.20640  eV     1   --> A              
     e( 11 - 11) =    -21.20561  eV     1   --> A              
     e( 12 - 12) =    -21.19841  eV     1   --> A              
     e( 13 - 13) =    -21.19023  eV     1   --> A              
     e( 14 - 14) =    -21.18738  eV     1   --> A              
     e( 15 - 15) =    -21.17180  eV     1   --> A              
     e( 16 - 16) =    -20.41722  eV     1   --> A              
     e( 17 - 17) =    -20.38694  eV     1   --> A              
     e( 18 - 18) =    -20.38530  eV     1   --> A              
     e( 19 - 19) =    -20.35356  eV     1   --> A              
     e( 20 - 20) =    -20.34996  eV     1   --> A              
     e( 21 - 21) =    -20.31290  eV     1   --> A              
     e( 22 - 22) =    -20.27956  eV     1   --> A              
     e( 23 - 23) =    -19.55955  eV     1   --> A              
     e( 24 - 24) =    -12.94445  eV     1   --> A              
     e( 25 - 25) =     -7.38853  eV     1   --> A              
     e( 26 - 26) =     -6.47389  eV     1   --> A              
     e( 27 - 27) =     -5.96534  eV     1   --> A              
     e( 28 - 28) =     -4.33603  eV     1   --> A              
     e( 29 - 29) =     -4.03365  eV     1   --> A              
     e( 30 - 30) =     -3.59732  eV     1   --> A              
     e( 31 - 31) =     -1.64155  eV     1   --> A              
     e( 32 - 32) =     -1.00680  eV     1   --> A              
     e( 33 - 33) =     -0.43653  eV     1   --> A              
     e( 34 - 34) =      0.28942  eV     1   --> A              
     e( 35 - 35) =      1.39911  eV     1   --> A              
     e( 36 - 36) =      1.99521  eV     1   --> A              
     e( 37 - 37) =      2.11123  eV     1   --> A              
     e( 38 - 38) =      2.35775  eV     1   --> A              
     e( 39 - 39) =      3.18985  eV     1   --> A              
     e( 40 - 40) =      4.69146  eV     1   --> A              
     e( 41 - 41) =      5.15547  eV     1   --> A              
     e( 42 - 42) =      5.31741  eV     1   --> A              

 **************************************************************************

 **************************************************************************

                    xk=(   0.19167,  -0.00000,   0.00000  )

     Band symmetry, C_1 (1)     point group:

     e(  1 -  1) =    -69.59062  eV     1   --> A              
     e(  2 -  2) =    -68.68788  eV     1   --> A              
     e(  3 -  3) =    -36.16761  eV     1   --> A              
     e(  4 -  4) =    -36.02054  eV     1   --> A              
     e(  5 -  5) =    -35.88444  eV     1   --> A              
     e(  6 -  6) =    -35.32163  eV     1   --> A              
     e(  7 -  7) =    -34.91852  eV     1   --> A              
     e(  8 -  8) =    -34.81895  eV     1   --> A              
     e(  9 -  9) =    -21.28564  eV     1   --> A              
     e( 10 - 10) =    -21.20650  eV     1   --> A              
     e( 11 - 11) =    -21.20520  eV     1   --> A              
     e( 12 - 12) =    -21.19740  eV     1   --> A              
     e( 13 - 13) =    -21.19123  eV     1   --> A              
     e( 14 - 14) =    -21.18761  eV     1   --> A              
     e( 15 - 15) =    -21.17357  eV     1   --> A              
     e( 16 - 16) =    -20.41649  eV     1   --> A              
     e( 17 - 17) =    -20.38784  eV     1   --> A              
     e( 18 - 18) =    -20.38558  eV     1   --> A              
     e( 19 - 19) =    -20.35369  eV     1   --> A              
     e( 20 - 20) =    -20.34930  eV     1   --> A              
     e( 21 - 21) =    -20.31138  eV     1   --> A              
     e( 22 - 22) =    -20.28122  eV     1   --> A              
     e( 23 - 23) =    -19.53062  eV     1   --> A              
     e( 24 - 24) =    -12.89706  eV     1   --> A              
     e( 25 - 25) =     -7.27648  eV     1   --> A              
     e( 26 - 26) =     -6.49741  eV     1   --> A              
     e( 27 - 27) =     -5.93364  eV     1   --> A              
     e( 28 - 28) =     -4.53054  eV     1   --> A              
     e( 29 - 29) =     -3.95933  eV     1   --> A              
     e( 30 - 30) =     -3.72875  eV     1   --> A              
     e( 31 - 31) =     -1.73316  eV     1   --> A              
     e( 32 - 32) =     -1.01789  eV     1   --> A              
     e( 33 - 33) =     -0.40575  eV     1   --> A              
     e( 34 - 34) =      0.44782  eV     1   --> A              
     e( 35 - 35) =      1.43607  eV     1   --> A              
     e( 36 - 36) =      2.08754  eV     1   --> A              
     e( 37 - 37) =      2.10001  eV     1   --> A              
     e( 38 - 38) =      2.38736  eV     1   --> A              
     e( 39 - 39) =      3.41203  eV     1   --> A              
     e( 40 - 40) =      4.83430  eV     1   --> A              
     e( 41 - 41) =      5.28187  eV     1   --> A              
     e( 42 - 42) =      5.44357  eV     1   --> A              

 **************************************************************************

 **************************************************************************

                    xk=(   0.21296,  -0.00000,   0.00000  )

     Band symmetry, C_1 (1)     point group:

     e(  1 -  1) =    -69.58861  eV     1   --> A              
     e(  2 -  2) =    -68.68609  eV     1   --> A              
     e(  3 -  3) =    -36.15916  eV     1   --> A              
     e(  4 -  4) =    -36.05483  eV     1   --> A              
     e(  5 -  5) =    -35.89493  eV     1   --> A              
     e(  6 -  6) =    -35.31834  eV     1   --> A              
     e(  7 -  7) =    -34.94559  eV     1   --> A              
     e(  8 -  8) =    -34.82781  eV     1   --> A              
     e(  9 -  9) =    -21.28177  eV     1   --> A              
     e( 10 - 10) =    -21.20686  eV     1   --> A              
     e( 11 - 11) =    -21.20439  eV     1   --> A              
     e( 12 - 12) =    -21.19634  eV     1   --> A              
     e( 13 - 13) =    -21.19228  eV     1   --> A              
     e( 14 - 14) =    -21.18785  eV     1   --> A              
     e( 15 - 15) =    -21.17543  eV     1   --> A              
     e( 16 - 16) =    -20.41571  eV     1   --> A              
     e( 17 - 17) =    -20.38877  eV     1   --> A              
     e( 18 - 18) =    -20.38590  eV     1   --> A              
     e( 19 - 19) =    -20.35380  eV     1   --> A              
     e( 20 - 20) =    -20.34860  eV     1   --> A              
     e( 21 - 21) =    -20.30975  eV     1   --> A              
     e( 22 - 22) =    -20.28297  eV     1   --> A              
     e( 23 - 23) =    -19.50108  eV     1   --> A              
     e( 24 - 24) =    -12.84436  eV     1   --> A              
     e( 25 - 25) =     -7.16097  eV     1   --> A              
     e( 26 - 26) =     -6.50927  eV     1   --> A              
     e( 27 - 27) =     -5.91450  eV     1   --> A              
     e( 28 - 28) =     -4.71376  eV     1   --> A              
     e( 29 - 29) =     -3.91949  eV     1   --> A              
     e( 30 - 30) =     -3.83633  eV     1   --> A              
     e( 31 - 31) =     -1.82031  eV     1   --> A              
     e( 32 - 32) =     -1.03685  eV     1   --> A              
     e( 33 - 33) =     -0.35366  eV     1   --> A              
     e( 34 - 34) =      0.60876  eV     1   --> A              
     e( 35 - 35) =      1.47668  eV     1   --> A              
     e( 36 - 36) =      2.09933  eV     1   --> A              
     e( 37 - 37) =      2.19375  eV     1   --> A              
     e( 38 - 38) =      2.41820  eV     1   --> A              
     e( 39 - 39) =      3.64178  eV     1   --> A              
     e( 40 - 40) =      4.99384  eV     1   --> A              
     e( 41 - 41) =      5.41035  eV     1   --> A              
     e( 42 - 42) =      5.57926  eV     1   --> A              

 **************************************************************************

 **************************************************************************

                    xk=(   0.23426,  -0.00000,   0.00000  )

     Band symmetry, C_1 (1)     point group:

     e(  1 -  1) =    -69.58650  eV     1   --> A              
     e(  2 -  2) =    -68.68421  eV     1   --> A              
     e(  3 -  3) =    -36.15027  eV     1   --> A              
     e(  4 -  4) =    -36.08987  eV     1   --> A              
     e(  5 -  5) =    -35.90656  eV     1   --> A              
     e(  6 -  6) =    -35.31498  eV     1   --> A              
     e(  7 -  7) =    -34.97335  eV     1   --> A              
     e(  8 -  8) =    -34.83760  eV     1   --> A              
     e(  9 -  9) =    -21.27783  eV     1   --> A              
     e( 10 - 10) =    -21.20718  eV     1   --> A              
     e( 11 - 11) =    -21.20346  eV     1   --> A              
     e( 12 - 12) =    -21.19526  eV     1   --> A              
     e( 13 - 13) =    -21.19338  eV     1   --> A              
     e( 14 - 14) =    -21.18809  eV     1   --> A              
     e( 15 - 15) =    -21.17736  eV     1   --> A              
     e( 16 - 16) =    -20.41489  eV     1   --> A              
     e( 17 - 17) =    -20.38974  eV     1   --> A              
     e( 18 - 18) =    -20.38625  eV     1   --> A              
     e( 19 - 19) =    -20.35390  eV     1   --> A              
     e( 20 - 20) =    -20.34789  eV     1   --> A              
     e( 21 - 21) =    -20.30804  eV     1   --> A              
     e( 22 - 22) =    -20.28480  eV     1   --> A              
     e( 23 - 23) =    -19.47154  eV     1   --> A              
     e( 24 - 24) =    -12.78651  eV     1   --> A              
     e( 25 - 25) =     -7.04665  eV     1   --> A              
     e( 26 - 26) =     -6.50727  eV     1   --> A              
     e( 27 - 27) =     -5.91661  eV     1   --> A              
     e( 28 - 28) =     -4.87099  eV     1   --> A              
     e( 29 - 29) =     -4.03031  eV     1   --> A              
     e( 30 - 30) =     -3.80842  eV     1   --> A              
     e( 31 - 31) =     -1.89717  eV     1   --> A              
     e( 32 - 32) =     -1.06247  eV     1   --> A              
     e( 33 - 33) =     -0.28155  eV     1   --> A              
     e( 34 - 34) =      0.76865  eV     1   --> A              
     e( 35 - 35) =      1.51075  eV     1   --> A              
     e( 36 - 36) =      2.12785  eV     1   --> A              
     e( 37 - 37) =      2.30405  eV     1   --> A              
     e( 38 - 38) =      2.45497  eV     1   --> A              
     e( 39 - 39) =      3.87546  eV     1   --> A              
     e( 40 - 40) =      5.16944  eV     1   --> A              
     e( 41 - 41) =      5.53460  eV     1   --> A              
     e( 42 - 42) =      5.72585  eV     1   --> A              

 **************************************************************************

 **************************************************************************

                    xk=(   0.25555,  -0.00000,   0.00000  )

     Band symmetry, C_1 (1)     point group:

     e(  1 -  1) =    -69.58433  eV     1   --> A              
     e(  2 -  2) =    -68.68227  eV     1   --> A              
     e(  3 -  3) =    -36.14109  eV     1   --> A              
     e(  4 -  4) =    -36.12502  eV     1   --> A              
     e(  5 -  5) =    -35.91933  eV     1   --> A              
     e(  6 -  6) =    -35.31160  eV     1   --> A              
     e(  7 -  7) =    -35.00129  eV     1   --> A              
     e(  8 -  8) =    -34.84830  eV     1   --> A              
     e(  9 -  9) =    -21.27389  eV     1   --> A              
     e( 10 - 10) =    -21.20738  eV     1   --> A              
     e( 11 - 11) =    -21.20246  eV     1   --> A              
     e( 12 - 12) =    -21.19455  eV     1   --> A              
     e( 13 - 13) =    -21.19415  eV     1   --> A              
     e( 14 - 14) =    -21.18831  eV     1   --> A              
     e( 15 - 15) =    -21.17931  eV     1   --> A              
     e( 16 - 16) =    -20.41405  eV     1   --> A              
     e( 17 - 17) =    -20.39070  eV     1   --> A              
     e( 18 - 18) =    -20.38663  eV     1   --> A              
     e( 19 - 19) =    -20.35398  eV     1   --> A              
     e( 20 - 20) =    -20.34717  eV     1   --> A              
     e( 21 - 21) =    -20.30627  eV     1   --> A              
     e( 22 - 22) =    -20.28669  eV     1   --> A              
     e( 23 - 23) =    -19.44253  eV     1   --> A              
     e( 24 - 24) =    -12.72377  eV     1   --> A              
     e( 25 - 25) =     -6.93981  eV     1   --> A              
     e( 26 - 26) =     -6.48900  eV     1   --> A              
     e( 27 - 27) =     -5.94822  eV     1   --> A              
     e( 28 - 28) =     -4.99120  eV     1   --> A              
     e( 29 - 29) =     -4.17042  eV     1   --> A              
     e( 30 - 30) =     -3.76737  eV     1   --> A              
     e( 31 - 31) =     -1.95784  eV     1   --> A              
     e( 32 - 32) =     -1.09128  eV     1   --> A              
     e( 33 - 33) =     -0.19376  eV     1   --> A              
     e( 34 - 34) =      0.92213  eV     1   --> A              
     e( 35 - 35) =      1.53172  eV     1   --> A              
     e( 36 - 36) =      2.18904  eV     1   --> A              
     e( 37 - 37) =      2.40893  eV     1   --> A              
     e( 38 - 38) =      2.51503  eV     1   --> A              
     e( 39 - 39) =      4.11020  eV     1   --> A              
     e( 40 - 40) =      5.35995  eV     1   --> A              
     e( 41 - 41) =      5.64713  eV     1   --> A              
     e( 42 - 42) =      5.88437  eV     1   --> A              

 **************************************************************************

 **************************************************************************

                    xk=(   0.27685,  -0.00000,   0.00000  )

     Band symmetry, C_1 (1)     point group:

     e(  1 -  1) =    -69.58211  eV     1   --> A              
     e(  2 -  2) =    -68.68029  eV     1   --> A              
     e(  3 -  3) =    -36.15971  eV     1   --> A              
     e(  4 -  4) =    -36.13170  eV     1   --> A              
     e(  5 -  5) =    -35.93323  eV     1   --> A              
     e(  6 -  6) =    -35.30824  eV     1   --> A              
     e(  7 -  7) =    -35.02890  eV     1   --> A              
     e(  8 -  8) =    -34.85989  eV     1   --> A              
     e(  9 -  9) =    -21.27002  eV     1   --> A              
     e( 10 - 10) =    -21.20745  eV     1   --> A              
     e( 11 - 11) =    -21.20139  eV     1   --> A              
     e( 12 - 12) =    -21.19565  eV     1   --> A              
     e( 13 - 13) =    -21.19319  eV     1   --> A              
     e( 14 - 14) =    -21.18848  eV     1   --> A              
     e( 15 - 15) =    -21.18127  eV     1   --> A              
     e( 16 - 16) =    -20.41319  eV     1   --> A              
     e( 17 - 17) =    -20.39166  eV     1   --> A              
     e( 18 - 18) =    -20.38703  eV     1   --> A              
     e( 19 - 19) =    -20.35404  eV     1   --> A              
     e( 20 - 20) =    -20.34647  eV     1   --> A              
     e( 21 - 21) =    -20.30446  eV     1   --> A              
     e( 22 - 22) =    -20.28861  eV     1   --> A              
     e( 23 - 23) =    -19.41450  eV     1   --> A              
     e( 24 - 24) =    -12.65653  eV     1   --> A              
     e( 25 - 25) =     -6.84772  eV     1   --> A              
     e( 26 - 26) =     -6.45420  eV     1   --> A              
     e( 27 - 27) =     -6.00968  eV     1   --> A              
     e( 28 - 28) =     -5.06949  eV     1   --> A              
     e( 29 - 29) =     -4.30983  eV     1   --> A              
     e( 30 - 30) =     -3.74326  eV     1   --> A              
     e( 31 - 31) =     -1.99708  eV     1   --> A              
     e( 32 - 32) =     -1.11988  eV     1   --> A              
     e( 33 - 33) =     -0.09508  eV     1   --> A              
     e( 34 - 34) =      1.06106  eV     1   --> A              
     e( 35 - 35) =      1.54200  eV     1   --> A              
     e( 36 - 36) =      2.28257  eV     1   --> A              
     e( 37 - 37) =      2.48026  eV     1   --> A              
     e( 38 - 38) =      2.63106  eV     1   --> A              
     e( 39 - 39) =      4.34360  eV     1   --> A              
     e( 40 - 40) =      5.56325  eV     1   --> A              
     e( 41 - 41) =      5.74366  eV     1   --> A              
     e( 42 - 42) =      6.04530  eV     1   --> A              

 **************************************************************************

 **************************************************************************

                    xk=(   0.29815,  -0.00000,   0.00000  )

     Band symmetry, C_1 (1)     point group:

     e(  1 -  1) =    -69.57987  eV     1   --> A              
     e(  2 -  2) =    -68.67830  eV     1   --> A              
     e(  3 -  3) =    -36.19328  eV     1   --> A              
     e(  4 -  4) =    -36.12227  eV     1   --> A              
     e(  5 -  5) =    -35.94823  eV     1   --> A              
     e(  6 -  6) =    -35.30494  eV     1   --> A              
     e(  7 -  7) =    -35.05572  eV     1   --> A              
     e(  8 -  8) =    -34.87236  eV     1   --> A              
     e(  9 -  9) =    -21.26630  eV     1   --> A              
     e( 10 - 10) =    -21.20737  eV     1   --> A              
     e( 11 - 11) =    -21.20026  eV     1   --> A              
     e( 12 - 12) =    -21.19676  eV     1   --> A              
     e( 13 - 13) =    -21.19238  eV     1   --> A              
     e( 14 - 14) =    -21.18852  eV     1   --> A              
     e( 15 - 15) =    -21.18320  eV     1   --> A              
     e( 16 - 16) =    -20.41233  eV     1   --> A              
     e( 17 - 17) =    -20.39258  eV     1   --> A              
     e( 18 - 18) =    -20.38747  eV     1   --> A              
     e( 19 - 19) =    -20.35406  eV     1   --> A              
     e( 20 - 20) =    -20.34579  eV     1   --> A              
     e( 21 - 21) =    -20.30264  eV     1   --> A              
     e( 22 - 22) =    -20.29053  eV     1   --> A              
     e( 23 - 23) =    -19.38779  eV     1   --> A              
     e( 24 - 24) =    -12.58531  eV     1   --> A              
     e( 25 - 25) =     -6.77535  eV     1   --> A              
     e( 26 - 26) =     -6.41481  eV     1   --> A              
     e( 27 - 27) =     -6.08174  eV     1   --> A              
     e( 28 - 28) =     -5.11127  eV     1   --> A              
     e( 29 - 29) =     -4.44423  eV     1   --> A              
     e( 30 - 30) =     -3.73929  eV     1   --> A              
     e( 31 - 31) =     -2.01114  eV     1   --> A              
     e( 32 - 32) =     -1.14592  eV     1   --> A              
     e( 33 - 33) =      0.01066  eV     1   --> A              
     e( 34 - 34) =      1.17354  eV     1   --> A              
     e( 35 - 35) =      1.55273  eV     1   --> A              
     e( 36 - 36) =      2.40172  eV     1   --> A              
     e( 37 - 37) =      2.53638  eV     1   --> A              
     e( 38 - 38) =      2.78902  eV     1   --> A              
     e( 39 - 39) =      4.57320  eV     1   --> A              
     e( 40 - 40) =      5.77101  eV     1   --> A              
     e( 41 - 41) =      5.82856  eV     1   --> A              
     e( 42 - 42) =      6.14173  eV     1   --> A              

 **************************************************************************

 **************************************************************************

                    xk=(   0.31944,  -0.00000,   0.00000  )

     Band symmetry, C_1 (1)     point group:

     e(  1 -  1) =    -69.57766  eV     1   --> A              
     e(  2 -  2) =    -68.67632  eV     1   --> A              
     e(  3 -  3) =    -36.22520  eV     1   --> A              
     e(  4 -  4) =    -36.11292  eV     1   --> A              
     e(  5 -  5) =    -35.96431  eV     1   --> A              
     e(  6 -  6) =    -35.30173  eV     1   --> A              
     e(  7 -  7) =    -35.08128  eV     1   --> A              
     e(  8 -  8) =    -34.88567  eV     1   --> A              
     e(  9 -  9) =    -21.26277  eV     1   --> A              
     e( 10 - 10) =    -21.20714  eV     1   --> A              
     e( 11 - 11) =    -21.19910  eV     1   --> A              
     e( 12 - 12) =    -21.19782  eV     1   --> A              
     e( 13 - 13) =    -21.19183  eV     1   --> A              
     e( 14 - 14) =    -21.18835  eV     1   --> A              
     e( 15 - 15) =    -21.18509  eV     1   --> A              
     e( 16 - 16) =    -20.41146  eV     1   --> A              
     e( 17 - 17) =    -20.39346  eV     1   --> A              
     e( 18 - 18) =    -20.38793  eV     1   --> A              
     e( 19 - 19) =    -20.35405  eV     1   --> A              
     e( 20 - 20) =    -20.34516  eV     1   --> A              
     e( 21 - 21) =    -20.30083  eV     1   --> A              
     e( 22 - 22) =    -20.29243  eV     1   --> A              
     e( 23 - 23) =    -19.36267  eV     1   --> A              
     e( 24 - 24) =    -12.51078  eV     1   --> A              
     e( 25 - 25) =     -6.72202  eV     1   --> A              
     e( 26 - 26) =     -6.41485  eV     1   --> A              
     e( 27 - 27) =     -6.11221  eV     1   --> A              
     e( 28 - 28) =     -5.12866  eV     1   --> A              
     e( 29 - 29) =     -4.57091  eV     1   --> A              
     e( 30 - 30) =     -3.75529  eV     1   --> A              
     e( 31 - 31) =     -1.99861  eV     1   --> A              
     e( 32 - 32) =     -1.16817  eV     1   --> A              
     e( 33 - 33) =      0.12098  eV     1   --> A              
     e( 34 - 34) =      1.24604  eV     1   --> A              
     e( 35 - 35) =      1.57846  eV     1   --> A              
     e( 36 - 36) =      2.53065  eV     1   --> A              
     e( 37 - 37) =      2.60383  eV     1   --> A              
     e( 38 - 38) =      2.97159  eV     1   --> A              
     e( 39 - 39) =      4.79551  eV     1   --> A              
     e( 40 - 40) =      5.88085  eV     1   --> A              
     e( 41 - 41) =      5.98648  eV     1   --> A              
     e( 42 - 42) =      6.17081  eV     1   --> A              

 **************************************************************************

 **************************************************************************

                    xk=(   0.34074,  -0.00000,   0.00000  )

     Band symmetry, C_1 (1)     point group:

     e(  1 -  1) =    -69.57548  eV     1   --> A              
     e(  2 -  2) =    -68.67438  eV     1   --> A              
     e(  3 -  3) =    -36.25494  eV     1   --> A              
     e(  4 -  4) =    -36.10375  eV     1   --> A              
     e(  5 -  5) =    -35.98141  eV     1   --> A              
     e(  6 -  6) =    -35.29863  eV     1   --> A              
     e(  7 -  7) =    -35.10517  eV     1   --> A              
     e(  8 -  8) =    -34.89978  eV     1   --> A              
     e(  9 -  9) =    -21.25948  eV     1   --> A              
     e( 10 - 10) =    -21.20676  eV     1   --> A              
     e( 11 - 11) =    -21.19891  eV     1   --> A              
     e( 12 - 12) =    -21.19784  eV     1   --> A              
     e( 13 - 13) =    -21.19159  eV     1   --> A              
     e( 14 - 14) =    -21.18798  eV     1   --> A              
     e( 15 - 15) =    -21.18689  eV     1   --> A              
     e( 16 - 16) =    -20.41061  eV     1   --> A              
     e( 17 - 17) =    -20.39428  eV     1   --> A              
     e( 18 - 18) =    -20.38842  eV     1   --> A              
     e( 19 - 19) =    -20.35400  eV     1   --> A              
     e( 20 - 20) =    -20.34458  eV     1   --> A              
     e( 21 - 21) =    -20.29907  eV     1   --> A              
     e( 22 - 22) =    -20.29430  eV     1   --> A              
     e( 23 - 23) =    -19.33928  eV     1   --> A              
     e( 24 - 24) =    -12.43384  eV     1   --> A              
     e( 25 - 25) =     -6.68539  eV     1   --> A              
     e( 26 - 26) =     -6.48388  eV     1   --> A              
     e( 27 - 27) =     -6.06545  eV     1   --> A              
     e( 28 - 28) =     -5.13368  eV     1   --> A              
     e( 29 - 29) =     -4.68725  eV     1   --> A              
     e( 30 - 30) =     -3.78889  eV     1   --> A              
     e( 31 - 31) =     -1.96059  eV     1   --> A              
     e( 32 - 32) =     -1.18614  eV     1   --> A              
     e( 33 - 33) =      0.23459  eV     1   --> A              
     e( 34 - 34) =      1.27558  eV     1   --> A              
     e( 35 - 35) =      1.62416  eV     1   --> A              
     e( 36 - 36) =      2.62338  eV     1   --> A              
     e( 37 - 37) =      2.72213  eV     1   --> A              
     e( 38 - 38) =      3.17454  eV     1   --> A              
     e( 39 - 39) =      5.00450  eV     1   --> A              
     e( 40 - 40) =      5.92944  eV     1   --> A              
     e( 41 - 41) =      6.08052  eV     1   --> A              
     e( 42 - 42) =      6.31133  eV     1   --> A              

 **************************************************************************

 **************************************************************************

                    xk=(   0.36203,  -0.00000,   0.00000  )

     Band symmetry, C_1 (1)     point group:

     e(  1 -  1) =    -69.57337  eV     1   --> A              
     e(  2 -  2) =    -68.67250  eV     1   --> A              
     e(  3 -  3) =    -36.28204  eV     1   --> A              
     e(  4 -  4) =    -36.09492  eV     1   --> A              
     e(  5 -  5) =    -35.99946  eV     1   --> A              
     e(  6 -  6) =    -35.29569  eV     1   --> A              
     e(  7 -  7) =    -35.12700  eV     1   --> A              
     e(  8 -  8) =    -34.91465  eV     1   --> A              
     e(  9 -  9) =    -21.25646  eV     1   --> A              
     e( 10 - 10) =    -21.20627  eV     1   --> A              
     e( 11 - 11) =    -21.19983  eV     1   --> A              
     e( 12 - 12) =    -21.19670  eV     1   --> A              
     e( 13 - 13) =    -21.19154  eV     1   --> A              
     e( 14 - 14) =    -21.18871  eV     1   --> A              
     e( 15 - 15) =    -21.18736  eV     1   --> A              
     e( 16 - 16) =    -20.40977  eV     1   --> A              
     e( 17 - 17) =    -20.39502  eV     1   --> A              
     e( 18 - 18) =    -20.38894  eV     1   --> A              
     e( 19 - 19) =    -20.35391  eV     1   --> A              
     e( 20 - 20) =    -20.34407  eV     1   --> A              
     e( 21 - 21) =    -20.29745  eV     1   --> A              
     e( 22 - 22) =    -20.29601  eV     1   --> A              
     e( 23 - 23) =    -19.31770  eV     1   --> A              
     e( 24 - 24) =    -12.35554  eV     1   --> A              
     e( 25 - 25) =     -6.67897  eV     1   --> A              
     e( 26 - 26) =     -6.56419  eV     1   --> A              
     e( 27 - 27) =     -5.98065  eV     1   --> A              
     e( 28 - 28) =     -5.13601  eV     1   --> A              
     e( 29 - 29) =     -4.78944  eV     1   --> A              
     e( 30 - 30) =     -3.83644  eV     1   --> A              
     e( 31 - 31) =     -1.90023  eV     1   --> A              
     e( 32 - 32) =     -1.19961  eV     1   --> A              
     e( 33 - 33) =      0.35105  eV     1   --> A              
     e( 34 - 34) =      1.27605  eV     1   --> A              
     e( 35 - 35) =      1.67936  eV     1   --> A              
     e( 36 - 36) =      2.68688  eV     1   --> A              
     e( 37 - 37) =      2.87044  eV     1   --> A              
     e( 38 - 38) =      3.39647  eV     1   --> A              
     e( 39 - 39) =      5.18949  eV     1   --> A              
     e( 40 - 40) =      5.95034  eV     1   --> A              
     e( 41 - 41) =      6.12405  eV     1   --> A              
     e( 42 - 42) =      6.54957  eV     1   --> A              

 **************************************************************************

 **************************************************************************

                    xk=(   0.38333,  -0.00000,   0.00000  )

     Band symmetry, C_1 (1)     point group:

     e(  1 -  1) =    -69.57135  eV     1   --> A              
     e(  2 -  2) =    -68.67070  eV     1   --> A              
     e(  3 -  3) =    -36.30608  eV     1   --> A              
     e(  4 -  4) =    -36.08659  eV     1   --> A              
     e(  5 -  5) =    -36.01834  eV     1   --> A              
     e(  6 -  6) =    -35.29291  eV     1   --> A              
     e(  7 -  7) =    -35.14645  eV     1   --> A              
     e(  8 -  8) =    -34.93022  eV     1   --> A              
     e(  9 -  9) =    -21.25371  eV     1   --> A              
     e( 10 - 10) =    -21.20570  eV     1   --> A              
     e( 11 - 11) =    -21.20065  eV     1   --> A              
     e( 12 - 12) =    -21.19569  eV     1   --> A              
     e( 13 - 13) =    -21.19151  eV     1   --> A              
     e( 14 - 14) =    -21.19031  eV     1   --> A              
     e( 15 - 15) =    -21.18683  eV     1   --> A              
     e( 16 - 16) =    -20.40896  eV     1   --> A              
     e( 17 - 17) =    -20.39568  eV     1   --> A              
     e( 18 - 18) =    -20.38947  eV     1   --> A              
     e( 19 - 19) =    -20.35376  eV     1   --> A              
     e( 20 - 20) =    -20.34365  eV     1   --> A              
     e( 21 - 21) =    -20.29800  eV     1   --> A              
     e( 22 - 22) =    -20.29556  eV     1   --> A              
     e( 23 - 23) =    -19.29795  eV     1   --> A              
     e( 24 - 24) =    -12.27711  eV     1   --> A              
     e( 25 - 25) =     -6.74619  eV     1   --> A              
     e( 26 - 26) =     -6.57959  eV     1   --> A              
     e( 27 - 27) =     -5.88866  eV     1   --> A              
     e( 28 - 28) =     -5.14540  eV     1   --> A              
     e( 29 - 29) =     -4.87020  eV     1   --> A              
     e( 30 - 30) =     -3.89401  eV     1   --> A              
     e( 31 - 31) =     -1.82191  eV     1   --> A              
     e( 32 - 32) =     -1.20819  eV     1   --> A              
     e( 33 - 33) =      0.47026  eV     1   --> A              
     e( 34 - 34) =      1.26271  eV     1   --> A              
     e( 35 - 35) =      1.73316  eV     1   --> A              
     e( 36 - 36) =      2.74042  eV     1   --> A              
     e( 37 - 37) =      3.01184  eV     1   --> A              
     e( 38 - 38) =      3.63604  eV     1   --> A              
     e( 39 - 39) =      5.33533  eV     1   --> A              
     e( 40 - 40) =      5.95120  eV     1   --> A              
     e( 41 - 41) =      6.20705  eV     1   --> A              
     e( 42 - 42) =      6.81197  eV     1   --> A              

 **************************************************************************

 **************************************************************************

                    xk=(   0.40463,  -0.00000,   0.00000  )

     Band symmetry, C_1 (1)     point group:

     e(  1 -  1) =    -69.56945  eV     1   --> A              
     e(  2 -  2) =    -68.66900  eV     1   --> A              
     e(  3 -  3) =    -36.32672  eV     1   --> A              
     e(  4 -  4) =    -36.07909  eV     1   --> A              
     e(  5 -  5) =    -36.03773  eV     1   --> A              
     e(  6 -  6) =    -35.29032  eV     1   --> A              
     e(  7 -  7) =    -35.16322  eV     1   --> A              
     e(  8 -  8) =    -34.94645  eV     1   --> A              
     e(  9 -  9) =    -21.25122  eV     1   --> A              
     e( 10 - 10) =    -21.20510  eV     1   --> A              
     e( 11 - 11) =    -21.20131  eV     1   --> A              
     e( 12 - 12) =    -21.19501  eV     1   --> A              
     e( 13 - 13) =    -21.19198  eV     1   --> A              
     e( 14 - 14) =    -21.19108  eV     1   --> A              
     e( 15 - 15) =    -21.18636  eV     1   --> A              
     e( 16 - 16) =    -20.40819  eV     1   --> A              
     e( 17 - 17) =    -20.39623  eV     1   --> A              
     e( 18 - 18) =    -20.39003  eV     1   --> A              
     e( 19 - 19) =    -20.35357  eV     1   --> A              
     e( 20 - 20) =    -20.34332  eV     1   --> A              
     e( 21 - 21) =    -20.29962  eV     1   --> A              
     e( 22 - 22) =    -20.29405  eV     1   --> A              
     e( 23 - 23) =    -19.27997  eV     1   --> A              
     e( 24 - 24) =    -12.19996  eV     1   --> A              
     e( 25 - 25) =     -6.84075  eV     1   --> A              
     e( 26 - 26) =     -6.56355  eV     1   --> A              
     e( 27 - 27) =     -5.80251  eV     1   --> A              
     e( 28 - 28) =     -5.17334  eV     1   --> A              
     e( 29 - 29) =     -4.91807  eV     1   --> A              
     e( 30 - 30) =     -3.95813  eV     1   --> A              
     e( 31 - 31) =     -1.73068  eV     1   --> A              
     e( 32 - 32) =     -1.21096  eV     1   --> A              
     e( 33 - 33) =      0.59200  eV     1   --> A              
     e( 34 - 34) =      1.24437  eV     1   --> A              
     e( 35 - 35) =      1.78101  eV     1   --> A              
     e( 36 - 36) =      2.78145  eV     1   --> A              
     e( 37 - 37) =      3.13120  eV     1   --> A              
     e( 38 - 38) =      3.89068  eV     1   --> A              
     e( 39 - 39) =      5.43112  eV     1   --> A              
     e( 40 - 40) =      5.94682  eV     1   --> A              
     e( 41 - 41) =      6.33874  eV     1   --> A              
     e( 42 - 42) =      7.08918  eV     1   --> A              

 **************************************************************************

 **************************************************************************

                    xk=(   0.42592,  -0.00000,   0.00000  )

     Band symmetry, C_1 (1)     point group:

     e(  1 -  1) =    -69.56768  eV     1   --> A              
     e(  2 -  2) =    -68.66742  eV     1   --> A              
     e(  3 -  3) =    -36.34366  eV     1   --> A              
     e(  4 -  4) =    -36.07435  eV     1   --> A              
     e(  5 -  5) =    -36.05571  eV     1   --> A              
     e(  6 -  6) =    -35.28793  eV     1   --> A              
     e(  7 -  7) =    -35.17710  eV     1   --> A              
     e(  8 -  8) =    -34.96324  eV     1   --> A              
     e(  9 -  9) =    -21.24898  eV     1   --> A              
     e( 10 - 10) =    -21.20461  eV     1   --> A              
     e( 11 - 11) =    -21.20172  eV     1   --> A              
     e( 12 - 12) =    -21.19480  eV     1   --> A              
     e( 13 - 13) =    -21.19333  eV     1   --> A              
     e( 14 - 14) =    -21.19052  eV     1   --> A              
     e( 15 - 15) =    -21.18599  eV     1   --> A              
     e( 16 - 16) =    -20.40746  eV     1   --> A              
     e( 17 - 17) =    -20.39669  eV     1   --> A              
     e( 18 - 18) =    -20.39060  eV     1   --> A              
     e( 19 - 19) =    -20.35333  eV     1   --> A              
     e( 20 - 20) =    -20.34309  eV     1   --> A              
     e( 21 - 21) =    -20.30117  eV     1   --> A              
     e( 22 - 22) =    -20.29261  eV     1   --> A              
     e( 23 - 23) =    -19.26369  eV     1   --> A              
     e( 24 - 24) =    -12.12558  eV     1   --> A              
     e( 25 - 25) =     -6.92701  eV     1   --> A              
     e( 26 - 26) =     -6.54580  eV     1   --> A              
     e( 27 - 27) =     -5.73019  eV     1   --> A              
     e( 28 - 28) =     -5.22197  eV     1   --> A              
     e( 29 - 29) =     -4.92881  eV     1   --> A              
     e( 30 - 30) =     -4.02616  eV     1   --> A              
     e( 31 - 31) =     -1.63206  eV     1   --> A              
     e( 32 - 32) =     -1.20615  eV     1   --> A              
     e( 33 - 33) =      0.71560  eV     1   --> A              
     e( 34 - 34) =      1.22546  eV     1   --> A              
     e( 35 - 35) =      1.82193  eV     1   --> A              
     e( 36 - 36) =      2.80446  eV     1   --> A              
     e( 37 - 37) =      3.21979  eV     1   --> A              
     e( 38 - 38) =      4.15613  eV     1   --> A              
     e( 39 - 39) =      5.48053  eV     1   --> A              
     e( 40 - 40) =      5.93912  eV     1   --> A              
     e( 41 - 41) =      6.51343  eV     1   --> A              
     e( 42 - 42) =      7.38011  eV     1   --> A              

 **************************************************************************

 **************************************************************************

                    xk=(   0.44722,  -0.00000,   0.00000  )

     Band symmetry, C_1 (1)     point group:

     e(  1 -  1) =    -69.56606  eV     1   --> A              
     e(  2 -  2) =    -68.66598  eV     1   --> A              
     e(  3 -  3) =    -36.35668  eV     1   --> A              
     e(  4 -  4) =    -36.08460  eV     1   --> A              
     e(  5 -  5) =    -36.06002  eV     1   --> A              
     e(  6 -  6) =    -35.28575  eV     1   --> A              
     e(  7 -  7) =    -35.18790  eV     1   --> A              
     e(  8 -  8) =    -34.98054  eV     1   --> A              
     e(  9 -  9) =    -21.24696  eV     1   --> A              
     e( 10 - 10) =    -21.20436  eV     1   --> A              
     e( 11 - 11) =    -21.20174  eV     1   --> A              
     e( 12 - 12) =    -21.19496  eV     1   --> A              
     e( 13 - 13) =    -21.19456  eV     1   --> A              
     e( 14 - 14) =    -21.18976  eV     1   --> A              
     e( 15 - 15) =    -21.18570  eV     1   --> A              
     e( 16 - 16) =    -20.40677  eV     1   --> A              
     e( 17 - 17) =    -20.39703  eV     1   --> A              
     e( 18 - 18) =    -20.39119  eV     1   --> A              
     e( 19 - 19) =    -20.35305  eV     1   --> A              
     e( 20 - 20) =    -20.34296  eV     1   --> A              
     e( 21 - 21) =    -20.30261  eV     1   --> A              
     e( 22 - 22) =    -20.29129  eV     1   --> A              
     e( 23 - 23) =    -19.24904  eV     1   --> A              
     e( 24 - 24) =    -12.05548  eV     1   --> A              
     e( 25 - 25) =     -6.99646  eV     1   --> A              
     e( 26 - 26) =     -6.53134  eV     1   --> A              
     e( 27 - 27) =     -5.68089  eV     1   --> A              
     e( 28 - 28) =     -5.27443  eV     1   --> A              
     e( 29 - 29) =     -4.91335  eV     1   --> A              
     e( 30 - 30) =     -4.09631  eV     1   --> A              
     e( 31 - 31) =     -1.53246  eV     1   --> A              
     e( 32 - 32) =     -1.19069  eV     1   --> A              
     e( 33 - 33) =      0.83978  eV     1   --> A              
     e( 34 - 34) =      1.20834  eV     1   --> A              
     e( 35 - 35) =      1.85596  eV     1   --> A              
     e( 36 - 36) =      2.80423  eV     1   --> A              
     e( 37 - 37) =      3.27437  eV     1   --> A              
     e( 38 - 38) =      4.42639  eV     1   --> A              
     e( 39 - 39) =      5.49171  eV     1   --> A              
     e( 40 - 40) =      5.93114  eV     1   --> A              
     e( 41 - 41) =      6.71337  eV     1   --> A              
     e( 42 - 42) =      7.68396  eV     1   --> A              

 **************************************************************************

 **************************************************************************

                    xk=(   0.46852,  -0.00000,   0.00000  )

     Band symmetry, C_1 (1)     point group:

     e(  1 -  1) =    -69.56460  eV     1   --> A              
     e(  2 -  2) =    -68.66468  eV     1   --> A              
     e(  3 -  3) =    -36.36565  eV     1   --> A              
     e(  4 -  4) =    -36.10515  eV     1   --> A              
     e(  5 -  5) =    -36.05532  eV     1   --> A              
     e(  6 -  6) =    -35.28379  eV     1   --> A              
     e(  7 -  7) =    -35.19552  eV     1   --> A              
     e(  8 -  8) =    -34.99825  eV     1   --> A              
     e(  9 -  9) =    -21.24512  eV     1   --> A              
     e( 10 - 10) =    -21.20439  eV     1   --> A              
     e( 11 - 11) =    -21.20138  eV     1   --> A              
     e( 12 - 12) =    -21.19574  eV     1   --> A              
     e( 13 - 13) =    -21.19522  eV     1   --> A              
     e( 14 - 14) =    -21.18914  eV     1   --> A              
     e( 15 - 15) =    -21.18540  eV     1   --> A              
     e( 16 - 16) =    -20.40614  eV     1   --> A              
     e( 17 - 17) =    -20.39726  eV     1   --> A              
     e( 18 - 18) =    -20.39178  eV     1   --> A              
     e( 19 - 19) =    -20.35272  eV     1   --> A              
     e( 20 - 20) =    -20.34294  eV     1   --> A              
     e( 21 - 21) =    -20.30392  eV     1   --> A              
     e( 22 - 22) =    -20.29010  eV     1   --> A              
     e( 23 - 23) =    -19.23592  eV     1   --> A              
     e( 24 - 24) =    -11.99112  eV     1   --> A              
     e( 25 - 25) =     -7.04533  eV     1   --> A              
     e( 26 - 26) =     -6.52131  eV     1   --> A              
     e( 27 - 27) =     -5.66968  eV     1   --> A              
     e( 28 - 28) =     -5.30545  eV     1   --> A              
     e( 29 - 29) =     -4.88426  eV     1   --> A              
     e( 30 - 30) =     -4.16751  eV     1   --> A              
     e( 31 - 31) =     -1.43957  eV     1   --> A              
     e( 32 - 32) =     -1.16009  eV     1   --> A              
     e( 33 - 33) =      0.96270  eV     1   --> A              
     e( 34 - 34) =      1.19436  eV     1   --> A              
     e( 35 - 35) =      1.88336  eV     1   --> A              
     e( 36 - 36) =      2.77737  eV     1   --> A              
     e( 37 - 37) =      3.29649  eV     1   --> A              
     e( 38 - 38) =      4.69260  eV     1   --> A              
     e( 39 - 39) =      5.46558  eV     1   --> A              
     e( 40 - 40) =      5.93586  eV     1   --> A              
     e( 41 - 41) =      6.91498  eV     1   --> A              
     e( 42 - 42) =      7.98858  eV     1   --> A              

 **************************************************************************

 **************************************************************************

                    xk=(   0.48981,  -0.00000,   0.00000  )

     Band symmetry, C_1 (1)     point group:

     e(  1 -  1) =    -69.56332  eV     1   --> A              
     e(  2 -  2) =    -68.66353  eV     1   --> A              
     e(  3 -  3) =    -36.37049  eV     1   --> A              
     e(  4 -  4) =    -36.12731  eV     1   --> A              
     e(  5 -  5) =    -36.05020  eV     1   --> A              
     e(  6 -  6) =    -35.28205  eV     1   --> A              
     e(  7 -  7) =    -35.19989  eV     1   --> A              
     e(  8 -  8) =    -35.01627  eV     1   --> A              
     e(  9 -  9) =    -21.24345  eV     1   --> A              
     e( 10 - 10) =    -21.20454  eV     1   --> A              
     e( 11 - 11) =    -21.20085  eV     1   --> A              
     e( 12 - 12) =    -21.19664  eV     1   --> A              
     e( 13 - 13) =    -21.19565  eV     1   --> A              
     e( 14 - 14) =    -21.18889  eV     1   --> A              
     e( 15 - 15) =    -21.18498  eV     1   --> A              
     e( 16 - 16) =    -20.40556  eV     1   --> A              
     e( 17 - 17) =    -20.39737  eV     1   --> A              
     e( 18 - 18) =    -20.39239  eV     1   --> A              
     e( 19 - 19) =    -20.35234  eV     1   --> A              
     e( 20 - 20) =    -20.34302  eV     1   --> A              
     e( 21 - 21) =    -20.30510  eV     1   --> A              
     e( 22 - 22) =    -20.28905  eV     1   --> A              
     e( 23 - 23) =    -19.22429  eV     1   --> A              
     e( 24 - 24) =    -11.93377  eV     1   --> A              
     e( 25 - 25) =     -7.07138  eV     1   --> A              
     e( 26 - 26) =     -6.51567  eV     1   --> A              
     e( 27 - 27) =     -5.70829  eV     1   --> A              
     e( 28 - 28) =     -5.29681  eV     1   --> A              
     e( 29 - 29) =     -4.85014  eV     1   --> A              
     e( 30 - 30) =     -4.23921  eV     1   --> A              
     e( 31 - 31) =     -1.36089  eV     1   --> A              
     e( 32 - 32) =     -1.11023  eV     1   --> A              
     e( 33 - 33) =      1.08206  eV     1   --> A              
     e( 34 - 34) =      1.18431  eV     1   --> A              
     e( 35 - 35) =      1.90421  eV     1   --> A              
     e( 36 - 36) =      2.72335  eV     1   --> A              
     e( 37 - 37) =      3.29093  eV     1   --> A              
     e( 38 - 38) =      4.93398  eV     1   --> A              
     e( 39 - 39) =      5.41663  eV     1   --> A              
     e( 40 - 40) =      5.96422  eV     1   --> A              
     e( 41 - 41) =      7.09149  eV     1   --> A              
     e( 42 - 42) =      8.17407  eV     1   --> A              

 **************************************************************************

 **************************************************************************

                    xk=(   0.51111,  -0.00000,   0.00000  )

     Band symmetry, C_1 (1)     point group:

     e(  1 -  1) =    -69.56221  eV     1   --> A              
     e(  2 -  2) =    -68.66254  eV     1   --> A              
     e(  3 -  3) =    -36.37122  eV     1   --> A              
     e(  4 -  4) =    -36.15007  eV     1   --> A              
     e(  5 -  5) =    -36.04556  eV     1   --> A              
     e(  6 -  6) =    -35.28054  eV     1   --> A              
     e(  7 -  7) =    -35.20103  eV     1   --> A              
     e(  8 -  8) =    -35.03448  eV     1   --> A              
     e(  9 -  9) =    -21.24193  eV     1   --> A              
     e( 10 - 10) =    -21.20468  eV     1   --> A              
     e( 11 - 11) =    -21.20035  eV     1   --> A              
     e( 12 - 12) =    -21.19728  eV     1   --> A              
     e( 13 - 13) =    -21.19610  eV     1   --> A              
     e( 14 - 14) =    -21.18910  eV     1   --> A              
     e( 15 - 15) =    -21.18440  eV     1   --> A              
     e( 16 - 16) =    -20.40505  eV     1   --> A              
     e( 17 - 17) =    -20.39738  eV     1   --> A              
     e( 18 - 18) =    -20.39300  eV     1   --> A              
     e( 19 - 19) =    -20.35194  eV     1   --> A              
     e( 20 - 20) =    -20.34319  eV     1   --> A              
     e( 21 - 21) =    -20.30613  eV     1   --> A              
     e( 22 - 22) =    -20.28814  eV     1   --> A              
     e( 23 - 23) =    -19.21409  eV     1   --> A              
     e( 24 - 24) =    -11.88441  eV     1   --> A              
     e( 25 - 25) =     -7.07320  eV     1   --> A              
     e( 26 - 26) =     -6.51368  eV     1   --> A              
     e( 27 - 27) =     -5.78733  eV     1   --> A              
     e( 28 - 28) =     -5.25412  eV     1   --> A              
     e( 29 - 29) =     -4.81693  eV     1   --> A              
     e( 30 - 30) =     -4.31113  eV     1   --> A              
     e( 31 - 31) =     -1.29818  eV     1   --> A              
     e( 32 - 32) =     -1.04332  eV     1   --> A              
     e( 33 - 33) =      1.17868  eV     1   --> A              
     e( 34 - 34) =      1.19541  eV     1   --> A              
     e( 35 - 35) =      1.91788  eV     1   --> A              
     e( 36 - 36) =      2.64540  eV     1   --> A              
     e( 37 - 37) =      3.26388  eV     1   --> A              
     e( 38 - 38) =      5.07110  eV     1   --> A              
     e( 39 - 39) =      5.43237  eV     1   --> A              
     e( 40 - 40) =      6.01436  eV     1   --> A              
     e( 41 - 41) =      7.21861  eV     1   --> A              
     e( 42 - 42) =      8.28355  eV     1   --> A              

 **************************************************************************

 **************************************************************************

                    xk=(   0.53240,  -0.00001,   0.00000  )

     Band symmetry, C_1 (1)     point group:

     e(  1 -  1) =    -69.56128  eV     1   --> A              
     e(  2 -  2) =    -68.66171  eV     1   --> A              
     e(  3 -  3) =    -36.36793  eV     1   --> A              
     e(  4 -  4) =    -36.17310  eV     1   --> A              
     e(  5 -  5) =    -36.04160  eV     1   --> A              
     e(  6 -  6) =    -35.27926  eV     1   --> A              
     e(  7 -  7) =    -35.19899  eV     1   --> A              
     e(  8 -  8) =    -35.05276  eV     1   --> A              
     e(  9 -  9) =    -21.24056  eV     1   --> A              
     e( 10 - 10) =    -21.20478  eV     1   --> A              
     e( 11 - 11) =    -21.20006  eV     1   --> A              
     e( 12 - 12) =    -21.19760  eV     1   --> A              
     e( 13 - 13) =    -21.19650  eV     1   --> A              
     e( 14 - 14) =    -21.18970  eV     1   --> A              
     e( 15 - 15) =    -21.18376  eV     1   --> A              
     e( 16 - 16) =    -20.40460  eV     1   --> A              
     e( 17 - 17) =    -20.39727  eV     1   --> A              
     e( 18 - 18) =    -20.39362  eV     1   --> A              
     e( 19 - 19) =    -20.35151  eV     1   --> A              
     e( 20 - 20) =    -20.34344  eV     1   --> A              
     e( 21 - 21) =    -20.30700  eV     1   --> A              
     e( 22 - 22) =    -20.28739  eV     1   --> A              
     e( 23 - 23) =    -19.20533  eV     1   --> A              
     e( 24 - 24) =    -11.84365  eV     1   --> A              
     e( 25 - 25) =     -7.05020  eV     1   --> A              
     e( 26 - 26) =     -6.51419  eV     1   --> A              
     e( 27 - 27) =     -5.89069  eV     1   --> A              
     e( 28 - 28) =     -5.19131  eV     1   --> A              
     e( 29 - 29) =     -4.78881  eV     1   --> A              
     e( 30 - 30) =     -4.38314  eV     1   --> A              
     e( 31 - 31) =     -1.24569  eV     1   --> A              
     e( 32 - 32) =     -0.96996  eV     1   --> A              
     e( 33 - 33) =      1.17808  eV     1   --> A              
     e( 34 - 34) =      1.30032  eV     1   --> A              
     e( 35 - 35) =      1.92160  eV     1   --> A              
     e( 36 - 36) =      2.55159  eV     1   --> A              
     e( 37 - 37) =      3.22212  eV     1   --> A              
     e( 38 - 38) =      5.03464  eV     1   --> A              
     e( 39 - 39) =      5.59412  eV     1   --> A              
     e( 40 - 40) =      6.08066  eV     1   --> A              
     e( 41 - 41) =      7.29167  eV     1   --> A              
     e( 42 - 42) =      8.44069  eV     1   --> A              

 **************************************************************************

 **************************************************************************

                    xk=(   0.55370,  -0.00001,   0.00000  )

     Band symmetry, C_1 (1)     point group:

     e(  1 -  1) =    -69.56054  eV     1   --> A              
     e(  2 -  2) =    -68.66105  eV     1   --> A              
     e(  3 -  3) =    -36.36084  eV     1   --> A              
     e(  4 -  4) =    -36.19614  eV     1   --> A              
     e(  5 -  5) =    -36.03837  eV     1   --> A              
     e(  6 -  6) =    -35.27822  eV     1   --> A              
     e(  7 -  7) =    -35.19396  eV     1   --> A              
     e(  8 -  8) =    -35.07093  eV     1   --> A              
     e(  9 -  9) =    -21.23935  eV     1   --> A              
     e( 10 - 10) =    -21.20483  eV     1   --> A              
[...]
     e( 12 - 12) =    -21.20096  eV     1   --> A              
     e( 13 - 13) =    -21.18808  eV     1   --> A              
     e( 14 - 14) =    -21.18664  eV     1   --> A              
     e( 15 - 15) =    -21.16756  eV     1   --> A              
     e( 16 - 16) =    -20.41891  eV     1   --> A              
     e( 17 - 17) =    -20.38561  eV     1   --> A              
     e( 18 - 18) =    -20.38387  eV     1   --> A              
     e( 19 - 19) =    -20.35320  eV     1   --> A              
     e( 20 - 20) =    -20.35157  eV     1   --> A              
     e( 21 - 21) =    -20.31645  eV     1   --> A              
     e( 22 - 22) =    -20.27568  eV     1   --> A              
     e( 23 - 23) =    -19.63174  eV     1   --> A              
     e( 24 - 24) =    -13.04791  eV     1   --> A              
     e( 25 - 25) =     -7.65807  eV     1   --> A              
     e( 26 - 26) =     -6.35809  eV     1   --> A              
     e( 27 - 27) =     -6.07750  eV     1   --> A              
     e( 28 - 28) =     -4.32882  eV     1   --> A              
     e( 29 - 29) =     -3.73630  eV     1   --> A              
     e( 30 - 30) =     -3.24886  eV     1   --> A              
     e( 31 - 31) =     -1.40688  eV     1   --> A              
     e( 32 - 32) =     -1.04746  eV     1   --> A              
     e( 33 - 33) =     -0.28868  eV     1   --> A              
     e( 34 - 34) =     -0.22985  eV     1   --> A              
     e( 35 - 35) =      1.35093  eV     1   --> A              
     e( 36 - 36) =      1.76567  eV     1   --> A              
     e( 37 - 37) =      2.23340  eV     1   --> A              
     e( 38 - 38) =      2.25399  eV     1   --> A              
     e( 39 - 39) =      2.62298  eV     1   --> A              
     e( 40 - 40) =      4.38164  eV     1   --> A              
     e( 41 - 41) =      4.83473  eV     1   --> A              
     e( 42 - 42) =      5.02195  eV     1   --> A              

 **************************************************************************

 **************************************************************************

                    xk=(   0.07990,  -0.04620,   0.00000  )

     Band symmetry, C_1 (1)     point group:

     e(  1 -  1) =    -69.59789  eV     1   --> A              
     e(  2 -  2) =    -68.69437  eV     1   --> A              
     e(  3 -  3) =    -36.19826  eV     1   --> A              
     e(  4 -  4) =    -35.88851  eV     1   --> A              
     e(  5 -  5) =    -35.85099  eV     1   --> A              
     e(  6 -  6) =    -35.33470  eV     1   --> A              
     e(  7 -  7) =    -34.81656  eV     1   --> A              
     e(  8 -  8) =    -34.78913  eV     1   --> A              
     e(  9 -  9) =    -21.30049  eV     1   --> A              
     e( 10 - 10) =    -21.20846  eV     1   --> A              
     e( 11 - 11) =    -21.20379  eV     1   --> A              
     e( 12 - 12) =    -21.20146  eV     1   --> A              
     e( 13 - 13) =    -21.18755  eV     1   --> A              
     e( 14 - 14) =    -21.18649  eV     1   --> A              
     e( 15 - 15) =    -21.16653  eV     1   --> A              
     e( 16 - 16) =    -20.41933  eV     1   --> A              
     e( 17 - 17) =    -20.38516  eV     1   --> A              
     e( 18 - 18) =    -20.38365  eV     1   --> A              
     e( 19 - 19) =    -20.35310  eV     1   --> A              
     e( 20 - 20) =    -20.35195  eV     1   --> A              
     e( 21 - 21) =    -20.31728  eV     1   --> A              
     e( 22 - 22) =    -20.27476  eV     1   --> A              
     e( 23 - 23) =    -19.64978  eV     1   --> A              
     e( 24 - 24) =    -13.07125  eV     1   --> A              
     e( 25 - 25) =     -7.72224  eV     1   --> A              
     e( 26 - 26) =     -6.31733  eV     1   --> A              
     e( 27 - 27) =     -6.10762  eV     1   --> A              
     e( 28 - 28) =     -4.40309  eV     1   --> A              
     e( 29 - 29) =     -3.55780  eV     1   --> A              
     e( 30 - 30) =     -3.19629  eV     1   --> A              
     e( 31 - 31) =     -1.35199  eV     1   --> A              
     e( 32 - 32) =     -0.99159  eV     1   --> A              
     e( 33 - 33) =     -0.36419  eV     1   --> A              
     e( 34 - 34) =     -0.29972  eV     1   --> A              
     e( 35 - 35) =      1.38174  eV     1   --> A              
     e( 36 - 36) =      1.70420  eV     1   --> A              
     e( 37 - 37) =      2.22220  eV     1   --> A              
     e( 38 - 38) =      2.23521  eV     1   --> A              
     e( 39 - 39) =      2.50516  eV     1   --> A              
     e( 40 - 40) =      4.31320  eV     1   --> A              
     e( 41 - 41) =      4.74818  eV     1   --> A              
     e( 42 - 42) =      4.95266  eV     1   --> A              

 **************************************************************************

 **************************************************************************

                    xk=(   0.06392,  -0.03696,   0.00000  )

     Band symmetry, C_1 (1)     point group:

     e(  1 -  1) =    -69.59875  eV     1   --> A              
     e(  2 -  2) =    -68.69514  eV     1   --> A              
     e(  3 -  3) =    -36.20187  eV     1   --> A              
     e(  4 -  4) =    -35.87200  eV     1   --> A              
     e(  5 -  5) =    -35.84754  eV     1   --> A              
     e(  6 -  6) =    -35.33641  eV     1   --> A              
     e(  7 -  7) =    -34.80375  eV     1   --> A              
     e(  8 -  8) =    -34.78616  eV     1   --> A              
     e(  9 -  9) =    -21.30231  eV     1   --> A              
     e( 10 - 10) =    -21.20883  eV     1   --> A              
     e( 11 - 11) =    -21.20346  eV     1   --> A              
     e( 12 - 12) =    -21.20187  eV     1   --> A              
     e( 13 - 13) =    -21.18711  eV     1   --> A              
     e( 14 - 14) =    -21.18636  eV     1   --> A              
     e( 15 - 15) =    -21.16567  eV     1   --> A              
     e( 16 - 16) =    -20.41967  eV     1   --> A              
     e( 17 - 17) =    -20.38482  eV     1   --> A              
     e( 18 - 18) =    -20.38344  eV     1   --> A              
     e( 19 - 19) =    -20.35302  eV     1   --> A              
     e( 20 - 20) =    -20.35226  eV     1   --> A              
     e( 21 - 21) =    -20.31798  eV     1   --> A              
     e( 22 - 22) =    -20.27398  eV     1   --> A              
     e( 23 - 23) =    -19.66513  eV     1   --> A              
     e( 24 - 24) =    -13.09038  eV     1   --> A              
     e( 25 - 25) =     -7.77613  eV     1   --> A              
     e( 26 - 26) =     -6.27714  eV     1   --> A              
     e( 27 - 27) =     -6.13316  eV     1   --> A              
     e( 28 - 28) =     -4.47391  eV     1   --> A              
     e( 29 - 29) =     -3.39595  eV     1   --> A              
     e( 30 - 30) =     -3.15019  eV     1   --> A              
     e( 31 - 31) =     -1.30922  eV     1   --> A              
     e( 32 - 32) =     -0.93990  eV     1   --> A              
     e( 33 - 33) =     -0.42626  eV     1   --> A              
     e( 34 - 34) =     -0.36581  eV     1   --> A              
     e( 35 - 35) =      1.41744  eV     1   --> A              
     e( 36 - 36) =      1.64521  eV     1   --> A              
     e( 37 - 37) =      2.21145  eV     1   --> A              
     e( 38 - 38) =      2.22515  eV     1   --> A              
     e( 39 - 39) =      2.40468  eV     1   --> A              
     e( 40 - 40) =      4.25710  eV     1   --> A              
     e( 41 - 41) =      4.67018  eV     1   --> A              
     e( 42 - 42) =      4.89536  eV     1   --> A              

 **************************************************************************

 **************************************************************************

                    xk=(   0.04794,  -0.02772,   0.00000  )

     Band symmetry, C_1 (1)     point group:

     e(  1 -  1) =    -69.59943  eV     1   --> A              
     e(  2 -  2) =    -68.69575  eV     1   --> A              
     e(  3 -  3) =    -36.20472  eV     1   --> A              
     e(  4 -  4) =    -35.85892  eV     1   --> A              
     e(  5 -  5) =    -35.84479  eV     1   --> A              
     e(  6 -  6) =    -35.33779  eV     1   --> A              
     e(  7 -  7) =    -34.79363  eV     1   --> A              
     e(  8 -  8) =    -34.78379  eV     1   --> A              
     e(  9 -  9) =    -21.30376  eV     1   --> A              
     e( 10 - 10) =    -21.20914  eV     1   --> A              
     e( 11 - 11) =    -21.20318  eV     1   --> A              
     e( 12 - 12) =    -21.20218  eV     1   --> A              
     e( 13 - 13) =    -21.18680  eV     1   --> A              
     e( 14 - 14) =    -21.18623  eV     1   --> A              
     e( 15 - 15) =    -21.16498  eV     1   --> A              
     e( 16 - 16) =    -20.41995  eV     1   --> A              
     e( 17 - 17) =    -20.38458  eV     1   --> A              
     e( 18 - 18) =    -20.38324  eV     1   --> A              
     e( 19 - 19) =    -20.35296  eV     1   --> A              
     e( 20 - 20) =    -20.35251  eV     1   --> A              
     e( 21 - 21) =    -20.31854  eV     1   --> A              
     e( 22 - 22) =    -20.27336  eV     1   --> A              
     e( 23 - 23) =    -19.67743  eV     1   --> A              
     e( 24 - 24) =    -13.10529  eV     1   --> A              
     e( 25 - 25) =     -7.81885  eV     1   --> A              
     e( 26 - 26) =     -6.24094  eV     1   --> A              
     e( 27 - 27) =     -6.15336  eV     1   --> A              
     e( 28 - 28) =     -4.53552  eV     1   --> A              
     e( 29 - 29) =     -3.25896  eV     1   --> A              
     e( 30 - 30) =     -3.11218  eV     1   --> A              
     e( 31 - 31) =     -1.27887  eV     1   --> A              
     e( 32 - 32) =     -0.89254  eV     1   --> A              
     e( 33 - 33) =     -0.47528  eV     1   --> A              
     e( 34 - 34) =     -0.42618  eV     1   --> A              
     e( 35 - 35) =      1.45343  eV     1   --> A              
     e( 36 - 36) =      1.59426  eV     1   --> A              
     e( 37 - 37) =      2.20217  eV     1   --> A              
     e( 38 - 38) =      2.21959  eV     1   --> A              
     e( 39 - 39) =      2.32392  eV     1   --> A              
     e( 40 - 40) =      4.21341  eV     1   --> A              
     e( 41 - 41) =      4.60382  eV     1   --> A              
     e( 42 - 42) =      4.85061  eV     1   --> A              

 **************************************************************************

 **************************************************************************

                    xk=(   0.03196,  -0.01848,   0.00000  )

     Band symmetry, C_1 (1)     point group:

     e(  1 -  1) =    -69.59993  eV     1   --> A              
     e(  2 -  2) =    -68.69619  eV     1   --> A              
     e(  3 -  3) =    -36.20678  eV     1   --> A              
     e(  4 -  4) =    -35.84953  eV     1   --> A              
     e(  5 -  5) =    -35.84272  eV     1   --> A              
     e(  6 -  6) =    -35.33881  eV     1   --> A              
     e(  7 -  7) =    -34.78636  eV     1   --> A              
     e(  8 -  8) =    -34.78204  eV     1   --> A              
     e(  9 -  9) =    -21.30481  eV     1   --> A              
     e( 10 - 10) =    -21.20936  eV     1   --> A              
     e( 11 - 11) =    -21.20298  eV     1   --> A              
     e( 12 - 12) =    -21.20240  eV     1   --> A              
     e( 13 - 13) =    -21.18660  eV     1   --> A              
     e( 14 - 14) =    -21.18611  eV     1   --> A              
     e( 15 - 15) =    -21.16448  eV     1   --> A              
     e( 16 - 16) =    -20.42014  eV     1   --> A              
     e( 17 - 17) =    -20.38442  eV     1   --> A              
     e( 18 - 18) =    -20.38308  eV     1   --> A              
     e( 19 - 19) =    -20.35291  eV     1   --> A              
     e( 20 - 20) =    -20.35269  eV     1   --> A              
     e( 21 - 21) =    -20.31893  eV     1   --> A              
     e( 22 - 22) =    -20.27292  eV     1   --> A              
     e( 23 - 23) =    -19.68643  eV     1   --> A              
     e( 24 - 24) =    -13.11596  eV     1   --> A              
     e( 25 - 25) =     -7.84976  eV     1   --> A              
     e( 26 - 26) =     -6.21260  eV     1   --> A              
     e( 27 - 27) =     -6.16725  eV     1   --> A              
     e( 28 - 28) =     -4.58345  eV     1   --> A              
     e( 29 - 29) =     -3.15445  eV     1   --> A              
     e( 30 - 30) =     -3.08345  eV     1   --> A              
     e( 31 - 31) =     -1.25985  eV     1   --> A              
     e( 32 - 32) =     -0.85087  eV     1   --> A              
     e( 33 - 33) =     -0.51248  eV     1   --> A              
     e( 34 - 34) =     -0.47652  eV     1   --> A              
     e( 35 - 35) =      1.48424  eV     1   --> A              
     e( 36 - 36) =      1.55564  eV     1   --> A              
     e( 37 - 37) =      2.19426  eV     1   --> A              
     e( 38 - 38) =      2.21671  eV     1   --> A              
     e( 39 - 39) =      2.26510  eV     1   --> A              
     e( 40 - 40) =      4.18217  eV     1   --> A              
     e( 41 - 41) =      4.55274  eV     1   --> A              
     e( 42 - 42) =      4.81862  eV     1   --> A              

 **************************************************************************

 **************************************************************************

                    xk=(   0.01598,  -0.00924,   0.00000  )

     Band symmetry, C_1 (1)     point group:

     e(  1 -  1) =    -69.60022  eV     1   --> A              
     e(  2 -  2) =    -68.69645  eV     1   --> A              
     e(  3 -  3) =    -36.20803  eV     1   --> A              
     e(  4 -  4) =    -35.84415  eV     1   --> A              
     e(  5 -  5) =    -35.84115  eV     1   --> A              
     e(  6 -  6) =    -35.33944  eV     1   --> A              
     e(  7 -  7) =    -34.78224  eV     1   --> A              
     e(  8 -  8) =    -34.78069  eV     1   --> A              
     e(  9 -  9) =    -21.30545  eV     1   --> A              
     e( 10 - 10) =    -21.20950  eV     1   --> A              
     e( 11 - 11) =    -21.20288  eV     1   --> A              
     e( 12 - 12) =    -21.20250  eV     1   --> A              
     e( 13 - 13) =    -21.18650  eV     1   --> A              
     e( 14 - 14) =    -21.18601  eV     1   --> A              
     e( 15 - 15) =    -21.16418  eV     1   --> A              
     e( 16 - 16) =    -20.42026  eV     1   --> A              
     e( 17 - 17) =    -20.38434  eV     1   --> A              
     e( 18 - 18) =    -20.38298  eV     1   --> A              
     e( 19 - 19) =    -20.35289  eV     1   --> A              
     e( 20 - 20) =    -20.35278  eV     1   --> A              
     e( 21 - 21) =    -20.31918  eV     1   --> A              
     e( 22 - 22) =    -20.27265  eV     1   --> A              
     e( 23 - 23) =    -19.69190  eV     1   --> A              
     e( 24 - 24) =    -13.12237  eV     1   --> A              
     e( 25 - 25) =     -7.86847  eV     1   --> A              
     e( 26 - 26) =     -6.19672  eV     1   --> A              
     e( 27 - 27) =     -6.17305  eV     1   --> A              
     e( 28 - 28) =     -4.61395  eV     1   --> A              
     e( 29 - 29) =     -3.09045  eV     1   --> A              
     e( 30 - 30) =     -3.06374  eV     1   --> A              
     e( 31 - 31) =     -1.24995  eV     1   --> A              
     e( 32 - 32) =     -0.81945  eV     1   --> A              
     e( 33 - 33) =     -0.53965  eV     1   --> A              
     e( 34 - 34) =     -0.50897  eV     1   --> A              
     e( 35 - 35) =      1.50356  eV     1   --> A              
     e( 36 - 36) =      1.53326  eV     1   --> A              
     e( 37 - 37) =      2.18859  eV     1   --> A              
     e( 38 - 38) =      2.21360  eV     1   --> A              
     e( 39 - 39) =      2.23132  eV     1   --> A              
     e( 40 - 40) =      4.16342  eV     1   --> A              
     e( 41 - 41) =      4.52041  eV     1   --> A              
     e( 42 - 42) =      4.79943  eV     1   --> A              

 **************************************************************************

 **************************************************************************

                    xk=(   0.00000,   0.00000,   0.00000  )

     Band symmetry, C_1 (1)     point group:

     e(  1 -  1) =    -69.60032  eV     1   --> A              
     e(  2 -  2) =    -68.69654  eV     1   --> A              
     e(  3 -  3) =    -36.20844  eV     1   --> A              
     e(  4 -  4) =    -35.84269  eV     1   --> A              
     e(  5 -  5) =    -35.84029  eV     1   --> A              
     e(  6 -  6) =    -35.33965  eV     1   --> A              
     e(  7 -  7) =    -34.78129  eV     1   --> A              
     e(  8 -  8) =    -34.77982  eV     1   --> A              
     e(  9 -  9) =    -21.30566  eV     1   --> A              
     e( 10 - 10) =    -21.20955  eV     1   --> A              
     e( 11 - 11) =    -21.20286  eV     1   --> A              
     e( 12 - 12) =    -21.20252  eV     1   --> A              
     e( 13 - 13) =    -21.18647  eV     1   --> A              
     e( 14 - 14) =    -21.18597  eV     1   --> A              
     e( 15 - 15) =    -21.16407  eV     1   --> A              
     e( 16 - 16) =    -20.42030  eV     1   --> A              
     e( 17 - 17) =    -20.38431  eV     1   --> A              
     e( 18 - 18) =    -20.38294  eV     1   --> A              
     e( 19 - 20) =    -20.35289  eV     2   -->   2 A              
     e( 21 - 21) =    -20.31926  eV     1   --> A              
     e( 22 - 22) =    -20.27256  eV     1   --> A              
     e( 23 - 23) =    -19.69374  eV     1   --> A              
     e( 24 - 24) =    -13.12451  eV     1   --> A              
     e( 25 - 25) =     -7.87473  eV     1   --> A              
     e( 26 - 26) =     -6.19332  eV     1   --> A              
     e( 27 - 27) =     -6.17282  eV     1   --> A              
     e( 28 - 28) =     -4.62443  eV     1   --> A              
     e( 29 - 29) =     -3.07196  eV     1   --> A              
     e( 30 - 30) =     -3.05364  eV     1   --> A              
     e( 31 - 31) =     -1.24696  eV     1   --> A              
     e( 32 - 32) =     -0.80704  eV     1   --> A              
     e( 33 - 33) =     -0.55122  eV     1   --> A              
     e( 34 - 34) =     -0.51932  eV     1   --> A              
     e( 35 - 35) =      1.50786  eV     1   --> A              
     e( 36 - 36) =      1.52828  eV     1   --> A              
     e( 37 - 37) =      2.18639  eV     1   --> A              
     e( 38 - 38) =      2.20941  eV     1   --> A              
     e( 39 - 39) =      2.22335  eV     1   --> A              
     e( 40 - 40) =      4.15717  eV     1   --> A              
     e( 41 - 41) =      4.50933  eV     1   --> A              
     e( 42 - 42) =      4.79303  eV     1   --> A              

 **************************************************************************
 
     BANDS        :   1m48.99s CPU   1m14.69s WALL

 
   This run was terminated on:  22: 5: 0  16Apr2022            

=------------------------------------------------------------------------------=
   JOB DONE.
=------------------------------------------------------------------------------=
