
     Program PWSCF v.6.8 starts on 16Apr2022 at 21:15:32 

     This program is part of the open-source Quantum ESPRESSO suite
     for quantum simulation of materials; please cite
         "P. Giannozzi et al., J. Phys.:Condens. Matter 21 395502 (2009);
         "P. Giannozzi et al., J. Phys.:Condens. Matter 29 465901 (2017);
         "P. Giannozzi et al., J. Chem. Phys. 152 154105 (2020);
          URL http://www.quantum-espresso.org", 
     in publications or presentations arising from this work. More details at
     http://www.quantum-espresso.org/quote

     Parallel version (MPI & OpenMP), running on       4 processor cores
     Number of MPI processes:                 2
     Threads/MPI process:                     2

     MPI processes distributed on     1 nodes
     R & G space division:  proc/nbgrp/npool/nimage =       2
     121611 MiB available memory on the printing compute node when the environment starts
 
     Reading input from Ta2CO2.nscf.in
Warning: card  O             -0.1374362000        0.0185582000       -0.8211192000 ignored

     Current dimensions of program PWSCF are:
     Max number of different atomic species (ntypx) = 10
     Max number of k-points (npk) =  40000
     Max angular momentum in pseudopotentials (lmaxx) =  4

     Atomic positions and unit cell read from directory:
     /scratch/as3359/Ta2CO2_bandsdos/Ta.save/
 
     file Ta.pbesol-spfn-rrkjus_psl.1.0.0.UPF: wavefunction(s)  5S 5P renormalized

     Subspace diagonalization in iterative solution of the eigenvalue problem:
     a serial algorithm will be used

 
     Parallelization info
     --------------------
     sticks:   dense  smooth     PW     G-vecs:    dense   smooth      PW
     Min         831     708    210               265345   210352   33348
     Max         832     709    211               265384   210405   33387
     Sum        1663    1417    421               530729   420757   66735
 
     Using Slab Decomposition
 


     bravais-lattice index     =            0
     lattice parameter (alat)  =       5.6500  a.u.
     unit-cell volume          =    1697.2493 (a.u.)^3
     number of atoms/cell      =            4
     number of atomic types    =            3
     number of electrons       =        64.00
     number of Kohn-Sham states=           38
     kinetic-energy cutoff     =     150.0000  Ry
     charge density cutoff     =     700.0000  Ry
     Exchange-correlation= PBESOL
                           (   1   4  10   8   0   0   0)

     celldm(1)=   5.650000  celldm(2)=   0.000000  celldm(3)=   0.000000
     celldm(4)=   0.000000  celldm(5)=   0.000000  celldm(6)=   0.000000

     crystal axes: (cart. coord. in units of alat)
               a(1) = (   1.043485   0.000819   0.000000 )  
               a(2) = (  -0.521734   0.901399   0.000000 )  
               a(3) = (   0.000000   0.000000  10.000000 )  

     reciprocal axes: (cart. coord. in units 2 pi/alat)
               b(1) = (  0.957892  0.554433  0.000000 )  
               b(2) = ( -0.000870  1.108883  0.000000 )  
               b(3) = (  0.000000  0.000000  0.100000 )  


     PseudoPot. # 1 for Ta read from file:
     /shared/home/as3359/pseudo/Ta.pbesol-spfn-rrkjus_psl.1.0.0.UPF
     MD5 check sum: f099565ffaca9b150a52e9412a28e20b
     Pseudo is Ultrasoft + core correction, Zval = 27.0
     Generated using &quot;atomic&quot; code by A. Dal Corso  v.6.3
     Using radial grid of 1273 points,  8 beta functions with: 
                l(1) =   0
                l(2) =   0
                l(3) =   1
                l(4) =   1
                l(5) =   2
                l(6) =   2
                l(7) =   3
                l(8) =   3
     Q(r) pseudized with 0 coefficients 


     PseudoPot. # 2 for C  read from file:
     /shared/home/as3359/pseudo/C.pbesol-n-rrkjus_psl.1.0.0.UPF
     MD5 check sum: 05995be603a8a7c99da3dc4413f31573
     Pseudo is Ultrasoft + core correction, Zval =  4.0
     Generated using &quot;atomic&quot; code by A. Dal Corso  v.6.3MaX
     Using radial grid of 1073 points,  4 beta functions with: 
                l(1) =   0
                l(2) =   0
                l(3) =   1
                l(4) =   1
     Q(r) pseudized with 0 coefficients 


     PseudoPot. # 3 for O  read from file:
     /shared/home/as3359/pseudo/O.pbesol-n-rrkjus_psl.1.0.0.UPF
     MD5 check sum: dd9bad2534826f832ffc9296591fc5de
     Pseudo is Ultrasoft + core correction, Zval =  6.0
     Generated using &quot;atomic&quot; code by A. Dal Corso  v.6.3MaX
     Using radial grid of 1095 points,  4 beta functions with: 
                l(1) =   0
                l(2) =   0
                l(3) =   1
                l(4) =   1
     Q(r) pseudized with 0 coefficients 


     atomic species   valence    mass     pseudopotential
        Ta            27.00   180.94788     Ta( 1.00)
        C              4.00    12.01070     C ( 1.00)
        O              6.00    15.99940     O ( 1.00)

     No symmetry found



   Cartesian axes

     site n.     atom                  positions (alat units)
         1           C   tau(   1) = (  -0.1376285   0.0180317   0.0193959  )
         2           Ta  tau(   2) = (   0.3841511   0.3192090  -0.4303689  )
         3           Ta  tau(   3) = (  -0.1376464   0.6197159   0.4272142  )
         4           O   tau(   4) = (   0.3845753   0.3202170   0.8049305  )

     number of k points=   113  Marzari-Vanderbilt smearing, width (Ry)=  0.0010

     Number of k-points >= 100: set verbosity='high' to print them.

     Dense  grid:   530729 G-vectors     FFT dimensions: (  50,  50, 480)

     Smooth grid:   420757 G-vectors     FFT dimensions: (  45,  45, 450)

     Estimated max dynamical RAM per process >       2.36 GB

     Estimated total dynamical RAM >       4.71 GB

     The potential is recalculated from file :
     /scratch/as3359/Ta2CO2_bandsdos/Ta.save/charge-density


     negative rho (up, down):  1.122E-04 0.000E+00
     Starting wfcs are   42 randomized atomic wfcs

     Band Structure Calculation
     Davidson diagonalization with overlap
     c_bands:  1 eigenvalues not converged
     c_bands:  1 eigenvalues not converged
     c_bands:  1 eigenvalues not converged

     ethr =  1.00E-13,  avg # of iterations = 69.5

     total cpu time spent up to now is     1081.4 secs

     End of band structure calculation

     Number of k-points >= 100: set verbosity='high' to print the bands.

     the Fermi energy is    -0.3815 ev
     (compare with:    -0.3815 eV, computed in scf)

     Writing output data file /scratch/as3359/Ta2CO2_bandsdos/Ta.save/
 
     init_run     :     11.82s CPU      8.55s WALL (       1 calls)
     electrons    :   2119.93s CPU   1072.36s WALL (       1 calls)

     Called by init_run:
     wfcinit      :      0.00s CPU      0.00s WALL (       1 calls)
     potinit      :      0.55s CPU      0.37s WALL (       1 calls)
     hinit0       :      8.80s CPU      6.46s WALL (       1 calls)

     Called by electrons:
     c_bands      :   2119.92s CPU   1072.35s WALL (       1 calls)
     v_of_rho     :      0.36s CPU      0.20s WALL (       1 calls)
     newd         :      2.09s CPU      1.33s WALL (       1 calls)

     Called by c_bands:
     init_us_2    :      1.59s CPU      0.80s WALL (     113 calls)
     cegterg      :   2047.37s CPU   1034.62s WALL (     445 calls)

     Called by *egterg:
     cdiaghg      :     23.64s CPU     12.08s WALL (    7964 calls)
     h_psi        :   1584.60s CPU    801.88s WALL (    8409 calls)
     s_psi        :     81.13s CPU     40.61s WALL (    8409 calls)
     g_psi        :     13.85s CPU      6.95s WALL (    7851 calls)

     Called by h_psi:
     h_psi:calbec :     61.04s CPU     30.63s WALL (    8409 calls)
     vloc_psi     :   1427.41s CPU    722.54s WALL (    8409 calls)
     add_vuspsi   :     85.74s CPU     42.91s WALL (    8409 calls)

     General routines
     calbec       :     60.95s CPU     30.60s WALL (    8409 calls)
     fft          :      0.20s CPU      0.11s WALL (      13 calls)
     ffts         :      0.01s CPU      0.01s WALL (       1 calls)
     fftw         :   1251.59s CPU    634.02s WALL (  309702 calls)
     interpolate  :      0.03s CPU      0.02s WALL (       1 calls)
     davcio       :      1.28s CPU      1.33s WALL (     226 calls)
 
     Parallel routines
 
     PWSCF        :  35m43.03s CPU  18m11.38s WALL

 
   This run was terminated on:  21:33:43  16Apr2022            

=------------------------------------------------------------------------------=
   JOB DONE.
=------------------------------------------------------------------------------=
