
     Program BANDS v.6.8 starts on 16Apr2022 at 18: 8:58 

     This program is part of the open-source Quantum ESPRESSO suite
     for quantum simulation of materials; please cite
         "P. Giannozzi et al., J. Phys.:Condens. Matter 21 395502 (2009);
         "P. Giannozzi et al., J. Phys.:Condens. Matter 29 465901 (2017);
         "P. Giannozzi et al., J. Chem. Phys. 152 154105 (2020);
          URL http://www.quantum-espresso.org", 
     in publications or presentations arising from this work. More details at
     http://www.quantum-espresso.org/quote

     Parallel version (MPI & OpenMP), running on       4 processor cores
     Number of MPI processes:                 2
     Threads/MPI process:                     2

     MPI processes distributed on     1 nodes
     R & G space division:  proc/nbgrp/npool/nimage =       2
     117721 MiB available memory on the printing compute node when the environment starts
 

     Reading xml data from directory:

     /scratch/as3359/Ta2CO_bandsdos/Ta.save/
     file Ta.pbesol-spfn-rrkjus_psl.1.0.0.UPF: wavefunction(s)  5S 5P renormalized

     IMPORTANT: XC functional enforced from input :
     Exchange-correlation= PBESOL
                           (   1   4  10   8   0   0   0)
     Any further DFT definition will be discarded
     Please, verify this is what you really want

 
     Parallelization info
     --------------------
     sticks:   dense  smooth     PW     G-vecs:    dense   smooth      PW
     Min         834     717    202               266889   211653   31276
     Max         835     718    203               266906   211658   31281
     Sum        1669    1435    405               533795   423311   62557
 
     Using Slab Decomposition
 

     negative rho (up, down):  1.110E-04 0.000E+00
     Reading collected, re-writing distributed wavefunctions
     high-symmetry point:  0.0000 0.0000 0.0000   x coordinate   0.0000
     high-symmetry point:  0.6365 0.0012 0.0000   x coordinate   0.6365
     high-symmetry point:  0.4765-0.2756 0.0000   x coordinate   0.9561
     high-symmetry point:  0.0000 0.0000 0.0000   x coordinate   1.5066

     Plottable bands (eV) written to file Ta2CO.Bandx.dat.gnu
     Bands written to file Ta2CO.Bandx.dat

 **************************************************************************

                    xk=(   0.00000,   0.00000,   0.00000  )

     point group C_1 (1)    
     there are  1 classes
     the character table:

       E    
A      1.00

     the symmetry operations in each class and the name of the first element:

     E        1
                                                                 

     Band symmetry, C_1 (1)     point group:

     e(  1 -  1) =    -69.52975  eV     1   --> A              
     e(  2 -  2) =    -68.58341  eV     1   --> A              
     e(  3 -  3) =    -36.16314  eV     1   --> A              
     e(  4 -  4) =    -35.76722  eV     1   --> A              
     e(  5 -  5) =    -35.76085  eV     1   --> A              
     e(  6 -  6) =    -35.22488  eV     1   --> A              
     e(  7 -  7) =    -34.73716  eV     1   --> A              
     e(  8 -  8) =    -34.73021  eV     1   --> A              
     e(  9 -  9) =    -21.25098  eV     1   --> A              
     e( 10 - 10) =    -21.14474  eV     1   --> A              
     e( 11 - 11) =    -21.14106  eV     1   --> A              
     e( 12 - 12) =    -21.14043  eV     1   --> A              
     e( 13 - 13) =    -21.12821  eV     1   --> A              
     e( 14 - 14) =    -21.12708  eV     1   --> A              
     e( 15 - 15) =    -21.09593  eV     1   --> A              
     e( 16 - 16) =    -20.28763  eV     1   --> A              
     e( 17 - 17) =    -20.24977  eV     1   --> A              
     e( 18 - 18) =    -20.24932  eV     1   --> A              
     e( 19 - 20) =    -20.22632  eV     2   -->   2 A              
     e( 21 - 21) =    -20.20666  eV     1   --> A              
     e( 22 - 22) =    -20.15596  eV     1   --> A              
     e( 23 - 23) =    -19.67861  eV     1   --> A              
     e( 24 - 24) =    -13.17129  eV     1   --> A              
     e( 25 - 25) =     -7.88385  eV     1   --> A              
     e( 26 - 26) =     -6.21537  eV     1   --> A              
     e( 27 - 27) =     -6.16196  eV     1   --> A              
     e( 28 - 28) =     -4.65200  eV     1   --> A              
     e( 29 - 29) =     -3.50110  eV     1   --> A              
     e( 30 - 30) =     -3.45255  eV     1   --> A              
     e( 31 - 31) =     -1.16961  eV     1   --> A              
     e( 32 - 32) =     -0.64224  eV     1   --> A              
     e( 33 - 33) =     -0.55632  eV     1   --> A              
     e( 34 - 34) =     -0.42124  eV     1   --> A              
     e( 35 - 35) =      1.81852  eV     1   --> A              
     e( 36 - 36) =      1.85640  eV     1   --> A              
     e( 37 - 37) =      2.26419  eV     1   --> A              
     e( 38 - 38) =      2.30097  eV     1   --> A              
     e( 39 - 39) =      2.30775  eV     1   --> A              
     e( 40 - 40) =      4.10675  eV     1   --> A              
     e( 41 - 41) =      4.43828  eV     1   --> A              
     e( 42 - 42) =      4.74225  eV     1   --> A              

 **************************************************************************

 **************************************************************************

                    xk=(   0.02122,   0.00004,   0.00000  )

     Band symmetry, C_1 (1)     point group:

     e(  1 -  1) =    -69.52962  eV     1   --> A              
     e(  2 -  2) =    -68.58330  eV     1   --> A              
     e(  3 -  3) =    -36.16259  eV     1   --> A              
     e(  4 -  4) =    -35.76934  eV     1   --> A              
     e(  5 -  5) =    -35.76175  eV     1   --> A              
     e(  6 -  6) =    -35.22460  eV     1   --> A              
     e(  7 -  7) =    -34.73884  eV     1   --> A              
     e(  8 -  8) =    -34.73098  eV     1   --> A              
     e(  9 -  9) =    -21.25067  eV     1   --> A              
     e( 10 - 10) =    -21.14469  eV     1   --> A              
     e( 11 - 11) =    -21.14107  eV     1   --> A              
     e( 12 - 12) =    -21.14039  eV     1   --> A              
     e( 13 - 13) =    -21.12824  eV     1   --> A              
     e( 14 - 14) =    -21.12713  eV     1   --> A              
     e( 15 - 15) =    -21.09606  eV     1   --> A              
     e( 16 - 16) =    -20.28757  eV     1   --> A              
     e( 17 - 17) =    -20.24982  eV     1   --> A              
     e( 18 - 18) =    -20.24936  eV     1   --> A              
     e( 19 - 20) =    -20.22631  eV     2   -->   2 A              
     e( 21 - 21) =    -20.20653  eV     1   --> A              
     e( 22 - 22) =    -20.15608  eV     1   --> A              
     e( 23 - 23) =    -19.67629  eV     1   --> A              
     e( 24 - 24) =    -13.16813  eV     1   --> A              
     e( 25 - 25) =     -7.87593  eV     1   --> A              
     e( 26 - 26) =     -6.22097  eV     1   --> A              
     e( 27 - 27) =     -6.16038  eV     1   --> A              
     e( 28 - 28) =     -4.63922  eV     1   --> A              
     e( 29 - 29) =     -3.52426  eV     1   --> A              
     e( 30 - 30) =     -3.46098  eV     1   --> A              
     e( 31 - 31) =     -1.16970  eV     1   --> A              
     e( 32 - 32) =     -0.65916  eV     1   --> A              
     e( 33 - 33) =     -0.55665  eV     1   --> A              
     e( 34 - 34) =     -0.40133  eV     1   --> A              
     e( 35 - 35) =      1.80913  eV     1   --> A              
     e( 36 - 36) =      1.86268  eV     1   --> A              
     e( 37 - 37) =      2.25990  eV     1   --> A              
     e( 38 - 38) =      2.30419  eV     1   --> A              
     e( 39 - 39) =      2.33023  eV     1   --> A              
     e( 40 - 40) =      4.11490  eV     1   --> A              
     e( 41 - 41) =      4.45726  eV     1   --> A              
     e( 42 - 42) =      4.75094  eV     1   --> A              

 **************************************************************************

 **************************************************************************

                    xk=(   0.04243,   0.00008,   0.00000  )

     Band symmetry, C_1 (1)     point group:

     e(  1 -  1) =    -69.52925  eV     1   --> A              
     e(  2 -  2) =    -68.58295  eV     1   --> A              
     e(  3 -  3) =    -36.16093  eV     1   --> A              
     e(  4 -  4) =    -35.77625  eV     1   --> A              
     e(  5 -  5) =    -35.76383  eV     1   --> A              
     e(  6 -  6) =    -35.22376  eV     1   --> A              
     e(  7 -  7) =    -34.74424  eV     1   --> A              
     e(  8 -  8) =    -34.73290  eV     1   --> A              
     e(  9 -  9) =    -21.24976  eV     1   --> A              
     e( 10 - 10) =    -21.14456  eV     1   --> A              
     e( 11 - 11) =    -21.14115  eV     1   --> A              
     e( 12 - 12) =    -21.14025  eV     1   --> A              
     e( 13 - 13) =    -21.12833  eV     1   --> A              
     e( 14 - 14) =    -21.12728  eV     1   --> A              
     e( 15 - 15) =    -21.09644  eV     1   --> A              
     e( 16 - 16) =    -20.28739  eV     1   --> A              
     e( 17 - 17) =    -20.24997  eV     1   --> A              
     e( 18 - 18) =    -20.24946  eV     1   --> A              
     e( 19 - 19) =    -20.22636  eV     1   --> A              
     e( 20 - 20) =    -20.22609  eV     1   --> A              
     e( 21 - 21) =    -20.20617  eV     1   --> A              
     e( 22 - 22) =    -20.15644  eV     1   --> A              
     e( 23 - 23) =    -19.66938  eV     1   --> A              
     e( 24 - 24) =    -13.15870  eV     1   --> A              
     e( 25 - 25) =     -7.85228  eV     1   --> A              
     e( 26 - 26) =     -6.23967  eV     1   --> A              
     e( 27 - 27) =     -6.15254  eV     1   --> A              
     e( 28 - 28) =     -4.60241  eV     1   --> A              
     e( 29 - 29) =     -3.59707  eV     1   --> A              
     e( 30 - 30) =     -3.48038  eV     1   --> A              
     e( 31 - 31) =     -1.17141  eV     1   --> A              
     e( 32 - 32) =     -0.70741  eV     1   --> A              
     e( 33 - 33) =     -0.54692  eV     1   --> A              
     e( 34 - 34) =     -0.35460  eV     1   --> A              
     e( 35 - 35) =      1.77891  eV     1   --> A              
     e( 36 - 36) =      1.88557  eV     1   --> A              
     e( 37 - 37) =      2.26026  eV     1   --> A              
     e( 38 - 38) =      2.30844  eV     1   --> A              
     e( 39 - 39) =      2.38955  eV     1   --> A              
     e( 40 - 40) =      4.13936  eV     1   --> A              
     e( 41 - 41) =      4.51128  eV     1   --> A              
     e( 42 - 42) =      4.77718  eV     1   --> A              

 **************************************************************************

 **************************************************************************

                    xk=(   0.06365,   0.00012,   0.00000  )

     Band symmetry, C_1 (1)     point group:

     e(  1 -  1) =    -69.52863  eV     1   --> A              
     e(  2 -  2) =    -68.58238  eV     1   --> A              
     e(  3 -  3) =    -36.15819  eV     1   --> A              
     e(  4 -  4) =    -35.78815  eV     1   --> A              
     e(  5 -  5) =    -35.76672  eV     1   --> A              
     e(  6 -  6) =    -35.22241  eV     1   --> A              
     e(  7 -  7) =    -34.75362  eV     1   --> A              
     e(  8 -  8) =    -34.73558  eV     1   --> A              
     e(  9 -  9) =    -21.24826  eV     1   --> A              
     e( 10 - 10) =    -21.14435  eV     1   --> A              
     e( 11 - 11) =    -21.14129  eV     1   --> A              
     e( 12 - 12) =    -21.13998  eV     1   --> A              
     e( 13 - 13) =    -21.12851  eV     1   --> A              
     e( 14 - 14) =    -21.12749  eV     1   --> A              
     e( 15 - 15) =    -21.09708  eV     1   --> A              
     e( 16 - 16) =    -20.28710  eV     1   --> A              
     e( 17 - 17) =    -20.25025  eV     1   --> A              
     e( 18 - 18) =    -20.24960  eV     1   --> A              
     e( 19 - 19) =    -20.22644  eV     1   --> A              
     e( 20 - 20) =    -20.22584  eV     1   --> A              
     e( 21 - 21) =    -20.20558  eV     1   --> A              
     e( 22 - 22) =    -20.15703  eV     1   --> A              
     e( 23 - 23) =    -19.65809  eV     1   --> A              
     e( 24 - 24) =    -13.14306  eV     1   --> A              
     e( 25 - 25) =     -7.81326  eV     1   --> A              
     e( 26 - 26) =     -6.27080  eV     1   --> A              
     e( 27 - 27) =     -6.13602  eV     1   --> A              
     e( 28 - 28) =     -4.54567  eV     1   --> A              
     e( 29 - 29) =     -3.71415  eV     1   --> A              
     e( 30 - 30) =     -3.50944  eV     1   --> A              
     e( 31 - 31) =     -1.17691  eV     1   --> A              
     e( 32 - 32) =     -0.77645  eV     1   --> A              
     e( 33 - 33) =     -0.52787  eV     1   --> A              
     e( 34 - 34) =     -0.29123  eV     1   --> A              
     e( 35 - 35) =      1.73530  eV     1   --> A              
     e( 36 - 36) =      1.92300  eV     1   --> A              
     e( 37 - 37) =      2.26526  eV     1   --> A              
     e( 38 - 38) =      2.31829  eV     1   --> A              
     e( 39 - 39) =      2.47999  eV     1   --> A              
     e( 40 - 40) =      4.18016  eV     1   --> A              
     e( 41 - 41) =      4.59269  eV     1   --> A              
     e( 42 - 42) =      4.82153  eV     1   --> A              

 **************************************************************************

 **************************************************************************

                    xk=(   0.08486,   0.00015,   0.00000  )

     Band symmetry, C_1 (1)     point group:

     e(  1 -  1) =    -69.52777  eV     1   --> A              
     e(  2 -  2) =    -68.58159  eV     1   --> A              
     e(  3 -  3) =    -36.15441  eV     1   --> A              
     e(  4 -  4) =    -35.80465  eV     1   --> A              
     e(  5 -  5) =    -35.77053  eV     1   --> A              
     e(  6 -  6) =    -35.22061  eV     1   --> A              
     e(  7 -  7) =    -34.76676  eV     1   --> A              
     e(  8 -  8) =    -34.73906  eV     1   --> A              
     e(  9 -  9) =    -21.24622  eV     1   --> A              
     e( 10 - 10) =    -21.14412  eV     1   --> A              
     e( 11 - 11) =    -21.14145  eV     1   --> A              
     e( 12 - 12) =    -21.13956  eV     1   --> A              
     e( 13 - 13) =    -21.12881  eV     1   --> A              
     e( 14 - 14) =    -21.12774  eV     1   --> A              
     e( 15 - 15) =    -21.09795  eV     1   --> A              
     e( 16 - 16) =    -20.28669  eV     1   --> A              
     e( 17 - 17) =    -20.25068  eV     1   --> A              
     e( 18 - 18) =    -20.24974  eV     1   --> A              
     e( 19 - 19) =    -20.22656  eV     1   --> A              
     e( 20 - 20) =    -20.22549  eV     1   --> A              
     e( 21 - 21) =    -20.20477  eV     1   --> A              
     e( 22 - 22) =    -20.15784  eV     1   --> A              
     e( 23 - 23) =    -19.64274  eV     1   --> A              
     e( 24 - 24) =    -13.12131  eV     1   --> A              
     e( 25 - 25) =     -7.75947  eV     1   --> A              
     e( 26 - 26) =     -6.30961  eV     1   --> A              
     e( 27 - 27) =     -6.11177  eV     1   --> A              
     e( 28 - 28) =     -4.47456  eV     1   --> A              
     e( 29 - 29) =     -3.86453  eV     1   --> A              
     e( 30 - 30) =     -3.55045  eV     1   --> A              
     e( 31 - 31) =     -1.18567  eV     1   --> A              
     e( 32 - 32) =     -0.85957  eV     1   --> A              
     e( 33 - 33) =     -0.50972  eV     1   --> A              
     e( 34 - 34) =     -0.20984  eV     1   --> A              
     e( 35 - 35) =      1.68995  eV     1   --> A              
     e( 36 - 36) =      1.97052  eV     1   --> A              
     e( 37 - 37) =      2.26322  eV     1   --> A              
     e( 38 - 38) =      2.34197  eV     1   --> A              
     e( 39 - 39) =      2.60220  eV     1   --> A              
     e( 40 - 40) =      4.23743  eV     1   --> A              
     e( 41 - 41) =      4.69182  eV     1   --> A              
     e( 42 - 42) =      4.88493  eV     1   --> A              

 **************************************************************************

 **************************************************************************

                    xk=(   0.10608,   0.00019,   0.00000  )

     Band symmetry, C_1 (1)     point group:

     e(  1 -  1) =    -69.52670  eV     1   --> A              
     e(  2 -  2) =    -68.58059  eV     1   --> A              
     e(  3 -  3) =    -36.14965  eV     1   --> A              
     e(  4 -  4) =    -35.82529  eV     1   --> A              
     e(  5 -  5) =    -35.77535  eV     1   --> A              
     e(  6 -  6) =    -35.21842  eV     1   --> A              
     e(  7 -  7) =    -34.78331  eV     1   --> A              
     e(  8 -  8) =    -34.74339  eV     1   --> A              
     e(  9 -  9) =    -21.24367  eV     1   --> A              
     e( 10 - 10) =    -21.14397  eV     1   --> A              
     e( 11 - 11) =    -21.14151  eV     1   --> A              
     e( 12 - 12) =    -21.13902  eV     1   --> A              
     e( 13 - 13) =    -21.12926  eV     1   --> A              
     e( 14 - 14) =    -21.12796  eV     1   --> A              
     e( 15 - 15) =    -21.09903  eV     1   --> A              
     e( 16 - 16) =    -20.28618  eV     1   --> A              
     e( 17 - 17) =    -20.25124  eV     1   --> A              
     e( 18 - 18) =    -20.24991  eV     1   --> A              
     e( 19 - 19) =    -20.22669  eV     1   --> A              
     e( 20 - 20) =    -20.22505  eV     1   --> A              
     e( 21 - 21) =    -20.20375  eV     1   --> A              
     e( 22 - 22) =    -20.15887  eV     1   --> A              
     e( 23 - 23) =    -19.62378  eV     1   --> A              
     e( 24 - 24) =    -13.09361  eV     1   --> A              
     e( 25 - 25) =     -7.69174  eV     1   --> A              
     e( 26 - 26) =     -6.35111  eV     1   --> A              
     e( 27 - 27) =     -6.08143  eV     1   --> A              
     e( 28 - 28) =     -4.39508  eV     1   --> A              
     e( 29 - 29) =     -4.03768  eV     1   --> A              
     e( 30 - 30) =     -3.60490  eV     1   --> A              
     e( 31 - 31) =     -1.19447  eV     1   --> A              
     e( 32 - 32) =     -0.95416  eV     1   --> A              
     e( 33 - 33) =     -0.49946  eV     1   --> A              
     e( 34 - 34) =     -0.10850  eV     1   --> A              
     e( 35 - 35) =      1.65297  eV     1   --> A              
     e( 36 - 36) =      2.02510  eV     1   --> A              
     e( 37 - 37) =      2.25148  eV     1   --> A              
     e( 38 - 38) =      2.37864  eV     1   --> A              
     e( 39 - 39) =      2.75515  eV     1   --> A              
     e( 40 - 40) =      4.31134  eV     1   --> A              
     e( 41 - 41) =      4.79998  eV     1   --> A              
     e( 42 - 42) =      4.96817  eV     1   --> A              

 **************************************************************************

 **************************************************************************

                    xk=(   0.12729,   0.00023,   0.00000  )

     Band symmetry, C_1 (1)     point group:

     e(  1 -  1) =    -69.52541  eV     1   --> A              
     e(  2 -  2) =    -68.57941  eV     1   --> A              
     e(  3 -  3) =    -36.14396  eV     1   --> A              
     e(  4 -  4) =    -35.84959  eV     1   --> A              
     e(  5 -  5) =    -35.78121  eV     1   --> A              
     e(  6 -  6) =    -35.21591  eV     1   --> A              
     e(  7 -  7) =    -34.80289  eV     1   --> A              
     e(  8 -  8) =    -34.74864  eV     1   --> A              
     e(  9 -  9) =    -21.24068  eV     1   --> A              
     e( 10 - 10) =    -21.14400  eV     1   --> A              
     e( 11 - 11) =    -21.14135  eV     1   --> A              
     e( 12 - 12) =    -21.13836  eV     1   --> A              
     e( 13 - 13) =    -21.12986  eV     1   --> A              
     e( 14 - 14) =    -21.12816  eV     1   --> A              
     e( 15 - 15) =    -21.10032  eV     1   --> A              
     e( 16 - 16) =    -20.28558  eV     1   --> A              
     e( 17 - 17) =    -20.25190  eV     1   --> A              
     e( 18 - 18) =    -20.25010  eV     1   --> A              
     e( 19 - 19) =    -20.22684  eV     1   --> A              
     e( 20 - 20) =    -20.22453  eV     1   --> A              
     e( 21 - 21) =    -20.20254  eV     1   --> A              
     e( 22 - 22) =    -20.16008  eV     1   --> A              
     e( 23 - 23) =    -19.60172  eV     1   --> A              
     e( 24 - 24) =    -13.06012  eV     1   --> A              
     e( 25 - 25) =     -7.61122  eV     1   --> A              
     e( 26 - 26) =     -6.39117  eV     1   --> A              
     e( 27 - 27) =     -6.04693  eV     1   --> A              
     e( 28 - 28) =     -4.31506  eV     1   --> A              
     e( 29 - 29) =     -4.22230  eV     1   --> A              
     e( 30 - 30) =     -3.67305  eV     1   --> A              
     e( 31 - 31) =     -1.20076  eV     1   --> A              
     e( 32 - 32) =     -1.05718  eV     1   --> A              
     e( 33 - 33) =     -0.49738  eV     1   --> A              
     e( 34 - 34) =      0.01104  eV     1   --> A              
     e( 35 - 35) =      1.63131  eV     1   --> A              
     e( 36 - 36) =      2.08464  eV     1   --> A              
     e( 37 - 37) =      2.23474  eV     1   --> A              
     e( 38 - 38) =      2.42209  eV     1   --> A              
     e( 39 - 39) =      2.93540  eV     1   --> A              
     e( 40 - 40) =      4.40221  eV     1   --> A              
     e( 41 - 41) =      4.91241  eV     1   --> A              
     e( 42 - 42) =      5.07048  eV     1   --> A              

 **************************************************************************

 **************************************************************************

                    xk=(   0.14851,   0.00027,   0.00000  )

     Band symmetry, C_1 (1)     point group:

     e(  1 -  1) =    -69.52394  eV     1   --> A              
     e(  2 -  2) =    -68.57805  eV     1   --> A              
     e(  3 -  3) =    -36.13743  eV     1   --> A              
     e(  4 -  4) =    -35.87702  eV     1   --> A              
     e(  5 -  5) =    -35.78816  eV     1   --> A              
     e(  6 -  6) =    -35.21317  eV     1   --> A              
     e(  7 -  7) =    -34.82508  eV     1   --> A              
     e(  8 -  8) =    -34.75482  eV     1   --> A              
     e(  9 -  9) =    -21.23730  eV     1   --> A              
     e( 10 - 10) =    -21.14424  eV     1   --> A              
     e( 11 - 11) =    -21.14091  eV     1   --> A              
     e( 12 - 12) =    -21.13761  eV     1   --> A              
     e( 13 - 13) =    -21.13057  eV     1   --> A              
     e( 14 - 14) =    -21.12834  eV     1   --> A              
     e( 15 - 15) =    -21.10178  eV     1   --> A              
     e( 16 - 16) =    -20.28490  eV     1   --> A              
     e( 17 - 17) =    -20.25266  eV     1   --> A              
     e( 18 - 18) =    -20.25032  eV     1   --> A              
     e( 19 - 19) =    -20.22699  eV     1   --> A              
     e( 20 - 20) =    -20.22393  eV     1   --> A              
     e( 21 - 21) =    -20.20115  eV     1   --> A              
     e( 22 - 22) =    -20.16147  eV     1   --> A              
     e( 23 - 23) =    -19.57715  eV     1   --> A              
     e( 24 - 24) =    -13.02103  eV     1   --> A              
     e( 25 - 25) =     -7.51931  eV     1   --> A              
     e( 26 - 26) =     -6.42666  eV     1   --> A              
     e( 27 - 27) =     -6.01078  eV     1   --> A              
     e( 28 - 28) =     -4.42040  eV     1   --> A              
     e( 29 - 29) =     -4.23010  eV     1   --> A              
     e( 30 - 30) =     -3.75341  eV     1   --> A              
     e( 31 - 31) =     -1.21614  eV     1   --> A              
     e( 32 - 32) =     -1.15280  eV     1   --> A              
     e( 33 - 33) =     -0.49861  eV     1   --> A              
     e( 34 - 34) =      0.14514  eV     1   --> A              
     e( 35 - 35) =      1.62786  eV     1   --> A              
     e( 36 - 36) =      2.14498  eV     1   --> A              
     e( 37 - 37) =      2.22067  eV     1   --> A              
     e( 38 - 38) =      2.46818  eV     1   --> A              
     e( 39 - 39) =      3.13785  eV     1   --> A              
     e( 40 - 40) =      4.51042  eV     1   --> A              
     e( 41 - 41) =      5.02928  eV     1   --> A              
     e( 42 - 42) =      5.18870  eV     1   --> A              

 **************************************************************************

 **************************************************************************

                    xk=(   0.16972,   0.00031,   0.00000  )

     Band symmetry, C_1 (1)     point group:

     e(  1 -  1) =    -69.52229  eV     1   --> A              
     e(  2 -  2) =    -68.57653  eV     1   --> A              
     e(  3 -  3) =    -36.13015  eV     1   --> A              
     e(  4 -  4) =    -35.90699  eV     1   --> A              
     e(  5 -  5) =    -35.79619  eV     1   --> A              
     e(  6 -  6) =    -35.21024  eV     1   --> A              
     e(  7 -  7) =    -34.84945  eV     1   --> A              
     e(  8 -  8) =    -34.76193  eV     1   --> A              
     e(  9 -  9) =    -21.23362  eV     1   --> A              
     e( 10 - 10) =    -21.14462  eV     1   --> A              
     e( 11 - 11) =    -21.14027  eV     1   --> A              
     e( 12 - 12) =    -21.13678  eV     1   --> A              
     e( 13 - 13) =    -21.13136  eV     1   --> A              
     e( 14 - 14) =    -21.12850  eV     1   --> A              
     e( 15 - 15) =    -21.10339  eV     1   --> A              
     e( 16 - 16) =    -20.28414  eV     1   --> A              
     e( 17 - 17) =    -20.25350  eV     1   --> A              
     e( 18 - 18) =    -20.25057  eV     1   --> A              
     e( 19 - 19) =    -20.22715  eV     1   --> A              
     e( 20 - 20) =    -20.22328  eV     1   --> A              
     e( 21 - 21) =    -20.19962  eV     1   --> A              
     e( 22 - 22) =    -20.16300  eV     1   --> A              
     e( 23 - 23) =    -19.55070  eV     1   --> A              
     e( 24 - 24) =    -12.97655  eV     1   --> A              
     e( 25 - 25) =     -7.41779  eV     1   --> A              
     e( 26 - 26) =     -6.45527  eV     1   --> A              
     e( 27 - 27) =     -5.97661  eV     1   --> A              
     e( 28 - 28) =     -4.61007  eV     1   --> A              
     e( 29 - 29) =     -4.16209  eV     1   --> A              
     e( 30 - 30) =     -3.84076  eV     1   --> A              
     e( 31 - 31) =     -1.30404  eV     1   --> A              
     e( 32 - 32) =     -1.17550  eV     1   --> A              
     e( 33 - 33) =     -0.49543  eV     1   --> A              
     e( 34 - 34) =      0.29040  eV     1   --> A              
     e( 35 - 35) =      1.64104  eV     1   --> A              
     e( 36 - 36) =      2.17905  eV     1   --> A              
     e( 37 - 37) =      2.24085  eV     1   --> A              
     e( 38 - 38) =      2.51517  eV     1   --> A              
     e( 39 - 39) =      3.35677  eV     1   --> A              
     e( 40 - 40) =      4.63643  eV     1   --> A              
     e( 41 - 41) =      5.15327  eV     1   --> A              
     e( 42 - 42) =      5.31898  eV     1   --> A              

 **************************************************************************

 **************************************************************************

                    xk=(   0.19094,   0.00035,   0.00000  )

     Band symmetry, C_1 (1)     point group:

     e(  1 -  1) =    -69.52050  eV     1   --> A              
     e(  2 -  2) =    -68.57488  eV     1   --> A              
     e(  3 -  3) =    -36.12222  eV     1   --> A              
     e(  4 -  4) =    -35.93892  eV     1   --> A              
     e(  5 -  5) =    -35.80533  eV     1   --> A              
     e(  6 -  6) =    -35.20721  eV     1   --> A              
     e(  7 -  7) =    -34.87551  eV     1   --> A              
     e(  8 -  8) =    -34.76999  eV     1   --> A              
     e(  9 -  9) =    -21.22971  eV     1   --> A              
     e( 10 - 10) =    -21.14505  eV     1   --> A              
     e( 11 - 11) =    -21.13948  eV     1   --> A              
     e( 12 - 12) =    -21.13589  eV     1   --> A              
     e( 13 - 13) =    -21.13221  eV     1   --> A              
     e( 14 - 14) =    -21.12865  eV     1   --> A              
     e( 15 - 15) =    -21.10513  eV     1   --> A              
     e( 16 - 16) =    -20.28332  eV     1   --> A              
     e( 17 - 17) =    -20.25439  eV     1   --> A              
     e( 18 - 18) =    -20.25085  eV     1   --> A              
     e( 19 - 19) =    -20.22730  eV     1   --> A              
     e( 20 - 20) =    -20.22257  eV     1   --> A              
     e( 21 - 21) =    -20.19795  eV     1   --> A              
     e( 22 - 22) =    -20.16466  eV     1   --> A              
     e( 23 - 23) =    -19.52300  eV     1   --> A              
     e( 24 - 24) =    -12.92690  eV     1   --> A              
     e( 25 - 25) =     -7.30883  eV     1   --> A              
     e( 26 - 26) =     -6.47542  eV     1   --> A              
     e( 27 - 27) =     -5.94976  eV     1   --> A              
     e( 28 - 28) =     -4.78987  eV     1   --> A              
     e( 29 - 29) =     -4.12272  eV     1   --> A              
     e( 30 - 30) =     -3.91740  eV     1   --> A              
     e( 31 - 31) =     -1.41793  eV     1   --> A              
     e( 32 - 32) =     -1.17151  eV     1   --> A              
     e( 33 - 33) =     -0.47936  eV     1   --> A              
     e( 34 - 34) =      0.44420  eV     1   --> A              
     e( 35 - 35) =      1.66463  eV     1   --> A              
     e( 36 - 36) =      2.18269  eV     1   --> A              
     e( 37 - 37) =      2.30536  eV     1   --> A              
     e( 38 - 38) =      2.56375  eV     1   --> A              
     e( 39 - 39) =      3.58661  eV     1   --> A              
     e( 40 - 40) =      4.78062  eV     1   --> A              
     e( 41 - 41) =      5.28658  eV     1   --> A              
     e( 42 - 42) =      5.45858  eV     1   --> A              

 **************************************************************************

 **************************************************************************

                    xk=(   0.21216,   0.00038,   0.00000  )

     Band symmetry, C_1 (1)     point group:

     e(  1 -  1) =    -69.51859  eV     1   --> A              
     e(  2 -  2) =    -68.57311  eV     1   --> A              
     e(  3 -  3) =    -36.11376  eV     1   --> A              
     e(  4 -  4) =    -35.97218  eV     1   --> A              
     e(  5 -  5) =    -35.81558  eV     1   --> A              
     e(  6 -  6) =    -35.20412  eV     1   --> A              
     e(  7 -  7) =    -34.90275  eV     1   --> A              
     e(  8 -  8) =    -34.77899  eV     1   --> A              
     e(  9 -  9) =    -21.22564  eV     1   --> A              
     e( 10 - 10) =    -21.14546  eV     1   --> A              
     e( 11 - 11) =    -21.13860  eV     1   --> A              
     e( 12 - 12) =    -21.13501  eV     1   --> A              
     e( 13 - 13) =    -21.13307  eV     1   --> A              
     e( 14 - 14) =    -21.12876  eV     1   --> A              
     e( 15 - 15) =    -21.10696  eV     1   --> A              
     e( 16 - 16) =    -20.28246  eV     1   --> A              
     e( 17 - 17) =    -20.25533  eV     1   --> A              
     e( 18 - 18) =    -20.25116  eV     1   --> A              
     e( 19 - 19) =    -20.22743  eV     1   --> A              
     e( 20 - 20) =    -20.22183  eV     1   --> A              
     e( 21 - 21) =    -20.19617  eV     1   --> A              
     e( 22 - 22) =    -20.16642  eV     1   --> A              
     e( 23 - 23) =    -19.49467  eV     1   --> A              
     e( 24 - 24) =    -12.87235  eV     1   --> A              
     e( 25 - 25) =     -7.19518  eV     1   --> A              
     e( 26 - 26) =     -6.48602  eV     1   --> A              
     e( 27 - 27) =     -5.93795  eV     1   --> A              
     e( 28 - 28) =     -4.94928  eV     1   --> A              
     e( 29 - 29) =     -4.15583  eV     1   --> A              
     e( 30 - 30) =     -3.93989  eV     1   --> A              
     e( 31 - 31) =     -1.52943  eV     1   --> A              
     e( 32 - 32) =     -1.16890  eV     1   --> A              
     e( 33 - 33) =     -0.44348  eV     1   --> A              
     e( 34 - 34) =      0.60447  eV     1   --> A              
     e( 35 - 35) =      1.68855  eV     1   --> A              
     e( 36 - 36) =      2.19976  eV     1   --> A              
     e( 37 - 37) =      2.37681  eV     1   --> A              
     e( 38 - 38) =      2.61776  eV     1   --> A              
     e( 39 - 39) =      3.82245  eV     1   --> A              
     e( 40 - 40) =      4.94312  eV     1   --> A              
     e( 41 - 41) =      5.42994  eV     1   --> A              
     e( 42 - 42) =      5.60569  eV     1   --> A              

 **************************************************************************

 **************************************************************************

                    xk=(   0.23337,   0.00042,   0.00000  )

     Band symmetry, C_1 (1)     point group:

     e(  1 -  1) =    -69.51659  eV     1   --> A              
     e(  2 -  2) =    -68.57126  eV     1   --> A              
     e(  3 -  3) =    -36.10489  eV     1   --> A              
     e(  4 -  4) =    -36.00616  eV     1   --> A              
     e(  5 -  5) =    -35.82695  eV     1   --> A              
     e(  6 -  6) =    -35.20101  eV     1   --> A              
     e(  7 -  7) =    -34.93066  eV     1   --> A              
     e(  8 -  8) =    -34.78892  eV     1   --> A              
     e(  9 -  9) =    -21.22150  eV     1   --> A              
     e( 10 - 10) =    -21.14584  eV     1   --> A              
     e( 11 - 11) =    -21.13769  eV     1   --> A              
     e( 12 - 12) =    -21.13439  eV     1   --> A              
     e( 13 - 13) =    -21.13365  eV     1   --> A              
     e( 14 - 14) =    -21.12880  eV     1   --> A              
     e( 15 - 15) =    -21.10886  eV     1   --> A              
     e( 16 - 16) =    -20.28155  eV     1   --> A              
     e( 17 - 17) =    -20.25628  eV     1   --> A              
     e( 18 - 18) =    -20.25151  eV     1   --> A              
     e( 19 - 19) =    -20.22755  eV     1   --> A              
     e( 20 - 20) =    -20.22107  eV     1   --> A              
     e( 21 - 21) =    -20.19431  eV     1   --> A              
     e( 22 - 22) =    -20.16826  eV     1   --> A              
     e( 23 - 23) =    -19.46628  eV     1   --> A              
     e( 24 - 24) =    -12.81319  eV     1   --> A              
     e( 25 - 25) =     -7.08033  eV     1   --> A              
     e( 26 - 26) =     -6.48649  eV     1   --> A              
     e( 27 - 27) =     -5.95067  eV     1   --> A              
     e( 28 - 28) =     -5.07675  eV     1   --> A              
     e( 29 - 29) =     -4.25067  eV     1   --> A              
     e( 30 - 30) =     -3.91812  eV     1   --> A              
     e( 31 - 31) =     -1.63140  eV     1   --> A              
     e( 32 - 32) =     -1.17230  eV     1   --> A              
     e( 33 - 33) =     -0.38481  eV     1   --> A              
     e( 34 - 34) =      0.76916  eV     1   --> A              
     e( 35 - 35) =      1.70280  eV     1   --> A              
     e( 36 - 36) =      2.24351  eV     1   --> A              
     e( 37 - 37) =      2.44527  eV     1   --> A              
     e( 38 - 38) =      2.68459  eV     1   --> A              
     e( 39 - 39) =      4.06031  eV     1   --> A              
     e( 40 - 40) =      5.12362  eV     1   --> A              
     e( 41 - 41) =      5.58214  eV     1   --> A              
     e( 42 - 42) =      5.75864  eV     1   --> A              

 **************************************************************************

 **************************************************************************

                    xk=(   0.25459,   0.00046,   0.00000  )

     Band symmetry, C_1 (1)     point group:

     e(  1 -  1) =    -69.51451  eV     1   --> A              
     e(  2 -  2) =    -68.56934  eV     1   --> A              
     e(  3 -  3) =    -36.09575  eV     1   --> A              
     e(  4 -  4) =    -36.04020  eV     1   --> A              
     e(  5 -  5) =    -35.83943  eV     1   --> A              
     e(  6 -  6) =    -35.19793  eV     1   --> A              
     e(  7 -  7) =    -34.95874  eV     1   --> A              
     e(  8 -  8) =    -34.79977  eV     1   --> A              
     e(  9 -  9) =    -21.21735  eV     1   --> A              
     e( 10 - 10) =    -21.14614  eV     1   --> A              
     e( 11 - 11) =    -21.13690  eV     1   --> A              
     e( 12 - 12) =    -21.13484  eV     1   --> A              
     e( 13 - 13) =    -21.13306  eV     1   --> A              
     e( 14 - 14) =    -21.12874  eV     1   --> A              
     e( 15 - 15) =    -21.11081  eV     1   --> A              
     e( 16 - 16) =    -20.28062  eV     1   --> A              
     e( 17 - 17) =    -20.25724  eV     1   --> A              
     e( 18 - 18) =    -20.25189  eV     1   --> A              
     e( 19 - 19) =    -20.22764  eV     1   --> A              
     e( 20 - 20) =    -20.22030  eV     1   --> A              
     e( 21 - 21) =    -20.19239  eV     1   --> A              
     e( 22 - 22) =    -20.17016  eV     1   --> A              
     e( 23 - 23) =    -19.43834  eV     1   --> A              
     e( 24 - 24) =    -12.74981  eV     1   --> A              
     e( 25 - 25) =     -6.96891  eV     1   --> A              
     e( 26 - 26) =     -6.47709  eV     1   --> A              
     e( 27 - 27) =     -5.99428  eV     1   --> A              
     e( 28 - 28) =     -5.16316  eV     1   --> A              
     e( 29 - 29) =     -4.36393  eV     1   --> A              
     e( 30 - 30) =     -3.89392  eV     1   --> A              
     e( 31 - 31) =     -1.71851  eV     1   --> A              
     e( 32 - 32) =     -1.18177  eV     1   --> A              
     e( 33 - 33) =     -0.30476  eV     1   --> A              
     e( 34 - 34) =      0.93558  eV     1   --> A              
     e( 35 - 35) =      1.70348  eV     1   --> A              
     e( 36 - 36) =      2.31543  eV     1   --> A              
     e( 37 - 37) =      2.50626  eV     1   --> A              
     e( 38 - 38) =      2.77272  eV     1   --> A              
     e( 39 - 39) =      4.29729  eV     1   --> A              
     e( 40 - 40) =      5.32120  eV     1   --> A              
     e( 41 - 41) =      5.73860  eV     1   --> A              
     e( 42 - 42) =      5.91616  eV     1   --> A              

 **************************************************************************

 **************************************************************************

                    xk=(   0.27580,   0.00050,   0.00000  )

     Band symmetry, C_1 (1)     point group:

     e(  1 -  1) =    -69.51240  eV     1   --> A              
     e(  2 -  2) =    -68.56739  eV     1   --> A              
     e(  3 -  3) =    -36.08685  eV     1   --> A              
     e(  4 -  4) =    -36.07334  eV     1   --> A              
     e(  5 -  5) =    -35.85300  eV     1   --> A              
     e(  6 -  6) =    -35.19491  eV     1   --> A              
     e(  7 -  7) =    -34.98648  eV     1   --> A              
     e(  8 -  8) =    -34.81152  eV     1   --> A              
     e(  9 -  9) =    -21.21328  eV     1   --> A              
     e( 10 - 10) =    -21.14636  eV     1   --> A              
     e( 11 - 11) =    -21.13673  eV     1   --> A              
     e( 12 - 12) =    -21.13497  eV     1   --> A              
     e( 13 - 13) =    -21.13223  eV     1   --> A              
     e( 14 - 14) =    -21.12851  eV     1   --> A              
     e( 15 - 15) =    -21.11278  eV     1   --> A              
     e( 16 - 16) =    -20.27967  eV     1   --> A              
     e( 17 - 17) =    -20.25819  eV     1   --> A              
     e( 18 - 18) =    -20.25229  eV     1   --> A              
     e( 19 - 19) =    -20.22771  eV     1   --> A              
     e( 20 - 20) =    -20.21954  eV     1   --> A              
     e( 21 - 21) =    -20.19044  eV     1   --> A              
     e( 22 - 22) =    -20.17209  eV     1   --> A              
     e( 23 - 23) =    -19.41128  eV     1   --> A              
     e( 24 - 24) =    -12.68267  eV     1   --> A              
     e( 25 - 25) =     -6.86687  eV     1   --> A              
     e( 26 - 26) =     -6.46089  eV     1   --> A              
     e( 27 - 27) =     -6.06223  eV     1   --> A              
     e( 28 - 28) =     -5.20904  eV     1   --> A              
     e( 29 - 29) =     -4.48026  eV     1   --> A              
     e( 30 - 30) =     -3.88056  eV     1   --> A              
     e( 31 - 31) =     -1.78636  eV     1   --> A              
     e( 32 - 32) =     -1.19520  eV     1   --> A              
     e( 33 - 33) =     -0.20742  eV     1   --> A              
     e( 34 - 34) =      1.09933  eV     1   --> A              
     e( 35 - 35) =      1.69431  eV     1   --> A              
     e( 36 - 36) =      2.40813  eV     1   --> A              
     e( 37 - 37) =      2.56192  eV     1   --> A              
     e( 38 - 38) =      2.88653  eV     1   --> A              
     e( 39 - 39) =      4.53134  eV     1   --> A              
     e( 40 - 40) =      5.53428  eV     1   --> A              
     e( 41 - 41) =      5.88781  eV     1   --> A              
     e( 42 - 42) =      6.08024  eV     1   --> A              

 **************************************************************************

 **************************************************************************

                    xk=(   0.29702,   0.00054,   0.00000  )

     Band symmetry, C_1 (1)     point group:

     e(  1 -  1) =    -69.51027  eV     1   --> A              
     e(  2 -  2) =    -68.56543  eV     1   --> A              
     e(  3 -  3) =    -36.10679  eV     1   --> A              
     e(  4 -  4) =    -36.07651  eV     1   --> A              
     e(  5 -  5) =    -35.86765  eV     1   --> A              
     e(  6 -  6) =    -35.19198  eV     1   --> A              
     e(  7 -  7) =    -35.01339  eV     1   --> A              
     e(  8 -  8) =    -34.82414  eV     1   --> A              
     e(  9 -  9) =    -21.20935  eV     1   --> A              
     e( 10 - 10) =    -21.14647  eV     1   --> A              
     e( 11 - 11) =    -21.13731  eV     1   --> A              
     e( 12 - 12) =    -21.13457  eV     1   --> A              
     e( 13 - 13) =    -21.13130  eV     1   --> A              
     e( 14 - 14) =    -21.12810  eV     1   --> A              
     e( 15 - 15) =    -21.11474  eV     1   --> A              
     e( 16 - 16) =    -20.27871  eV     1   --> A              
     e( 17 - 17) =    -20.25910  eV     1   --> A              
     e( 18 - 18) =    -20.25273  eV     1   --> A              
     e( 19 - 19) =    -20.22774  eV     1   --> A              
     e( 20 - 20) =    -20.21880  eV     1   --> A              
     e( 21 - 21) =    -20.18847  eV     1   --> A              
     e( 22 - 22) =    -20.17402  eV     1   --> A              
     e( 23 - 23) =    -19.38544  eV     1   --> A              
     e( 24 - 24) =    -12.61236  eV     1   --> A              
     e( 25 - 25) =     -6.78124  eV     1   --> A              
     e( 26 - 26) =     -6.45072  eV     1   --> A              
     e( 27 - 27) =     -6.12741  eV     1   --> A              
     e( 28 - 28) =     -5.22540  eV     1   --> A              
     e( 29 - 29) =     -4.59329  eV     1   --> A              
     e( 30 - 30) =     -3.88145  eV     1   --> A              
     e( 31 - 31) =     -1.83182  eV     1   --> A              
     e( 32 - 32) =     -1.21018  eV     1   --> A              
     e( 33 - 33) =     -0.09744  eV     1   --> A              
     e( 34 - 34) =      1.25248  eV     1   --> A              
     e( 35 - 35) =      1.68371  eV     1   --> A              
     e( 36 - 36) =      2.50822  eV     1   --> A              
     e( 37 - 37) =      2.62288  eV     1   --> A              
     e( 38 - 38) =      3.02556  eV     1   --> A              
     e( 39 - 39) =      4.76078  eV     1   --> A              
     e( 40 - 40) =      5.76054  eV     1   --> A              
     e( 41 - 41) =      6.00935  eV     1   --> A              
     e( 42 - 42) =      6.25854  eV     1   --> A              

 **************************************************************************

 **************************************************************************

                    xk=(   0.31823,   0.00058,   0.00000  )

     Band symmetry, C_1 (1)     point group:

     e(  1 -  1) =    -69.50816  eV     1   --> A              
     e(  2 -  2) =    -68.56347  eV     1   --> A              
     e(  3 -  3) =    -36.13758  eV     1   --> A              
     e(  4 -  4) =    -36.06729  eV     1   --> A              
     e(  5 -  5) =    -35.88335  eV     1   --> A              
     e(  6 -  6) =    -35.18918  eV     1   --> A              
     e(  7 -  7) =    -35.03903  eV     1   --> A              
     e(  8 -  8) =    -34.83761  eV     1   --> A              
     e(  9 -  9) =    -21.20561  eV     1   --> A              
     e( 10 - 10) =    -21.14648  eV     1   --> A              
     e( 11 - 11) =    -21.13804  eV     1   --> A              
     e( 12 - 12) =    -21.13428  eV     1   --> A              
     e( 13 - 13) =    -21.13021  eV     1   --> A              
     e( 14 - 14) =    -21.12754  eV     1   --> A              
     e( 15 - 15) =    -21.11668  eV     1   --> A              
     e( 16 - 16) =    -20.27776  eV     1   --> A              
     e( 17 - 17) =    -20.25997  eV     1   --> A              
     e( 18 - 18) =    -20.25319  eV     1   --> A              
     e( 19 - 19) =    -20.22773  eV     1   --> A              
     e( 20 - 20) =    -20.21811  eV     1   --> A              
     e( 21 - 21) =    -20.18653  eV     1   --> A              
     e( 22 - 22) =    -20.17593  eV     1   --> A              
     e( 23 - 23) =    -19.36107  eV     1   --> A              
     e( 24 - 24) =    -12.53959  eV     1   --> A              
     e( 25 - 25) =     -6.71984  eV     1   --> A              
     e( 26 - 26) =     -6.47293  eV     1   --> A              
     e( 27 - 27) =     -6.14608  eV     1   --> A              
     e( 28 - 28) =     -5.22634  eV     1   --> A              
     e( 29 - 29) =     -4.69830  eV     1   --> A              
     e( 30 - 30) =     -3.89691  eV     1   --> A              
     e( 31 - 31) =     -1.85338  eV     1   --> A              
     e( 32 - 32) =     -1.22478  eV     1   --> A              
     e( 33 - 33) =      0.02133  eV     1   --> A              
     e( 34 - 34) =      1.37937  eV     1   --> A              
     e( 35 - 35) =      1.68574  eV     1   --> A              
     e( 36 - 36) =      2.59593  eV     1   --> A              
     e( 37 - 37) =      2.70814  eV     1   --> A              
     e( 38 - 38) =      3.18755  eV     1   --> A              
     e( 39 - 39) =      4.98312  eV     1   --> A              
     e( 40 - 40) =      5.99546  eV     1   --> A              
     e( 41 - 41) =      6.08555  eV     1   --> A              
     e( 42 - 42) =      6.38928  eV     1   --> A              

 **************************************************************************

 **************************************************************************

                    xk=(   0.33945,   0.00062,   0.00000  )

     Band symmetry, C_1 (1)     point group:

     e(  1 -  1) =    -69.50608  eV     1   --> A              
     e(  2 -  2) =    -68.56156  eV     1   --> A              
     e(  3 -  3) =    -36.16639  eV     1   --> A              
     e(  4 -  4) =    -36.05813  eV     1   --> A              
     e(  5 -  5) =    -35.90005  eV     1   --> A              
     e(  6 -  6) =    -35.18651  eV     1   --> A              
     e(  7 -  7) =    -35.06296  eV     1   --> A              
     e(  8 -  8) =    -34.85187  eV     1   --> A              
     e(  9 -  9) =    -21.20210  eV     1   --> A              
     e( 10 - 10) =    -21.14638  eV     1   --> A              
     e( 11 - 11) =    -21.13874  eV     1   --> A              
     e( 12 - 12) =    -21.13425  eV     1   --> A              
     e( 13 - 13) =    -21.12899  eV     1   --> A              
     e( 14 - 14) =    -21.12686  eV     1   --> A              
     e( 15 - 15) =    -21.11856  eV     1   --> A              
     e( 16 - 16) =    -20.27683  eV     1   --> A              
     e( 17 - 17) =    -20.26077  eV     1   --> A              
     e( 18 - 18) =    -20.25367  eV     1   --> A              
     e( 19 - 19) =    -20.22768  eV     1   --> A              
     e( 20 - 20) =    -20.21748  eV     1   --> A              
     e( 21 - 21) =    -20.18464  eV     1   --> A              
     e( 22 - 22) =    -20.17779  eV     1   --> A              
     e( 23 - 23) =    -19.33833  eV     1   --> A              
     e( 24 - 24) =    -12.46522  eV     1   --> A              
     e( 25 - 25) =     -6.69820  eV     1   --> A              
     e( 26 - 26) =     -6.51885  eV     1   --> A              
     e( 27 - 27) =     -6.10499  eV     1   --> A              
     e( 28 - 28) =     -5.22404  eV     1   --> A              
     e( 29 - 29) =     -4.79002  eV     1   --> A              
     e( 30 - 30) =     -3.92566  eV     1   --> A              
     e( 31 - 31) =     -1.85135  eV     1   --> A              
     e( 32 - 32) =     -1.23768  eV     1   --> A              
     e( 33 - 33) =      0.14611  eV     1   --> A              
     e( 34 - 34) =      1.45419  eV     1   --> A              
     e( 35 - 35) =      1.72273  eV     1   --> A              
     e( 36 - 36) =      2.66380  eV     1   --> A              
     e( 37 - 37) =      2.82399  eV     1   --> A              
     e( 38 - 38) =      3.36980  eV     1   --> A              
     e( 39 - 39) =      5.19318  eV     1   --> A              
     e( 40 - 40) =      6.10972  eV     1   --> A              
     e( 41 - 41) =      6.22920  eV     1   --> A              
     e( 42 - 42) =      6.42149  eV     1   --> A              

 **************************************************************************

 **************************************************************************

                    xk=(   0.36066,   0.00065,   0.00000  )

     Band symmetry, C_1 (1)     point group:

     e(  1 -  1) =    -69.50407  eV     1   --> A              
     e(  2 -  2) =    -68.55970  eV     1   --> A              
     e(  3 -  3) =    -36.19266  eV     1   --> A              
     e(  4 -  4) =    -36.04924  eV     1   --> A              
     e(  5 -  5) =    -35.91770  eV     1   --> A              
     e(  6 -  6) =    -35.18401  eV     1   --> A              
     e(  7 -  7) =    -35.08483  eV     1   --> A              
     e(  8 -  8) =    -34.86688  eV     1   --> A              
     e(  9 -  9) =    -21.19885  eV     1   --> A              
     e( 10 - 10) =    -21.14619  eV     1   --> A              
     e( 11 - 11) =    -21.13935  eV     1   --> A              
     e( 12 - 12) =    -21.13441  eV     1   --> A              
     e( 13 - 13) =    -21.12785  eV     1   --> A              
     e( 14 - 14) =    -21.12601  eV     1   --> A              
     e( 15 - 15) =    -21.12035  eV     1   --> A              
     e( 16 - 16) =    -20.27591  eV     1   --> A              
     e( 17 - 17) =    -20.26150  eV     1   --> A              
     e( 18 - 18) =    -20.25418  eV     1   --> A              
     e( 19 - 19) =    -20.22758  eV     1   --> A              
     e( 20 - 20) =    -20.21692  eV     1   --> A              
     e( 21 - 21) =    -20.18289  eV     1   --> A              
     e( 22 - 22) =    -20.17952  eV     1   --> A              
     e( 23 - 23) =    -19.31731  eV     1   --> A              
     e( 24 - 24) =    -12.39028  eV     1   --> A              
     e( 25 - 25) =     -6.74094  eV     1   --> A              
     e( 26 - 26) =     -6.53281  eV     1   --> A              
     e( 27 - 27) =     -6.03228  eV     1   --> A              
     e( 28 - 28) =     -5.22919  eV     1   --> A              
     e( 29 - 29) =     -4.86125  eV     1   --> A              
     e( 30 - 30) =     -3.96550  eV     1   --> A              
     e( 31 - 31) =     -1.82774  eV     1   --> A              
     e( 32 - 32) =     -1.24771  eV     1   --> A              
     e( 33 - 33) =      0.27501  eV     1   --> A              
     e( 34 - 34) =      1.47232  eV     1   --> A              
     e( 35 - 35) =      1.79600  eV     1   --> A              
     e( 36 - 36) =      2.72184  eV     1   --> A              
     e( 37 - 37) =      2.95599  eV     1   --> A              
     e( 38 - 38) =      3.56980  eV     1   --> A              
     e( 39 - 39) =      5.37927  eV     1   --> A              
     e( 40 - 40) =      6.10828  eV     1   --> A              
     e( 41 - 41) =      6.36721  eV     1   --> A              
     e( 42 - 42) =      6.56824  eV     1   --> A              

 **************************************************************************

 **************************************************************************

                    xk=(   0.38188,   0.00069,   0.00000  )

     Band symmetry, C_1 (1)     point group:

     e(  1 -  1) =    -69.50215  eV     1   --> A              
     e(  2 -  2) =    -68.55792  eV     1   --> A              
     e(  3 -  3) =    -36.21600  eV     1   --> A              
     e(  4 -  4) =    -36.04076  eV     1   --> A              
     e(  5 -  5) =    -35.93623  eV     1   --> A              
     e(  6 -  6) =    -35.18170  eV     1   --> A              
     e(  7 -  7) =    -35.10429  eV     1   --> A              
     e(  8 -  8) =    -34.88258  eV     1   --> A              
     e(  9 -  9) =    -21.19587  eV     1   --> A              
     e( 10 - 10) =    -21.14592  eV     1   --> A              
     e( 11 - 11) =    -21.13984  eV     1   --> A              
     e( 12 - 12) =    -21.13470  eV     1   --> A              
     e( 13 - 13) =    -21.12709  eV     1   --> A              
     e( 14 - 14) =    -21.12490  eV     1   --> A              
     e( 15 - 15) =    -21.12195  eV     1   --> A              
     e( 16 - 16) =    -20.27502  eV     1   --> A              
     e( 17 - 17) =    -20.26215  eV     1   --> A              
     e( 18 - 18) =    -20.25471  eV     1   --> A              
     e( 19 - 19) =    -20.22744  eV     1   --> A              
     e( 20 - 20) =    -20.21644  eV     1   --> A              
     e( 21 - 21) =    -20.18209  eV     1   --> A              
     e( 22 - 22) =    -20.18031  eV     1   --> A              
     e( 23 - 23) =    -19.29802  eV     1   --> A              
     e( 24 - 24) =    -12.31590  eV     1   --> A              
     e( 25 - 25) =     -6.82205  eV     1   --> A              
     e( 26 - 26) =     -6.51793  eV     1   --> A              
     e( 27 - 27) =     -5.95043  eV     1   --> A              
     e( 28 - 28) =     -5.25086  eV     1   --> A              
     e( 29 - 29) =     -4.90380  eV     1   --> A              
     e( 30 - 30) =     -4.01390  eV     1   --> A              
     e( 31 - 31) =     -1.78595  eV     1   --> A              
     e( 32 - 32) =     -1.25356  eV     1   --> A              
     e( 33 - 33) =      0.40657  eV     1   --> A              
     e( 34 - 34) =      1.46196  eV     1   --> A              
     e( 35 - 35) =      1.87625  eV     1   --> A              
     e( 36 - 36) =      2.77194  eV     1   --> A              
     e( 37 - 37) =      3.09233  eV     1   --> A              
     e( 38 - 38) =      3.78558  eV     1   --> A              
     e( 39 - 39) =      5.51789  eV     1   --> A              
     e( 40 - 40) =      6.10822  eV     1   --> A              
     e( 41 - 41) =      6.42266  eV     1   --> A              
     e( 42 - 42) =      6.82285  eV     1   --> A              

 **************************************************************************

 **************************************************************************

                    xk=(   0.40309,   0.00073,   0.00000  )

     Band symmetry, C_1 (1)     point group:

     e(  1 -  1) =    -69.50033  eV     1   --> A              
     e(  2 -  2) =    -68.55624  eV     1   --> A              
     e(  3 -  3) =    -36.23605  eV     1   --> A              
     e(  4 -  4) =    -36.03281  eV     1   --> A              
     e(  5 -  5) =    -35.95551  eV     1   --> A              
     e(  6 -  6) =    -35.17958  eV     1   --> A              
     e(  7 -  7) =    -35.12108  eV     1   --> A              
     e(  8 -  8) =    -34.89891  eV     1   --> A              
     e(  9 -  9) =    -21.19316  eV     1   --> A              
     e( 10 - 10) =    -21.14561  eV     1   --> A              
     e( 11 - 11) =    -21.14018  eV     1   --> A              
     e( 12 - 12) =    -21.13508  eV     1   --> A              
     e( 13 - 13) =    -21.12679  eV     1   --> A              
     e( 14 - 14) =    -21.12426  eV     1   --> A              
     e( 15 - 15) =    -21.12265  eV     1   --> A              
     e( 16 - 16) =    -20.27417  eV     1   --> A              
     e( 17 - 17) =    -20.26269  eV     1   --> A              
     e( 18 - 18) =    -20.25526  eV     1   --> A              
     e( 19 - 19) =    -20.22725  eV     1   --> A              
     e( 20 - 20) =    -20.21605  eV     1   --> A              
     e( 21 - 21) =    -20.18337  eV     1   --> A              
     e( 22 - 22) =    -20.17904  eV     1   --> A              
     e( 23 - 23) =    -19.28044  eV     1   --> A              
     e( 24 - 24) =    -12.24335  eV     1   --> A              
     e( 25 - 25) =     -6.90612  eV     1   --> A              
     e( 26 - 26) =     -6.49854  eV     1   --> A              
     e( 27 - 27) =     -5.87161  eV     1   --> A              
     e( 28 - 28) =     -5.29070  eV     1   --> A              
     e( 29 - 29) =     -4.91515  eV     1   --> A              
     e( 30 - 30) =     -4.06850  eV     1   --> A              
     e( 31 - 31) =     -1.73039  eV     1   --> A              
     e( 32 - 32) =     -1.25338  eV     1   --> A              
     e( 33 - 33) =      0.53929  eV     1   --> A              
     e( 34 - 34) =      1.44190  eV     1   --> A              
     e( 35 - 35) =      1.94612  eV     1   --> A              
     e( 36 - 36) =      2.80979  eV     1   --> A              
     e( 37 - 37) =      3.22240  eV     1   --> A              
     e( 38 - 38) =      4.01558  eV     1   --> A              
     e( 39 - 39) =      5.57985  eV     1   --> A              
     e( 40 - 40) =      6.13231  eV     1   --> A              
     e( 41 - 41) =      6.48980  eV     1   --> A              
     e( 42 - 42) =      7.10332  eV     1   --> A              

 **************************************************************************

 **************************************************************************

                    xk=(   0.42431,   0.00077,   0.00000  )

     Band symmetry, C_1 (1)     point group:

     e(  1 -  1) =    -69.49864  eV     1   --> A              
     e(  2 -  2) =    -68.55468  eV     1   --> A              
     e(  3 -  3) =    -36.25255  eV     1   --> A              
     e(  4 -  4) =    -36.02560  eV     1   --> A              
     e(  5 -  5) =    -35.97533  eV     1   --> A              
     e(  6 -  6) =    -35.17768  eV     1   --> A              
     e(  7 -  7) =    -35.13495  eV     1   --> A              
     e(  8 -  8) =    -34.91580  eV     1   --> A              
     e(  9 -  9) =    -21.19069  eV     1   --> A              
     e( 10 - 10) =    -21.14528  eV     1   --> A              
     e( 11 - 11) =    -21.14035  eV     1   --> A              
     e( 12 - 12) =    -21.13552  eV     1   --> A              
     e( 13 - 13) =    -21.12703  eV     1   --> A              
     e( 14 - 14) =    -21.12506  eV     1   --> A              
     e( 15 - 15) =    -21.12146  eV     1   --> A              
     e( 16 - 16) =    -20.27337  eV     1   --> A              
     e( 17 - 17) =    -20.26314  eV     1   --> A              
     e( 18 - 18) =    -20.25582  eV     1   --> A              
     e( 19 - 19) =    -20.22702  eV     1   --> A              
     e( 20 - 20) =    -20.21577  eV     1   --> A              
     e( 21 - 21) =    -20.18489  eV     1   --> A              
     e( 22 - 22) =    -20.17755  eV     1   --> A              
     e( 23 - 23) =    -19.26450  eV     1   --> A              
     e( 24 - 24) =    -12.17394  eV     1   --> A              
     e( 25 - 25) =     -6.97992  eV     1   --> A              
     e( 26 - 26) =     -6.48210  eV     1   --> A              
     e( 27 - 27) =     -5.80474  eV     1   --> A              
     e( 28 - 28) =     -5.33886  eV     1   --> A              
     e( 29 - 29) =     -4.90201  eV     1   --> A              
     e( 30 - 30) =     -4.12743  eV     1   --> A              
     e( 31 - 31) =     -1.66619  eV     1   --> A              
     e( 32 - 32) =     -1.24468  eV     1   --> A              
     e( 33 - 33) =      0.67129  eV     1   --> A              
     e( 34 - 34) =      1.41944  eV     1   --> A              
     e( 35 - 35) =      2.00126  eV     1   --> A              
     e( 36 - 36) =      2.82996  eV     1   --> A              
     e( 37 - 37) =      3.33519  eV     1   --> A              
     e( 38 - 38) =      4.25757  eV     1   --> A              
     e( 39 - 39) =      5.56354  eV     1   --> A              
     e( 40 - 40) =      6.17017  eV     1   --> A              
     e( 41 - 41) =      6.59537  eV     1   --> A              
     e( 42 - 42) =      7.39800  eV     1   --> A              

 **************************************************************************

 **************************************************************************

                    xk=(   0.44553,   0.00081,   0.00000  )

     Band symmetry, C_1 (1)     point group:

     e(  1 -  1) =    -69.49709  eV     1   --> A              
     e(  2 -  2) =    -68.55325  eV     1   --> A              
     e(  3 -  3) =    -36.26529  eV     1   --> A              
     e(  4 -  4) =    -36.01991  eV     1   --> A              
     e(  5 -  5) =    -35.99491  eV     1   --> A              
     e(  6 -  6) =    -35.17600  eV     1   --> A              
     e(  7 -  7) =    -35.14574  eV     1   --> A              
     e(  8 -  8) =    -34.93315  eV     1   --> A              
     e(  9 -  9) =    -21.18845  eV     1   --> A              
     e( 10 - 10) =    -21.14495  eV     1   --> A              
     e( 11 - 11) =    -21.14036  eV     1   --> A              
     e( 12 - 12) =    -21.13599  eV     1   --> A              
     e( 13 - 13) =    -21.12790  eV     1   --> A              
     e( 14 - 14) =    -21.12568  eV     1   --> A              
     e( 15 - 15) =    -21.11998  eV     1   --> A              
     e( 16 - 16) =    -20.27261  eV     1   --> A              
     e( 17 - 17) =    -20.26347  eV     1   --> A              
     e( 18 - 18) =    -20.25640  eV     1   --> A              
     e( 19 - 19) =    -20.22674  eV     1   --> A              
     e( 20 - 20) =    -20.21559  eV     1   --> A              
     e( 21 - 21) =    -20.18633  eV     1   --> A              
     e( 22 - 22) =    -20.17614  eV     1   --> A              
     e( 23 - 23) =    -19.25014  eV     1   --> A              
     e( 24 - 24) =    -12.10896  eV     1   --> A              
     e( 25 - 25) =     -7.03797  eV     1   --> A              
     e( 26 - 26) =     -6.47044  eV     1   --> A              
     e( 27 - 27) =     -5.76129  eV     1   --> A              
     e( 28 - 28) =     -5.37802  eV     1   --> A              
     e( 29 - 29) =     -4.87385  eV     1   --> A              
     e( 30 - 30) =     -4.18940  eV     1   --> A              
     e( 31 - 31) =     -1.59894  eV     1   --> A              
     e( 32 - 32) =     -1.22447  eV     1   --> A              
     e( 33 - 33) =      0.80018  eV     1   --> A              
     e( 34 - 34) =      1.39772  eV     1   --> A              
     e( 35 - 35) =      2.04149  eV     1   --> A              
     e( 36 - 36) =      2.82801  eV     1   --> A              
     e( 37 - 37) =      3.42169  eV     1   --> A              
     e( 38 - 38) =      4.50632  eV     1   --> A              
     e( 39 - 39) =      5.49701  eV     1   --> A              
     e( 40 - 40) =      6.20515  eV     1   --> A              
     e( 41 - 41) =      6.73253  eV     1   --> A              
     e( 42 - 42) =      7.70321  eV     1   --> A              

 **************************************************************************

 **************************************************************************

                    xk=(   0.46674,   0.00085,   0.00000  )

     Band symmetry, C_1 (1)     point group:

     e(  1 -  1) =    -69.49569  eV     1   --> A              
     e(  2 -  2) =    -68.55196  eV     1   --> A              
     e(  3 -  3) =    -36.27413  eV     1   --> A              
     e(  4 -  4) =    -36.02329  eV     1   --> A              
     e(  5 -  5) =    -36.00661  eV     1   --> A              
     e(  6 -  6) =    -35.17456  eV     1   --> A              
     e(  7 -  7) =    -35.15336  eV     1   --> A              
     e(  8 -  8) =    -34.95087  eV     1   --> A              
     e(  9 -  9) =    -21.18642  eV     1   --> A              
     e( 10 - 10) =    -21.14462  eV     1   --> A              
     e( 11 - 11) =    -21.14020  eV     1   --> A              
     e( 12 - 12) =    -21.13648  eV     1   --> A              
     e( 13 - 13) =    -21.12907  eV     1   --> A              
     e( 14 - 14) =    -21.12614  eV     1   --> A              
     e( 15 - 15) =    -21.11855  eV     1   --> A              
     e( 16 - 16) =    -20.27192  eV     1   --> A              
     e( 17 - 17) =    -20.26369  eV     1   --> A              
     e( 18 - 18) =    -20.25699  eV     1   --> A              
     e( 19 - 19) =    -20.22642  eV     1   --> A              
     e( 20 - 20) =    -20.21551  eV     1   --> A              
     e( 21 - 21) =    -20.18767  eV     1   --> A              
     e( 22 - 22) =    -20.17487  eV     1   --> A              
     e( 23 - 23) =    -19.23729  eV     1   --> A              
     e( 24 - 24) =    -12.04965  eV     1   --> A              
     e( 25 - 25) =     -7.07728  eV     1   --> A              
     e( 26 - 26) =     -6.46371  eV     1   --> A              
     e( 27 - 27) =     -5.75711  eV     1   --> A              
     e( 28 - 28) =     -5.38757  eV     1   --> A              
     e( 29 - 29) =     -4.83835  eV     1   --> A              
     e( 30 - 30) =     -4.25363  eV     1   --> A              
     e( 31 - 31) =     -1.53393  eV     1   --> A              
     e( 32 - 32) =     -1.19014  eV     1   --> A              
     e( 33 - 33) =      0.92301  eV     1   --> A              
     e( 34 - 34) =      1.37834  eV     1   --> A              
     e( 35 - 35) =      2.06734  eV     1   --> A              
     e( 36 - 36) =      2.80163  eV     1   --> A              
     e( 37 - 37) =      3.47734  eV     1   --> A              
     e( 38 - 38) =      4.74739  eV     1   --> A              
     e( 39 - 39) =      5.41450  eV     1   --> A              
     e( 40 - 40) =      6.24057  eV     1   --> A              
     e( 41 - 41) =      6.87323  eV     1   --> A              
     e( 42 - 42) =      7.96730  eV     1   --> A              

 **************************************************************************

 **************************************************************************

                    xk=(   0.48796,   0.00088,   0.00000  )

     Band symmetry, C_1 (1)     point group:

     e(  1 -  1) =    -69.49446  eV     1   --> A              
     e(  2 -  2) =    -68.55082  eV     1   --> A              
     e(  3 -  3) =    -36.27902  eV     1   --> A              
     e(  4 -  4) =    -36.04215  eV     1   --> A              
     e(  5 -  5) =    -36.00397  eV     1   --> A              
     e(  6 -  6) =    -35.17328  eV     1   --> A              
     e(  7 -  7) =    -35.15781  eV     1   --> A              
     e(  8 -  8) =    -34.96885  eV     1   --> A              
     e(  9 -  9) =    -21.18458  eV     1   --> A              
     e( 10 - 10) =    -21.14429  eV     1   --> A              
     e( 11 - 11) =    -21.13993  eV     1   --> A              
     e( 12 - 12) =    -21.13698  eV     1   --> A              
     e( 13 - 13) =    -21.13026  eV     1   --> A              
     e( 14 - 14) =    -21.12668  eV     1   --> A              
     e( 15 - 15) =    -21.11723  eV     1   --> A              
     e( 16 - 16) =    -20.27129  eV     1   --> A              
     e( 17 - 17) =    -20.26379  eV     1   --> A              
     e( 18 - 18) =    -20.25759  eV     1   --> A              
     e( 19 - 19) =    -20.22606  eV     1   --> A              
     e( 20 - 20) =    -20.21554  eV     1   --> A              
     e( 21 - 21) =    -20.18887  eV     1   --> A              
     e( 22 - 22) =    -20.17374  eV     1   --> A              
     e( 23 - 23) =    -19.22589  eV     1   --> A              
     e( 24 - 24) =    -11.99703  eV     1   --> A              
     e( 25 - 25) =     -7.09605  eV     1   --> A              
     e( 26 - 26) =     -6.46125  eV     1   --> A              
     e( 27 - 27) =     -5.79780  eV     1   --> A              
     e( 28 - 28) =     -5.35872  eV     1   --> A              
     e( 29 - 29) =     -4.80128  eV     1   --> A              
     e( 30 - 30) =     -4.31971  eV     1   --> A              
     e( 31 - 31) =     -1.47456  eV     1   --> A              
     e( 32 - 32) =     -1.14135  eV     1   --> A              
     e( 33 - 33) =      1.03649  eV     1   --> A              
     e( 34 - 34) =      1.36234  eV     1   --> A              
     e( 35 - 35) =      2.07849  eV     1   --> A              
     e( 36 - 36) =      2.75179  eV     1   --> A              
     e( 37 - 37) =      3.50295  eV     1   --> A              
     e( 38 - 38) =      4.92971  eV     1   --> A              
     e( 39 - 39) =      5.38105  eV     1   --> A              
     e( 40 - 40) =      6.28181  eV     1   --> A              
     e( 41 - 41) =      6.99264  eV     1   --> A              
     e( 42 - 42) =      8.10705  eV     1   --> A              

 **************************************************************************

 **************************************************************************

                    xk=(   0.50917,   0.00092,   0.00000  )

     Band symmetry, C_1 (1)     point group:

     e(  1 -  1) =    -69.49339  eV     1   --> A              
     e(  2 -  2) =    -68.54984  eV     1   --> A              
     e(  3 -  3) =    -36.27998  eV     1   --> A              
     e(  4 -  4) =    -36.06367  eV     1   --> A              
     e(  5 -  5) =    -35.99966  eV     1   --> A              
     e(  6 -  6) =    -35.17202  eV     1   --> A              
     e(  7 -  7) =    -35.15928  eV     1   --> A              
     e(  8 -  8) =    -34.98695  eV     1   --> A              
     e(  9 -  9) =    -21.18292  eV     1   --> A              
     e( 10 - 10) =    -21.14392  eV     1   --> A              
     e( 11 - 11) =    -21.13960  eV     1   --> A              
     e( 12 - 12) =    -21.13745  eV     1   --> A              
     e( 13 - 13) =    -21.13137  eV     1   --> A              
     e( 14 - 14) =    -21.12736  eV     1   --> A              
     e( 15 - 15) =    -21.11606  eV     1   --> A              
     e( 16 - 16) =    -20.27073  eV     1   --> A              
     e( 17 - 17) =    -20.26378  eV     1   --> A              
     e( 18 - 18) =    -20.25819  eV     1   --> A              
     e( 19 - 19) =    -20.22568  eV     1   --> A              
     e( 20 - 20) =    -20.21565  eV     1   --> A              
     e( 21 - 21) =    -20.18993  eV     1   --> A              
     e( 22 - 22) =    -20.17278  eV     1   --> A              
     e( 23 - 23) =    -19.21591  eV     1   --> A              
     e( 24 - 24) =    -11.95187  eV     1   --> A              
     e( 25 - 25) =     -7.09333  eV     1   --> A              
     e( 26 - 26) =     -6.46194  eV     1   --> A              
     e( 27 - 27) =     -5.87069  eV     1   --> A              
     e( 28 - 28) =     -5.30220  eV     1   --> A              
     e( 29 - 29) =     -4.76709  eV     1   --> A              
     e( 30 - 30) =     -4.38741  eV     1   --> A              
     e( 31 - 31) =     -1.42109  eV     1   --> A              
     e( 32 - 32) =     -1.08166  eV     1   --> A              
     e( 33 - 33) =      1.13706  eV     1   --> A              
     e( 34 - 34) =      1.35083  eV     1   --> A              
     e( 35 - 35) =      2.07229  eV     1   --> A              
     e( 36 - 36) =      2.68456  eV     1   --> A              
     e( 37 - 37) =      3.50397  eV     1   --> A              
     e( 38 - 38) =      4.95689  eV     1   --> A              
     e( 39 - 39) =      5.50439  eV     1   --> A              
     e( 40 - 40) =      6.32791  eV     1   --> A              
     e( 41 - 41) =      7.07946  eV     1   --> A              
     e( 42 - 42) =      8.26823  eV     1   --> A              

 **************************************************************************

 **************************************************************************

                    xk=(   0.53039,   0.00096,   0.00000  )

     Band symmetry, C_1 (1)     point group:

     e(  1 -  1) =    -69.49250  eV     1   --> A              
     e(  2 -  2) =    -68.54901  eV     1   --> A              
     e(  3 -  3) =    -36.27714  eV     1   --> A              
     e(  4 -  4) =    -36.08564  eV     1   --> A              
     e(  5 -  5) =    -35.99574  eV     1   --> A              
     e(  6 -  6) =    -35.17066  eV     1   --> A              
     e(  7 -  7) =    -35.15798  eV     1   --> A              
     e(  8 -  8) =    -35.00501  eV     1   --> A              
     e(  9 -  9) =    -21.18143  eV     1   --> A              
     e( 10 - 10) =    -21.14352  eV     1   --> A              
     e( 11 - 11) =    -21.13934  eV     1   --> A              
     e( 12 - 12) =    -21.13782  eV     1   --> A              
     e( 13 - 13) =    -21.13238  eV     1   --> A              
     e( 14 - 14) =    -21.12814  eV     1   --> A              
     e( 15 - 15) =    -21.11507  eV     1   --> A              
     e( 16 - 16) =    -20.27024  eV     1   --> A              
     e( 17 - 17) =    -20.26367  eV     1   --> A              
     e( 18 - 18) =    -20.25880  eV     1   --> A              
     e( 19 - 19) =    -20.22530  eV     1   --> A              
     e( 20 - 20) =    -20.21583  eV     1   --> A              
     e( 21 - 21) =    -20.19083  eV     1   --> A              
     e( 22 - 22) =    -20.17197  eV     1   --> A              
     e( 23 - 23) =    -19.20735  eV     1   --> A              
     e( 24 - 24) =    -11.91461  eV     1   --> A              
     e( 25 - 25) =     -7.06888  eV     1   --> A              
     e( 26 - 26) =     -6.46448  eV     1   --> A              
     e( 27 - 27) =     -5.96266  eV     1   --> A              
     e( 28 - 28) =     -5.23010  eV     1   --> A              
     e( 29 - 29) =     -4.73902  eV     1   --> A              
     e( 30 - 30) =     -4.45653  eV     1   --> A              
     e( 31 - 31) =     -1.37153  eV     1   --> A              
     e( 32 - 32) =     -1.01790  eV     1   --> A              
     e( 33 - 33) =      1.22019  eV     1   --> A              
     e( 34 - 34) =      1.34665  eV     1   --> A              
     e( 35 - 35) =      2.04239  eV     1   --> A              
     e( 36 - 36) =      2.61324  eV     1   --> A              
     e( 37 - 37) =      3.48857  eV     1   --> A              
     e( 38 - 38) =      4.88826  eV     1   --> A              
     e( 39 - 39) =      5.73194  eV     1   --> A              
     e( 40 - 40) =      6.37434  eV     1   --> A              
     e( 41 - 41) =      7.13626  eV     1   --> A              
     e( 42 - 42) =      8.46193  eV     1   --> A              

 **************************************************************************

 **************************************************************************

                    xk=(   0.55160,   0.00100,   0.00000  )

     Band symmetry, C_1 (1)     point group:

     e(  1 -  1) =    -69.49178  eV     1   --> A              
     e(  2 -  2) =    -68.54834  eV     1   --> A              
     e(  3 -  3) =    -36.27076  eV     1   --> A              
     e(  4 -  4) =    -36.10757  eV     1   --> A              
     e(  5 -  5) =    -35.99247  eV     1   --> A              
     e(  6 -  6) =    -35.16940  eV     1   --> A              
     e(  7 -  7) =    -35.15392  eV     1   --> A              
     e(  8 -  8) =    -35.02280  eV     1   --> A              
     e(  9 -  9) =    -21.18014  eV     1   --> A              
     e( 10 - 10) =    -21.14307  eV     1   --> A              
     e( 11 - 11) =    -21.13933  eV     1   --> A              
[...]
     e( 12 - 12) =    -21.13887  eV     1   --> A              
     e( 13 - 13) =    -21.12882  eV     1   --> A              
     e( 14 - 14) =    -21.12857  eV     1   --> A              
     e( 15 - 15) =    -21.09924  eV     1   --> A              
     e( 16 - 16) =    -20.28608  eV     1   --> A              
     e( 17 - 17) =    -20.25154  eV     1   --> A              
     e( 18 - 18) =    -20.24975  eV     1   --> A              
     e( 19 - 19) =    -20.22670  eV     1   --> A              
     e( 20 - 20) =    -20.22498  eV     1   --> A              
     e( 21 - 21) =    -20.20355  eV     1   --> A              
     e( 22 - 22) =    -20.15906  eV     1   --> A              
     e( 23 - 23) =    -19.61983  eV     1   --> A              
     e( 24 - 24) =    -13.08801  eV     1   --> A              
     e( 25 - 25) =     -7.67858  eV     1   --> A              
     e( 26 - 26) =     -6.36638  eV     1   --> A              
     e( 27 - 27) =     -6.06151  eV     1   --> A              
     e( 28 - 28) =     -4.39380  eV     1   --> A              
     e( 29 - 29) =     -4.09123  eV     1   --> A              
     e( 30 - 30) =     -3.57701  eV     1   --> A              
     e( 31 - 31) =     -1.24029  eV     1   --> A              
     e( 32 - 32) =     -1.00004  eV     1   --> A              
     e( 33 - 33) =     -0.36724  eV     1   --> A              
     e( 34 - 34) =     -0.15348  eV     1   --> A              
     e( 35 - 35) =      1.62661  eV     1   --> A              
     e( 36 - 36) =      2.03034  eV     1   --> A              
     e( 37 - 37) =      2.29898  eV     1   --> A              
     e( 38 - 38) =      2.40846  eV     1   --> A              
     e( 39 - 39) =      2.74026  eV     1   --> A              
     e( 40 - 40) =      4.32598  eV     1   --> A              
     e( 41 - 41) =      4.82127  eV     1   --> A              
     e( 42 - 42) =      4.98606  eV     1   --> A              

 **************************************************************************

 **************************************************************************

                    xk=(   0.07942,  -0.04594,   0.00000  )

     Band symmetry, C_1 (1)     point group:

     e(  1 -  1) =    -69.52746  eV     1   --> A              
     e(  2 -  2) =    -68.58130  eV     1   --> A              
     e(  3 -  3) =    -36.15298  eV     1   --> A              
     e(  4 -  4) =    -35.81275  eV     1   --> A              
     e(  5 -  5) =    -35.77003  eV     1   --> A              
     e(  6 -  6) =    -35.21997  eV     1   --> A              
     e(  7 -  7) =    -34.77353  eV     1   --> A              
     e(  8 -  8) =    -34.73844  eV     1   --> A              
     e(  9 -  9) =    -21.24539  eV     1   --> A              
     e( 10 - 10) =    -21.14433  eV     1   --> A              
     e( 11 - 11) =    -21.14127  eV     1   --> A              
     e( 12 - 12) =    -21.13933  eV     1   --> A              
     e( 13 - 13) =    -21.12846  eV     1   --> A              
     e( 14 - 14) =    -21.12831  eV     1   --> A              
     e( 15 - 15) =    -21.09826  eV     1   --> A              
     e( 16 - 16) =    -20.28654  eV     1   --> A              
     e( 17 - 17) =    -20.25101  eV     1   --> A              
     e( 18 - 18) =    -20.24963  eV     1   --> A              
     e( 19 - 19) =    -20.22658  eV     1   --> A              
     e( 20 - 20) =    -20.22538  eV     1   --> A              
     e( 21 - 21) =    -20.20447  eV     1   --> A              
     e( 22 - 22) =    -20.15814  eV     1   --> A              
     e( 23 - 23) =    -19.63696  eV     1   --> A              
     e( 24 - 24) =    -13.11318  eV     1   --> A              
     e( 25 - 25) =     -7.73948  eV     1   --> A              
     e( 26 - 26) =     -6.33113  eV     1   --> A              
     e( 27 - 27) =     -6.09074  eV     1   --> A              
     e( 28 - 28) =     -4.45351  eV     1   --> A              
     e( 29 - 29) =     -3.93763  eV     1   --> A              
     e( 30 - 30) =     -3.54117  eV     1   --> A              
     e( 31 - 31) =     -1.20819  eV     1   --> A              
     e( 32 - 32) =     -0.91295  eV     1   --> A              
     e( 33 - 33) =     -0.42756  eV     1   --> A              
     e( 34 - 34) =     -0.21607  eV     1   --> A              
     e( 35 - 35) =      1.66252  eV     1   --> A              
     e( 36 - 36) =      1.99622  eV     1   --> A              
     e( 37 - 37) =      2.28417  eV     1   --> A              
     e( 38 - 38) =      2.36260  eV     1   --> A              
     e( 39 - 39) =      2.62076  eV     1   --> A              
     e( 40 - 40) =      4.25900  eV     1   --> A              
     e( 41 - 41) =      4.72611  eV     1   --> A              
     e( 42 - 42) =      4.90966  eV     1   --> A              

 **************************************************************************

 **************************************************************************

                    xk=(   0.06354,  -0.03675,   0.00000  )

     Band symmetry, C_1 (1)     point group:

     e(  1 -  1) =    -69.52827  eV     1   --> A              
     e(  2 -  2) =    -68.58205  eV     1   --> A              
     e(  3 -  3) =    -36.15659  eV     1   --> A              
     e(  4 -  4) =    -35.79669  eV     1   --> A              
     e(  5 -  5) =    -35.76677  eV     1   --> A              
     e(  6 -  6) =    -35.22166  eV     1   --> A              
     e(  7 -  7) =    -34.76066  eV     1   --> A              
     e(  8 -  8) =    -34.73552  eV     1   --> A              
     e(  9 -  9) =    -21.24735  eV     1   --> A              
     e( 10 - 10) =    -21.14439  eV     1   --> A              
     e( 11 - 11) =    -21.14129  eV     1   --> A              
     e( 12 - 12) =    -21.13972  eV     1   --> A              
     e( 13 - 13) =    -21.12837  eV     1   --> A              
     e( 14 - 14) =    -21.12788  eV     1   --> A              
     e( 15 - 15) =    -21.09744  eV     1   --> A              
     e( 16 - 16) =    -20.28692  eV     1   --> A              
     e( 17 - 17) =    -20.25057  eV     1   --> A              
     e( 18 - 18) =    -20.24952  eV     1   --> A              
     e( 19 - 19) =    -20.22647  eV     1   --> A              
     e( 20 - 20) =    -20.22571  eV     1   --> A              
     e( 21 - 21) =    -20.20524  eV     1   --> A              
     e( 22 - 22) =    -20.15737  eV     1   --> A              
     e( 23 - 23) =    -19.65151  eV     1   --> A              
     e( 24 - 24) =    -13.13394  eV     1   --> A              
     e( 25 - 25) =     -7.79055  eV     1   --> A              
     e( 26 - 26) =     -6.29600  eV     1   --> A              
     e( 27 - 27) =     -6.11562  eV     1   --> A              
     e( 28 - 28) =     -4.51592  eV     1   --> A              
     e( 29 - 29) =     -3.79420  eV     1   --> A              
     e( 30 - 30) =     -3.51042  eV     1   --> A              
     e( 31 - 31) =     -1.18719  eV     1   --> A              
     e( 32 - 32) =     -0.83256  eV     1   --> A              
     e( 33 - 33) =     -0.47545  eV     1   --> A              
     e( 34 - 34) =     -0.27430  eV     1   --> A              
     e( 35 - 35) =      1.70444  eV     1   --> A              
     e( 36 - 36) =      1.95616  eV     1   --> A              
     e( 37 - 37) =      2.27092  eV     1   --> A              
     e( 38 - 38) =      2.33476  eV     1   --> A              
     e( 39 - 39) =      2.51765  eV     1   --> A              
     e( 40 - 40) =      4.20417  eV     1   --> A              
     e( 41 - 41) =      4.63632  eV     1   --> A              
     e( 42 - 42) =      4.84818  eV     1   --> A              

 **************************************************************************

 **************************************************************************

                    xk=(   0.04765,  -0.02756,   0.00000  )

     Band symmetry, C_1 (1)     point group:

     e(  1 -  1) =    -69.52891  eV     1   --> A              
     e(  2 -  2) =    -68.58264  eV     1   --> A              
     e(  3 -  3) =    -36.15943  eV     1   --> A              
     e(  4 -  4) =    -35.78395  eV     1   --> A              
     e(  5 -  5) =    -35.76421  eV     1   --> A              
     e(  6 -  6) =    -35.22303  eV     1   --> A              
     e(  7 -  7) =    -34.75048  eV     1   --> A              
     e(  8 -  8) =    -34.73322  eV     1   --> A              
     e(  9 -  9) =    -21.24892  eV     1   --> A              
     e( 10 - 10) =    -21.14451  eV     1   --> A              
     e( 11 - 11) =    -21.14123  eV     1   --> A              
     e( 12 - 12) =    -21.14003  eV     1   --> A              
     e( 13 - 13) =    -21.12830  eV     1   --> A              
     e( 14 - 14) =    -21.12753  eV     1   --> A              
     e( 15 - 15) =    -21.09679  eV     1   --> A              
     e( 16 - 16) =    -20.28723  eV     1   --> A              
     e( 17 - 17) =    -20.25022  eV     1   --> A              
     e( 18 - 18) =    -20.24944  eV     1   --> A              
     e( 19 - 19) =    -20.22638  eV     1   --> A              
     e( 20 - 20) =    -20.22597  eV     1   --> A              
     e( 21 - 21) =    -20.20585  eV     1   --> A              
     e( 22 - 22) =    -20.15676  eV     1   --> A              
     e( 23 - 23) =    -19.66317  eV     1   --> A              
     e( 24 - 24) =    -13.15021  eV     1   --> A              
     e( 25 - 25) =     -7.83099  eV     1   --> A              
     e( 26 - 26) =     -6.26396  eV     1   --> A              
     e( 27 - 27) =     -6.13557  eV     1   --> A              
     e( 28 - 28) =     -4.57136  eV     1   --> A              
     e( 29 - 29) =     -3.67243  eV     1   --> A              
     e( 30 - 30) =     -3.48561  eV     1   --> A              
     e( 31 - 31) =     -1.17558  eV     1   --> A              
     e( 32 - 32) =     -0.76131  eV     1   --> A              
     e( 33 - 33) =     -0.51160  eV     1   --> A              
     e( 34 - 34) =     -0.32719  eV     1   --> A              
     e( 35 - 35) =      1.74701  eV     1   --> A              
     e( 36 - 36) =      1.91687  eV     1   --> A              
     e( 37 - 37) =      2.26104  eV     1   --> A              
     e( 38 - 38) =      2.31958  eV     1   --> A              
     e( 39 - 39) =      2.43264  eV     1   --> A              
     e( 40 - 40) =      4.16153  eV     1   --> A              
     e( 41 - 41) =      4.55672  eV     1   --> A              
     e( 42 - 42) =      4.80129  eV     1   --> A              

 **************************************************************************

 **************************************************************************

                    xk=(   0.03177,  -0.01837,   0.00000  )

     Band symmetry, C_1 (1)     point group:

     e(  1 -  1) =    -69.52937  eV     1   --> A              
     e(  2 -  2) =    -68.58307  eV     1   --> A              
     e(  3 -  3) =    -36.16149  eV     1   --> A              
     e(  4 -  4) =    -35.77470  eV     1   --> A              
     e(  5 -  5) =    -35.76235  eV     1   --> A              
     e(  6 -  6) =    -35.22405  eV     1   --> A              
     e(  7 -  7) =    -34.74311  eV     1   --> A              
     e(  8 -  8) =    -34.73155  eV     1   --> A              
     e(  9 -  9) =    -21.25006  eV     1   --> A              
     e( 10 - 10) =    -21.14463  eV     1   --> A              
     e( 11 - 11) =    -21.14115  eV     1   --> A              
     e( 12 - 12) =    -21.14025  eV     1   --> A              
     e( 13 - 13) =    -21.12825  eV     1   --> A              
     e( 14 - 14) =    -21.12728  eV     1   --> A              
     e( 15 - 15) =    -21.09631  eV     1   --> A              
     e( 16 - 16) =    -20.28745  eV     1   --> A              
     e( 17 - 17) =    -20.24997  eV     1   --> A              
     e( 18 - 18) =    -20.24937  eV     1   --> A              
     e( 19 - 19) =    -20.22632  eV     1   --> A              
     e( 20 - 20) =    -20.22616  eV     1   --> A              
     e( 21 - 21) =    -20.20630  eV     1   --> A              
     e( 22 - 22) =    -20.15632  eV     1   --> A              
     e( 23 - 23) =    -19.67168  eV     1   --> A              
     e( 24 - 24) =    -13.16190  eV     1   --> A              
     e( 25 - 25) =     -7.86024  eV     1   --> A              
     e( 26 - 26) =     -6.23811  eV     1   --> A              
     e( 27 - 27) =     -6.15013  eV     1   --> A              
     e( 28 - 28) =     -4.61478  eV     1   --> A              
     e( 29 - 29) =     -3.57946  eV     1   --> A              
     e( 30 - 30) =     -3.46742  eV     1   --> A              
     e( 31 - 31) =     -1.17076  eV     1   --> A              
     e( 32 - 32) =     -0.70178  eV     1   --> A              
     e( 33 - 33) =     -0.53673  eV     1   --> A              
     e( 34 - 34) =     -0.37300  eV     1   --> A              
     e( 35 - 35) =      1.78407  eV     1   --> A              
     e( 36 - 36) =      1.88456  eV     1   --> A              
     e( 37 - 37) =      2.25659  eV     1   --> A              
     e( 38 - 38) =      2.31201  eV     1   --> A              
     e( 39 - 39) =      2.36670  eV     1   --> A              
     e( 40 - 40) =      4.13109  eV     1   --> A              
     e( 41 - 41) =      4.49344  eV     1   --> A              
     e( 42 - 42) =      4.76832  eV     1   --> A              

 **************************************************************************

 **************************************************************************

                    xk=(   0.01588,  -0.00919,   0.00000  )

     Band symmetry, C_1 (1)     point group:

     e(  1 -  1) =    -69.52965  eV     1   --> A              
     e(  2 -  2) =    -68.58333  eV     1   --> A              
     e(  3 -  3) =    -36.16273  eV     1   --> A              
     e(  4 -  4) =    -35.76910  eV     1   --> A              
     e(  5 -  5) =    -35.76123  eV     1   --> A              
     e(  6 -  6) =    -35.22467  eV     1   --> A              
     e(  7 -  7) =    -34.73865  eV     1   --> A              
     e(  8 -  8) =    -34.73055  eV     1   --> A              
     e(  9 -  9) =    -21.25075  eV     1   --> A              
     e( 10 - 10) =    -21.14471  eV     1   --> A              
     e( 11 - 11) =    -21.14108  eV     1   --> A              
     e( 12 - 12) =    -21.14038  eV     1   --> A              
     e( 13 - 13) =    -21.12822  eV     1   --> A              
     e( 14 - 14) =    -21.12713  eV     1   --> A              
     e( 15 - 15) =    -21.09603  eV     1   --> A              
     e( 16 - 16) =    -20.28759  eV     1   --> A              
     e( 17 - 17) =    -20.24982  eV     1   --> A              
     e( 18 - 18) =    -20.24933  eV     1   --> A              
     e( 19 - 20) =    -20.22628  eV     2   -->   2 A              
     e( 21 - 21) =    -20.20657  eV     1   --> A              
     e( 22 - 22) =    -20.15605  eV     1   --> A              
     e( 23 - 23) =    -19.67687  eV     1   --> A              
     e( 24 - 24) =    -13.16894  eV     1   --> A              
     e( 25 - 25) =     -7.87793  eV     1   --> A              
     e( 26 - 26) =     -6.22124  eV     1   --> A              
     e( 27 - 27) =     -6.15899  eV     1   --> A              
     e( 28 - 28) =     -4.64247  eV     1   --> A              
     e( 29 - 29) =     -3.52104  eV     1   --> A              
     e( 30 - 30) =     -3.45630  eV     1   --> A              
     e( 31 - 31) =     -1.16964  eV     1   --> A              
     e( 32 - 32) =     -0.65887  eV     1   --> A              
     e( 33 - 33) =     -0.55148  eV     1   --> A              
     e( 34 - 34) =     -0.40745  eV     1   --> A              
     e( 35 - 35) =      1.80947  eV     1   --> A              
     e( 36 - 36) =      1.86361  eV     1   --> A              
     e( 37 - 37) =      2.25915  eV     1   --> A              
     e( 38 - 38) =      2.30867  eV     1   --> A              
     e( 39 - 39) =      2.32071  eV     1   --> A              
     e( 40 - 40) =      4.11283  eV     1   --> A              
     e( 41 - 41) =      4.45248  eV     1   --> A              
     e( 42 - 42) =      4.74874  eV     1   --> A              

 **************************************************************************

 **************************************************************************

                    xk=(   0.00000,   0.00000,   0.00000  )

     Band symmetry, C_1 (1)     point group:

     e(  1 -  1) =    -69.52975  eV     1   --> A              
     e(  2 -  2) =    -68.58341  eV     1   --> A              
     e(  3 -  3) =    -36.16314  eV     1   --> A              
     e(  4 -  4) =    -35.76722  eV     1   --> A              
     e(  5 -  5) =    -35.76085  eV     1   --> A              
     e(  6 -  6) =    -35.22488  eV     1   --> A              
     e(  7 -  7) =    -34.73716  eV     1   --> A              
     e(  8 -  8) =    -34.73021  eV     1   --> A              
     e(  9 -  9) =    -21.25098  eV     1   --> A              
     e( 10 - 10) =    -21.14474  eV     1   --> A              
     e( 11 - 11) =    -21.14106  eV     1   --> A              
     e( 12 - 12) =    -21.14043  eV     1   --> A              
     e( 13 - 13) =    -21.12821  eV     1   --> A              
     e( 14 - 14) =    -21.12708  eV     1   --> A              
     e( 15 - 15) =    -21.09593  eV     1   --> A              
     e( 16 - 16) =    -20.28763  eV     1   --> A              
     e( 17 - 17) =    -20.24977  eV     1   --> A              
     e( 18 - 18) =    -20.24932  eV     1   --> A              
     e( 19 - 20) =    -20.22632  eV     2   -->   2 A              
     e( 21 - 21) =    -20.20666  eV     1   --> A              
     e( 22 - 22) =    -20.15596  eV     1   --> A              
     e( 23 - 23) =    -19.67861  eV     1   --> A              
     e( 24 - 24) =    -13.17129  eV     1   --> A              
     e( 25 - 25) =     -7.88385  eV     1   --> A              
     e( 26 - 26) =     -6.21537  eV     1   --> A              
     e( 27 - 27) =     -6.16196  eV     1   --> A              
     e( 28 - 28) =     -4.65200  eV     1   --> A              
     e( 29 - 29) =     -3.50110  eV     1   --> A              
     e( 30 - 30) =     -3.45255  eV     1   --> A              
     e( 31 - 31) =     -1.16961  eV     1   --> A              
     e( 32 - 32) =     -0.64224  eV     1   --> A              
     e( 33 - 33) =     -0.55632  eV     1   --> A              
     e( 34 - 34) =     -0.42124  eV     1   --> A              
     e( 35 - 35) =      1.81852  eV     1   --> A              
     e( 36 - 36) =      1.85640  eV     1   --> A              
     e( 37 - 37) =      2.26419  eV     1   --> A              
     e( 38 - 38) =      2.30097  eV     1   --> A              
     e( 39 - 39) =      2.30775  eV     1   --> A              
     e( 40 - 40) =      4.10675  eV     1   --> A              
     e( 41 - 41) =      4.43828  eV     1   --> A              
     e( 42 - 42) =      4.74225  eV     1   --> A              

 **************************************************************************
 
     BANDS        :   2m 1.84s CPU   1m24.42s WALL

 
   This run was terminated on:  18:10:22  16Apr2022            

=------------------------------------------------------------------------------=
   JOB DONE.
=------------------------------------------------------------------------------=
