
     Program PWSCF v.6.8 starts on 16Apr2022 at 17:21:36 

     This program is part of the open-source Quantum ESPRESSO suite
     for quantum simulation of materials; please cite
         "P. Giannozzi et al., J. Phys.:Condens. Matter 21 395502 (2009);
         "P. Giannozzi et al., J. Phys.:Condens. Matter 29 465901 (2017);
         "P. Giannozzi et al., J. Chem. Phys. 152 154105 (2020);
          URL http://www.quantum-espresso.org", 
     in publications or presentations arising from this work. More details at
     http://www.quantum-espresso.org/quote

     Parallel version (MPI & OpenMP), running on       4 processor cores
     Number of MPI processes:                 2
     Threads/MPI process:                     2

     MPI processes distributed on     1 nodes
     R & G space division:  proc/nbgrp/npool/nimage =       2
     121527 MiB available memory on the printing compute node when the environment starts
 
     Reading input from Ta2CO.nscf.in

     Current dimensions of program PWSCF are:
     Max number of different atomic species (ntypx) = 10
     Max number of k-points (npk) =  40000
     Max angular momentum in pseudopotentials (lmaxx) =  4

     Atomic positions and unit cell read from directory:
     /scratch/as3359/Ta2CO_bandsdos/Ta.save/
 
     file Ta.pbesol-spfn-rrkjus_psl.1.0.0.UPF: wavefunction(s)  5S 5P renormalized

     Subspace diagonalization in iterative solution of the eigenvalue problem:
     a serial algorithm will be used

 
     Parallelization info
     --------------------
     sticks:   dense  smooth     PW     G-vecs:    dense   smooth      PW
     Min         834     717    210               266889   211653   33532
     Max         835     718    211               266906   211658   33571
     Sum        1669    1435    421               533795   423311   67103
 
     Using Slab Decomposition
 


     bravais-lattice index     =            0
     lattice parameter (alat)  =       5.6500  a.u.
     unit-cell volume          =    1708.2197 (a.u.)^3
     number of atoms/cell      =            4
     number of atomic types    =            3
     number of electrons       =        64.00
     number of Kohn-Sham states=           38
     kinetic-energy cutoff     =     150.0000  Ry
     charge density cutoff     =     700.0000  Ry
     Exchange-correlation= PBESOL
                           (   1   4  10   8   0   0   0)

     celldm(1)=   5.650000  celldm(2)=   0.000000  celldm(3)=   0.000000
     celldm(4)=   0.000000  celldm(5)=   0.000000  celldm(6)=   0.000000

     crystal axes: (cart. coord. in units of alat)
               a(1) = (   1.047458  -0.003042   0.000000 )  
               a(2) = (  -0.525368   0.905721   0.000000 )  
               a(3) = (   0.000000   0.000000  10.000000 )  

     reciprocal axes: (cart. coord. in units 2 pi/alat)
               b(1) = (  0.956304  0.554710  0.000000 )  
               b(2) = (  0.003212  1.105956  0.000000 )  
               b(3) = (  0.000000  0.000000  0.100000 )  


     PseudoPot. # 1 for Ta read from file:
     /shared/home/as3359/pseudo/Ta.pbesol-spfn-rrkjus_psl.1.0.0.UPF
     MD5 check sum: f099565ffaca9b150a52e9412a28e20b
     Pseudo is Ultrasoft + core correction, Zval = 27.0
     Generated using &quot;atomic&quot; code by A. Dal Corso  v.6.3
     Using radial grid of 1273 points,  8 beta functions with: 
                l(1) =   0
                l(2) =   0
                l(3) =   1
                l(4) =   1
                l(5) =   2
                l(6) =   2
                l(7) =   3
                l(8) =   3
     Q(r) pseudized with 0 coefficients 


     PseudoPot. # 2 for C  read from file:
     /shared/home/as3359/pseudo/C.pbesol-n-rrkjus_psl.1.0.0.UPF
     MD5 check sum: 05995be603a8a7c99da3dc4413f31573
     Pseudo is Ultrasoft + core correction, Zval =  4.0
     Generated using &quot;atomic&quot; code by A. Dal Corso  v.6.3MaX
     Using radial grid of 1073 points,  4 beta functions with: 
                l(1) =   0
                l(2) =   0
                l(3) =   1
                l(4) =   1
     Q(r) pseudized with 0 coefficients 


     PseudoPot. # 3 for O  read from file:
     /shared/home/as3359/pseudo/O.pbesol-n-rrkjus_psl.1.0.0.UPF
     MD5 check sum: dd9bad2534826f832ffc9296591fc5de
     Pseudo is Ultrasoft + core correction, Zval =  6.0
     Generated using &quot;atomic&quot; code by A. Dal Corso  v.6.3MaX
     Using radial grid of 1095 points,  4 beta functions with: 
                l(1) =   0
                l(2) =   0
                l(3) =   1
                l(4) =   1
     Q(r) pseudized with 0 coefficients 


     atomic species   valence    mass     pseudopotential
        Ta            27.00   180.94788     Ta( 1.00)
        C              4.00    12.01070     C ( 1.00)
        O              6.00    15.99940     O ( 1.00)

     No symmetry found



   Cartesian axes

     site n.     atom                  positions (alat units)
         1           C   tau(   1) = (   0.0000000   0.0000000   0.0000000  )
         2           Ta  tau(   2) = (   0.5237441   0.2989654  -0.4007024  )
         3           Ta  tau(   3) = (  -0.0010323   0.6027030   0.4306046  )
         4           O   tau(   4) = (   0.5210222   0.3011869   0.8013113  )

     number of k points=   113  Marzari-Vanderbilt smearing, width (Ry)=  0.0010

     Number of k-points >= 100: set verbosity='high' to print them.

     Dense  grid:   533795 G-vectors     FFT dimensions: (  50,  50, 480)

     Smooth grid:   423311 G-vectors     FFT dimensions: (  48,  48, 450)

     Estimated max dynamical RAM per process >       2.37 GB

     Estimated total dynamical RAM >       4.74 GB

     The potential is recalculated from file :
     /scratch/as3359/Ta2CO_bandsdos/Ta.save/charge-density


     negative rho (up, down):  1.110E-04 0.000E+00
     Starting wfcs are   42 randomized atomic wfcs

     Band Structure Calculation
     Davidson diagonalization with overlap

     ethr =  1.00E-13,  avg # of iterations = 67.8

     total cpu time spent up to now is     1050.3 secs

     End of band structure calculation

     Number of k-points >= 100: set verbosity='high' to print the bands.

     the Fermi energy is    -0.4784 ev
     (compare with:    -0.4784 eV, computed in scf)

     Writing output data file /scratch/as3359/Ta2CO_bandsdos/Ta.save/
 
     init_run     :     12.30s CPU      8.76s WALL (       1 calls)
     electrons    :   2054.37s CPU   1041.10s WALL (       1 calls)

     Called by init_run:
     wfcinit      :      0.00s CPU      0.00s WALL (       1 calls)
     potinit      :      0.52s CPU      0.32s WALL (       1 calls)
     hinit0       :      9.01s CPU      6.56s WALL (       1 calls)

     Called by electrons:
     c_bands      :   2054.37s CPU   1041.10s WALL (       1 calls)
     v_of_rho     :      0.40s CPU      0.23s WALL (       1 calls)
     newd         :      2.38s CPU      1.49s WALL (       1 calls)

     Called by c_bands:
     init_us_2    :      1.73s CPU      0.87s WALL (     113 calls)
     cegterg      :   1985.48s CPU   1005.02s WALL (     437 calls)

     Called by *egterg:
     cdiaghg      :     23.16s CPU     11.85s WALL (    7774 calls)
     h_psi        :   1467.40s CPU    744.45s WALL (    8211 calls)
     s_psi        :     88.34s CPU     44.23s WALL (    8211 calls)
     g_psi        :     12.07s CPU      6.06s WALL (    7661 calls)

     Called by h_psi:
     h_psi:calbec :     66.45s CPU     33.44s WALL (    8211 calls)
     vloc_psi     :   1294.02s CPU    656.83s WALL (    8211 calls)
     add_vuspsi   :     93.56s CPU     46.88s WALL (    8211 calls)

     General routines
     calbec       :     66.36s CPU     33.40s WALL (    8211 calls)
     fft          :      0.24s CPU      0.13s WALL (      13 calls)
     ffts         :      0.01s CPU      0.01s WALL (       1 calls)
     fftw         :   1071.22s CPU    544.73s WALL (  308064 calls)
     interpolate  :      0.04s CPU      0.02s WALL (       1 calls)
     davcio       :      1.40s CPU      1.45s WALL (     226 calls)
 
     Parallel routines
 
     PWSCF        :  34m37.07s CPU  17m39.44s WALL

 
   This run was terminated on:  17:39:16  16Apr2022            

=------------------------------------------------------------------------------=
   JOB DONE.
=------------------------------------------------------------------------------=
