
     Program PWSCF v.6.8 starts on 16Apr2022 at 17:54:16 

     This program is part of the open-source Quantum ESPRESSO suite
     for quantum simulation of materials; please cite
         "P. Giannozzi et al., J. Phys.:Condens. Matter 21 395502 (2009);
         "P. Giannozzi et al., J. Phys.:Condens. Matter 29 465901 (2017);
         "P. Giannozzi et al., J. Chem. Phys. 152 154105 (2020);
          URL http://www.quantum-espresso.org", 
     in publications or presentations arising from this work. More details at
     http://www.quantum-espresso.org/quote

     Parallel version (MPI & OpenMP), running on       4 processor cores
     Number of MPI processes:                 2
     Threads/MPI process:                     2

     MPI processes distributed on     1 nodes
     R & G space division:  proc/nbgrp/npool/nimage =       2
     117737 MiB available memory on the printing compute node when the environment starts
 
     Waiting for input...
     Reading input from standard input

     Current dimensions of program PWSCF are:
     Max number of different atomic species (ntypx) = 10
     Max number of k-points (npk) =  40000
     Max angular momentum in pseudopotentials (lmaxx) =  4

     Atomic positions and unit cell read from directory:
     /scratch/as3359/Ta2CO_bandsdos/Ta.save/
 
     file Ta.pbesol-spfn-rrkjus_psl.1.0.0.UPF: wavefunction(s)  5S 5P renormalized

     Subspace diagonalization in iterative solution of the eigenvalue problem:
     a serial algorithm will be used

 
     Parallelization info
     --------------------
     sticks:   dense  smooth     PW     G-vecs:    dense   smooth      PW
     Min         834     717    202               266889   211653   31276
     Max         835     718    203               266906   211658   31281
     Sum        1669    1435    405               533795   423311   62557
 
     Using Slab Decomposition
 


     bravais-lattice index     =            0
     lattice parameter (alat)  =       5.6500  a.u.
     unit-cell volume          =    1708.2197 (a.u.)^3
     number of atoms/cell      =            4
     number of atomic types    =            3
     number of electrons       =        64.00
     number of Kohn-Sham states=           42
     kinetic-energy cutoff     =     150.0000  Ry
     charge density cutoff     =     700.0000  Ry
     Exchange-correlation= PBESOL
                           (   1   4  10   8   0   0   0)

     celldm(1)=   5.650000  celldm(2)=   0.000000  celldm(3)=   0.000000
     celldm(4)=   0.000000  celldm(5)=   0.000000  celldm(6)=   0.000000

     crystal axes: (cart. coord. in units of alat)
               a(1) = (   1.047458  -0.003042   0.000000 )  
               a(2) = (  -0.525368   0.905721   0.000000 )  
               a(3) = (   0.000000   0.000000  10.000000 )  

     reciprocal axes: (cart. coord. in units 2 pi/alat)
               b(1) = (  0.956304  0.554710  0.000000 )  
               b(2) = (  0.003212  1.105956  0.000000 )  
               b(3) = (  0.000000  0.000000  0.100000 )  


     PseudoPot. # 1 for Ta read from file:
     /shared/home/as3359/pseudo/Ta.pbesol-spfn-rrkjus_psl.1.0.0.UPF
     MD5 check sum: f099565ffaca9b150a52e9412a28e20b
     Pseudo is Ultrasoft + core correction, Zval = 27.0
     Generated using &quot;atomic&quot; code by A. Dal Corso  v.6.3
     Using radial grid of 1273 points,  8 beta functions with: 
                l(1) =   0
                l(2) =   0
                l(3) =   1
                l(4) =   1
                l(5) =   2
                l(6) =   2
                l(7) =   3
                l(8) =   3
     Q(r) pseudized with 0 coefficients 


     PseudoPot. # 2 for C  read from file:
     /shared/home/as3359/pseudo/C.pbesol-n-rrkjus_psl.1.0.0.UPF
     MD5 check sum: 05995be603a8a7c99da3dc4413f31573
     Pseudo is Ultrasoft + core correction, Zval =  4.0
     Generated using &quot;atomic&quot; code by A. Dal Corso  v.6.3MaX
     Using radial grid of 1073 points,  4 beta functions with: 
                l(1) =   0
                l(2) =   0
                l(3) =   1
                l(4) =   1
     Q(r) pseudized with 0 coefficients 


     PseudoPot. # 3 for O  read from file:
     /shared/home/as3359/pseudo/O.pbesol-n-rrkjus_psl.1.0.0.UPF
     MD5 check sum: dd9bad2534826f832ffc9296591fc5de
     Pseudo is Ultrasoft + core correction, Zval =  6.0
     Generated using &quot;atomic&quot; code by A. Dal Corso  v.6.3MaX
     Using radial grid of 1095 points,  4 beta functions with: 
                l(1) =   0
                l(2) =   0
                l(3) =   1
                l(4) =   1
     Q(r) pseudized with 0 coefficients 


     atomic species   valence    mass     pseudopotential
        Ta            27.00   180.94788     Ta( 1.00)
        C              4.00    12.01070     C ( 1.00)
        O              6.00    15.99940     O ( 1.00)

     No symmetry found



   Cartesian axes

     site n.     atom                  positions (alat units)
         1           C   tau(   1) = (   0.0000000   0.0000000   0.0000000  )
         2           Ta  tau(   2) = (   0.5237441   0.2989654  -0.4007024  )
         3           Ta  tau(   3) = (  -0.0010323   0.6027030   0.4306046  )
         4           O   tau(   4) = (   0.5210222   0.3011869   0.8013113  )

     number of k points=    91  Marzari-Vanderbilt smearing, width (Ry)=  0.0010
                       cart. coord. in units 2pi/alat
        k(    1) = (   0.0000000   0.0000000   0.0000000), wk =   0.0219780
        k(    2) = (   0.0212155   0.0000385   0.0000000), wk =   0.0219780
        k(    3) = (   0.0424310   0.0000769   0.0000000), wk =   0.0219780
        k(    4) = (   0.0636465   0.0001154   0.0000000), wk =   0.0219780
        k(    5) = (   0.0848620   0.0001539   0.0000000), wk =   0.0219780
        k(    6) = (   0.1060775   0.0001924   0.0000000), wk =   0.0219780
        k(    7) = (   0.1272930   0.0002308   0.0000000), wk =   0.0219780
        k(    8) = (   0.1485085   0.0002693   0.0000000), wk =   0.0219780
        k(    9) = (   0.1697240   0.0003078   0.0000000), wk =   0.0219780
        k(   10) = (   0.1909395   0.0003463   0.0000000), wk =   0.0219780
        k(   11) = (   0.2121550   0.0003847   0.0000000), wk =   0.0219780
        k(   12) = (   0.2333705   0.0004232   0.0000000), wk =   0.0219780
        k(   13) = (   0.2545860   0.0004617   0.0000000), wk =   0.0219780
        k(   14) = (   0.2758016   0.0005002   0.0000000), wk =   0.0219780
        k(   15) = (   0.2970171   0.0005386   0.0000000), wk =   0.0219780
        k(   16) = (   0.3182326   0.0005771   0.0000000), wk =   0.0219780
        k(   17) = (   0.3394481   0.0006156   0.0000000), wk =   0.0219780
        k(   18) = (   0.3606636   0.0006541   0.0000000), wk =   0.0219780
        k(   19) = (   0.3818791   0.0006925   0.0000000), wk =   0.0219780
        k(   20) = (   0.4030946   0.0007310   0.0000000), wk =   0.0219780
        k(   21) = (   0.4243101   0.0007695   0.0000000), wk =   0.0219780
        k(   22) = (   0.4455256   0.0008079   0.0000000), wk =   0.0219780
        k(   23) = (   0.4667411   0.0008464   0.0000000), wk =   0.0219780
        k(   24) = (   0.4879566   0.0008849   0.0000000), wk =   0.0219780
        k(   25) = (   0.5091721   0.0009234   0.0000000), wk =   0.0219780
        k(   26) = (   0.5303876   0.0009618   0.0000000), wk =   0.0219780
        k(   27) = (   0.5516031   0.0010003   0.0000000), wk =   0.0219780
        k(   28) = (   0.5728186   0.0010388   0.0000000), wk =   0.0219780
        k(   29) = (   0.5940341   0.0010773   0.0000000), wk =   0.0219780
        k(   30) = (   0.6152496   0.0011157   0.0000000), wk =   0.0219780
        k(   31) = (   0.6364651   0.0011542   0.0000000), wk =   0.0219780
        k(   32) = (   0.6311345  -0.0080717   0.0000000), wk =   0.0219780
        k(   33) = (   0.6258038  -0.0172976   0.0000000), wk =   0.0219780
        k(   34) = (   0.6204732  -0.0265236   0.0000000), wk =   0.0219780
        k(   35) = (   0.6151425  -0.0357495   0.0000000), wk =   0.0219780
        k(   36) = (   0.6098119  -0.0449754   0.0000000), wk =   0.0219780
        k(   37) = (   0.6044813  -0.0542013   0.0000000), wk =   0.0219780
        k(   38) = (   0.5991506  -0.0634272   0.0000000), wk =   0.0219780
        k(   39) = (   0.5938200  -0.0726532   0.0000000), wk =   0.0219780
        k(   40) = (   0.5884893  -0.0818791   0.0000000), wk =   0.0219780
        k(   41) = (   0.5831587  -0.0911050   0.0000000), wk =   0.0219780
        k(   42) = (   0.5778281  -0.1003309   0.0000000), wk =   0.0219780
        k(   43) = (   0.5724974  -0.1095569   0.0000000), wk =   0.0219780
        k(   44) = (   0.5671668  -0.1187828   0.0000000), wk =   0.0219780
        k(   45) = (   0.5618361  -0.1280087   0.0000000), wk =   0.0219780
        k(   46) = (   0.5565055  -0.1372346   0.0000000), wk =   0.0219780
        k(   47) = (   0.5511748  -0.1464605   0.0000000), wk =   0.0219780
        k(   48) = (   0.5458442  -0.1556865   0.0000000), wk =   0.0219780
        k(   49) = (   0.5405136  -0.1649124   0.0000000), wk =   0.0219780
        k(   50) = (   0.5351829  -0.1741383   0.0000000), wk =   0.0219780
        k(   51) = (   0.5298523  -0.1833642   0.0000000), wk =   0.0219780
        k(   52) = (   0.5245216  -0.1925902   0.0000000), wk =   0.0219780
        k(   53) = (   0.5191910  -0.2018161   0.0000000), wk =   0.0219780
        k(   54) = (   0.5138603  -0.2110420   0.0000000), wk =   0.0219780
        k(   55) = (   0.5085297  -0.2202679   0.0000000), wk =   0.0219780
        k(   56) = (   0.5031991  -0.2294938   0.0000000), wk =   0.0219780
        k(   57) = (   0.4978684  -0.2387198   0.0000000), wk =   0.0219780
        k(   58) = (   0.4925378  -0.2479457   0.0000000), wk =   0.0219780
        k(   59) = (   0.4872071  -0.2571716   0.0000000), wk =   0.0219780
        k(   60) = (   0.4818765  -0.2663975   0.0000000), wk =   0.0219780
        k(   61) = (   0.4765459  -0.2756235   0.0000000), wk =   0.0219780
        k(   62) = (   0.4606610  -0.2664360   0.0000000), wk =   0.0219780
        k(   63) = (   0.4447761  -0.2572486   0.0000000), wk =   0.0219780
        k(   64) = (   0.4288913  -0.2480611   0.0000000), wk =   0.0219780
        k(   65) = (   0.4130064  -0.2388737   0.0000000), wk =   0.0219780
        k(   66) = (   0.3971215  -0.2296862   0.0000000), wk =   0.0219780
        k(   67) = (   0.3812367  -0.2204988   0.0000000), wk =   0.0219780
        k(   68) = (   0.3653518  -0.2113113   0.0000000), wk =   0.0219780
        k(   69) = (   0.3494670  -0.2021239   0.0000000), wk =   0.0219780
        k(   70) = (   0.3335821  -0.1929364   0.0000000), wk =   0.0219780
        k(   71) = (   0.3176972  -0.1837490   0.0000000), wk =   0.0219780
        k(   72) = (   0.3018124  -0.1745615   0.0000000), wk =   0.0219780
        k(   73) = (   0.2859275  -0.1653741   0.0000000), wk =   0.0219780
        k(   74) = (   0.2700426  -0.1561866   0.0000000), wk =   0.0219780
        k(   75) = (   0.2541578  -0.1469992   0.0000000), wk =   0.0219780
        k(   76) = (   0.2382729  -0.1378117   0.0000000), wk =   0.0219780
        k(   77) = (   0.2223881  -0.1286243   0.0000000), wk =   0.0219780
        k(   78) = (   0.2065032  -0.1194368   0.0000000), wk =   0.0219780
        k(   79) = (   0.1906183  -0.1102494   0.0000000), wk =   0.0219780
        k(   80) = (   0.1747335  -0.1010619   0.0000000), wk =   0.0219780
        k(   81) = (   0.1588486  -0.0918745   0.0000000), wk =   0.0219780
        k(   82) = (   0.1429638  -0.0826870   0.0000000), wk =   0.0219780
        k(   83) = (   0.1270789  -0.0734996   0.0000000), wk =   0.0219780
        k(   84) = (   0.1111940  -0.0643121   0.0000000), wk =   0.0219780
        k(   85) = (   0.0953092  -0.0551247   0.0000000), wk =   0.0219780
        k(   86) = (   0.0794243  -0.0459372   0.0000000), wk =   0.0219780
        k(   87) = (   0.0635394  -0.0367498   0.0000000), wk =   0.0219780
        k(   88) = (   0.0476546  -0.0275623   0.0000000), wk =   0.0219780
        k(   89) = (   0.0317697  -0.0183749   0.0000000), wk =   0.0219780
        k(   90) = (   0.0158849  -0.0091874   0.0000000), wk =   0.0219780
        k(   91) = (   0.0000000   0.0000000   0.0000000), wk =   0.0219780

     Dense  grid:   533795 G-vectors     FFT dimensions: (  50,  50, 480)

     Smooth grid:   423311 G-vectors     FFT dimensions: (  48,  48, 450)

     Estimated max dynamical RAM per process >       2.37 GB

     Estimated total dynamical RAM >       4.74 GB

     The potential is recalculated from file :
     /scratch/as3359/Ta2CO_bandsdos/Ta.save/charge-density


     negative rho (up, down):  1.110E-04 0.000E+00
     Starting wfcs are   42 randomized atomic wfcs

     Band Structure Calculation
     Davidson diagonalization with overlap
     c_bands:  1 eigenvalues not converged

     ethr =  1.00E-13,  avg # of iterations = 75.9

     total cpu time spent up to now is      871.9 secs

     End of band structure calculation

          k = 0.0000 0.0000 0.0000 ( 53131 PWs)   bands (ev):

   -69.5297 -68.5834 -36.1631 -35.7672 -35.7609 -35.2249 -34.7372 -34.7302
   -21.2510 -21.1447 -21.1411 -21.1404 -21.1282 -21.1271 -21.0959 -20.2876
   -20.2498 -20.2493 -20.2263 -20.2263 -20.2067 -20.1560 -19.6786 -13.1713
    -7.8838  -6.2154  -6.1620  -4.6520  -3.5011  -3.4525  -1.1696  -0.6422
    -0.5563  -0.4212   1.8185   1.8564   2.2642   2.3010   2.3077   4.1068
     4.4383   4.7422

          k = 0.0212 0.0000 0.0000 ( 53124 PWs)   bands (ev):

   -69.5296 -68.5833 -36.1626 -35.7693 -35.7617 -35.2246 -34.7388 -34.7310
   -21.2507 -21.1447 -21.1411 -21.1404 -21.1282 -21.1271 -21.0961 -20.2876
   -20.2498 -20.2494 -20.2263 -20.2262 -20.2065 -20.1561 -19.6763 -13.1681
    -7.8759  -6.2210  -6.1604  -4.6392  -3.5243  -3.4610  -1.1697  -0.6592
    -0.5566  -0.4013   1.8091   1.8627   2.2599   2.3042   2.3302   4.1149
     4.4573   4.7509

          k = 0.0424 0.0001 0.0000 ( 53110 PWs)   bands (ev):

   -69.5292 -68.5829 -36.1609 -35.7763 -35.7638 -35.2238 -34.7442 -34.7329
   -21.2498 -21.1446 -21.1411 -21.1403 -21.1283 -21.1273 -21.0964 -20.2874
   -20.2500 -20.2495 -20.2264 -20.2261 -20.2062 -20.1564 -19.6694 -13.1587
    -7.8523  -6.2397  -6.1525  -4.6024  -3.5971  -3.4804  -1.1714  -0.7074
    -0.5469  -0.3546   1.7789   1.8856   2.2603   2.3084   2.3895   4.1394
     4.5113   4.7772

          k = 0.0636 0.0001 0.0000 ( 53123 PWs)   bands (ev):

   -69.5286 -68.5824 -36.1582 -35.7881 -35.7667 -35.2224 -34.7536 -34.7356
   -21.2483 -21.1444 -21.1413 -21.1400 -21.1285 -21.1275 -21.0971 -20.2871
   -20.2503 -20.2496 -20.2264 -20.2258 -20.2056 -20.1570 -19.6581 -13.1431
    -7.8133  -6.2708  -6.1360  -4.5457  -3.7141  -3.5094  -1.1769  -0.7764
    -0.5279  -0.2912   1.7353   1.9230   2.2653   2.3183   2.4800   4.1802
     4.5927   4.8215

          k = 0.0849 0.0002 0.0000 ( 53127 PWs)   bands (ev):

   -69.5278 -68.5816 -36.1544 -35.8046 -35.7705 -35.2206 -34.7668 -34.7391
   -21.2462 -21.1441 -21.1414 -21.1396 -21.1288 -21.1277 -21.0979 -20.2867
   -20.2507 -20.2497 -20.2266 -20.2255 -20.2048 -20.1578 -19.6427 -13.1213
    -7.7595  -6.3096  -6.1118  -4.4746  -3.8645  -3.5505  -1.1857  -0.8596
    -0.5097  -0.2098   1.6900   1.9705   2.2632   2.3420   2.6022   4.2374
     4.6918   4.8849

          k = 0.1061 0.0002 0.0000 ( 53123 PWs)   bands (ev):

   -69.5267 -68.5806 -36.1496 -35.8253 -35.7753 -35.2184 -34.7833 -34.7434
   -21.2437 -21.1440 -21.1415 -21.1390 -21.1293 -21.1280 -21.0990 -20.2862
   -20.2512 -20.2499 -20.2267 -20.2250 -20.2037 -20.1589 -19.6238 -13.0936
    -7.6917  -6.3511  -6.0814  -4.3951  -4.0377  -3.6049  -1.1945  -0.9542
    -0.4995  -0.1085   1.6530   2.0251   2.2515   2.3786   2.7551   4.3113
     4.8000   4.9682

          k = 0.1273 0.0002 0.0000 ( 53107 PWs)   bands (ev):

   -69.5254 -68.5794 -36.1440 -35.8496 -35.7812 -35.2159 -34.8029 -34.7486
   -21.2407 -21.1440 -21.1413 -21.1384 -21.1299 -21.1282 -21.1003 -20.2856
   -20.2519 -20.2501 -20.2268 -20.2245 -20.2025 -20.1601 -19.6017 -13.0601
    -7.6112  -6.3912  -6.0469  -4.3151  -4.2223  -3.6731  -1.2008  -1.0572
    -0.4974   0.0110   1.6313   2.0846   2.2347   2.4221   2.9354   4.4022
     4.9124   5.0705

          k = 0.1485 0.0003 0.0000 ( 53104 PWs)   bands (ev):

   -69.5239 -68.5780 -36.1374 -35.8770 -35.7882 -35.2132 -34.8251 -34.7548
   -21.2373 -21.1442 -21.1409 -21.1376 -21.1306 -21.1283 -21.1018 -20.2849
   -20.2527 -20.2503 -20.2270 -20.2239 -20.2012 -20.1615 -19.5771 -13.0210
    -7.5193  -6.4267  -6.0108  -4.4204  -4.2301  -3.7534  -1.2161  -1.1528
    -0.4986   0.1451   1.6279   2.1450   2.2207   2.4682   3.1378   4.5104
     5.0293   5.1887

          k = 0.1697 0.0003 0.0000 ( 53057 PWs)   bands (ev):

   -69.5223 -68.5765 -36.1301 -35.9070 -35.7962 -35.2102 -34.8495 -34.7619
   -21.2336 -21.1446 -21.1403 -21.1368 -21.1314 -21.1285 -21.1034 -20.2841
   -20.2535 -20.2506 -20.2271 -20.2233 -20.1996 -20.1630 -19.5507 -12.9765
    -7.4178  -6.4553  -5.9766  -4.6101  -4.1621  -3.8408  -1.3040  -1.1755
    -0.4954   0.2904   1.6410   2.1791   2.2409   2.5152   3.3568   4.6364
     5.1533   5.3190

          k = 0.1909 0.0003 0.0000 ( 53073 PWs)   bands (ev):

   -69.5205 -68.5749 -36.1222 -35.9389 -35.8053 -35.2072 -34.8755 -34.7700
   -21.2297 -21.1450 -21.1395 -21.1359 -21.1322 -21.1286 -21.1051 -20.2833
   -20.2544 -20.2508 -20.2273 -20.2226 -20.1979 -20.1647 -19.5230 -12.9269
    -7.3088  -6.4754  -5.9498  -4.7899  -4.1227  -3.9174  -1.4179  -1.1715
    -0.4794   0.4442   1.6646   2.1827   2.3054   2.5637   3.5866   4.7806
     5.2866   5.4586

          k = 0.2122 0.0004 0.0000 ( 53068 PWs)   bands (ev):

   -69.5186 -68.5731 -36.1138 -35.9722 -35.8156 -35.2041 -34.9027 -34.7790
   -21.2256 -21.1455 -21.1386 -21.1350 -21.1331 -21.1288 -21.1070 -20.2825
   -20.2553 -20.2512 -20.2274 -20.2218 -20.1962 -20.1664 -19.4947 -12.8723
    -7.1952  -6.4860  -5.9380  -4.9493  -4.1558  -3.9399  -1.5294  -1.1689
    -0.4435   0.6045   1.6886   2.1998   2.3768   2.6178   3.8224   4.9431
     5.4299   5.6057

          k = 0.2334 0.0004 0.0000 ( 53074 PWs)   bands (ev):

   -69.5166 -68.5713 -36.1049 -36.0062 -35.8269 -35.2010 -34.9307 -34.7889
   -21.2215 -21.1458 -21.1377 -21.1344 -21.1336 -21.1288 -21.1089 -20.2816
   -20.2563 -20.2515 -20.2275 -20.2211 -20.1943 -20.1683 -19.4663 -12.8132
    -7.0803  -6.4865  -5.9507  -5.0767  -4.2507  -3.9181  -1.6314  -1.1723
    -0.3848   0.7692   1.7028   2.2435   2.4453   2.6846   4.0603   5.1236
     5.5821   5.7586

          k = 0.2546 0.0005 0.0000 ( 53062 PWs)   bands (ev):

   -69.5145 -68.5693 -36.0957 -36.0402 -35.8394 -35.1979 -34.9587 -34.7998
   -21.2174 -21.1461 -21.1369 -21.1348 -21.1331 -21.1287 -21.1108 -20.2806
   -20.2572 -20.2519 -20.2276 -20.2203 -20.1924 -20.1702 -19.4383 -12.7498
    -6.9689  -6.4771  -5.9943  -5.1632  -4.3639  -3.8939  -1.7185  -1.1818
    -0.3048   0.9356   1.7035   2.3154   2.5063   2.7727   4.2973   5.3212
     5.7386   5.9162

          k = 0.2758 0.0005 0.0000 ( 53064 PWs)   bands (ev):

   -69.5124 -68.5674 -36.0868 -36.0733 -35.8530 -35.1949 -34.9865 -34.8115
   -21.2133 -21.1464 -21.1367 -21.1350 -21.1322 -21.1285 -21.1128 -20.2797
   -20.2582 -20.2523 -20.2277 -20.2195 -20.1904 -20.1721 -19.4113 -12.6827
    -6.8669  -6.4609  -6.0622  -5.2090  -4.4803  -3.8806  -1.7864  -1.1952
    -0.2074   1.0993   1.6943   2.4081   2.5619   2.8865   4.5313   5.5343
     5.8878   6.0802

          k = 0.2970 0.0005 0.0000 ( 53067 PWs)   bands (ev):

   -69.5103 -68.5654 -36.1068 -36.0765 -35.8677 -35.1920 -35.0134 -34.8241
   -21.2093 -21.1465 -21.1373 -21.1346 -21.1313 -21.1281 -21.1147 -20.2787
   -20.2591 -20.2527 -20.2277 -20.2188 -20.1885 -20.1740 -19.3854 -12.6124
    -6.7812  -6.4507  -6.1274  -5.2254  -4.5933  -3.8815  -1.8318  -1.2102
    -0.0974   1.2525   1.6837   2.5082   2.6229   3.0256   4.7608   5.7605
     6.0094   6.2585

          k = 0.3182 0.0006 0.0000 ( 53067 PWs)   bands (ev):

   -69.5082 -68.5635 -36.1376 -36.0673 -35.8834 -35.1892 -35.0390 -34.8376
   -21.2056 -21.1465 -21.1380 -21.1343 -21.1302 -21.1275 -21.1167 -20.2778
   -20.2600 -20.2532 -20.2277 -20.2181 -20.1865 -20.1759 -19.3611 -12.5396
    -6.7198  -6.4729  -6.1461  -5.2263  -4.6983  -3.8969  -1.8534  -1.2248
     0.0213   1.3794   1.6857   2.5959   2.7081   3.1875   4.9831   5.9955
     6.0856   6.3893

          k = 0.3394 0.0006 0.0000 ( 53057 PWs)   bands (ev):

   -69.5061 -68.5616 -36.1664 -36.0581 -35.9001 -35.1865 -35.0630 -34.8519
   -21.2021 -21.1464 -21.1387 -21.1343 -21.1290 -21.1269 -21.1186 -20.2768
   -20.2608 -20.2537 -20.2277 -20.2175 -20.1846 -20.1778 -19.3383 -12.4652
    -6.6982  -6.5188  -6.1050  -5.2240  -4.7900  -3.9257  -1.8513  -1.2377
     0.1461   1.4542   1.7227   2.6638   2.8240   3.3698   5.1932   6.1097
     6.2292   6.4215

          k = 0.3607 0.0007 0.0000 ( 53045 PWs)   bands (ev):

   -69.5041 -68.5597 -36.1927 -36.0492 -35.9177 -35.1840 -35.0848 -34.8669
   -21.1989 -21.1462 -21.1393 -21.1344 -21.1279 -21.1260 -21.1203 -20.2759
   -20.2615 -20.2542 -20.2276 -20.2169 -20.1829 -20.1795 -19.3173 -12.3903
    -6.7409  -6.5328  -6.0323  -5.2292  -4.8612  -3.9655  -1.8277  -1.2477
     0.2750   1.4723   1.7960   2.7218   2.9560   3.5698   5.3793   6.1083
     6.3672   6.5682

          k = 0.3819 0.0007 0.0000 ( 53012 PWs)   bands (ev):

   -69.5021 -68.5579 -36.2160 -36.0408 -35.9362 -35.1817 -35.1043 -34.8826
   -21.1959 -21.1459 -21.1398 -21.1347 -21.1271 -21.1249 -21.1220 -20.2750
   -20.2621 -20.2547 -20.2274 -20.2164 -20.1821 -20.1803 -19.2980 -12.3159
    -6.8220  -6.5179  -5.9504  -5.2509  -4.9038  -4.0139  -1.7859  -1.2536
     0.4066   1.4620   1.8762   2.7719   3.0923   3.7856   5.5179   6.1082
     6.4227   6.8228

          k = 0.4031 0.0007 0.0000 ( 53000 PWs)   bands (ev):

   -69.5003 -68.5562 -36.2361 -36.0328 -35.9555 -35.1796 -35.1211 -34.8989
   -21.1932 -21.1456 -21.1402 -21.1351 -21.1268 -21.1243 -21.1226 -20.2742
   -20.2627 -20.2553 -20.2273 -20.2161 -20.1834 -20.1790 -19.2804 -12.2434
    -6.9061  -6.4985  -5.8716  -5.2907  -4.9151  -4.0685  -1.7304  -1.2534
     0.5393   1.4419   1.9461   2.8098   3.2224   4.0156   5.5798   6.1323
     6.4898   7.1033

          k = 0.4243 0.0008 0.0000 ( 52974 PWs)   bands (ev):

   -69.4986 -68.5547 -36.2525 -36.0256 -35.9753 -35.1777 -35.1350 -34.9158
   -21.1907 -21.1453 -21.1404 -21.1355 -21.1270 -21.1251 -21.1215 -20.2734
   -20.2631 -20.2558 -20.2270 -20.2158 -20.1849 -20.1775 -19.2645 -12.1739
    -6.9799  -6.4821  -5.8047  -5.3389  -4.9020  -4.1274  -1.6662  -1.2447
     0.6713   1.4194   2.0013   2.8300   3.3352   4.2576   5.5635   6.1702
     6.5954   7.3980

          k = 0.4455 0.0008 0.0000 ( 52969 PWs)   bands (ev):

   -69.4971 -68.5532 -36.2653 -36.0199 -35.9949 -35.1760 -35.1457 -34.9332
   -21.1885 -21.1450 -21.1404 -21.1360 -21.1279 -21.1257 -21.1200 -20.2726
   -20.2635 -20.2564 -20.2267 -20.2156 -20.1863 -20.1761 -19.2501 -12.1090
    -7.0380  -6.4704  -5.7613  -5.3780  -4.8739  -4.1894  -1.5989  -1.2245
     0.8002   1.3977   2.0415   2.8280   3.4217   4.5063   5.4970   6.2052
     6.7325   7.7032

          k = 0.4667 0.0008 0.0000 ( 52955 PWs)   bands (ev):

   -69.4957 -68.5520 -36.2741 -36.0233 -36.0066 -35.1746 -35.1534 -34.9509
   -21.1864 -21.1446 -21.1402 -21.1365 -21.1291 -21.1261 -21.1185 -20.2719
   -20.2637 -20.2570 -20.2264 -20.2155 -20.1877 -20.1749 -19.2373 -12.0497
    -7.0773  -6.4637  -5.7571  -5.3876  -4.8383  -4.2536  -1.5339  -1.1901
     0.9230   1.3783   2.0673   2.8016   3.4773   4.7474   5.4145   6.2406
     6.8732   7.9673

          k = 0.4880 0.0009 0.0000 ( 52922 PWs)   bands (ev):

   -69.4945 -68.5508 -36.2790 -36.0421 -36.0040 -35.1733 -35.1578 -34.9688
   -21.1846 -21.1443 -21.1399 -21.1370 -21.1303 -21.1267 -21.1172 -20.2713
   -20.2638 -20.2576 -20.2261 -20.2155 -20.1889 -20.1737 -19.2259 -11.9970
    -7.0961  -6.4612  -5.7978  -5.3587  -4.8013  -4.3197  -1.4746  -1.1414
     1.0365   1.3623   2.0785   2.7518   3.5029   4.9297   5.3810   6.2818
     6.9926   8.1070

          k = 0.5092 0.0009 0.0000 ( 52906 PWs)   bands (ev):

   -69.4934 -68.5498 -36.2800 -36.0637 -35.9997 -35.1720 -35.1593 -34.9869
   -21.1829 -21.1439 -21.1396 -21.1375 -21.1314 -21.1274 -21.1161 -20.2707
   -20.2638 -20.2582 -20.2257 -20.2156 -20.1899 -20.1728 -19.2159 -11.9519
    -7.0933  -6.4619  -5.8707  -5.3022  -4.7671  -4.3874  -1.4211  -1.0817
     1.1371   1.3508   2.0723   2.6846   3.5040   4.9569   5.5044   6.3279
     7.0795   8.2682

          k = 0.5304 0.0010 0.0000 ( 52898 PWs)   bands (ev):

   -69.4925 -68.5490 -36.2771 -36.0856 -35.9957 -35.1707 -35.1580 -35.0050
   -21.1814 -21.1435 -21.1393 -21.1378 -21.1324 -21.1281 -21.1151 -20.2702
   -20.2637 -20.2588 -20.2253 -20.2158 -20.1908 -20.1720 -19.2073 -11.9146
    -7.0689  -6.4645  -5.9627  -5.2301  -4.7390  -4.4565  -1.3715  -1.0179
     1.2202   1.3466   2.0424   2.6132   3.4886   4.8883   5.7319   6.3743
     7.1363   8.4619

          k = 0.5516 0.0010 0.0000 ( 52890 PWs)   bands (ev):

   -69.4918 -68.5483 -36.2708 -36.1076 -35.9925 -35.1694 -35.1539 -35.0228
   -21.1801 -21.1431 -21.1393 -21.1379 -21.1333 -21.1290 -21.1143 -20.2698
   -20.2634 -20.2594 -20.2249 -20.2161 -20.1916 -20.1713 -19.2002 -11.8853
    -7.0233  -6.4676  -6.0666  -5.1490  -4.7192  -4.5267  -1.3240  -0.9581
     1.2767   1.3585   1.9817   2.5558   3.4652   4.8086   5.9781   6.4168
     7.1727   8.6713

          k = 0.5728 0.0010 0.0000 ( 52858 PWs)   bands (ev):

   -69.4912 -68.5478 -36.2613 -36.1290 -35.9899 -35.1684 -35.1473 -35.0400
   -21.1791 -21.1426 -21.1396 -21.1378 -21.1340 -21.1298 -21.1136 -20.2695
   -20.2631 -20.2600 -20.2246 -20.2163 -20.1922 -20.1708 -19.1946 -11.8638
    -6.9583  -6.4700  -6.1785  -5.0627  -4.7091  -4.5970  -1.2783  -0.9099
     1.3024   1.3906   1.8941   2.5232   3.4407   4.7417   6.2090   6.4536
     7.1993   8.8691

          k = 0.5940 0.0011 0.0000 ( 52844 PWs)   bands (ev):

   -69.4908 -68.5475 -36.2497 -36.1490 -35.9881 -35.1678 -35.1389 -35.0557
   -21.1783 -21.1422 -21.1399 -21.1376 -21.1346 -21.1304 -21.1132 -20.2693
   -20.2627 -20.2606 -20.2243 -20.2165 -20.1926 -20.1705 -19.1905 -11.8493
    -6.8777  -6.4709  -6.2941  -4.9742  -4.7119  -4.6633  -1.2362  -0.8790
     1.3196   1.4181   1.8025   2.5116   3.4200   4.6933   6.3941   6.4888
     7.2257   8.8265

          k = 0.6152 0.0011 0.0000 ( 52833 PWs)   bands (ev):

   -69.4906 -68.5472 -36.2382 -36.1655 -35.9870 -35.1674 -35.1307 -35.0684
   -21.1778 -21.1418 -21.1401 -21.1376 -21.1350 -21.1308 -21.1129 -20.2691
   -20.2623 -20.2611 -20.2241 -20.2167 -20.1928 -20.1703 -19.1880 -11.8412
    -6.7922  -6.4695  -6.4028  -4.8881  -4.7511  -4.6988  -1.2031  -0.8666
     1.3437   1.4178   1.7400   2.5107   3.4065   4.6648   6.4786   6.5499
     7.2548   8.6780

          k = 0.6365 0.0012 0.0000 ( 52824 PWs)   bands (ev):

   -69.4905 -68.5472 -36.2331 -36.1725 -35.9866 -35.1672 -35.1272 -35.0736
   -21.1776 -21.1417 -21.1402 -21.1376 -21.1351 -21.1309 -21.1128 -20.2691
   -20.2621 -20.2614 -20.2241 -20.2167 -20.1929 -20.1702 -19.1871 -11.8384
    -6.7440  -6.4691  -6.4595  -4.8370  -4.7920  -4.7063  -1.1902  -0.8648
     1.3690   1.3962   1.7242   2.5126   3.4022   4.6559   6.4938   6.5867
     7.2713   8.6190

          k = 0.6311-0.0081 0.0000 ( 52826 PWs)   bands (ev):

   -69.4905 -68.5472 -36.2342 -36.1707 -35.9867 -35.1673 -35.1279 -35.0723
   -21.1776 -21.1417 -21.1402 -21.1376 -21.1351 -21.1310 -21.1128 -20.2691
   -20.2622 -20.2613 -20.2241 -20.2167 -20.1929 -20.1702 -19.1873 -11.8393
    -6.7597  -6.4637  -6.4463  -4.8435  -4.7851  -4.7064  -1.1928  -0.8656
     1.3587   1.4061   1.7250   2.5111   3.4031   4.6575   6.4907   6.5755
     7.2649   8.6357

          k = 0.6258-0.0173 0.0000 ( 52812 PWs)   bands (ev):

   -69.4906 -68.5473 -36.2386 -36.1649 -35.9870 -35.1674 -35.1309 -35.0680
   -21.1777 -21.1418 -21.1401 -21.1376 -21.1349 -21.1310 -21.1129 -20.2691
   -20.2624 -20.2610 -20.2241 -20.2167 -20.1928 -20.1703 -19.1880 -11.8411
    -6.8013  -6.4571  -6.4052  -4.8748  -4.7677  -4.6946  -1.2060  -0.8629
     1.3363   1.4309   1.7322   2.5096   3.4066   4.6636   6.4723   6.5588
     7.2485   8.6769

          k = 0.6205-0.0265 0.0000 ( 52812 PWs)   bands (ev):

   -69.4907 -68.5474 -36.2451 -36.1563 -35.9875 -35.1676 -35.1356 -35.0614
   -21.1779 -21.1418 -21.1400 -21.1376 -21.1347 -21.1309 -21.1131 -20.2692
   -20.2627 -20.2607 -20.2242 -20.2166 -20.1927 -20.1704 -19.1891 -11.8438
    -6.8574  -6.4502  -6.3467  -4.9082  -4.7658  -4.6675  -1.2303  -0.8552
     1.3145   1.4595   1.7436   2.5084   3.4127   4.6739   6.4285   6.5486
     7.2251   8.7339

          k = 0.6151-0.0357 0.0000 ( 52826 PWs)   bands (ev):

   -69.4909 -68.5475 -36.2529 -36.1458 -35.9881 -35.1679 -35.1413 -35.0532
   -21.1782 -21.1419 -21.1400 -21.1375 -21.1343 -21.1308 -21.1132 -20.2693
   -20.2630 -20.2604 -20.2243 -20.2165 -20.1926 -20.1705 -19.1906 -11.8473
    -6.9208  -6.4422  -6.2789  -4.9415  -4.7730  -4.6336  -1.2651  -0.8421
     1.2956   1.4899   1.7582   2.5081   3.4208   4.6880   6.3609   6.5450
     7.1981   8.7913

          k = 0.6098-0.0450 0.0000 ( 52810 PWs)   bands (ev):

   -69.4910 -68.5476 -36.2614 -36.1342 -35.9888 -35.1684 -35.1474 -35.0441
   -21.1786 -21.1420 -21.1401 -21.1375 -21.1339 -21.1306 -21.1134 -20.2694
   -20.2632 -20.2601 -20.2244 -20.2164 -20.1924 -20.1706 -19.1924 -11.8514
    -6.9881  -6.4331  -6.2057  -4.9744  -4.7840  -4.5988  -1.3085  -0.8241
     1.2806   1.5202   1.7760   2.5090   3.4309   4.7055   6.2760   6.5442
     7.1707   8.8257

          k = 0.6045-0.0542 0.0000 ( 52824 PWs)   bands (ev):

   -69.4912 -68.5478 -36.2700 -36.1218 -35.9896 -35.1691 -35.1535 -35.0342
   -21.1791 -21.1420 -21.1401 -21.1374 -21.1334 -21.1304 -21.1136 -20.2695
   -20.2635 -20.2597 -20.2245 -20.2163 -20.1922 -20.1708 -19.1947 -11.8559
    -7.0574  -6.4227  -6.1290  -5.0066  -4.7968  -4.5651  -1.3582  -0.8024
     1.2698   1.5483   1.7976   2.5118   3.4424   4.7258   6.1786   6.5442
     7.1446   8.8231

          k = 0.5992-0.0634 0.0000 ( 52829 PWs)   bands (ev):

   -69.4914 -68.5480 -36.2788 -36.1088 -35.9906 -35.1705 -35.1591 -35.0238
   -21.1797 -21.1422 -21.1401 -21.1373 -21.1329 -21.1301 -21.1138 -20.2696
   -20.2637 -20.2594 -20.2247 -20.2161 -20.1919 -20.1709 -19.1972 -11.8610
    -7.1277  -6.4110  -6.0503  -5.0378  -4.8107  -4.5334  -1.4121  -0.7779
     1.2632   1.5722   1.8242   2.5169   3.4551   4.7479   6.0725   6.5443
     7.1206   8.7922

          k = 0.5938-0.0727 0.0000 ( 52860 PWs)   bands (ev):

   -69.4916 -68.5482 -36.2875 -36.0955 -35.9916 -35.1733 -35.1633 -35.0131
   -21.1803 -21.1423 -21.1402 -21.1371 -21.1323 -21.1298 -21.1140 -20.2698
   -20.2640 -20.2591 -20.2249 -20.2159 -20.1917 -20.1711 -19.2002 -11.8663
    -7.1983  -6.3979  -5.9707  -5.0680  -4.8254  -4.5038  -1.4685  -0.7513
     1.2605   1.5904   1.8565   2.5245   3.4684   4.7708   5.9616   6.5444
     7.0988   8.7458

          k = 0.5885-0.0819 0.0000 ( 52868 PWs)   bands (ev):

   -69.4918 -68.5484 -36.2961 -36.0820 -35.9926 -35.1780 -35.1655 -35.0023
   -21.1810 -21.1425 -21.1402 -21.1368 -21.1317 -21.1295 -21.1143 -20.2700
   -20.2642 -20.2587 -20.2251 -20.2156 -20.1914 -20.1713 -19.2034 -11.8719
    -7.2687  -6.3833  -5.8912  -5.0969  -4.8404  -4.4766  -1.5259  -0.7233
     1.2615   1.6026   1.8946   2.5348   3.4820   4.7926   5.8497   6.5442
     7.0790   8.6904

          k = 0.5832-0.0911 0.0000 ( 52870 PWs)   bands (ev):

   -69.4920 -68.5486 -36.3045 -36.0684 -35.9938 -35.1837 -35.1667 -34.9913
   -21.1818 -21.1427 -21.1402 -21.1366 -21.1311 -21.1291 -21.1145 -20.2701
   -20.2645 -20.2584 -20.2254 -20.2154 -20.1911 -20.1715 -19.2069 -11.8777
    -7.3385  -6.3673  -5.8132  -5.1241  -4.8556  -4.4516  -1.5833  -0.6943
     1.2658   1.6097   1.9373   2.5478   3.4955   4.8107   5.7409   6.5439
     7.0610   8.6292

          k = 0.5778-0.1003 0.0000 ( 52872 PWs)   bands (ev):

   -69.4923 -68.5488 -36.3126 -36.0549 -35.9950 -35.1896 -35.1675 -34.9803
   -21.1826 -21.1430 -21.1402 -21.1363 -21.1306 -21.1287 -21.1147 -20.2703
   -20.2647 -20.2581 -20.2256 -20.2152 -20.1908 -20.1717 -19.2106 -11.8836
    -7.4072  -6.3498  -5.7380  -5.1493  -4.8705  -4.4284  -1.6399  -0.6647
     1.2732   1.6130   1.9834   2.5634   3.5085   4.8213   5.6405   6.5434
     7.0444   8.5634

          k = 0.5725-0.1096 0.0000 ( 52874 PWs)   bands (ev):

   -69.4925 -68.5490 -36.3205 -36.0414 -35.9962 -35.1955 -35.1680 -34.9694
   -21.1834 -21.1432 -21.1402 -21.1360 -21.1300 -21.1282 -21.1150 -20.2705
   -20.2649 -20.2578 -20.2258 -20.2149 -20.1904 -20.1719 -19.2146 -11.8895
    -7.4744  -6.3308  -5.6674  -5.1718  -4.8850  -4.4067  -1.6952  -0.6347
     1.2832   1.6143   2.0315   2.5814   3.5203   4.8189   5.5548   6.5427
     7.0289   8.4937

          k = 0.5672-0.1188 0.0000 ( 52889 PWs)   bands (ev):

   -69.4928 -68.5493 -36.3281 -36.0281 -35.9974 -35.2012 -35.1686 -34.9586
   -21.1843 -21.1434 -21.1402 -21.1357 -21.1295 -21.1277 -21.1152 -20.2707
   -20.2651 -20.2574 -20.2260 -20.2147 -20.1901 -20.1721 -19.2187 -11.8955
    -7.5399  -6.3102  -5.6037  -5.1908  -4.8982  -4.3858  -1.7488  -0.6048
     1.2951   1.6151   2.0805   2.6013   3.5307   4.7976   5.4907   6.5417
     7.0144   8.4200

          k = 0.5618-0.1280 0.0000 ( 52896 PWs)   bands (ev):

   -69.4930 -68.5495 -36.3353 -36.0152 -35.9985 -35.2068 -35.1690 -34.9480
   -21.1852 -21.1437 -21.1401 -21.1354 -21.1289 -21.1271 -21.1155 -20.2709
   -20.2654 -20.2572 -20.2262 -20.2144 -20.1898 -20.1723 -19.2229 -11.9013
    -7.6034  -6.2881  -5.5497  -5.2052  -4.9097  -4.3646  -1.8007  -0.5750
     1.3084   1.6170   2.1295   2.6229   3.5390   4.7538   5.4526   6.5404
     7.0009   8.3422

          k = 0.5565-0.1372 0.0000 ( 52898 PWs)   bands (ev):

   -69.4933 -68.5497 -36.3422 -36.0036 -35.9986 -35.2121 -35.1695 -34.9377
   -21.1861 -21.1439 -21.1401 -21.1350 -21.1285 -21.1266 -21.1157 -20.2711
   -20.2656 -20.2569 -20.2264 -20.2142 -20.1894 -20.1726 -19.2272 -11.9071
    -7.6645  -6.2643  -5.5087  -5.2141  -4.9182  -4.3423  -1.8509  -0.5456
     1.3223   1.6214   2.1778   2.6456   3.5447   4.6889   5.4396   6.5385
     6.9885   8.2602

          k = 0.5512-0.1465 0.0000 ( 52900 PWs)   bands (ev):

   -69.4935 -68.5500 -36.3488 -36.0017 -35.9895 -35.2171 -35.1699 -34.9277
   -21.1869 -21.1441 -21.1401 -21.1347 -21.1280 -21.1260 -21.1160 -20.2714
   -20.2657 -20.2566 -20.2266 -20.2139 -20.1890 -20.1728 -19.2316 -11.9126
    -7.7230  -6.2391  -5.4826  -5.2175  -4.9226  -4.3178  -1.8995  -0.5169
     1.3360   1.6295   2.2251   2.6691   3.5471   4.6089   5.4464   6.5357
     6.9775   8.1742

          k = 0.5458-0.1557 0.0000 ( 52904 PWs)   bands (ev):

   -69.4938 -68.5502 -36.3549 -36.0027 -35.9779 -35.2219 -35.1703 -34.9181
   -21.1878 -21.1444 -21.1401 -21.1344 -21.1275 -21.1254 -21.1162 -20.2716
   -20.2659 -20.2563 -20.2268 -20.2137 -20.1887 -20.1730 -19.2359 -11.9180
    -7.7787  -6.2123  -5.4713  -5.2179  -4.9219  -4.2900  -1.9466  -0.4890
     1.3488   1.6423   2.2710   2.6927   3.5455   4.5208   5.4665   6.5319
     6.9682   8.0851

          k = 0.5405-0.1649 0.0000 ( 52914 PWs)   bands (ev):

   -69.4940 -68.5504 -36.3607 -36.0038 -35.9667 -35.2264 -35.1707 -34.9090
   -21.1886 -21.1446 -21.1400 -21.1342 -21.1271 -21.1248 -21.1164 -20.2718
   -20.2661 -20.2561 -20.2270 -20.2135 -20.1884 -20.1732 -19.2401 -11.9232
    -7.8311  -6.1840  -5.4716  -5.2191  -4.9160  -4.2582  -1.9923  -0.4622
     1.3600   1.6604   2.3152   2.7160   3.5391   4.4307   5.4945   6.5267
     6.9610   7.9943

          k = 0.5352-0.1741 0.0000 ( 52908 PWs)   bands (ev):

   -69.4942 -68.5506 -36.3661 -36.0049 -35.9562 -35.2305 -35.1711 -34.9005
   -21.1894 -21.1447 -21.1400 -21.1339 -21.1267 -21.1242 -21.1166 -20.2720
   -20.2662 -20.2559 -20.2272 -20.2133 -20.1880 -20.1734 -19.2442 -11.9280
    -7.8803  -6.1543  -5.4800  -5.2241  -4.9060  -4.2220  -2.0369  -0.4366
     1.3697   1.6838   2.3576   2.7384   3.5270   4.3433   5.5266   6.5199
     6.9563   7.9038

          k = 0.5299-0.1834 0.0000 ( 52920 PWs)   bands (ev):

   -69.4944 -68.5508 -36.3710 -36.0059 -35.9463 -35.2344 -35.1715 -34.8924
   -21.1901 -21.1449 -21.1400 -21.1337 -21.1263 -21.1237 -21.1168 -20.2721
   -20.2664 -20.2557 -20.2273 -20.2131 -20.1877 -20.1736 -19.2482 -11.9326
    -7.9258  -6.1232  -5.4938  -5.2337  -4.8938  -4.1816  -2.0802  -0.4124
     1.3777   1.7119   2.3982   2.7594   3.5083   4.2621   5.5600   6.5115
     6.9544   7.8154

          k = 0.5245-0.1926 0.0000 ( 52894 PWs)   bands (ev):

   -69.4946 -68.5510 -36.3755 -36.0069 -35.9371 -35.2379 -35.1719 -34.8850
   -21.1908 -21.1451 -21.1400 -21.1335 -21.1259 -21.1231 -21.1170 -20.2723
   -20.2665 -20.2555 -20.2275 -20.2129 -20.1874 -20.1737 -19.2519 -11.9368
    -7.9677  -6.0908  -5.5111  -5.2471  -4.8814  -4.1375  -2.1222  -0.3899
     1.3845   1.7439   2.4368   2.7785   3.4824   4.1899   5.5927   6.5018
     6.9556   7.7311

          k = 0.5192-0.2018 0.0000 ( 52890 PWs)   bands (ev):

   -69.4948 -68.5512 -36.3795 -36.0078 -35.9288 -35.2410 -35.1722 -34.8783
   -21.1914 -21.1452 -21.1399 -21.1333 -21.1256 -21.1227 -21.1172 -20.2725
   -20.2666 -20.2553 -20.2276 -20.2127 -20.1871 -20.1739 -19.2554 -11.9407
    -8.0055  -6.0573  -5.5312  -5.2630  -4.8701  -4.0912  -2.1627  -0.3692
     1.3904   1.7788   2.4732   2.7954   3.4495   4.1284   5.6230   6.4910
     6.9598   7.6523

          k = 0.5139-0.2110 0.0000 ( 52890 PWs)   bands (ev):

   -69.4950 -68.5513 -36.3831 -36.0086 -35.9213 -35.2438 -35.1725 -34.8722
   -21.1920 -21.1454 -21.1399 -21.1331 -21.1252 -21.1222 -21.1174 -20.2726
   -20.2668 -20.2552 -20.2277 -20.2126 -20.1869 -20.1740 -19.2586 -11.9441
    -8.0393  -6.0227  -5.5535  -5.2801  -4.8606  -4.0441  -2.2013  -0.3505
     1.3955   1.8152   2.5072   2.8099   3.4104   4.0780   5.6501   6.4798
     6.9666   7.5803

          k = 0.5085-0.2203 0.0000 ( 52868 PWs)   bands (ev):

   -69.4951 -68.5514 -36.3863 -36.0093 -35.9147 -35.2462 -35.1727 -34.8669
   -21.1925 -21.1455 -21.1399 -21.1330 -21.1249 -21.1218 -21.1175 -20.2728
   -20.2668 -20.2550 -20.2278 -20.2124 -20.1867 -20.1741 -19.2614 -11.9472
    -8.0689  -5.9872  -5.5780  -5.2970  -4.8529  -3.9980  -2.2373  -0.3339
     1.4002   1.8519   2.5385   2.8218   3.3672   4.0383   5.6732   6.4688
     6.9756   7.5160

          k = 0.5032-0.2295 0.0000 ( 52875 PWs)   bands (ev):

   -69.4952 -68.5515 -36.3889 -36.0100 -35.9091 -35.2483 -35.1730 -34.8623
   -21.1929 -21.1456 -21.1399 -21.1328 -21.1247 -21.1215 -21.1176 -20.2729
   -20.2669 -20.2549 -20.2279 -20.2123 -20.1865 -20.1743 -19.2639 -11.9498
    -8.0941  -5.9509  -5.6046  -5.3128  -4.8470  -3.9547  -2.2702  -0.3197
     1.4043   1.8873   2.5665   2.8312   3.3226   4.0082   5.6920   6.4587
     6.9862   7.4600

          k = 0.4979-0.2387 0.0000 ( 52871 PWs)   bands (ev):

   -69.4953 -68.5516 -36.3911 -36.0105 -35.9044 -35.2500 -35.1732 -34.8585
   -21.1932 -21.1457 -21.1399 -21.1327 -21.1245 -21.1212 -21.1177 -20.2730
   -20.2670 -20.2548 -20.2280 -20.2122 -20.1863 -20.1743 -19.2660 -11.9520
    -8.1149  -5.9142  -5.6333  -5.3266  -4.8427  -3.9161  -2.2990  -0.3079
     1.4079   1.9198   2.5907   2.8384   3.2799   3.9859   5.7065   6.4499
     6.9974   7.4128

          k = 0.4925-0.2479 0.0000 ( 52864 PWs)   bands (ev):

   -69.4954 -68.5517 -36.3928 -36.0109 -35.9008 -35.2513 -35.1733 -34.8556
   -21.1935 -21.1457 -21.1399 -21.1327 -21.1243 -21.1210 -21.1178 -20.2731
   -20.2670 -20.2547 -20.2280 -20.2122 -20.1862 -20.1744 -19.2676 -11.9537
    -8.1311  -5.8772  -5.6640  -5.3379  -4.8396  -3.8839  -2.3227  -0.2987
     1.4108   1.9477   2.6103   2.8438   3.2423   3.9702   5.7171   6.4428
     7.0081   7.3749

          k = 0.4872-0.2572 0.0000 ( 52850 PWs)   bands (ev):

   -69.4955 -68.5518 -36.3940 -36.0112 -35.8982 -35.2523 -35.1734 -34.8535
   -21.1937 -21.1458 -21.1399 -21.1326 -21.1242 -21.1208 -21.1179 -20.2731
   -20.2671 -20.2547 -20.2281 -20.2121 -20.1861 -20.1745 -19.2688 -11.9549
    -8.1428  -5.8402  -5.6964  -5.3461  -4.8376  -3.8596  -2.3405  -0.2920
     1.4130   1.9693   2.6248   2.8475   3.2128   3.9597   5.7241   6.4377
     7.0173   7.3470

          k = 0.4819-0.2664 0.0000 ( 52839 PWs)   bands (ev):

   -69.4955 -68.5518 -36.3948 -36.0113 -35.8966 -35.2529 -35.1735 -34.8522
   -21.1938 -21.1458 -21.1398 -21.1326 -21.1241 -21.1207 -21.1180 -20.2731
   -20.2671 -20.2547 -20.2281 -20.2121 -20.1860 -20.1745 -19.2695 -11.9556
    -8.1498  -5.8038  -5.7301  -5.3512  -4.8364  -3.8445  -2.3516  -0.2880
     1.4144   1.9830   2.6337   2.8498   3.1938   3.9538   5.7281   6.4346
     7.0235   7.3298

          k = 0.4765-0.2756 0.0000 ( 52820 PWs)   bands (ev):

   -69.4955 -68.5518 -36.3950 -36.0114 -35.8960 -35.2531 -35.1735 -34.8518
   -21.1939 -21.1458 -21.1398 -21.1326 -21.1241 -21.1207 -21.1180 -20.2732
   -20.2671 -20.2547 -20.2281 -20.2121 -20.1860 -20.1745 -19.2697 -11.9559
    -8.1521  -5.7748  -5.7582  -5.3528  -4.8360  -3.8393  -2.3554  -0.2866
     1.4149   1.9877   2.6367   2.8506   3.1873   3.9518   5.7294   6.4336
     7.0257   7.3239

          k = 0.4607-0.2664 0.0000 ( 52840 PWs)   bands (ev):

   -69.4956 -68.5519 -36.3934 -36.0118 -35.8957 -35.2518 -35.1736 -34.8514
   -21.1939 -21.1458 -21.1398 -21.1327 -21.1241 -21.1207 -21.1181 -20.2732
   -20.2671 -20.2546 -20.2281 -20.2121 -20.1859 -20.1746 -19.2702 -11.9613
    -8.1425  -5.7751  -5.7735  -5.3365  -4.8383  -3.8410  -2.3548  -0.2994
     1.4084   1.9862   2.6255   2.8462   3.1745   3.9504   5.7388   6.4175
     7.0313   7.3319

          k = 0.4448-0.2572 0.0000 ( 52840 PWs)   bands (ev):

   -69.4959 -68.5522 -36.3886 -36.0130 -35.8946 -35.2479 -35.1738 -34.8504
   -21.1941 -21.1457 -21.1396 -21.1329 -21.1241 -21.1207 -21.1185 -20.2733
   -20.2669 -20.2546 -20.2281 -20.2122 -20.1857 -20.1749 -19.2717 -11.9773
    -8.1139  -5.8179  -5.7700  -5.2962  -4.8437  -3.8458  -2.3530  -0.3371
     1.3894   1.9823   2.5927   2.8329   3.1362   3.9465   5.7630   6.3720
     7.0476   7.3541

          k = 0.4289-0.2481 0.0000 ( 52882 PWs)   bands (ev):

   -69.4963 -68.5526 -36.3806 -36.0150 -35.8928 -35.2416 -35.1741 -34.8488
   -21.1943 -21.1456 -21.1393 -21.1333 -21.1242 -21.1207 -21.1191 -20.2735
   -20.2667 -20.2545 -20.2281 -20.2124 -20.1853 -20.1753 -19.2742 -12.0034
    -8.0670  -5.8747  -5.7643  -5.2495  -4.8472  -3.8536  -2.3494  -0.3979
     1.3587   1.9769   2.5394   2.8113   3.0736   3.9404   5.7899   6.3057
     7.0728   7.3808

          k = 0.4130-0.2389 0.0000 ( 52918 PWs)   bands (ev):

   -69.4970 -68.5532 -36.3696 -36.0178 -35.8903 -35.2328 -35.1745 -34.8466
   -21.1946 -21.1454 -21.1389 -21.1338 -21.1243 -21.1206 -21.1200 -20.2737
   -20.2664 -20.2544 -20.2281 -20.2127 -20.1848 -20.1759 -19.2779 -12.0386
    -8.0031  -5.9367  -5.7568  -5.2152  -4.8383  -3.8641  -2.3433  -0.4787
     1.3177   1.9715   2.4672   2.7818   2.9899   3.9321   5.7970   6.2360
     7.1048   7.3713

          k = 0.3971-0.2297 0.0000 ( 52964 PWs)   bands (ev):

   -69.4978 -68.5539 -36.3556 -36.0213 -35.8871 -35.2218 -35.1748 -34.8437
   -21.1951 -21.1452 -21.1384 -21.1345 -21.1245 -21.1210 -21.1204 -20.2740
   -20.2660 -20.2542 -20.2281 -20.2131 -20.1842 -20.1767 -19.2827 -12.0817
    -7.9240  -5.9991  -5.7479  -5.2100  -4.8052  -3.8767  -2.3337  -0.5755
     1.2676   1.9674   2.3766   2.7453   2.8907   3.9204   5.7555   6.1868
     7.1408   7.2729

          k = 0.3812-0.2205 0.0000 ( 52970 PWs)   bands (ev):

   -69.4988 -68.5548 -36.3387 -36.0255 -35.8833 -35.2091 -35.1747 -34.8403
   -21.1958 -21.1449 -21.1379 -21.1352 -21.1248 -21.1222 -21.1202 -20.2743
   -20.2656 -20.2540 -20.2282 -20.2135 -20.1834 -20.1776 -19.2889 -12.1315
    -7.8316  -6.0588  -5.7383  -5.2388  -4.7453  -3.8908  -2.3197  -0.6840
     1.2097   1.9654   2.2676   2.7028   2.7836   3.9036   5.6560   6.1640
     7.1272   7.1788

          k = 0.3654-0.2113 0.0000 ( 52982 PWs)   bands (ev):

   -69.4999 -68.5559 -36.3192 -36.0304 -35.8789 -35.1961 -35.1729 -34.8363
   -21.1967 -21.1447 -21.1372 -21.1360 -21.1252 -21.1234 -21.1198 -20.2748
   -20.2650 -20.2538 -20.2282 -20.2139 -20.1824 -20.1787 -19.2964 -12.1867
    -7.7286  -6.1136  -5.7286  -5.2951  -4.6663  -3.9056  -2.3004  -0.7995
     1.1452   1.9657   2.1395   2.6553   2.6766   3.8796   5.5165   6.1482
     6.9726   7.2162

          k = 0.3495-0.2021 0.0000 ( 53028 PWs)   bands (ev):

   -69.5012 -68.5571 -36.2971 -36.0360 -35.8739 -35.1877 -35.1645 -34.8318
   -21.1977 -21.1446 -21.1367 -21.1366 -21.1257 -21.1247 -21.1193 -20.2752
   -20.2644 -20.2536 -20.2282 -20.2145 -20.1814 -20.1799 -19.3055 -12.2460
    -7.6180  -6.1615  -5.7196  -5.3706  -4.5766  -3.9200  -2.2749  -0.9173
     1.0751   1.9672   1.9931   2.5759   2.6049   3.8470   5.3561   6.1221
     6.8198   7.2518

          k = 0.3336-0.1929 0.0000 ( 53026 PWs)   bands (ev):

   -69.5026 -68.5583 -36.2728 -36.0421 -35.8685 -35.1858 -35.1479 -34.8269
   -21.1991 -21.1446 -21.1373 -21.1359 -21.1263 -21.1260 -21.1187 -20.2758
   -20.2637 -20.2533 -20.2282 -20.2151 -20.1812 -20.1803 -19.3162 -12.3081
    -7.5038  -6.2004  -5.7124  -5.4588  -4.4822  -3.9331  -2.2429  -1.0332
     1.0005   1.8306   1.9685   2.4852   2.5533   3.8044   5.1858   6.0777
     6.6726   7.1717

          k = 0.3177-0.1837 0.0000 ( 53046 PWs)   bands (ev):

   -69.5041 -68.5597 -36.2464 -36.0487 -35.8626 -35.1863 -35.1273 -34.8216
   -21.2008 -21.1447 -21.1376 -21.1353 -21.1273 -21.1269 -21.1179 -20.2764
   -20.2630 -20.2531 -20.2281 -20.2157 -20.1826 -20.1790 -19.3286 -12.3719
    -7.3911  -6.2279  -5.7079  -5.5538  -4.3873  -3.9436  -2.2041  -1.1429
     0.9226   1.6563   1.9666   2.4057   2.5034   3.7513   5.0115   6.0123
     6.5340   6.9485

          k = 0.3018-0.1746 0.0000 ( 53080 PWs)   bands (ev):

   -69.5057 -68.5612 -36.2181 -36.0558 -35.8563 -35.1876 -35.1046 -34.8160
   -21.2027 -21.1450 -21.1376 -21.1347 -21.1285 -21.1275 -21.1169 -20.2770
   -20.2622 -20.2528 -20.2281 -20.2164 -20.1841 -20.1777 -19.3428 -12.4365
    -7.2866  -6.2425  -5.7071  -5.6481  -4.2955  -3.9502  -2.1585  -1.2427
     0.8423   1.4747   1.9583   2.3370   2.4583   3.6873   4.8366   5.9253
     6.4065   6.7364

          k = 0.2859-0.1654 0.0000 ( 53062 PWs)   bands (ev):

   -69.5074 -68.5628 -36.1884 -36.0632 -35.8498 -35.1893 -35.0803 -34.8101
   -21.2050 -21.1454 -21.1374 -21.1342 -21.1298 -21.1282 -21.1158 -20.2777
   -20.2614 -20.2525 -20.2281 -20.2171 -20.1857 -20.1762 -19.3588 -12.5010
    -7.1981  -6.2454  -5.7307  -5.7107  -4.2101  -3.9520  -2.1063  -1.3289
     0.7605   1.2898   1.9402   2.2785   2.4214   3.6127   4.6629   5.8172
     6.2909   6.5362

          k = 0.2700-0.1562 0.0000 ( 53057 PWs)   bands (ev):

   -69.5091 -68.5643 -36.1575 -36.0708 -35.8429 -35.1913 -35.0549 -34.8040
   -21.2077 -21.1458 -21.1370 -21.1338 -21.1310 -21.1288 -21.1146 -20.2784
   -20.2605 -20.2522 -20.2280 -20.2178 -20.1873 -20.1748 -19.3764 -12.5647
    -7.1331  -6.2470  -5.7819  -5.7196  -4.1345  -3.9479  -2.0481  -1.3982
     0.6781   1.1052   1.9104   2.2296   2.3948   3.5282   4.4912   5.6913
     6.1826   6.3502

          k = 0.2542-0.1470 0.0000 ( 53070 PWs)   bands (ev):

   -69.5109 -68.5660 -36.1257 -36.0785 -35.8360 -35.1934 -35.0287 -34.7977
   -21.2105 -21.1461 -21.1365 -21.1336 -21.1321 -21.1292 -21.1133 -20.2791
   -20.2597 -20.2520 -20.2279 -20.2185 -20.1890 -20.1732 -19.3957 -12.6269
    -7.0962  -6.2658  -5.7767  -5.7340  -4.0723  -3.9373  -1.9842  -1.4477
     0.5957   0.9237   1.8697   2.1895   2.3781   3.4345   4.3216   5.5527
     6.0684   6.1847

          k = 0.2383-0.1378 0.0000 ( 53072 PWs)   bands (ev):

   -69.5127 -68.5676 -36.0952 -36.0845 -35.8289 -35.1958 -35.0019 -34.7913
   -21.2137 -21.1463 -21.1361 -21.1337 -21.1330 -21.1296 -21.1119 -20.2799
   -20.2588 -20.2517 -20.2279 -20.2193 -20.1906 -20.1717 -19.4165 -12.6872
    -7.0883  -6.3082  -5.7540  -5.7064  -4.0267  -3.9199  -1.9149  -1.4758
     0.5140   0.7476   1.8210   2.1575   2.3692   3.3329   4.1537   5.4070
     5.9330   6.0457

          k = 0.2224-0.1286 0.0000 ( 53086 PWs)   bands (ev):

   -69.5144 -68.5693 -36.0954 -36.0595 -35.8218 -35.1982 -34.9750 -34.7850
   -21.2170 -21.1463 -21.1359 -21.1340 -21.1336 -21.1297 -21.1104 -20.2806
   -20.2579 -20.2514 -20.2278 -20.2200 -20.1923 -20.1701 -19.4385 -12.7450
    -7.1073  -6.3601  -5.7792  -5.5862  -3.9998  -3.8958  -1.8403  -1.4818
     0.4333   0.5790   1.7686   2.1327   2.3649   3.2250   3.9872   5.2591
     5.7846   5.9190

          k = 0.2065-0.1194 0.0000 ( 53082 PWs)   bands (ev):

   -69.5162 -68.5709 -36.1030 -36.0272 -35.8148 -35.2007 -34.9482 -34.7787
   -21.2205 -21.1463 -21.1364 -21.1345 -21.1334 -21.1297 -21.1089 -20.2814
   -20.2570 -20.2512 -20.2276 -20.2207 -20.1939 -20.1685 -19.4615 -12.8001
    -7.1498  -6.4060  -5.8092  -5.4339  -3.9929  -3.8656  -1.7604  -1.4673
     0.3540   0.4192   1.7170   2.1144   2.3625   3.1123   3.8215   5.1130
     5.6376   5.7911

          k = 0.1906-0.1102 0.0000 ( 53092 PWs)   bands (ev):

   -69.5179 -68.5725 -36.1106 -35.9951 -35.8080 -35.2033 -34.9218 -34.7725
   -21.2240 -21.1461 -21.1372 -21.1351 -21.1329 -21.1295 -21.1074 -20.2822
   -20.2561 -20.2509 -20.2275 -20.2215 -20.1955 -20.1670 -19.4853 -12.8521
    -7.2111  -6.4382  -5.8429  -5.2618  -4.0055  -3.8301  -1.6754  -1.4350
     0.2694   0.2766   1.6702   2.1013   2.3598   2.9968   3.6565   4.9718
     5.4974   5.6616

          k = 0.1747-0.1011 0.0000 ( 53068 PWs)   bands (ev):

   -69.5196 -68.5741 -36.1181 -35.9638 -35.8013 -35.2059 -34.8961 -34.7666
   -21.2275 -21.1458 -21.1380 -21.1358 -21.1322 -21.1294 -21.1059 -20.2829
   -20.2552 -20.2507 -20.2274 -20.2221 -20.1971 -20.1654 -19.5093 -12.9008
    -7.2854  -6.4548  -5.8792  -5.0778  -4.0358  -3.7903  -1.5868  -1.3884
     0.1316   0.2001   1.6314   2.0922   2.3555   2.8809   3.4924   4.8380
     5.3658   5.5335

          k = 0.1588-0.0919 0.0000 ( 53094 PWs)   bands (ev):

   -69.5212 -68.5755 -36.1252 -35.9337 -35.7950 -35.2085 -34.8715 -34.7609
   -21.2310 -21.1455 -21.1388 -21.1364 -21.1315 -21.1292 -21.1044 -20.2836
   -20.2544 -20.2505 -20.2272 -20.2228 -20.1986 -20.1640 -19.5333 -12.9459
    -7.3670  -6.4568  -5.9172  -4.8877  -4.0805  -3.7477  -1.4979  -1.3297
     0.0056   0.1255   1.6036   2.0854   2.3488   2.7672   3.3302   4.7133
     5.2431   5.4092

          k = 0.1430-0.0827 0.0000 ( 53109 PWs)   bands (ev):

   -69.5227 -68.5769 -36.1318 -35.9051 -35.7890 -35.2110 -34.8482 -34.7555
   -21.2343 -21.1452 -21.1396 -21.1371 -21.1307 -21.1290 -21.1030 -20.2843
   -20.2536 -20.2503 -20.2271 -20.2234 -20.2000 -20.1626 -19.5568 -12.9874
    -7.4506  -6.4466  -5.9555  -4.6972  -4.1351  -3.7036  -1.4145  -1.2597
    -0.1075   0.0526   1.5887   2.0788   2.3394   2.6589   3.1715   4.5991
     5.1286   5.2905

          k = 0.1271-0.0735 0.0000 ( 53142 PWs)   bands (ev):

   -69.5241 -68.5782 -36.1380 -35.8784 -35.7835 -35.2135 -34.8265 -34.7505
   -21.2375 -21.1448 -21.1402 -21.1378 -21.1300 -21.1288 -21.1016 -20.2850
   -20.2528 -20.2501 -20.2270 -20.2240 -20.2013 -20.1613 -19.5793 -13.0250
    -7.5323  -6.4265  -5.9930  -4.5154  -4.1910  -3.6595  -1.3425  -1.1788
    -0.2074  -0.0185   1.5877   2.0697   2.3276   2.5599   3.0185   4.4962
     5.0213   5.1789

          k = 0.1112-0.0643 0.0000 ( 53128 PWs)   bands (ev):

   -69.5254 -68.5794 -36.1436 -35.8539 -35.7784 -35.2158 -34.8066 -34.7460
   -21.2404 -21.1446 -21.1408 -21.1383 -21.1294 -21.1287 -21.1004 -20.2856
   -20.2521 -20.2499 -20.2268 -20.2245 -20.2025 -20.1601 -19.6005 -13.0586
    -7.6090  -6.3990  -6.0286  -4.3840  -4.2064  -3.6169  -1.2847  -1.0903
    -0.2940  -0.0874   1.6008   2.0546   2.3138   2.4749   2.8738   4.4051
     4.9195   5.0765

          k = 0.0953-0.0551 0.0000 ( 53128 PWs)   bands (ev):

   -69.5265 -68.5804 -36.1487 -35.8319 -35.7739 -35.2180 -34.7889 -34.7419
   -21.2431 -21.1444 -21.1411 -21.1389 -21.1288 -21.1286 -21.0992 -20.2861
   -20.2515 -20.2498 -20.2267 -20.2250 -20.2035 -20.1591 -19.6198 -13.0880
    -7.6786  -6.3664  -6.0615  -4.3938  -4.0912  -3.5770  -1.2403  -1.0000
    -0.3672  -0.1535   1.6266   2.0303   2.2990   2.4085   2.7403   4.3260
     4.8213   4.9861

          k = 0.0794-0.0459 0.0000 ( 53115 PWs)   bands (ev):

   -69.5275 -68.5813 -36.1530 -35.8128 -35.7700 -35.2200 -34.7735 -34.7384
   -21.2454 -21.1443 -21.1413 -21.1393 -21.1285 -21.1283 -21.0983 -20.2865
   -20.2510 -20.2496 -20.2266 -20.2254 -20.2045 -20.1581 -19.6370 -13.1132
    -7.7395  -6.3311  -6.0907  -4.4535  -3.9376  -3.5412  -1.2082  -0.9130
    -0.4276  -0.2161   1.6625   1.9962   2.2842   2.3626   2.6208   4.2590
     4.7261   4.9097

          k = 0.0635-0.0367 0.0000 ( 53140 PWs)   bands (ev):

   -69.5283 -68.5821 -36.1566 -35.7967 -35.7668 -35.2217 -34.7607 -34.7355
   -21.2474 -21.1444 -21.1413 -21.1397 -21.1284 -21.1279 -21.0974 -20.2869
   -20.2506 -20.2495 -20.2265 -20.2257 -20.2052 -20.1574 -19.6515 -13.1339
    -7.7905  -6.2960  -6.1156  -4.5159  -3.7942  -3.5104  -1.1872  -0.8326
    -0.4755  -0.2743   1.7044   1.9562   2.2709   2.3348   2.5177   4.2042
     4.6363   4.8482

          k = 0.0477-0.0276 0.0000 ( 53140 PWs)   bands (ev):

   -69.5289 -68.5826 -36.1594 -35.7839 -35.7642 -35.2230 -34.7505 -34.7332
   -21.2489 -21.1445 -21.1412 -21.1400 -21.1283 -21.1275 -21.0968 -20.2872
   -20.2502 -20.2494 -20.2264 -20.2260 -20.2059 -20.1568 -19.6632 -13.1502
    -7.8310  -6.2640  -6.1356  -4.5714  -3.6724  -3.4856  -1.1756  -0.7613
    -0.5116  -0.3272   1.7470   1.9169   2.2610   2.3196   2.4326   4.1615
     4.5567   4.8013

          k = 0.0318-0.0184 0.0000 ( 53136 PWs)   bands (ev):

   -69.5294 -68.5831 -36.1615 -35.7747 -35.7623 -35.2240 -34.7431 -34.7316
   -21.2501 -21.1446 -21.1411 -21.1402 -21.1283 -21.1273 -21.0963 -20.2875
   -20.2500 -20.2494 -20.2263 -20.2262 -20.2063 -20.1563 -19.6717 -13.1619
    -7.8602  -6.2381  -6.1501  -4.6148  -3.5795  -3.4674  -1.1708  -0.7018
    -0.5367  -0.3730   1.7841   1.8846   2.2566   2.3120   2.3667   4.1311
     4.4934   4.7683

          k = 0.0159-0.0092 0.0000 ( 53128 PWs)   bands (ev):

   -69.5297 -68.5833 -36.1627 -35.7691 -35.7612 -35.2247 -34.7387 -34.7305
   -21.2507 -21.1447 -21.1411 -21.1404 -21.1282 -21.1271 -21.0960 -20.2876
   -20.2498 -20.2493 -20.2263 -20.2263 -20.2066 -20.1560 -19.6769 -13.1689
    -7.8779  -6.2212  -6.1590  -4.6425  -3.5210  -3.4563  -1.1696  -0.6589
    -0.5515  -0.4074   1.8095   1.8636   2.2591   2.3087   2.3207   4.1128
     4.4525   4.7487

          k = 0.0000 0.0000 0.0000 ( 53131 PWs)   bands (ev):

   -69.5297 -68.5834 -36.1631 -35.7672 -35.7609 -35.2249 -34.7372 -34.7302
   -21.2510 -21.1447 -21.1411 -21.1404 -21.1282 -21.1271 -21.0959 -20.2876
   -20.2498 -20.2493 -20.2263 -20.2263 -20.2067 -20.1560 -19.6786 -13.1713
    -7.8838  -6.2154  -6.1620  -4.6520  -3.5011  -3.4525  -1.1696  -0.6422
    -0.5563  -0.4212   1.8185   1.8564   2.2642   2.3010   2.3077   4.1068
     4.4383   4.7422

     Writing output data file /scratch/as3359/Ta2CO_bandsdos/Ta.save/
 
     init_run     :     11.89s CPU      8.49s WALL (       1 calls)
     electrons    :   1704.15s CPU    862.94s WALL (       1 calls)

     Called by init_run:
     wfcinit      :      0.01s CPU      0.01s WALL (       1 calls)
     potinit      :      0.49s CPU      0.29s WALL (       1 calls)
     hinit0       :      8.76s CPU      6.42s WALL (       1 calls)

     Called by electrons:
     c_bands      :   1704.15s CPU    862.94s WALL (       1 calls)
     v_of_rho     :      0.37s CPU      0.21s WALL (       1 calls)
     newd         :      2.29s CPU      1.43s WALL (       1 calls)

     Called by c_bands:
     init_us_2    :      1.40s CPU      0.71s WALL (      91 calls)
     cegterg      :   1649.04s CPU    834.12s WALL (     390 calls)

     Called by *egterg:
     cdiaghg      :     23.81s CPU     12.18s WALL (    6995 calls)
     h_psi        :   1191.67s CPU    604.23s WALL (    7385 calls)
     s_psi        :     75.75s CPU     37.90s WALL (    7385 calls)
     g_psi        :     11.90s CPU      5.97s WALL (    6904 calls)

     Called by h_psi:
     h_psi:calbec :     56.86s CPU     28.52s WALL (    7385 calls)
     vloc_psi     :   1043.96s CPU    529.74s WALL (    7385 calls)
     add_vuspsi   :     79.54s CPU     39.81s WALL (    7385 calls)

     General routines
     calbec       :     56.79s CPU     28.49s WALL (    7385 calls)
     fft          :      0.21s CPU      0.11s WALL (      13 calls)
     ffts         :      0.01s CPU      0.01s WALL (       1 calls)
     fftw         :    865.75s CPU    440.11s WALL (  255334 calls)
     interpolate  :      0.04s CPU      0.02s WALL (       1 calls)
     davcio       :      1.03s CPU      1.08s WALL (     182 calls)
 
     Parallel routines
 
     PWSCF        :  28m45.81s CPU  14m40.56s WALL

 
   This run was terminated on:  18: 8:57  16Apr2022            

=------------------------------------------------------------------------------=
   JOB DONE.
=------------------------------------------------------------------------------=
