
     Program PWSCF v.6.8 starts on  7Apr2022 at 20:13:20 

     This program is part of the open-source Quantum ESPRESSO suite
     for quantum simulation of materials; please cite
         "P. Giannozzi et al., J. Phys.:Condens. Matter 21 395502 (2009);
         "P. Giannozzi et al., J. Phys.:Condens. Matter 29 465901 (2017);
         "P. Giannozzi et al., J. Chem. Phys. 152 154105 (2020);
          URL http://www.quantum-espresso.org", 
     in publications or presentations arising from this work. More details at
     http://www.quantum-espresso.org/quote

     Parallel version (MPI & OpenMP), running on       4 processor cores
     Number of MPI processes:                 2
     Threads/MPI process:                     2

     MPI processes distributed on     1 nodes
     R & G space division:  proc/nbgrp/npool/nimage =       2
     124478 MiB available memory on the printing compute node when the environment starts
 
     Waiting for input...
     Reading input from standard input

     Current dimensions of program PWSCF are:
     Max number of different atomic species (ntypx) = 10
     Max number of k-points (npk) =  40000
     Max angular momentum in pseudopotentials (lmaxx) =  4
     file Ta.pbesol-spfn-rrkjus_psl.1.0.0.UPF: wavefunction(s)  5S 5P renormalized

     Subspace diagonalization in iterative solution of the eigenvalue problem:
     a serial algorithm will be used

 
     Parallelization info
     --------------------
     sticks:   dense  smooth     PW     G-vecs:    dense   smooth      PW
     Min         817     324    102               253373    64100   11528
     Max         818     325    105               253376    64139   11529
     Sum        1635     649    207               506749   128239   23057
 
     Using Slab Decomposition
 


     bravais-lattice index     =            0
     lattice parameter (alat)  =       5.5500  a.u.
     unit-cell volume          =    1619.1137 (a.u.)^3
     number of atoms/cell      =            4
     number of atomic types    =            3
     number of electrons       =        64.00
     number of Kohn-Sham states=           38
     kinetic-energy cutoff     =      70.0000  Ry
     charge density cutoff     =     700.0000  Ry
     scf convergence threshold =      1.0E-12
     mixing beta               =       0.7000
     number of iterations used =            8  plain     mixing
     Exchange-correlation= PBESOL
                           (   1   4  10   8   0   0   0)

     celldm(1)=   5.550000  celldm(2)=   0.000000  celldm(3)=   0.000000
     celldm(4)=   0.000000  celldm(5)=   0.000000  celldm(6)=   0.000000

     crystal axes: (cart. coord. in units of alat)
               a(1) = (   1.047458  -0.003042   0.000000 )  
               a(2) = (  -0.525368   0.905721   0.000000 )  
               a(3) = (   0.000000   0.000000  10.000000 )  

     reciprocal axes: (cart. coord. in units 2 pi/alat)
               b(1) = (  0.956304  0.554710  0.000000 )  
               b(2) = (  0.003212  1.105956  0.000000 )  
               b(3) = (  0.000000  0.000000  0.100000 )  


     PseudoPot. # 1 for Ta read from file:
     /shared/home/as3359/pseudo/Ta.pbesol-spfn-rrkjus_psl.1.0.0.UPF
     MD5 check sum: f099565ffaca9b150a52e9412a28e20b
     Pseudo is Ultrasoft + core correction, Zval = 27.0
     Generated using &quot;atomic&quot; code by A. Dal Corso  v.6.3
     Using radial grid of 1273 points,  8 beta functions with: 
                l(1) =   0
                l(2) =   0
                l(3) =   1
                l(4) =   1
                l(5) =   2
                l(6) =   2
                l(7) =   3
                l(8) =   3
     Q(r) pseudized with 0 coefficients 


     PseudoPot. # 2 for C  read from file:
     /shared/home/as3359/pseudo/C.pbesol-n-rrkjus_psl.1.0.0.UPF
     MD5 check sum: 05995be603a8a7c99da3dc4413f31573
     Pseudo is Ultrasoft + core correction, Zval =  4.0
     Generated using &quot;atomic&quot; code by A. Dal Corso  v.6.3MaX
     Using radial grid of 1073 points,  4 beta functions with: 
                l(1) =   0
                l(2) =   0
                l(3) =   1
                l(4) =   1
     Q(r) pseudized with 0 coefficients 


     PseudoPot. # 3 for O  read from file:
     /shared/home/as3359/pseudo/O.pbesol-n-rrkjus_psl.1.0.0.UPF
     MD5 check sum: dd9bad2534826f832ffc9296591fc5de
     Pseudo is Ultrasoft + core correction, Zval =  6.0
     Generated using &quot;atomic&quot; code by A. Dal Corso  v.6.3MaX
     Using radial grid of 1095 points,  4 beta functions with: 
                l(1) =   0
                l(2) =   0
                l(3) =   1
                l(4) =   1
     Q(r) pseudized with 0 coefficients 


     atomic species   valence    mass     pseudopotential
        Ta            27.00   180.94788     Ta( 1.00)
        C              4.00    12.01070     C ( 1.00)
        O              6.00    15.99940     O ( 1.00)

     No symmetry found



   Cartesian axes

     site n.     atom                  positions (alat units)
         1           C   tau(   1) = (   0.0000000   0.0000000   0.0000000  )
         2           Ta  tau(   2) = (   0.5237441   0.2989654  -0.4007024  )
         3           Ta  tau(   3) = (  -0.0010323   0.6027030   0.4306046  )
         4           O   tau(   4) = (   0.5210222   0.3011869   0.8013113  )

     number of k points=    74  Marzari-Vanderbilt smearing, width (Ry)=  0.0010
                       cart. coord. in units 2pi/alat
        k(    1) = (   0.0000000   0.0000000   0.0000000), wk =   0.0138889
        k(    2) = (   0.0002677   0.0921630   0.0000000), wk =   0.0277778
        k(    3) = (   0.0005353   0.1843261   0.0000000), wk =   0.0277778
        k(    4) = (   0.0008030   0.2764891   0.0000000), wk =   0.0277778
        k(    5) = (   0.0010706   0.3686522   0.0000000), wk =   0.0277778
        k(    6) = (   0.0013383   0.4608152   0.0000000), wk =   0.0277778
        k(    7) = (  -0.0016060  -0.5529782   0.0000000), wk =   0.0138889
        k(    8) = (   0.0796920   0.0462258   0.0000000), wk =   0.0277778
        k(    9) = (   0.0799596   0.1383888   0.0000000), wk =   0.0277778
        k(   10) = (   0.0802273   0.2305519   0.0000000), wk =   0.0277778
        k(   11) = (   0.0804950   0.3227149   0.0000000), wk =   0.0277778
        k(   12) = (   0.0807626   0.4148779   0.0000000), wk =   0.0277778
        k(   13) = (   0.0810303   0.5070410   0.0000000), wk =   0.0277778
        k(   14) = (   0.0780860  -0.5067524   0.0000000), wk =   0.0277778
        k(   15) = (   0.0783537  -0.4145894   0.0000000), wk =   0.0277778
        k(   16) = (   0.0786213  -0.3224264   0.0000000), wk =   0.0277778
        k(   17) = (   0.0788890  -0.2302633   0.0000000), wk =   0.0277778
        k(   18) = (   0.0791566  -0.1381003   0.0000000), wk =   0.0277778
        k(   19) = (   0.0794243  -0.0459372   0.0000000), wk =   0.0277778
        k(   20) = (   0.1593839   0.0924516   0.0000000), wk =   0.0277778
        k(   21) = (   0.1596516   0.1846146   0.0000000), wk =   0.0277778
        k(   22) = (   0.1599193   0.2767777   0.0000000), wk =   0.0277778
        k(   23) = (   0.1601869   0.3689407   0.0000000), wk =   0.0277778
        k(   24) = (   0.1604546   0.4611037   0.0000000), wk =   0.0277778
        k(   25) = (   0.1607223   0.5532668   0.0000000), wk =   0.0277778
        k(   26) = (   0.1577780  -0.4605266   0.0000000), wk =   0.0277778
        k(   27) = (   0.1580456  -0.3683636   0.0000000), wk =   0.0277778
        k(   28) = (   0.1583133  -0.2762006   0.0000000), wk =   0.0277778
        k(   29) = (   0.1585810  -0.1840375   0.0000000), wk =   0.0277778
        k(   30) = (   0.1588486  -0.0918745   0.0000000), wk =   0.0277778
        k(   31) = (   0.1591163   0.0002886   0.0000000), wk =   0.0277778
        k(   32) = (   0.2390759   0.1386774   0.0000000), wk =   0.0277778
        k(   33) = (   0.2393436   0.2308404   0.0000000), wk =   0.0277778
        k(   34) = (   0.2396112   0.3230035   0.0000000), wk =   0.0277778
        k(   35) = (   0.2398789   0.4151665   0.0000000), wk =   0.0277778
        k(   36) = (   0.2401466   0.5073295   0.0000000), wk =   0.0277778
        k(   37) = (   0.2404142   0.5994926   0.0000000), wk =   0.0277778
        k(   38) = (   0.2374699  -0.4143008   0.0000000), wk =   0.0277778
        k(   39) = (   0.2377376  -0.3221378   0.0000000), wk =   0.0277778
        k(   40) = (   0.2380053  -0.2299748   0.0000000), wk =   0.0277778
        k(   41) = (   0.2382729  -0.1378117   0.0000000), wk =   0.0277778
        k(   42) = (   0.2385406  -0.0456487   0.0000000), wk =   0.0277778
        k(   43) = (   0.2388083   0.0465143   0.0000000), wk =   0.0277778
        k(   44) = (   0.3187679   0.1849032   0.0000000), wk =   0.0277778
        k(   45) = (   0.3190355   0.2770662   0.0000000), wk =   0.0277778
        k(   46) = (   0.3193032   0.3692293   0.0000000), wk =   0.0277778
        k(   47) = (   0.3195709   0.4613923   0.0000000), wk =   0.0277778
        k(   48) = (   0.3198385   0.5535553   0.0000000), wk =   0.0277778
        k(   49) = (   0.3201062   0.6457184   0.0000000), wk =   0.0277778
        k(   50) = (   0.3171619  -0.3680751   0.0000000), wk =   0.0277778
        k(   51) = (   0.3174296  -0.2759120   0.0000000), wk =   0.0277778
        k(   52) = (   0.3176972  -0.1837490   0.0000000), wk =   0.0277778
        k(   53) = (   0.3179649  -0.0915859   0.0000000), wk =   0.0277778
        k(   54) = (   0.3182326   0.0005771   0.0000000), wk =   0.0277778
        k(   55) = (   0.3185002   0.0927401   0.0000000), wk =   0.0277778
        k(   56) = (   0.3984599   0.2311290   0.0000000), wk =   0.0277778
        k(   57) = (   0.3987275   0.3232920   0.0000000), wk =   0.0277778
        k(   58) = (   0.3989952   0.4154551   0.0000000), wk =   0.0277778
        k(   59) = (   0.3992628   0.5076181   0.0000000), wk =   0.0277778
        k(   60) = (   0.3995305   0.5997811   0.0000000), wk =   0.0277778
        k(   61) = (   0.3997982   0.6919442   0.0000000), wk =   0.0277778
        k(   62) = (   0.3968539  -0.3218493   0.0000000), wk =   0.0277778
        k(   63) = (   0.3971215  -0.2296862   0.0000000), wk =   0.0277778
        k(   64) = (   0.3973892  -0.1375232   0.0000000), wk =   0.0277778
        k(   65) = (   0.3976569  -0.0453601   0.0000000), wk =   0.0277778
        k(   66) = (   0.3979245   0.0468029   0.0000000), wk =   0.0277778
        k(   67) = (   0.3981922   0.1389659   0.0000000), wk =   0.0277778
        k(   68) = (  -0.4781518  -0.2773548   0.0000000), wk =   0.0138889
        k(   69) = (  -0.4778842  -0.1851917   0.0000000), wk =   0.0277778
        k(   70) = (  -0.4776165  -0.0930287   0.0000000), wk =   0.0277778
        k(   71) = (  -0.4773488  -0.0008657   0.0000000), wk =   0.0277778
        k(   72) = (  -0.4770812   0.0912974   0.0000000), wk =   0.0277778
        k(   73) = (  -0.4768135   0.1834604   0.0000000), wk =   0.0277778
        k(   74) = (  -0.4797578  -0.8303330   0.0000000), wk =   0.0138889

     Dense  grid:   506749 G-vectors     FFT dimensions: (  50,  50, 480)

     Smooth grid:   128239 G-vectors     FFT dimensions: (  32,  32, 300)

     Estimated max dynamical RAM per process >       2.72 GB

     Estimated total dynamical RAM >       5.44 GB

     Initial potential from superposition of free atoms

     starting charge   63.99842, renormalised to   64.00000

     negative rho (up, down):  1.038E-04 0.000E+00
     Starting wfcs are   42 randomized atomic wfcs

     total cpu time spent up to now is       15.8 secs

     Self-consistent Calculation

     iteration #  1     ecut=    70.00 Ry     beta= 0.70
     Davidson diagonalization with overlap
     ethr =  1.00E-02,  avg # of iterations =  2.2

     negative rho (up, down):  1.800E-07 0.000E+00

     total cpu time spent up to now is       30.3 secs

     total energy              =   -1404.93677568 Ry
     estimated scf accuracy    <       1.47656237 Ry

     iteration #  2     ecut=    70.00 Ry     beta= 0.70
     Davidson diagonalization with overlap
     ethr =  2.31E-03,  avg # of iterations = 10.1

     negative rho (up, down):  1.352E-05 0.000E+00

     total cpu time spent up to now is       53.3 secs

     total energy              =   -1399.87420313 Ry
     estimated scf accuracy    <      80.90213794 Ry

     iteration #  3     ecut=    70.00 Ry     beta= 0.70
     Davidson diagonalization with overlap
     ethr =  2.31E-03,  avg # of iterations =  9.9

     negative rho (up, down):  4.411E-06 0.000E+00

     total cpu time spent up to now is       77.7 secs

     total energy              =   -1404.26401186 Ry
     estimated scf accuracy    <      27.11156679 Ry

     iteration #  4     ecut=    70.00 Ry     beta= 0.70
     Davidson diagonalization with overlap
     ethr =  2.31E-03,  avg # of iterations =  6.7

     negative rho (up, down):  1.240E-06 0.000E+00

     total cpu time spent up to now is       95.0 secs

     total energy              =   -1405.81455692 Ry
     estimated scf accuracy    <       0.34105789 Ry

     iteration #  5     ecut=    70.00 Ry     beta= 0.70
     Davidson diagonalization with overlap
     ethr =  5.33E-04,  avg # of iterations =  3.8

     negative rho (up, down):  6.131E-06 0.000E+00

     total cpu time spent up to now is      110.4 secs

     total energy              =   -1405.84055007 Ry
     estimated scf accuracy    <       0.11648629 Ry

     iteration #  6     ecut=    70.00 Ry     beta= 0.70
     Davidson diagonalization with overlap
     ethr =  1.82E-04,  avg # of iterations =  2.5

     negative rho (up, down):  1.850E-05 0.000E+00

     total cpu time spent up to now is      124.3 secs

     total energy              =   -1405.83643267 Ry
     estimated scf accuracy    <       0.06795604 Ry

     iteration #  7     ecut=    70.00 Ry     beta= 0.70
     Davidson diagonalization with overlap
     ethr =  1.06E-04,  avg # of iterations =  1.6

     negative rho (up, down):  5.112E-05 0.000E+00

     total cpu time spent up to now is      137.4 secs

     total energy              =   -1405.82757773 Ry
     estimated scf accuracy    <       0.04878725 Ry

     iteration #  8     ecut=    70.00 Ry     beta= 0.70
     Davidson diagonalization with overlap
     ethr =  7.62E-05,  avg # of iterations =  2.3

     negative rho (up, down):  6.120E-05 0.000E+00

     total cpu time spent up to now is      151.1 secs

     total energy              =   -1405.82726938 Ry
     estimated scf accuracy    <       0.01870249 Ry

     iteration #  9     ecut=    70.00 Ry     beta= 0.70
     Davidson diagonalization with overlap
     ethr =  2.92E-05,  avg # of iterations =  2.3

     negative rho (up, down):  6.911E-05 0.000E+00

     total cpu time spent up to now is      164.4 secs

     total energy              =   -1405.82648054 Ry
     estimated scf accuracy    <       0.00922963 Ry

     iteration # 10     ecut=    70.00 Ry     beta= 0.70
     Davidson diagonalization with overlap
     ethr =  1.44E-05,  avg # of iterations =  3.4

     negative rho (up, down):  4.822E-03 0.000E+00

     total cpu time spent up to now is      178.7 secs

     total energy              =   -1405.82697660 Ry
     estimated scf accuracy    <       0.00063402 Ry

     iteration # 11     ecut=    70.00 Ry     beta= 0.70
     Davidson diagonalization with overlap
     ethr =  9.91E-07,  avg # of iterations =  7.2

     negative rho (up, down):  8.959E-05 0.000E+00

     total cpu time spent up to now is      198.2 secs

     total energy              =   -1405.82687813 Ry
     estimated scf accuracy    <       0.00130223 Ry

     iteration # 12     ecut=    70.00 Ry     beta= 0.70
     Davidson diagonalization with overlap
     ethr =  9.91E-07,  avg # of iterations =  3.0

     negative rho (up, down):  9.587E-05 0.000E+00

     total cpu time spent up to now is      212.6 secs

     total energy              =   -1405.82700421 Ry
     estimated scf accuracy    <       0.00003597 Ry

     iteration # 13     ecut=    70.00 Ry     beta= 0.70
     Davidson diagonalization with overlap
     ethr =  5.62E-08,  avg # of iterations =  5.1

     negative rho (up, down):  1.119E-04 0.000E+00

     total cpu time spent up to now is      231.4 secs

     total energy              =   -1405.82701841 Ry
     estimated scf accuracy    <       0.00001411 Ry

     iteration # 14     ecut=    70.00 Ry     beta= 0.70
     Davidson diagonalization with overlap
     ethr =  2.21E-08,  avg # of iterations =  2.3

     negative rho (up, down):  1.088E-04 0.000E+00

     total cpu time spent up to now is      245.5 secs

     total energy              =   -1405.82702034 Ry
     estimated scf accuracy    <       0.00000251 Ry

     iteration # 15     ecut=    70.00 Ry     beta= 0.70
     Davidson diagonalization with overlap
     ethr =  3.93E-09,  avg # of iterations =  4.4

     negative rho (up, down):  1.123E-04 0.000E+00

     total cpu time spent up to now is      261.7 secs

     total energy              =   -1405.82702083 Ry
     estimated scf accuracy    <       0.00000047 Ry

     iteration # 16     ecut=    70.00 Ry     beta= 0.70
     Davidson diagonalization with overlap
     ethr =  7.35E-10,  avg # of iterations =  2.0

     negative rho (up, down):  1.131E-04 0.000E+00

     total cpu time spent up to now is      275.5 secs

     total energy              =   -1405.82702087 Ry
     estimated scf accuracy    <       0.00000003 Ry

     iteration # 17     ecut=    70.00 Ry     beta= 0.70
     Davidson diagonalization with overlap
     ethr =  5.13E-11,  avg # of iterations =  6.0

     negative rho (up, down):  1.129E-04 0.000E+00

     total cpu time spent up to now is      293.7 secs

     total energy              =   -1405.82702090 Ry
     estimated scf accuracy    <       0.00000002 Ry

     iteration # 18     ecut=    70.00 Ry     beta= 0.70
     Davidson diagonalization with overlap
     ethr =  3.14E-11,  avg # of iterations =  2.0

     negative rho (up, down):  1.129E-04 0.000E+00

     total cpu time spent up to now is      307.1 secs

     total energy              =   -1405.82702090 Ry
     estimated scf accuracy    <          7.3E-09 Ry

     iteration # 19     ecut=    70.00 Ry     beta= 0.70
     Davidson diagonalization with overlap
     ethr =  1.13E-11,  avg # of iterations =  4.2

     negative rho (up, down):  1.128E-04 0.000E+00

     total cpu time spent up to now is      322.6 secs

     total energy              =   -1405.82702090 Ry
     estimated scf accuracy    <          2.1E-09 Ry

     iteration # 20     ecut=    70.00 Ry     beta= 0.70
     Davidson diagonalization with overlap
     ethr =  3.24E-12,  avg # of iterations =  2.3

     negative rho (up, down):  1.128E-04 0.000E+00

     total cpu time spent up to now is      336.2 secs

     total energy              =   -1405.82702090 Ry
     estimated scf accuracy    <          6.0E-10 Ry

     iteration # 21     ecut=    70.00 Ry     beta= 0.70
     Davidson diagonalization with overlap
     ethr =  9.40E-13,  avg # of iterations =  2.0

     negative rho (up, down):  1.128E-04 0.000E+00

     total cpu time spent up to now is      350.1 secs

     total energy              =   -1405.82702090 Ry
     estimated scf accuracy    <          9.9E-11 Ry

     iteration # 22     ecut=    70.00 Ry     beta= 0.70
     Davidson diagonalization with overlap
     ethr =  1.54E-13,  avg # of iterations =  4.3

     negative rho (up, down):  1.128E-04 0.000E+00

     total cpu time spent up to now is      366.2 secs

     total energy              =   -1405.82702090 Ry
     estimated scf accuracy    <          4.3E-12 Ry

     iteration # 23     ecut=    70.00 Ry     beta= 0.70
     Davidson diagonalization with overlap
     ethr =  1.00E-13,  avg # of iterations =  1.0

     negative rho (up, down):  1.128E-04 0.000E+00

     total cpu time spent up to now is      378.9 secs

     total energy              =   -1405.82702090 Ry
     estimated scf accuracy    <          1.1E-12 Ry

     iteration # 24     ecut=    70.00 Ry     beta= 0.70
     Davidson diagonalization with overlap
     ethr =  1.00E-13,  avg # of iterations =  1.0

     negative rho (up, down):  1.128E-04 0.000E+00

     total cpu time spent up to now is      391.6 secs

     End of self-consistent calculation

          k = 0.0000 0.0000 0.0000 ( 16117 PWs)   bands (ev):

   -69.0720 -68.1573 -35.8031 -35.3098 -35.3038 -34.8227 -34.2995 -34.2920
   -20.8300 -20.6585 -20.6550 -20.6547 -20.6374 -20.6353 -20.6025 -19.8489
   -19.8085 -19.8028 -19.7865 -19.7863 -19.7698 -19.7080 -19.5846 -13.0436
    -7.8910  -6.2039  -6.1473  -4.5499  -3.3565  -3.3047  -0.9631  -0.3567
    -0.2663  -0.1297   2.2654   2.3073   2.7685   2.8342

          k = 0.0003 0.0922 0.0000 ( 16081 PWs)   bands (ev):

   -69.0689 -68.1545 -35.7899 -35.3634 -35.3200 -34.8159 -34.3428 -34.3040
   -20.8210 -20.6574 -20.6560 -20.6534 -20.6388 -20.6357 -20.6054 -19.8474
   -19.8098 -19.8033 -19.7870 -19.7851 -19.7669 -19.7107 -19.5379 -12.9862
    -7.7355  -6.2924  -6.1109  -4.3300  -3.7671  -3.4344  -1.0042  -0.5955
    -0.2004   0.0898   2.1135   2.4177   2.8091   2.8537

          k = 0.0005 0.1843 0.0000 ( 16029 PWs)   bands (ev):

   -69.0605 -68.1468 -35.7540 -35.5156 -35.3519 -34.8015 -34.4635 -34.3323
   -20.7983 -20.6593 -20.6528 -20.6497 -20.6427 -20.6366 -20.6129 -19.8435
   -19.8137 -19.8047 -19.7881 -19.7819 -19.7595 -19.7178 -19.4227 -12.8217
    -7.3368  -6.4223  -5.9227  -4.7542  -3.9294  -3.6447  -1.2639  -1.0846
     0.2650   0.4251   2.0551   2.5145   2.8713   3.3006

          k = 0.0008 0.2765 0.0000 ( 15973 PWs)   bands (ev):

   -69.0490 -68.1363 -35.7221 -35.6962 -35.3949 -34.7872 -34.6232 -34.3704
   -20.7717 -20.6601 -20.6483 -20.6475 -20.6440 -20.6380 -20.6217 -19.8386
   -19.8189 -19.8064 -19.7891 -19.7775 -19.7496 -19.7272 -19.2975 -12.5657
    -7.0553  -6.2171  -5.7492  -5.6187  -3.8856  -3.8118  -1.6805  -1.2574
     0.8373   1.0770   2.3047   2.6039   2.8826   3.9194

          k = 0.0011 0.3687 0.0000 ( 15986 PWs)   bands (ev):

   -69.0374 -68.1257 -35.9048 -35.6542 -35.4376 -34.7882 -34.7647 -34.4083
   -20.7509 -20.6580 -20.6503 -20.6464 -20.6401 -20.6366 -20.6269 -19.8341
   -19.8241 -19.8084 -19.7897 -19.7730 -19.7397 -19.7359 -19.2111 -12.2476
    -7.3662  -6.1317  -5.7085  -5.4390  -4.2813  -3.8202  -1.9847  -0.8850
     1.2983   2.0880   2.4508   2.8847   3.0380   4.3781

          k = 0.0013 0.4608 0.0000 ( 16019 PWs)   bands (ev):

   -69.0290 -68.1180 -36.0392 -35.6197 -35.4685 -34.8864 -34.7676 -34.4358
   -20.7403 -20.6590 -20.6511 -20.6447 -20.6386 -20.6304 -20.6272 -19.8312
   -19.8278 -19.8100 -19.7898 -19.7697 -19.7421 -19.7322 -19.1725 -11.9478
    -7.9181  -5.8991  -5.7583  -5.0777  -4.7256  -3.7374  -2.1072  -0.2717
     1.7091   2.4165   2.9176   3.3346   3.4140   4.5609

          k =-0.0016-0.5530 0.0000 ( 16014 PWs)   bands (ev):

   -69.0259 -68.1152 -36.0875 -35.6076 -35.4798 -34.9242 -34.7658 -34.4459
   -20.7376 -20.6599 -20.6530 -20.6421 -20.6383 -20.6280 -20.6256 -19.8303
   -19.8289 -19.8106 -19.7897 -19.7684 -19.7442 -19.7295 -19.1635 -11.8154
    -8.1572  -5.7910  -5.6250  -5.2873  -4.7253  -3.6943  -2.1215   0.0373
     1.8909   2.4231   3.2161   3.4736   3.7427   4.5919

          k = 0.0797 0.0462 0.0000 ( 16081 PWs)   bands (ev):

   -69.0689 -68.1545 -35.7900 -35.3635 -35.3198 -34.8159 -34.3431 -34.3036
   -20.8210 -20.6574 -20.6560 -20.6534 -20.6388 -20.6357 -20.6054 -19.8474
   -19.8098 -19.8033 -19.7870 -19.7851 -19.7669 -19.7107 -19.5379 -12.9863
    -7.7356  -6.2953  -6.1073  -4.3306  -3.7710  -3.4296  -1.0026  -0.6004
    -0.1945   0.0871   2.1105   2.4235   2.8050   2.8543

          k = 0.0800 0.1384 0.0000 ( 16029 PWs)   bands (ev):

   -69.0631 -68.1492 -35.7652 -35.4660 -35.3449 -34.8054 -34.4271 -34.3226
   -20.8053 -20.6585 -20.6533 -20.6517 -20.6419 -20.6357 -20.6107 -19.8446
   -19.8130 -19.8037 -19.7877 -19.7831 -19.7618 -19.7156 -19.4566 -12.8745
    -7.4466  -6.4170  -5.9935  -4.3792  -4.0458  -3.6837  -1.0108  -0.9393
    -0.2440   0.5284   2.0479   2.6481   2.7045   3.0348

          k = 0.0802 0.2306 0.0000 ( 15979 PWs)   bands (ev):

   -69.0531 -68.1400 -35.7228 -35.6342 -35.3887 -34.7914 -34.5622 -34.3613
   -20.7809 -20.6606 -20.6486 -20.6479 -20.6462 -20.6361 -20.6194 -19.8401
   -19.8176 -19.8052 -19.7886 -19.7795 -19.7532 -19.7240 -19.3365 -12.6641
    -7.0199  -6.4146  -5.9129  -5.1171  -4.0662  -3.7724  -1.4391  -1.1095
     0.0969   1.1463   2.1624   2.6694   2.9598   3.4121

          k = 0.0805 0.3227 0.0000 ( 15988 PWs)   bands (ev):

   -69.0416 -68.1295 -35.8206 -35.6722 -35.4400 -34.7799 -34.7105 -34.4066
   -20.7572 -20.6595 -20.6514 -20.6461 -20.6413 -20.6361 -20.6270 -19.8353
   -19.8225 -19.8072 -19.7893 -19.7753 -19.7433 -19.7331 -19.2321 -12.3762
    -7.0095  -6.2297  -5.9143  -5.3910  -4.2310  -3.8961  -1.7033  -1.1323
     0.7540   1.8310   2.2635   2.9557   3.1157   4.0906

          k = 0.0808 0.4149 0.0000 ( 16022 PWs)   bands (ev):

   -69.0316 -68.1204 -35.9743 -35.6304 -35.4844 -34.8370 -34.7683 -34.4460
   -20.7417 -20.6580 -20.6508 -20.6481 -20.6389 -20.6331 -20.6282 -19.8315
   -19.8264 -19.8093 -19.7894 -19.7717 -19.7408 -19.7345 -19.1718 -12.0632
    -7.5421  -6.1549  -5.6610  -5.1861  -4.5058  -4.0096  -1.8820  -0.6462
     1.3813   2.1540   2.5578   3.3532   3.4998   4.5703

          k = 0.0810 0.5070 0.0000 ( 16012 PWs)   bands (ev):

   -69.0259 -68.1152 -36.0602 -35.6067 -35.5105 -34.9038 -34.7650 -34.4693
   -20.7354 -20.6592 -20.6525 -20.6441 -20.6395 -20.6302 -20.6256 -19.8297
   -19.8284 -19.8108 -19.7892 -19.7695 -19.7449 -19.7296 -19.1497 -11.8391
    -7.9620  -6.0174  -5.5416  -5.0947  -4.7671  -3.9273  -1.9555  -0.1265
     1.8028   2.2025   2.9502   3.4595   3.9423   4.7314

          k = 0.0781-0.5068 0.0000 ( 15993 PWs)   bands (ev):

   -69.0260 -68.1153 -36.0589 -35.6063 -35.5115 -34.9018 -34.7651 -34.4706
   -20.7353 -20.6591 -20.6525 -20.6438 -20.6394 -20.6295 -20.6268 -19.8298
   -19.8280 -19.8112 -19.7893 -19.7693 -19.7449 -19.7296 -19.1500 -11.8396
    -7.9596  -6.0275  -5.5178  -5.1052  -4.7686  -3.9245  -1.9531  -0.1264
     1.8025   2.2146   2.9942   3.3895   3.9302   4.7243

          k = 0.0784-0.4146 0.0000 ( 16015 PWs)   bands (ev):

   -69.0318 -68.1206 -35.9708 -35.6299 -35.4864 -34.8315 -34.7682 -34.4496
   -20.7414 -20.6582 -20.6498 -20.6475 -20.6392 -20.6332 -20.6292 -19.8319
   -19.8253 -19.8104 -19.7894 -19.7713 -19.7408 -19.7346 -19.1724 -12.0646
    -7.5361  -6.1646  -5.6392  -5.1885  -4.5124  -4.0029  -1.8758  -0.6459
     1.3895   2.1665   2.5640   3.3000   3.4765   4.5610

          k = 0.0786-0.3224 0.0000 ( 15983 PWs)   bands (ev):

   -69.0419 -68.1298 -35.8165 -35.6719 -35.4417 -34.7802 -34.7019 -34.4120
   -20.7566 -20.6599 -20.6498 -20.6460 -20.6403 -20.6387 -20.6267 -19.8358
   -19.8208 -19.8088 -19.7892 -19.7749 -19.7434 -19.7330 -19.2331 -12.3787
    -7.0043  -6.2269  -5.9105  -5.3906  -4.2348  -3.8873  -1.6941  -1.1361
     0.7641   1.8260   2.2520   2.9372   3.1086   4.0935

          k = 0.0789-0.2303 0.0000 ( 15994 PWs)   bands (ev):

   -69.0534 -68.1403 -35.7234 -35.6308 -35.3888 -34.7918 -34.5522 -34.3677
   -20.7802 -20.6610 -20.6504 -20.6458 -20.6444 -20.6381 -20.6191 -19.8407
   -19.8154 -19.8072 -19.7885 -19.7792 -19.7532 -19.7239 -19.3377 -12.6673
    -7.0202  -6.4176  -5.9016  -5.1182  -4.0687  -3.7622  -1.4425  -1.1069
     0.1051   1.1360   2.1892   2.6386   2.9799   3.4040

          k = 0.0792-0.1381 0.0000 ( 16052 PWs)   bands (ev):

   -69.0633 -68.1494 -35.7656 -35.4666 -35.3417 -34.8058 -34.4174 -34.3295
   -20.8048 -20.6597 -20.6537 -20.6501 -20.6405 -20.6374 -20.6106 -19.8451
   -19.8108 -19.8058 -19.7874 -19.7830 -19.7618 -19.7156 -19.4575 -12.8775
    -7.4506  -6.4334  -5.9621  -4.3995  -4.0513  -3.6585  -1.0122  -0.9600
    -0.2199   0.5276   2.0808   2.6461   2.7113   3.0191

          k = 0.0794-0.0459 0.0000 ( 16083 PWs)   bands (ev):

   -69.0690 -68.1546 -35.7901 -35.3673 -35.3150 -34.8161 -34.3363 -34.3093
   -20.8208 -20.6590 -20.6541 -20.6537 -20.6377 -20.6368 -20.6053 -19.8476
   -19.8088 -19.8043 -19.7866 -19.7853 -19.7669 -19.7107 -19.5383 -12.9875
    -7.7377  -6.3241  -6.0691  -4.3374  -3.8015  -3.3933  -1.0027  -0.6455
    -0.1341   0.0743   2.1004   2.4643   2.7817   2.8629

          k = 0.1594 0.0925 0.0000 ( 16027 PWs)   bands (ev):

   -69.0605 -68.1468 -35.7541 -35.5155 -35.3516 -34.8015 -34.4637 -34.3317
   -20.7982 -20.6593 -20.6528 -20.6496 -20.6427 -20.6366 -20.6129 -19.8436
   -19.8136 -19.8047 -19.7881 -19.7819 -19.7595 -19.7178 -19.4228 -12.8219
    -7.3372  -6.4237  -5.9195  -4.7574  -3.9295  -3.6393  -1.2647  -1.0862
     0.2695   0.4220   2.0528   2.5192   2.8678   3.3010

          k = 0.1597 0.1846 0.0000 ( 15979 PWs)   bands (ev):

   -69.0531 -68.1400 -35.7229 -35.6342 -35.3885 -34.7914 -34.5623 -34.3610
   -20.7809 -20.6605 -20.6486 -20.6479 -20.6463 -20.6361 -20.6194 -19.8401
   -19.8175 -19.8052 -19.7886 -19.7795 -19.7532 -19.7239 -19.3366 -12.6643
    -7.0205  -6.4149  -5.9118  -5.1186  -4.0625  -3.7723  -1.4416  -1.1081
     0.0960   1.1472   2.1614   2.6710   2.9574   3.4138

          k = 0.1599 0.2768 0.0000 ( 15996 PWs)   bands (ev):

   -69.0431 -68.1309 -35.7765 -35.6797 -35.4537 -34.7801 -34.6779 -34.4154
   -20.7594 -20.6609 -20.6512 -20.6463 -20.6422 -20.6343 -20.6280 -19.8356
   -19.8217 -19.8069 -19.7889 -19.7765 -19.7447 -19.7322 -19.2382 -12.4214
    -6.6690  -6.4084  -6.1257  -5.1082  -4.6090  -3.7358  -1.6470  -1.0247
     0.3037   1.8076   2.1489   3.1414   3.2310   3.7753

          k = 0.1602 0.3689 0.0000 ( 16017 PWs)   bands (ev):

   -69.0332 -68.1218 -35.9055 -35.6378 -35.5258 -34.7853 -34.7680 -34.4767
   -20.7412 -20.6586 -20.6543 -20.6468 -20.6382 -20.6352 -20.6302 -19.8313
   -19.8252 -19.8092 -19.7887 -19.7737 -19.7406 -19.7358 -19.1628 -12.1342
    -6.9949  -6.3816  -5.7684  -5.2071  -4.7168  -3.9428  -1.5776  -1.0112
     0.9053   1.9231   2.4219   3.4234   3.7180   4.6041

          k = 0.1605 0.4611 0.0000 ( 16008 PWs)   bands (ev):

   -69.0259 -68.1152 -35.9937 -35.6101 -35.5785 -34.8540 -34.7640 -34.5246
   -20.7307 -20.6579 -20.6513 -20.6498 -20.6410 -20.6343 -20.6258 -19.8285
   -19.8271 -19.8114 -19.7881 -19.7718 -19.7463 -19.7296 -19.1222 -11.8846
    -7.4586  -6.2619  -5.5167  -5.1853  -4.6960  -4.1645  -1.6178  -0.5553
     1.5267   1.9029   2.6406   3.4408   4.0710   5.2058

          k = 0.1607 0.5533 0.0000 ( 16000 PWs)   bands (ev):

   -69.0234 -68.1129 -36.0232 -35.6088 -35.5902 -34.8760 -34.7621 -34.5446
   -20.7274 -20.6577 -20.6531 -20.6463 -20.6421 -20.6345 -20.6242 -19.8277
   -19.8271 -19.8128 -19.7877 -19.7710 -19.7484 -19.7274 -19.1105 -11.7824
    -7.6413  -6.2195  -5.4394  -5.0736  -4.8337  -4.1665  -1.6498  -0.2531
     1.7581   2.0595   2.7121   3.2128   4.1054   5.3969

          k = 0.1578-0.4605 0.0000 ( 16013 PWs)   bands (ev):

   -69.0262 -68.1155 -35.9887 -35.6052 -35.5858 -34.8454 -34.7641 -34.5304
   -20.7302 -20.6578 -20.6509 -20.6488 -20.6412 -20.6337 -20.6277 -19.8290
   -19.8255 -19.8129 -19.7880 -19.7714 -19.7463 -19.7297 -19.1228 -11.8866
    -7.4508  -6.2686  -5.4909  -5.1846  -4.7006  -4.1660  -1.6107  -0.5496
     1.5306   1.9123   2.6530   3.3601   4.0448   5.1940

          k = 0.1580-0.3684 0.0000 ( 16026 PWs)   bands (ev):

   -69.0337 -68.1223 -35.8980 -35.6367 -35.5298 -34.7763 -34.7626 -34.4860
   -20.7402 -20.6595 -20.6517 -20.6462 -20.6387 -20.6350 -20.6323 -19.8324
   -19.8222 -19.8119 -19.7884 -19.7731 -19.7406 -19.7359 -19.1641 -12.1381
    -6.9841  -6.3803  -5.7554  -5.2090  -4.7068  -3.9432  -1.5687  -1.0068
     0.9125   1.9155   2.4121   3.3700   3.6964   4.5945

          k = 0.1583-0.2762 0.0000 ( 16012 PWs)   bands (ev):

   -69.0437 -68.1315 -35.7705 -35.6800 -35.4541 -34.7809 -34.6612 -34.4251
   -20.7581 -20.6617 -20.6491 -20.6464 -20.6405 -20.6378 -20.6275 -19.8369
   -19.8178 -19.8105 -19.7883 -19.7760 -19.7448 -19.7321 -19.2401 -12.4270
    -6.6624  -6.4082  -6.1197  -5.1105  -4.5899  -3.7303  -1.6534  -1.0173
     0.3134   1.7986   2.1314   3.1332   3.2287   3.7700

          k = 0.1586-0.1840 0.0000 ( 15981 PWs)   bands (ev):

   -69.0536 -68.1405 -35.7234 -35.6328 -35.3845 -34.7922 -34.5483 -34.3685
   -20.7796 -20.6620 -20.6494 -20.6454 -20.6443 -20.6387 -20.6191 -19.8412
   -19.8132 -19.8093 -19.7877 -19.7795 -19.7533 -19.7238 -19.3385 -12.6706
    -7.0265  -6.4228  -5.8866  -5.1290  -4.0403  -3.7645  -1.4699  -1.1017
     0.1164   1.1483   2.1786   2.6704   2.9657   3.4009

          k = 0.1588-0.0919 0.0000 ( 16023 PWs)   bands (ev):

   -69.0608 -68.1471 -35.7545 -35.5180 -35.3456 -34.8020 -34.4553 -34.3363
   -20.7975 -20.6612 -20.6506 -20.6500 -20.6407 -20.6387 -20.6128 -19.8442
   -19.8097 -19.8085 -19.7872 -19.7822 -19.7595 -19.7177 -19.4240 -12.8261
    -7.3446  -6.4405  -5.8787  -4.7866  -3.9329  -3.6005  -1.2917  -1.0998
     0.3215   0.4170   2.0467   2.5659   2.8507   3.2990

          k = 0.1591 0.0003 0.0000 ( 16044 PWs)   bands (ev):

   -69.0633 -68.1494 -35.7657 -35.4663 -35.3417 -34.8058 -34.4175 -34.3292
   -20.8048 -20.6597 -20.6538 -20.6500 -20.6405 -20.6374 -20.6106 -19.8451
   -19.8107 -19.8059 -19.7874 -19.7830 -19.7618 -19.7156 -19.4576 -12.8776
    -7.4508  -6.4347  -5.9599  -4.4012  -4.0519  -3.6551  -1.0117  -0.9620
    -0.2161   0.5249   2.0809   2.6509   2.7099   3.0133

          k = 0.2391 0.1387 0.0000 ( 15969 PWs)   bands (ev):

   -69.0490 -68.1363 -35.7221 -35.6960 -35.3945 -34.7872 -34.6233 -34.3698
   -20.7716 -20.6601 -20.6483 -20.6476 -20.6440 -20.6380 -20.6217 -19.8387
   -19.8188 -19.8065 -19.7891 -19.7775 -19.7496 -19.7271 -19.2977 -12.5662
    -7.0562  -6.2179  -5.7460  -5.6202  -3.8850  -3.8053  -1.6842  -1.2572
     0.8343   1.0799   2.3003   2.6069   2.8813   3.9198

          k = 0.2393 0.2308 0.0000 ( 15990 PWs)   bands (ev):

   -69.0416 -68.1295 -35.8205 -35.6723 -35.4395 -34.7800 -34.7106 -34.4060
   -20.7572 -20.6595 -20.6513 -20.6461 -20.6413 -20.6361 -20.6270 -19.8353
   -19.8224 -19.8073 -19.7892 -19.7753 -19.7433 -19.7331 -19.2322 -12.3767
    -7.0107  -6.2296  -5.9135  -5.3902  -4.2269  -3.8947  -1.7068  -1.1315
     0.7514   1.8308   2.2621   2.9562   3.1159   4.0914

          k = 0.2396 0.3230 0.0000 ( 16017 PWs)   bands (ev):

   -69.0332 -68.1218 -35.9054 -35.6379 -35.5255 -34.7855 -34.7678 -34.4763
   -20.7412 -20.6586 -20.6543 -20.6468 -20.6382 -20.6352 -20.6302 -19.8314
   -19.8251 -19.8092 -19.7886 -19.7737 -19.7406 -19.7358 -19.1628 -12.1345
    -6.9959  -6.3810  -5.7679  -5.2062  -4.7157  -3.9417  -1.5795  -1.0109
     0.9039   1.9217   2.4216   3.4240   3.7187   4.6039

          k = 0.2399 0.4152 0.0000 ( 15994 PWs)   bands (ev):

   -69.0260 -68.1152 -35.9492 -35.6397 -35.5956 -34.8206 -34.7645 -34.5597
   -20.7280 -20.6575 -20.6544 -20.6483 -20.6428 -20.6360 -20.6259 -19.8279
   -19.8263 -19.8118 -19.7873 -19.7731 -19.7470 -19.7297 -19.1084 -11.9067
    -7.0513  -6.4052  -5.6949  -5.2803  -4.6920  -4.1100  -1.2996  -0.9622
     1.3356   1.8078   2.5699   3.4308   4.0842   5.5604

          k = 0.2401 0.5073 0.0000 ( 16030 PWs)   bands (ev):

   -69.0219 -68.1116 -35.9541 -35.7124 -35.5826 -34.8261 -34.7610 -34.6238
   -20.7205 -20.6563 -20.6522 -20.6504 -20.6454 -20.6385 -20.6229 -19.8262
   -19.8258 -19.8143 -19.7859 -19.7733 -19.7508 -19.7262 -19.0795 -11.7696
    -7.1052  -6.3604  -5.8844  -5.0386  -4.6407  -4.3153  -1.2473  -0.5902
     1.6670   1.8802   2.4785   3.1219   4.0263   5.5571

          k = 0.2404 0.5995 0.0000 ( 15997 PWs)   bands (ev):

   -69.0221 -68.1118 -35.9499 -35.7138 -35.5836 -34.8175 -34.7610 -34.6304
   -20.7201 -20.6559 -20.6520 -20.6500 -20.6452 -20.6390 -20.6236 -19.8265
   -19.8244 -19.8157 -19.7856 -19.7731 -19.7508 -19.7262 -19.0799 -11.7710
    -7.1006  -6.3596  -5.8821  -5.0131  -4.6557  -4.3182  -1.2450  -0.5841
     1.6669   1.8918   2.4568   3.0892   4.0145   5.5549

          k = 0.2375-0.4143 0.0000 ( 16030 PWs)   bands (ev):

   -69.0265 -68.1158 -35.9408 -35.6369 -35.6014 -34.8022 -34.7651 -34.5717
   -20.7268 -20.6577 -20.6523 -20.6478 -20.6429 -20.6361 -20.6282 -19.8292
   -19.8225 -19.8153 -19.7865 -19.7728 -19.7470 -19.7299 -19.1095 -11.9111
    -7.0436  -6.3985  -5.6834  -5.2639  -4.6876  -4.1159  -1.2996  -0.9504
     1.3360   1.7986   2.5634   3.3572   4.0576   5.5571

          k = 0.2377-0.3221 0.0000 ( 16033 PWs)   bands (ev):

   -69.0340 -68.1226 -35.8980 -35.6380 -35.5255 -34.7755 -34.7595 -34.4864
   -20.7394 -20.6596 -20.6516 -20.6466 -20.6364 -20.6353 -20.6341 -19.8332
   -19.8201 -19.8137 -19.7873 -19.7735 -19.7406 -19.7360 -19.1647 -12.1416
    -6.9930  -6.3720  -5.7524  -5.2029  -4.6971  -3.9379  -1.5901  -0.9997
     0.9071   1.9065   2.4076   3.3778   3.7057   4.5923

          k = 0.2380-0.2300 0.0000 ( 15994 PWs)   bands (ev):

   -69.0424 -68.1303 -35.8163 -35.6742 -35.4342 -34.7810 -34.6947 -34.4122
   -20.7553 -20.6610 -20.6488 -20.6458 -20.6403 -20.6382 -20.6274 -19.8372
   -19.8171 -19.8121 -19.7875 -19.7754 -19.7436 -19.7330 -19.2344 -12.3855
    -7.0156  -6.2306  -5.9023  -5.3767  -4.2054  -3.8819  -1.7310  -1.1256
     0.7597   1.8308   2.2464   2.9531   3.1139   4.0869

          k = 0.2383-0.1378 0.0000 ( 15971 PWs)   bands (ev):

   -69.0496 -68.1369 -35.7170 -35.7028 -35.3871 -34.7882 -34.6127 -34.3729
   -20.7702 -20.6620 -20.6464 -20.6458 -20.6439 -20.6399 -20.6217 -19.8401
   -19.8139 -19.8111 -19.7875 -19.7779 -19.7497 -19.7270 -19.2995 -12.5738
    -7.0658  -6.2306  -5.7014  -5.6374  -3.8838  -3.7678  -1.7205  -1.2550
     0.8311   1.1157   2.2778   2.6427   2.8773   3.9172

          k = 0.2385-0.0456 0.0000 ( 15985 PWs)   bands (ev):

   -69.0536 -68.1406 -35.7235 -35.6323 -35.3847 -34.7922 -34.5481 -34.3685
   -20.7796 -20.6620 -20.6494 -20.6454 -20.6442 -20.6387 -20.6191 -19.8412
   -19.8130 -19.8095 -19.7877 -19.7794 -19.7533 -19.7238 -19.3386 -12.6708
    -7.0263  -6.4233  -5.8863  -5.1281  -4.0407  -3.7626  -1.4710  -1.1011
     0.1195   1.1454   2.1783   2.6684   2.9688   3.3962

          k = 0.2388 0.0465 0.0000 ( 15990 PWs)   bands (ev):

   -69.0534 -68.1403 -35.7236 -35.6302 -35.3888 -34.7918 -34.5521 -34.3673
   -20.7802 -20.6609 -20.6505 -20.6457 -20.6444 -20.6380 -20.6191 -19.8407
   -19.8153 -19.8073 -19.7885 -19.7792 -19.7532 -19.7239 -19.3379 -12.6678
    -7.0204  -6.4183  -5.9002  -5.1188  -4.0653  -3.7603  -1.4461  -1.1050
     0.1073   1.1340   2.1878   2.6384   2.9805   3.4011

          k = 0.3188 0.1849 0.0000 ( 15994 PWs)   bands (ev):

   -69.0375 -68.1258 -35.9044 -35.6544 -35.4370 -34.7884 -34.7645 -34.4075
   -20.7508 -20.6580 -20.6503 -20.6464 -20.6401 -20.6366 -20.6269 -19.8342
   -19.8240 -19.8085 -19.7896 -19.7730 -19.7397 -19.7359 -19.2113 -12.2485
    -7.3673  -6.1316  -5.7048  -5.4395  -4.2792  -3.8139  -1.9879  -0.8865
     1.2942   2.0886   2.4450   2.8866   3.0384   4.3779

          k = 0.3190 0.2771 0.0000 ( 16020 PWs)   bands (ev):

   -69.0317 -68.1205 -35.9740 -35.6306 -35.4838 -34.8372 -34.7682 -34.4453
   -20.7417 -20.6580 -20.6507 -20.6481 -20.6389 -20.6331 -20.6282 -19.8316
   -19.8264 -19.8094 -19.7893 -19.7717 -19.7408 -19.7346 -19.1720 -12.0639
    -7.5431  -6.1535  -5.6595  -5.1856  -4.5023  -4.0064  -1.8846  -0.6477
     1.3765   2.1501   2.5571   3.3544   3.5018   4.5699

          k = 0.3193 0.3692 0.0000 ( 16013 PWs)   bands (ev):

   -69.0260 -68.1153 -35.9934 -35.6101 -35.5782 -34.8541 -34.7639 -34.5241
   -20.7307 -20.6579 -20.6512 -20.6498 -20.6411 -20.6343 -20.6258 -19.8285
   -19.8270 -19.8115 -19.7880 -19.7718 -19.7463 -19.7297 -19.1222 -11.8852
    -7.4590  -6.2608  -5.5159  -5.1838  -4.6936  -4.1634  -1.6189  -0.5573
     1.5232   1.9003   2.6394   3.4423   4.0718   5.2053

          k = 0.3196 0.4614 0.0000 ( 16032 PWs)   bands (ev):

   -69.0219 -68.1116 -35.9538 -35.7125 -35.5827 -34.8262 -34.7609 -34.6236
   -20.7205 -20.6563 -20.6521 -20.6505 -20.6454 -20.6385 -20.6229 -19.8261
   -19.8259 -19.8143 -19.7858 -19.7733 -19.7508 -19.7262 -19.0795 -11.7699
    -7.1049  -6.3604  -5.8836  -5.0380  -4.6387  -4.3159  -1.2462  -0.5923
     1.6658   1.8778   2.4785   3.1217   4.0265   5.5564

          k = 0.3198 0.5536 0.0000 ( 16004 PWs)   bands (ev):

   -69.0206 -68.1104 -35.8880 -35.8078 -35.5758 -34.7745 -34.7602 -34.6999
   -20.7158 -20.6544 -20.6520 -20.6507 -20.6472 -20.6423 -20.6221 -19.8255
   -19.8235 -19.8172 -19.7840 -19.7746 -19.7525 -19.7250 -19.0628 -11.7342
    -6.6701  -6.4217  -6.3542  -4.6996  -4.6191  -4.5799  -0.9742  -0.6376
     1.7700   1.8353   2.1832   3.0364   3.9208   5.4003

          k = 0.3201 0.6457 0.0000 ( 16022 PWs)   bands (ev):

   -69.0224 -68.1121 -35.9479 -35.7121 -35.5843 -34.8090 -34.7613 -34.6353
   -20.7194 -20.6555 -20.6518 -20.6491 -20.6455 -20.6399 -20.6241 -19.8274
   -19.8214 -19.8185 -19.7844 -19.7735 -19.7508 -19.7264 -19.0803 -11.7738
    -7.1012  -6.3538  -5.8756  -5.0085  -4.6318  -4.3342  -1.2408  -0.6003
     1.6572   1.8771   2.4503   3.0870   4.0186   5.5479

          k = 0.3172-0.3681 0.0000 ( 16029 PWs)   bands (ev):

   -69.0269 -68.1161 -35.9871 -35.6078 -35.5788 -34.8363 -34.7646 -34.5322
   -20.7288 -20.6570 -20.6509 -20.6491 -20.6391 -20.6361 -20.6283 -19.8308
   -19.8216 -19.8163 -19.7858 -19.7720 -19.7463 -19.7300 -19.1236 -11.8930
    -7.4576  -6.2502  -5.4809  -5.1828  -4.6772  -4.1652  -1.6257  -0.5633
     1.5143   1.8907   2.6292   3.3769   4.0573   5.1937

          k = 0.3174-0.2759 0.0000 ( 16046 PWs)   bands (ev):

   -69.0327 -68.1215 -35.9692 -35.6325 -35.4771 -34.8218 -34.7686 -34.4495
   -20.7395 -20.6579 -20.6494 -20.6483 -20.6362 -20.6340 -20.6317 -19.8342
   -19.8210 -19.8140 -19.7867 -19.7720 -19.7407 -19.7349 -19.1739 -12.0744
    -7.5482  -6.1475  -5.6147  -5.1935  -4.4934  -3.9806  -1.9034  -0.6551
     1.3698   2.1401   2.5508   3.3197   3.4910   4.5572

          k = 0.3177-0.1837 0.0000 ( 16002 PWs)   bands (ev):

   -69.0384 -68.1267 -35.9022 -35.6569 -35.4283 -34.7846 -34.7570 -34.4092
   -20.7487 -20.6590 -20.6485 -20.6469 -20.6379 -20.6379 -20.6283 -19.8364
   -19.8191 -19.8127 -19.7871 -19.7735 -19.7399 -19.7359 -19.2132 -12.2587
    -7.3784  -6.1348  -5.6541  -5.4526  -4.2758  -3.7749  -2.0171  -0.8932
     1.2834   2.1034   2.4162   2.9072   3.0340   4.3734

          k = 0.3180-0.0916 0.0000 ( 15990 PWs)   bands (ev):

   -69.0424 -68.1303 -35.8157 -35.6743 -35.4345 -34.7810 -34.6944 -34.4122
   -20.7552 -20.6610 -20.6488 -20.6458 -20.6403 -20.6382 -20.6274 -19.8372
   -19.8170 -19.8122 -19.7875 -19.7754 -19.7435 -19.7330 -19.2345 -12.3858
    -7.0149  -6.2303  -5.9018  -5.3768  -4.2062  -3.8798  -1.7304  -1.1258
     0.7628   1.8288   2.2452   2.9487   3.1145   4.0847

          k = 0.3182 0.0006 0.0000 ( 16012 PWs)   bands (ev):

   -69.0437 -68.1315 -35.7695 -35.6802 -35.4544 -34.7809 -34.6608 -34.4250
   -20.7580 -20.6617 -20.6491 -20.6464 -20.6406 -20.6377 -20.6275 -19.8369
   -19.8176 -19.8107 -19.7883 -19.7760 -19.7448 -19.7321 -19.2403 -12.4276
    -6.6617  -6.4081  -6.1193  -5.1102  -4.5875  -3.7286  -1.6549  -1.0154
     0.3151   1.7956   2.1297   3.1300   3.2284   3.7670

          k = 0.3185 0.0927 0.0000 ( 15985 PWs)   bands (ev):

   -69.0419 -68.1298 -35.8158 -35.6721 -35.4415 -34.7803 -34.7017 -34.4114
   -20.7565 -20.6598 -20.6498 -20.6460 -20.6403 -20.6387 -20.6267 -19.8359
   -19.8206 -19.8089 -19.7892 -19.7749 -19.7434 -19.7330 -19.2333 -12.3794
    -7.0049  -6.2266  -5.9092  -5.3898  -4.2314  -3.8839  -1.6969  -1.1355
     0.7645   1.8238   2.2492   2.9339   3.1090   4.0921

          k = 0.3985 0.2311 0.0000 ( 16021 PWs)   bands (ev):

   -69.0291 -68.1181 -36.0386 -35.6200 -35.4678 -34.8864 -34.7675 -34.4350
   -20.7403 -20.6590 -20.6510 -20.6447 -20.6387 -20.6304 -20.6272 -19.8312
   -19.8277 -19.8100 -19.7897 -19.7697 -19.7420 -19.7322 -19.1727 -11.9490
    -7.9186  -5.8987  -5.7540  -5.0783  -4.7223  -3.7311  -2.1107  -0.2739
     1.7021   2.4135   2.9154   3.3343   3.4157   4.5595

          k = 0.3987 0.3233 0.0000 ( 16018 PWs)   bands (ev):

   -69.0260 -68.1153 -36.0597 -35.6070 -35.5099 -34.9038 -34.7649 -34.4685
   -20.7354 -20.6592 -20.6524 -20.6441 -20.6395 -20.6302 -20.6257 -19.8297
   -19.8283 -19.8109 -19.7891 -19.7695 -19.7449 -19.7296 -19.1499 -11.8402
    -7.9623  -6.0148  -5.5408  -5.0941  -4.7631  -3.9234  -1.9580  -0.1288
     1.7951   2.2007   2.9463   3.4614   3.9438   4.7294

          k = 0.3990 0.4155 0.0000 ( 15997 PWs)   bands (ev):

   -69.0235 -68.1130 -36.0226 -35.6087 -35.5904 -34.8759 -34.7620 -34.5441
   -20.7274 -20.6577 -20.6531 -20.6463 -20.6421 -20.6345 -20.6243 -19.8277
   -19.8271 -19.8129 -19.7876 -19.7710 -19.7484 -19.7274 -19.1106 -11.7834
    -7.6409  -6.2182  -5.4384  -5.0725  -4.8298  -4.1653  -1.6503  -0.2554
     1.7545   2.0559   2.7107   3.2118   4.1052   5.3951

          k = 0.3993 0.5076 0.0000 ( 15993 PWs)   bands (ev):

   -69.0222 -68.1118 -35.9489 -35.7142 -35.5837 -34.8172 -34.7610 -34.6302
   -20.7201 -20.6559 -20.6520 -20.6500 -20.6452 -20.6390 -20.6237 -19.8266
   -19.8243 -19.8158 -19.7856 -19.7732 -19.7508 -19.7263 -19.0799 -11.7717
    -7.0992  -6.3591  -5.8822  -5.0101  -4.6550  -4.3183  -1.2433  -0.5851
     1.6655   1.8910   2.4536   3.0860   4.0132   5.5534

          k = 0.3995 0.5998 0.0000 ( 16022 PWs)   bands (ev):

   -69.0225 -68.1121 -35.9473 -35.7125 -35.5844 -34.8088 -34.7613 -34.6354
   -20.7194 -20.6554 -20.6518 -20.6491 -20.6455 -20.6399 -20.6241 -19.8274
   -19.8212 -19.8187 -19.7844 -19.7735 -19.7508 -19.7264 -19.0803 -11.7742
    -7.1001  -6.3532  -5.8766  -5.0061  -4.6333  -4.3337  -1.2402  -0.5991
     1.6570   1.8788   2.4471   3.0841   4.0171   5.5472

          k = 0.3998 0.6919 0.0000 ( 16010 PWs)   bands (ev):

   -69.0243 -68.1138 -36.0187 -35.6029 -35.5925 -34.8618 -34.7628 -34.5491
   -20.7257 -20.6562 -20.6533 -20.6455 -20.6402 -20.6376 -20.6257 -19.8299
   -19.8220 -19.8173 -19.7851 -19.7716 -19.7484 -19.7277 -19.1116 -11.7907
    -7.6426  -6.2007  -5.4244  -5.0616  -4.8080  -4.1696  -1.6597  -0.2732
     1.7321   2.0424   2.6861   3.1951   4.1107   5.3822

          k = 0.3969-0.3218 0.0000 ( 16023 PWs)   bands (ev):

   -69.0271 -68.1164 -36.0553 -35.6090 -35.5018 -34.8889 -34.7661 -34.4708
   -20.7331 -20.6578 -20.6525 -20.6436 -20.6363 -20.6328 -20.6284 -19.8326
   -19.8233 -19.8151 -19.7859 -19.7700 -19.7449 -19.7300 -19.1514 -11.8512
    -7.9673  -5.9930  -5.5056  -5.0893  -4.7633  -3.8974  -1.9789  -0.1474
     1.7674   2.1924   2.9475   3.4046   3.9485   4.7058

          k = 0.3971-0.2297 0.0000 ( 16052 PWs)   bands (ev):

   -69.0302 -68.1192 -36.0352 -35.6226 -35.4582 -34.8729 -34.7686 -34.4356
   -20.7379 -20.6580 -20.6511 -20.6446 -20.6353 -20.6317 -20.6306 -19.8342
   -19.8228 -19.8141 -19.7864 -19.7703 -19.7420 -19.7327 -19.1743 -11.9607
    -7.9276  -5.8952  -5.6992  -5.0804  -4.7238  -3.6910  -2.1407  -0.2905
     1.6774   2.3970   2.9083   3.3107   3.4254   4.5475

          k = 0.3974-0.1375 0.0000 ( 16044 PWs)   bands (ev):

   -69.0327 -68.1215 -35.9687 -35.6326 -35.4773 -34.8216 -34.7686 -34.4495
   -20.7394 -20.6579 -20.6494 -20.6483 -20.6361 -20.6341 -20.6317 -19.8342
   -19.8209 -19.8141 -19.7867 -19.7720 -19.7407 -19.7349 -19.1739 -12.0747
    -7.5474  -6.1482  -5.6122  -5.1948  -4.4947  -3.9786  -1.9027  -0.6549
     1.3726   2.1395   2.5516   3.3165   3.4854   4.5557

          k = 0.3977-0.0454 0.0000 ( 16029 PWs)   bands (ev):

   -69.0340 -68.1227 -35.8970 -35.6382 -35.5259 -34.7753 -34.7591 -34.4864
   -20.7394 -20.6596 -20.6516 -20.6467 -20.6363 -20.6352 -20.6341 -19.8333
   -19.8199 -19.8139 -19.7873 -19.7734 -19.7406 -19.7360 -19.1648 -12.1423
    -6.9914  -6.3717  -5.7514  -5.2032  -4.6962  -3.9366  -1.5896  -0.9980
     0.9090   1.9040   2.4070   3.3736   3.7002   4.5894

          k = 0.3979 0.0468 0.0000 ( 16028 PWs)   bands (ev):

   -69.0337 -68.1224 -35.8969 -35.6370 -35.5299 -34.7763 -34.7621 -34.4857
   -20.7401 -20.6594 -20.6517 -20.6463 -20.6387 -20.6351 -20.6323 -19.8324
   -19.8220 -19.8121 -19.7884 -19.7731 -19.7406 -19.7359 -19.1643 -12.1390
    -6.9834  -6.3794  -5.7539  -5.2084  -4.7047  -3.9410  -1.5701  -1.0048
     0.9128   1.9116   2.4113   3.3665   3.6915   4.5914

          k = 0.3982 0.1390 0.0000 ( 16017 PWs)   bands (ev):

   -69.0319 -68.1207 -35.9701 -35.6302 -35.4860 -34.8314 -34.7681 -34.4489
   -20.7413 -20.6582 -20.6498 -20.6474 -20.6392 -20.6333 -20.6292 -19.8320
   -19.8252 -19.8104 -19.7893 -19.7713 -19.7407 -19.7346 -19.1726 -12.0657
    -7.5362  -6.1639  -5.6352  -5.1893  -4.5101  -3.9977  -1.8776  -0.6472
     1.3875   2.1621   2.5640   3.2982   3.4728   4.5590

          k =-0.4782-0.2774 0.0000 ( 16022 PWs)   bands (ev):

   -69.0260 -68.1153 -36.0869 -35.6079 -35.4791 -34.9242 -34.7657 -34.4450
   -20.7375 -20.6599 -20.6529 -20.6420 -20.6384 -20.6280 -20.6256 -19.8303
   -19.8289 -19.8107 -19.7896 -19.7684 -19.7442 -19.7295 -19.1637 -11.8168
    -8.1574  -5.7867  -5.6252  -5.2856  -4.7229  -3.6881  -2.1252   0.0350
     1.8819   2.4220   3.2111   3.4742   3.7449   4.5890

          k =-0.4779-0.1852 0.0000 ( 15993 PWs)   bands (ev):

   -69.0261 -68.1153 -36.0582 -35.6066 -35.5109 -34.9017 -34.7650 -34.4698
   -20.7353 -20.6591 -20.6524 -20.6438 -20.6394 -20.6295 -20.6268 -19.8298
   -19.8279 -19.8113 -19.7892 -19.7694 -19.7449 -19.7296 -19.1501 -11.8409
    -7.9595  -6.0257  -5.5150  -5.1052  -4.7656  -3.9198  -1.9553  -0.1286
     1.7961   2.2127   2.9941   3.3857   3.9299   4.7211

          k =-0.4776-0.0930 0.0000 ( 16009 PWs)   bands (ev):

   -69.0263 -68.1156 -35.9877 -35.6055 -35.5857 -34.8452 -34.7640 -34.5300
   -20.7301 -20.6578 -20.6509 -20.6488 -20.6412 -20.6337 -20.6277 -19.8291
   -19.8253 -19.8130 -19.7879 -19.7714 -19.7463 -19.7298 -19.1230 -11.8877
    -7.4499  -6.2677  -5.4885  -5.1835  -4.6989  -4.1638  -1.6108  -0.5503
     1.5298   1.9084   2.6524   3.3548   4.0417   5.1911

          k =-0.4773-0.0009 0.0000 ( 16024 PWs)   bands (ev):

   -69.0266 -68.1159 -35.9396 -35.6375 -35.6015 -34.8017 -34.7651 -34.5717
   -20.7267 -20.6577 -20.6523 -20.6479 -20.6429 -20.6361 -20.6282 -19.8293
   -19.8223 -19.8155 -19.7865 -19.7728 -19.7469 -19.7299 -19.1096 -11.9119
    -7.0416  -6.3978  -5.6840  -5.2613  -4.6876  -4.1148  -1.2996  -0.9478
     1.3366   1.7962   2.5623   3.3511   4.0531   5.5550

          k =-0.4771 0.0913 0.0000 ( 16031 PWs)   bands (ev):

   -69.0269 -68.1162 -35.9864 -35.6079 -35.5790 -34.8360 -34.7646 -34.5323
   -20.7288 -20.6569 -20.6510 -20.6491 -20.6391 -20.6360 -20.6283 -19.8308
   -19.8215 -19.8164 -19.7858 -19.7720 -19.7463 -19.7300 -19.1237 -11.8934
    -7.4563  -6.2505  -5.4792  -5.1830  -4.6781  -4.1640  -1.6247  -0.5620
     1.5170   1.8894   2.6298   3.3702   4.0533   5.1914

          k =-0.4768 0.1835 0.0000 ( 16018 PWs)   bands (ev):

   -69.0271 -68.1164 -36.0552 -35.6090 -35.5019 -34.8888 -34.7661 -34.4709
   -20.7331 -20.6578 -20.6526 -20.6436 -20.6363 -20.6328 -20.6284 -19.8326
   -19.8232 -19.8152 -19.7859 -19.7700 -19.7449 -19.7300 -19.1514 -11.8514
    -7.9669  -5.9938  -5.5035  -5.0899  -4.7642  -3.8967  -1.9786  -0.1473
     1.7687   2.1923   2.9514   3.3988   3.9467   4.7046

          k =-0.4798-0.8303 0.0000 ( 16018 PWs)   bands (ev):

   -69.0272 -68.1164 -36.0831 -35.6105 -35.4691 -34.9101 -34.7671 -34.4453
   -20.7351 -20.6585 -20.6530 -20.6417 -20.6349 -20.6305 -20.6285 -19.8335
   -19.8241 -19.8146 -19.7861 -19.7691 -19.7442 -19.7300 -19.1652 -11.8291
    -8.1650  -5.7286  -5.6260  -5.2718  -4.7327  -3.6471  -2.1565   0.0137
     1.8483   2.4092   3.2012   3.4341   3.7569   4.5663

     the Fermi energy is    -0.1397 ev

!    total energy              =   -1405.82702090 Ry
     estimated scf accuracy    <          5.1E-13 Ry
     smearing contrib. (-TS)   =      -0.00001332 Ry
     internal energy E=F+TS    =   -1405.82700758 Ry

     The total energy is F=E-TS. E is the sum of the following terms:
     one-electron contribution =  -12409.27827579 Ry
     hartree contribution      =    6234.58068895 Ry
     xc contribution           =    -146.25465388 Ry
     ewald contribution        =    4915.12523314 Ry

     convergence has been achieved in  24 iterations

     negative rho (up, down):  1.128E-04 0.000E+00

     Forces acting on atoms (cartesian axes, Ry/au):

     atom    1 type  2   force =    -0.00002084   -0.00074181    0.00046591
     atom    2 type  1   force =    -0.00015510    0.00076119    0.00000051
     atom    3 type  1   force =    -0.00008712    0.00019802   -0.00044743
     atom    4 type  3   force =     0.00026306   -0.00021740   -0.00001900

     Total force =     0.001317     Total SCF correction =     0.000003


     Computing stress (Cartesian axis) and pressure


     negative rho (up, down):  1.128E-04 0.000E+00
          total   stress  (Ry/bohr**3)                   (kbar)     P=        0.15
   0.00000350   0.00000061   0.00000081            0.52        0.09        0.12
   0.00000061   0.00000584  -0.00000135            0.09        0.86       -0.20
   0.00000081  -0.00000135  -0.00000621            0.12       -0.20       -0.91


     Writing output data file /scratch/as3359/Ta2CO_loop/Ta.save/
 
     init_run     :     25.43s CPU     15.56s WALL (       1 calls)
     electrons    :    725.97s CPU    375.84s WALL (       1 calls)
     forces       :     11.93s CPU      6.16s WALL (       1 calls)
     stress       :     37.17s CPU     19.11s WALL (       1 calls)

     Called by init_run:
     wfcinit      :     10.30s CPU      5.29s WALL (       1 calls)
     potinit      :      3.89s CPU      1.96s WALL (       1 calls)
     hinit0       :      9.36s CPU      7.11s WALL (       1 calls)

     Called by electrons:
     c_bands      :    543.70s CPU    275.81s WALL (      24 calls)
     sum_band     :    133.85s CPU     71.86s WALL (      24 calls)
     v_of_rho     :      6.89s CPU      3.62s WALL (      25 calls)
     newd         :     41.63s CPU     24.69s WALL (      25 calls)
     mix_rho      :      1.09s CPU      0.57s WALL (      24 calls)

     Called by c_bands:
     init_us_2    :     13.36s CPU      6.70s WALL (    3774 calls)
     cegterg      :    497.90s CPU    252.78s WALL (    1776 calls)

     Called by *egterg:
     cdiaghg      :     20.60s CPU     10.52s WALL (    8551 calls)
     h_psi        :    384.53s CPU    195.83s WALL (    8625 calls)
     s_psi        :     18.44s CPU      9.24s WALL (    8625 calls)
     g_psi        :      3.19s CPU      1.60s WALL (    6775 calls)

     Called by h_psi:
     h_psi:calbec :     17.51s CPU      8.80s WALL (    8625 calls)
     vloc_psi     :    343.55s CPU    175.25s WALL (    8625 calls)
     add_vuspsi   :     20.30s CPU     10.18s WALL (    8625 calls)

     General routines
     calbec       :     24.39s CPU     12.26s WALL (   10771 calls)
     fft          :      4.56s CPU      2.91s WALL (     348 calls)
     ffts         :      0.14s CPU      0.07s WALL (      49 calls)
     fftw         :    356.81s CPU    182.05s WALL (  406476 calls)
     interpolate  :      0.38s CPU      0.20s WALL (      25 calls)
 
     Parallel routines
 
     PWSCF        :  13m23.45s CPU   6m59.50s WALL

 
   This run was terminated on:  20:20:19   7Apr2022            

=------------------------------------------------------------------------------=
   JOB DONE.
=------------------------------------------------------------------------------=
