
     Program PWSCF v.6.8 starts on  9Apr2022 at 20: 7: 0 

     This program is part of the open-source Quantum ESPRESSO suite
     for quantum simulation of materials; please cite
         "P. Giannozzi et al., J. Phys.:Condens. Matter 21 395502 (2009);
         "P. Giannozzi et al., J. Phys.:Condens. Matter 29 465901 (2017);
         "P. Giannozzi et al., J. Chem. Phys. 152 154105 (2020);
          URL http://www.quantum-espresso.org", 
     in publications or presentations arising from this work. More details at
     http://www.quantum-espresso.org/quote

     Parallel version (MPI & OpenMP), running on       4 processor cores
     Number of MPI processes:                 2
     Threads/MPI process:                     2

     MPI processes distributed on     1 nodes
     R & G space division:  proc/nbgrp/npool/nimage =       2
     124969 MiB available memory on the printing compute node when the environment starts
 
     Reading input from Ta2C.scf.5.750.in
Warning: card  &CELL ignored
Warning: card     CELL_DYNAMICS='BFGS' ignored
Warning: card  / ignored

     Current dimensions of program PWSCF are:
     Max number of different atomic species (ntypx) = 10
     Max number of k-points (npk) =  40000
     Max angular momentum in pseudopotentials (lmaxx) =  4
     Message from routine iosys:
     restart disabled: needed files not found
     file Ta.pbesol-spfn-rrkjus_psl.1.0.0.UPF: wavefunction(s)  5S 5P renormalized

     Subspace diagonalization in iterative solution of the eigenvalue problem:
     a serial algorithm will be used

 
     Parallelization info
     --------------------
     sticks:   dense  smooth     PW     G-vecs:    dense   smooth      PW
     Min         740     740    216               219292   219292   34636
     Max         741     741    217               219297   219297   34639
     Sum        1481    1481    433               438589   438589   69275
 
     Using Slab Decomposition
 


     bravais-lattice index     =            0
     lattice parameter (alat)  =       5.7500  a.u.
     unit-cell volume          =    1766.8088 (a.u.)^3
     number of atoms/cell      =            3
     number of atomic types    =            2
     number of electrons       =        58.00
     number of Kohn-Sham states=           29
     kinetic-energy cutoff     =     150.0000  Ry
     charge density cutoff     =     600.0000  Ry
     scf convergence threshold =      1.0E-12
     mixing beta               =       0.7000
     number of iterations used =            8  plain     mixing
     Exchange-correlation= PBESOL
                           (   1   4  10   8   0   0   0)

     celldm(1)=   5.750000  celldm(2)=   0.000000  celldm(3)=   0.000000
     celldm(4)=   0.000000  celldm(5)=   0.000000  celldm(6)=   0.000000

     crystal axes: (cart. coord. in units of alat)
               a(1) = (   1.034114   0.000203   0.000000 )  
               a(2) = (  -0.516207   0.898604   0.000000 )  
               a(3) = (   0.000000   0.000000  10.000000 )  

     reciprocal axes: (cart. coord. in units 2 pi/alat)
               b(1) = (  0.966902  0.555441  0.000000 )  
               b(2) = ( -0.000219  1.112711  0.000000 )  
               b(3) = (  0.000000  0.000000  0.100000 )  


     PseudoPot. # 1 for Ta read from file:
     /shared/home/as3359/pseudo/Ta.pbesol-spfn-rrkjus_psl.1.0.0.UPF
     MD5 check sum: f099565ffaca9b150a52e9412a28e20b
     Pseudo is Ultrasoft + core correction, Zval = 27.0
     Generated using &quot;atomic&quot; code by A. Dal Corso  v.6.3
     Using radial grid of 1273 points,  8 beta functions with: 
                l(1) =   0
                l(2) =   0
                l(3) =   1
                l(4) =   1
                l(5) =   2
                l(6) =   2
                l(7) =   3
                l(8) =   3
     Q(r) pseudized with 0 coefficients 


     PseudoPot. # 2 for C  read from file:
     /shared/home/as3359/pseudo/C.pbesol-n-rrkjus_psl.1.0.0.UPF
     MD5 check sum: 05995be603a8a7c99da3dc4413f31573
     Pseudo is Ultrasoft + core correction, Zval =  4.0
     Generated using &quot;atomic&quot; code by A. Dal Corso  v.6.3MaX
     Using radial grid of 1073 points,  4 beta functions with: 
                l(1) =   0
                l(2) =   0
                l(3) =   1
                l(4) =   1
     Q(r) pseudized with 0 coefficients 


     atomic species   valence    mass     pseudopotential
        Ta            27.00   180.94788     Ta( 1.00)
        C              4.00    12.01070     C ( 1.00)

     No symmetry found



   Cartesian axes

     site n.     atom                  positions (alat units)
         1           C   tau(   1) = (   0.0000000   0.0000000   0.0000000  )
         2           Ta  tau(   2) = (   0.5174615   0.3004190  -0.4127129  )
         3           Ta  tau(   3) = (   0.0007158   0.5986355   0.4125272  )

     number of k points=   113

     Number of k-points >= 100: set verbosity='high' to print them.

     Dense  grid:   438589 G-vectors     FFT dimensions: (  48,  48, 450)

     Estimated max dynamical RAM per process >       3.42 GB

     Estimated total dynamical RAM >       6.84 GB
     Cannot read rho : file not found

     Initial potential from superposition of free atoms

     starting charge   57.99842, renormalised to   58.00000

     negative rho (up, down):  1.056E-04 0.000E+00
     Message from routine qexsd_readschema :
     xml data file /scratch/as3359/Mos2_ct_lat/Ta2C.save/data-file-schema.xml not fou
     Cannot read wfcs: file not found
     Starting wfcs are   38 randomized atomic wfcs

     total cpu time spent up to now is       35.9 secs

     Self-consistent Calculation

     iteration #  1     ecut=   150.00 Ry     beta= 0.70
     Davidson diagonalization with overlap
     c_bands:  1 eigenvalues not converged
     ethr =  1.00E-05,  avg # of iterations = 13.0

     negative rho (up, down):  1.039E-04 0.000E+00

     total cpu time spent up to now is      176.9 secs

     total energy              =   -1372.53304110 Ry
     estimated scf accuracy    <       1.16089034 Ry

     iteration #  2     ecut=   150.00 Ry     beta= 0.70
     Davidson diagonalization with overlap
     ethr =  2.00E-03,  avg # of iterations =  6.2

     negative rho (up, down):  5.329E-05 0.000E+00

     total cpu time spent up to now is      263.0 secs

     total energy              =   -1372.15877980 Ry
     estimated scf accuracy    <       6.83531633 Ry

     iteration #  3     ecut=   150.00 Ry     beta= 0.70
     Davidson diagonalization with overlap
     ethr =  2.00E-03,  avg # of iterations =  5.1

     negative rho (up, down):  6.248E-05 0.000E+00

     total cpu time spent up to now is      342.6 secs

     total energy              =   -1373.20588898 Ry
     estimated scf accuracy    <       0.06639911 Ry

     iteration #  4     ecut=   150.00 Ry     beta= 0.70
     Davidson diagonalization with overlap
     ethr =  1.14E-04,  avg # of iterations =  6.3

     negative rho (up, down):  6.336E-05 0.000E+00

     total cpu time spent up to now is      418.1 secs

     total energy              =   -1373.22795647 Ry
     estimated scf accuracy    <       0.01784354 Ry

     iteration #  5     ecut=   150.00 Ry     beta= 0.70
     Davidson diagonalization with overlap
     ethr =  3.08E-05,  avg # of iterations =  7.9

     negative rho (up, down):  6.780E-05 0.000E+00

     total cpu time spent up to now is      502.0 secs

     total energy              =   -1373.21603714 Ry
     estimated scf accuracy    <       0.29713224 Ry

     iteration #  6     ecut=   150.00 Ry     beta= 0.70
     Davidson diagonalization with overlap
     c_bands:  1 eigenvalues not converged
     c_bands:  1 eigenvalues not converged
     c_bands:  1 eigenvalues not converged
     ethr =  3.08E-05,  avg # of iterations =  7.6

     negative rho (up, down):  9.342E-05 0.000E+00

     total cpu time spent up to now is      583.2 secs

     total energy              =   -1373.23106392 Ry
     estimated scf accuracy    <       0.00755304 Ry

     iteration #  7     ecut=   150.00 Ry     beta= 0.70
     Davidson diagonalization with overlap
     ethr =  1.30E-05,  avg # of iterations =  2.3

     negative rho (up, down):  9.650E-05 0.000E+00

     total cpu time spent up to now is      648.1 secs

     total energy              =   -1373.23127201 Ry
     estimated scf accuracy    <       0.00298583 Ry

     iteration #  8     ecut=   150.00 Ry     beta= 0.70
     Davidson diagonalization with overlap
     ethr =  5.15E-06,  avg # of iterations =  5.1

     negative rho (up, down):  1.097E-04 0.000E+00

     total cpu time spent up to now is      716.8 secs

     total energy              =   -1373.23163602 Ry
     estimated scf accuracy    <       0.00013219 Ry

     iteration #  9     ecut=   150.00 Ry     beta= 0.70
     Davidson diagonalization with overlap
     ethr =  2.28E-07,  avg # of iterations =  6.6

     negative rho (up, down):  1.108E-04 0.000E+00

     total cpu time spent up to now is      793.6 secs

     total energy              =   -1373.23164772 Ry
     estimated scf accuracy    <       0.00041358 Ry

     iteration # 10     ecut=   150.00 Ry     beta= 0.70
     Davidson diagonalization with overlap
     ethr =  2.28E-07,  avg # of iterations =  4.0

     negative rho (up, down):  1.114E-04 0.000E+00

     total cpu time spent up to now is      856.9 secs

     total energy              =   -1373.23164811 Ry
     estimated scf accuracy    <       0.00010798 Ry

     iteration # 11     ecut=   150.00 Ry     beta= 0.70
     Davidson diagonalization with overlap
     ethr =  1.86E-07,  avg # of iterations =  4.6

     negative rho (up, down):  1.117E-04 0.000E+00

     total cpu time spent up to now is      923.4 secs

     total energy              =   -1373.23165794 Ry
     estimated scf accuracy    <       0.00000121 Ry

     iteration # 12     ecut=   150.00 Ry     beta= 0.70
     Davidson diagonalization with overlap
     c_bands:  1 eigenvalues not converged
     c_bands:  1 eigenvalues not converged
     c_bands:  1 eigenvalues not converged
     ethr =  2.08E-09,  avg # of iterations = 11.7

     negative rho (up, down):  1.116E-04 0.000E+00

     total cpu time spent up to now is     1029.9 secs

     total energy              =   -1373.23165846 Ry
     estimated scf accuracy    <       0.00006089 Ry

     iteration # 13     ecut=   150.00 Ry     beta= 0.70
     Davidson diagonalization with overlap
     ethr =  2.08E-09,  avg # of iterations =  7.4

     negative rho (up, down):  1.116E-04 0.000E+00

     total cpu time spent up to now is     1113.1 secs

     total energy              =   -1373.23165921 Ry
     estimated scf accuracy    <       0.00000878 Ry

     iteration # 14     ecut=   150.00 Ry     beta= 0.70
     Davidson diagonalization with overlap
     ethr =  2.08E-09,  avg # of iterations =  2.8

     negative rho (up, down):  1.117E-04 0.000E+00

     total cpu time spent up to now is     1173.4 secs

     total energy              =   -1373.23165920 Ry
     estimated scf accuracy    <       0.00000506 Ry

     iteration # 15     ecut=   150.00 Ry     beta= 0.70
     Davidson diagonalization with overlap
     ethr =  2.08E-09,  avg # of iterations =  2.6

     negative rho (up, down):  1.116E-04 0.000E+00

     total cpu time spent up to now is     1232.3 secs

     total energy              =   -1373.23165905 Ry
     estimated scf accuracy    <       0.00000336 Ry

     iteration # 16     ecut=   150.00 Ry     beta= 0.70
     Davidson diagonalization with overlap
     ethr =  2.08E-09,  avg # of iterations =  4.6

     negative rho (up, down):  1.116E-04 0.000E+00

     total cpu time spent up to now is     1297.6 secs

     total energy              =   -1373.23165911 Ry
     estimated scf accuracy    <       0.00000047 Ry

     iteration # 17     ecut=   150.00 Ry     beta= 0.70
     Davidson diagonalization with overlap
     ethr =  8.18E-10,  avg # of iterations =  5.8

     negative rho (up, down):  1.116E-04 0.000E+00

     total cpu time spent up to now is     1369.4 secs

     total energy              =   -1373.23165917 Ry
     estimated scf accuracy    <       0.00000003 Ry

     iteration # 18     ecut=   150.00 Ry     beta= 0.70
     Davidson diagonalization with overlap
     ethr =  5.64E-11,  avg # of iterations =  5.6

     negative rho (up, down):  1.116E-04 0.000E+00

     total cpu time spent up to now is     1441.0 secs

     total energy              =   -1373.23165918 Ry
     estimated scf accuracy    <       0.00000011 Ry

     iteration # 19     ecut=   150.00 Ry     beta= 0.70
     Davidson diagonalization with overlap
     ethr =  5.64E-11,  avg # of iterations =  1.0

     negative rho (up, down):  1.116E-04 0.000E+00

     total cpu time spent up to now is     1494.6 secs

     total energy              =   -1373.23165917 Ry
     estimated scf accuracy    <       0.00000010 Ry

     iteration # 20     ecut=   150.00 Ry     beta= 0.70
     Davidson diagonalization with overlap
     ethr =  5.64E-11,  avg # of iterations =  4.2

     negative rho (up, down):  1.116E-04 0.000E+00

     total cpu time spent up to now is     1558.8 secs

     total energy              =   -1373.23165917 Ry
     estimated scf accuracy    <       0.00000002 Ry

     iteration # 21     ecut=   150.00 Ry     beta= 0.70
     Davidson diagonalization with overlap
     ethr =  2.90E-11,  avg # of iterations =  6.3

     negative rho (up, down):  1.116E-04 0.000E+00

     total cpu time spent up to now is     1631.6 secs

     total energy              =   -1373.23165917 Ry
     estimated scf accuracy    <          7.3E-09 Ry

     iteration # 22     ecut=   150.00 Ry     beta= 0.70
     Davidson diagonalization with overlap
     ethr =  1.26E-11,  avg # of iterations =  2.4

     negative rho (up, down):  1.116E-04 0.000E+00

     total cpu time spent up to now is     1689.9 secs

     total energy              =   -1373.23165917 Ry
     estimated scf accuracy    <          3.4E-09 Ry

     iteration # 23     ecut=   150.00 Ry     beta= 0.70
     Davidson diagonalization with overlap
     ethr =  5.86E-12,  avg # of iterations =  6.0

     negative rho (up, down):  1.116E-04 0.000E+00

     total cpu time spent up to now is     1760.0 secs

     total energy              =   -1373.23165917 Ry
     estimated scf accuracy    <          1.0E-09 Ry

     iteration # 24     ecut=   150.00 Ry     beta= 0.70
     Davidson diagonalization with overlap
     ethr =  1.79E-12,  avg # of iterations =  2.4

     negative rho (up, down):  1.116E-04 0.000E+00

     total cpu time spent up to now is     1818.3 secs

     total energy              =   -1373.23165917 Ry
     estimated scf accuracy    <          6.0E-10 Ry

     iteration # 25     ecut=   150.00 Ry     beta= 0.70
     Davidson diagonalization with overlap
     ethr =  1.03E-12,  avg # of iterations =  2.1

     negative rho (up, down):  1.116E-04 0.000E+00

     total cpu time spent up to now is     1875.5 secs

     total energy              =   -1373.23165917 Ry
     estimated scf accuracy    <          4.2E-10 Ry

     iteration # 26     ecut=   150.00 Ry     beta= 0.70
     Davidson diagonalization with overlap
     ethr =  7.31E-13,  avg # of iterations =  5.8

     negative rho (up, down):  1.116E-04 0.000E+00

     total cpu time spent up to now is     1944.5 secs

     total energy              =   -1373.23165917 Ry
     estimated scf accuracy    <          5.4E-11 Ry

     iteration # 27     ecut=   150.00 Ry     beta= 0.70
     Davidson diagonalization with overlap
     ethr =  1.00E-13,  avg # of iterations =  4.3

     negative rho (up, down):  1.116E-04 0.000E+00

     total cpu time spent up to now is     2007.8 secs

     total energy              =   -1373.23165917 Ry
     estimated scf accuracy    <          9.5E-11 Ry

     iteration # 28     ecut=   150.00 Ry     beta= 0.70
     Davidson diagonalization with overlap
     ethr =  1.00E-13,  avg # of iterations =  1.0

     negative rho (up, down):  1.116E-04 0.000E+00

     total cpu time spent up to now is     2061.1 secs

     total energy              =   -1373.23165917 Ry
     estimated scf accuracy    <          1.0E-10 Ry

     iteration # 29     ecut=   150.00 Ry     beta= 0.70
     Davidson diagonalization with overlap
     ethr =  1.00E-13,  avg # of iterations =  1.1

     negative rho (up, down):  1.116E-04 0.000E+00

     total cpu time spent up to now is     2114.9 secs

     total energy              =   -1373.23165917 Ry
     estimated scf accuracy    <          1.0E-10 Ry

     iteration # 30     ecut=   150.00 Ry     beta= 0.70
     Davidson diagonalization with overlap
     ethr =  1.00E-13,  avg # of iterations =  1.1

     negative rho (up, down):  1.116E-04 0.000E+00

     total cpu time spent up to now is     2168.7 secs

     total energy              =   -1373.23165917 Ry
     estimated scf accuracy    <          1.1E-10 Ry

     iteration # 31     ecut=   150.00 Ry     beta= 0.70
     Davidson diagonalization with overlap
     ethr =  1.00E-13,  avg # of iterations =  1.8

     negative rho (up, down):  1.116E-04 0.000E+00

     total cpu time spent up to now is     2225.3 secs

     total energy              =   -1373.23165917 Ry
     estimated scf accuracy    <          6.8E-11 Ry

     iteration # 32     ecut=   150.00 Ry     beta= 0.70
     Davidson diagonalization with overlap
     ethr =  1.00E-13,  avg # of iterations =  1.2

     negative rho (up, down):  1.116E-04 0.000E+00

     total cpu time spent up to now is     2279.4 secs

     total energy              =   -1373.23165917 Ry
     estimated scf accuracy    <          4.7E-11 Ry

     iteration # 33     ecut=   150.00 Ry     beta= 0.70
     Davidson diagonalization with overlap
     ethr =  1.00E-13,  avg # of iterations =  1.0

     negative rho (up, down):  1.116E-04 0.000E+00

     total cpu time spent up to now is     2332.9 secs

     total energy              =   -1373.23165917 Ry
     estimated scf accuracy    <          4.1E-11 Ry

     iteration # 34     ecut=   150.00 Ry     beta= 0.70
     Davidson diagonalization with overlap
     ethr =  1.00E-13,  avg # of iterations =  1.4

     negative rho (up, down):  1.116E-04 0.000E+00

     total cpu time spent up to now is     2387.7 secs

     total energy              =   -1373.23165917 Ry
     estimated scf accuracy    <          2.8E-11 Ry

     iteration # 35     ecut=   150.00 Ry     beta= 0.70
     Davidson diagonalization with overlap
     ethr =  1.00E-13,  avg # of iterations =  1.8

     negative rho (up, down):  1.116E-04 0.000E+00

     total cpu time spent up to now is     2443.7 secs

     total energy              =   -1373.23165917 Ry
     estimated scf accuracy    <          1.3E-11 Ry

     iteration # 36     ecut=   150.00 Ry     beta= 0.70
     Davidson diagonalization with overlap
     ethr =  1.00E-13,  avg # of iterations =  2.6

     negative rho (up, down):  1.116E-04 0.000E+00

     total cpu time spent up to now is     2501.9 secs

     End of self-consistent calculation

     Number of k-points >= 100: set verbosity='high' to print the bands.

     highest occupied level (ev):    -0.4262

!    total energy              =   -1373.23165917 Ry
     estimated scf accuracy    <          7.2E-13 Ry

     The total energy is the sum of the following terms:
     one-electron contribution =  -10598.80965341 Ry
     hartree contribution      =    5326.39525114 Ry
     xc contribution           =    -138.45549942 Ry
     ewald contribution        =    4037.63824251 Ry

     convergence has been achieved in  36 iterations

     negative rho (up, down):  1.116E-04 0.000E+00

     Forces acting on atoms (cartesian axes, Ry/au):

     atom    1 type  2   force =     0.00022448    0.00020354   -0.00013089
     atom    2 type  1   force =    -0.00012187   -0.00046166    0.07477821
     atom    3 type  1   force =    -0.00010261    0.00025812   -0.07464732

     Total force =     0.105661     Total SCF correction =     0.000011


     Computing stress (Cartesian axis) and pressure


     negative rho (up, down):  1.116E-04 0.000E+00
          total   stress  (Ry/bohr**3)                   (kbar)     P=      -35.10
  -0.00025103  -0.00000207   0.00000003          -36.93       -0.31        0.00
  -0.00000207  -0.00026362   0.00000097           -0.31      -38.78        0.14
   0.00000003   0.00000097  -0.00020126            0.00        0.14      -29.61


     Writing output data file /scratch/as3359/Mos2_ct_lat/Ta2C.save/
 
     init_run     :     66.14s CPU     35.71s WALL (       1 calls)
     electrons    :   4847.51s CPU   2466.11s WALL (       1 calls)
     forces       :     18.93s CPU      9.71s WALL (       1 calls)
     stress       :     94.49s CPU     48.25s WALL (       1 calls)

     Called by init_run:
     wfcinit      :     56.29s CPU     29.17s WALL (       1 calls)
     potinit      :      2.46s CPU      1.25s WALL (       1 calls)
     hinit0       :      5.23s CPU      3.79s WALL (       1 calls)

     Called by electrons:
     c_bands      :   4018.47s CPU   2030.21s WALL (      36 calls)
     sum_band     :    746.73s CPU    385.91s WALL (      36 calls)
     v_of_rho     :     12.09s CPU      6.58s WALL (      37 calls)
     newd         :     65.99s CPU     41.30s WALL (      37 calls)
     mix_rho      :      5.65s CPU      3.01s WALL (      36 calls)

     Called by c_bands:
     init_us_2    :    117.01s CPU     58.56s WALL (    8475 calls)
     cegterg      :   3664.05s CPU   1852.14s WALL (    4068 calls)

     Called by *egterg:
     cdiaghg      :     31.33s CPU     16.04s WALL (   21806 calls)
     h_psi        :   2870.99s CPU   1454.78s WALL (   21919 calls)
     s_psi        :    186.43s CPU     93.32s WALL (   21919 calls)
     g_psi        :     18.18s CPU      9.12s WALL (   17738 calls)

     Called by h_psi:
     h_psi:calbec :    137.44s CPU     68.85s WALL (   21919 calls)
     vloc_psi     :   2503.65s CPU   1270.49s WALL (   21919 calls)
     add_vuspsi   :    202.85s CPU    101.56s WALL (   21919 calls)

     General routines
     calbec       :    181.14s CPU     90.74s WALL (   26552 calls)
     fft          :     10.36s CPU      5.30s WALL (     432 calls)
     ffts         :      0.42s CPU      0.22s WALL (      36 calls)
     fftw         :   2492.34s CPU   1266.96s WALL (  704498 calls)
 
     Parallel routines
 
     PWSCF        :      1h23m CPU  42m46.02s WALL

 
   This run was terminated on:  20:49:46   9Apr2022            

=------------------------------------------------------------------------------=
   JOB DONE.
=------------------------------------------------------------------------------=
