
     Program PWSCF v.6.8 starts on  9Apr2022 at 17:44:56 

     This program is part of the open-source Quantum ESPRESSO suite
     for quantum simulation of materials; please cite
         "P. Giannozzi et al., J. Phys.:Condens. Matter 21 395502 (2009);
         "P. Giannozzi et al., J. Phys.:Condens. Matter 29 465901 (2017);
         "P. Giannozzi et al., J. Chem. Phys. 152 154105 (2020);
          URL http://www.quantum-espresso.org", 
     in publications or presentations arising from this work. More details at
     http://www.quantum-espresso.org/quote

     Parallel version (MPI & OpenMP), running on       4 processor cores
     Number of MPI processes:                 2
     Threads/MPI process:                     2

     MPI processes distributed on     1 nodes
     R & G space division:  proc/nbgrp/npool/nimage =       2
     124999 MiB available memory on the printing compute node when the environment starts
 
     Reading input from Ta2C.scf.5.550.in
Warning: card  &CELL ignored
Warning: card     CELL_DYNAMICS='BFGS' ignored
Warning: card  / ignored

     Current dimensions of program PWSCF are:
     Max number of different atomic species (ntypx) = 10
     Max number of k-points (npk) =  40000
     Max angular momentum in pseudopotentials (lmaxx) =  4
     Message from routine iosys:
     restart disabled: needed files not found
     file Ta.pbesol-spfn-rrkjus_psl.1.0.0.UPF: wavefunction(s)  5S 5P renormalized

     Subspace diagonalization in iterative solution of the eigenvalue problem:
     a serial algorithm will be used

 
     Parallelization info
     --------------------
     sticks:   dense  smooth     PW     G-vecs:    dense   smooth      PW
     Min         684     684    198               197288   197288   31220
     Max         685     685    199               197321   197321   31235
     Sum        1369    1369    397               394609   394609   62455
 
     Using Slab Decomposition
 


     bravais-lattice index     =            0
     lattice parameter (alat)  =       5.5500  a.u.
     unit-cell volume          =    1588.7844 (a.u.)^3
     number of atoms/cell      =            3
     number of atomic types    =            2
     number of electrons       =        58.00
     number of Kohn-Sham states=           29
     kinetic-energy cutoff     =     150.0000  Ry
     charge density cutoff     =     600.0000  Ry
     scf convergence threshold =      1.0E-12
     mixing beta               =       0.7000
     number of iterations used =            8  plain     mixing
     Exchange-correlation= PBESOL
                           (   1   4  10   8   0   0   0)

     celldm(1)=   5.550000  celldm(2)=   0.000000  celldm(3)=   0.000000
     celldm(4)=   0.000000  celldm(5)=   0.000000  celldm(6)=   0.000000

     crystal axes: (cart. coord. in units of alat)
               a(1) = (   1.034114   0.000203   0.000000 )  
               a(2) = (  -0.516207   0.898604   0.000000 )  
               a(3) = (   0.000000   0.000000  10.000000 )  

     reciprocal axes: (cart. coord. in units 2 pi/alat)
               b(1) = (  0.966902  0.555441  0.000000 )  
               b(2) = ( -0.000219  1.112711  0.000000 )  
               b(3) = (  0.000000  0.000000  0.100000 )  


     PseudoPot. # 1 for Ta read from file:
     /shared/home/as3359/pseudo/Ta.pbesol-spfn-rrkjus_psl.1.0.0.UPF
     MD5 check sum: f099565ffaca9b150a52e9412a28e20b
     Pseudo is Ultrasoft + core correction, Zval = 27.0
     Generated using &quot;atomic&quot; code by A. Dal Corso  v.6.3
     Using radial grid of 1273 points,  8 beta functions with: 
                l(1) =   0
                l(2) =   0
                l(3) =   1
                l(4) =   1
                l(5) =   2
                l(6) =   2
                l(7) =   3
                l(8) =   3
     Q(r) pseudized with 0 coefficients 


     PseudoPot. # 2 for C  read from file:
     /shared/home/as3359/pseudo/C.pbesol-n-rrkjus_psl.1.0.0.UPF
     MD5 check sum: 05995be603a8a7c99da3dc4413f31573
     Pseudo is Ultrasoft + core correction, Zval =  4.0
     Generated using &quot;atomic&quot; code by A. Dal Corso  v.6.3MaX
     Using radial grid of 1073 points,  4 beta functions with: 
                l(1) =   0
                l(2) =   0
                l(3) =   1
                l(4) =   1
     Q(r) pseudized with 0 coefficients 


     atomic species   valence    mass     pseudopotential
        Ta            27.00   180.94788     Ta( 1.00)
        C              4.00    12.01070     C ( 1.00)

     No symmetry found



   Cartesian axes

     site n.     atom                  positions (alat units)
         1           C   tau(   1) = (   0.0000000   0.0000000   0.0000000  )
         2           Ta  tau(   2) = (   0.5174615   0.3004190  -0.4127129  )
         3           Ta  tau(   3) = (   0.0007158   0.5986355   0.4125272  )

     number of k points=   113

     Number of k-points >= 100: set verbosity='high' to print them.

     Dense  grid:   394609 G-vectors     FFT dimensions: (  45,  45, 450)

     Estimated max dynamical RAM per process >       3.08 GB

     Estimated total dynamical RAM >       6.16 GB
     Cannot read rho : file not found

     Initial potential from superposition of free atoms

     starting charge   57.99842, renormalised to   58.00000

     negative rho (up, down):  9.930E-05 0.000E+00
     Message from routine qexsd_readschema :
     xml data file /scratch/as3359/Mos2_ct_lat/Ta2C.save/data-file-schema.xml not fou
     Cannot read wfcs: file not found
     Starting wfcs are   38 randomized atomic wfcs

     total cpu time spent up to now is       35.3 secs

     Self-consistent Calculation

     iteration #  1     ecut=   150.00 Ry     beta= 0.70
     Davidson diagonalization with overlap
     c_bands:  1 eigenvalues not converged
     c_bands:  1 eigenvalues not converged
     c_bands:  1 eigenvalues not converged
     ethr =  1.00E-05,  avg # of iterations = 12.5

     negative rho (up, down):  9.464E-05 0.000E+00

     total cpu time spent up to now is      182.7 secs

     total energy              =   -1372.45666392 Ry
     estimated scf accuracy    <       1.31498553 Ry

     iteration #  2     ecut=   150.00 Ry     beta= 0.70
     Davidson diagonalization with overlap
     ethr =  2.27E-03,  avg # of iterations =  7.5

     total cpu time spent up to now is      272.4 secs

     total energy              =   -1371.54729672 Ry
     estimated scf accuracy    <      10.51642261 Ry

     iteration #  3     ecut=   150.00 Ry     beta= 0.70
     Davidson diagonalization with overlap
     ethr =  2.27E-03,  avg # of iterations =  6.3

     total cpu time spent up to now is      355.7 secs

     total energy              =   -1373.20105273 Ry
     estimated scf accuracy    <       0.17131288 Ry

     iteration #  4     ecut=   150.00 Ry     beta= 0.70
     Davidson diagonalization with overlap
     ethr =  2.95E-04,  avg # of iterations =  4.3

     total cpu time spent up to now is      423.7 secs

     total energy              =   -1373.25054499 Ry
     estimated scf accuracy    <       0.03292175 Ry

     iteration #  5     ecut=   150.00 Ry     beta= 0.70
     Davidson diagonalization with overlap
     c_bands:  1 eigenvalues not converged
     c_bands:  1 eigenvalues not converged
     ethr =  5.68E-05,  avg # of iterations =  7.0

     total cpu time spent up to now is      501.5 secs

     total energy              =   -1373.24334566 Ry
     estimated scf accuracy    <       0.19125976 Ry

     iteration #  6     ecut=   150.00 Ry     beta= 0.70
     Davidson diagonalization with overlap
     ethr =  5.68E-05,  avg # of iterations =  7.1

     total cpu time spent up to now is      577.0 secs

     total energy              =   -1373.25114497 Ry
     estimated scf accuracy    <       0.02185680 Ry

     iteration #  7     ecut=   150.00 Ry     beta= 0.70
     Davidson diagonalization with overlap
     ethr =  3.77E-05,  avg # of iterations =  2.4

     total cpu time spent up to now is      636.0 secs

     total energy              =   -1373.25060947 Ry
     estimated scf accuracy    <       0.00657161 Ry

     iteration #  8     ecut=   150.00 Ry     beta= 0.70
     Davidson diagonalization with overlap
     ethr =  1.13E-05,  avg # of iterations =  5.7

     total cpu time spent up to now is      708.2 secs

     total energy              =   -1373.25183131 Ry
     estimated scf accuracy    <       0.00415442 Ry

     iteration #  9     ecut=   150.00 Ry     beta= 0.70
     Davidson diagonalization with overlap
     ethr =  7.16E-06,  avg # of iterations =  1.5

     negative rho (up, down):  3.896E-05 0.000E+00

     total cpu time spent up to now is      763.3 secs

     total energy              =   -1373.25156184 Ry
     estimated scf accuracy    <       0.00325277 Ry

     iteration # 10     ecut=   150.00 Ry     beta= 0.70
     Davidson diagonalization with overlap
     ethr =  5.61E-06,  avg # of iterations =  3.9

     negative rho (up, down):  1.090E-03 0.000E+00

     total cpu time spent up to now is      826.1 secs

     total energy              =   -1373.25172157 Ry
     estimated scf accuracy    <       0.00023729 Ry

     iteration # 11     ecut=   150.00 Ry     beta= 0.70
     Davidson diagonalization with overlap
     ethr =  4.09E-07,  avg # of iterations =  7.0

     negative rho (up, down):  4.694E-05 0.000E+00

     total cpu time spent up to now is      906.2 secs

     total energy              =   -1373.25167103 Ry
     estimated scf accuracy    <       0.00093069 Ry

     iteration # 12     ecut=   150.00 Ry     beta= 0.70
     Davidson diagonalization with overlap
     ethr =  4.09E-07,  avg # of iterations =  7.0

     negative rho (up, down):  1.000E-04 0.000E+00

     total cpu time spent up to now is      985.5 secs

     total energy              =   -1373.25175301 Ry
     estimated scf accuracy    <       0.00031383 Ry

     iteration # 13     ecut=   150.00 Ry     beta= 0.70
     Davidson diagonalization with overlap
     ethr =  4.09E-07,  avg # of iterations =  4.6

     negative rho (up, down):  9.907E-05 0.000E+00

     total cpu time spent up to now is     1050.9 secs

     total energy              =   -1373.25177576 Ry
     estimated scf accuracy    <       0.00000827 Ry

     iteration # 14     ecut=   150.00 Ry     beta= 0.70
     Davidson diagonalization with overlap
     ethr =  1.43E-08,  avg # of iterations =  7.2

     negative rho (up, down):  1.050E-04 0.000E+00

     total cpu time spent up to now is     1132.1 secs

     total energy              =   -1373.25178016 Ry
     estimated scf accuracy    <       0.00003233 Ry

     iteration # 15     ecut=   150.00 Ry     beta= 0.70
     Davidson diagonalization with overlap
     ethr =  1.43E-08,  avg # of iterations =  4.7

     negative rho (up, down):  1.046E-04 0.000E+00

     total cpu time spent up to now is     1197.3 secs

     total energy              =   -1373.25178034 Ry
     estimated scf accuracy    <       0.00000881 Ry

     iteration # 16     ecut=   150.00 Ry     beta= 0.70
     Davidson diagonalization with overlap
     ethr =  1.43E-08,  avg # of iterations =  2.7

     negative rho (up, down):  1.049E-04 0.000E+00

     total cpu time spent up to now is     1256.7 secs

     total energy              =   -1373.25178037 Ry
     estimated scf accuracy    <       0.00000329 Ry

     iteration # 17     ecut=   150.00 Ry     beta= 0.70
     Davidson diagonalization with overlap
     ethr =  5.67E-09,  avg # of iterations =  5.7

     negative rho (up, down):  1.049E-04 0.000E+00

     total cpu time spent up to now is     1325.6 secs

     total energy              =   -1373.25178076 Ry
     estimated scf accuracy    <       0.00000014 Ry

     iteration # 18     ecut=   150.00 Ry     beta= 0.70
     Davidson diagonalization with overlap
     ethr =  2.46E-10,  avg # of iterations =  7.2

     negative rho (up, down):  1.047E-04 0.000E+00

     total cpu time spent up to now is     1407.9 secs

     total energy              =   -1373.25178079 Ry
     estimated scf accuracy    <       0.00000227 Ry

     iteration # 19     ecut=   150.00 Ry     beta= 0.70
     Davidson diagonalization with overlap
     ethr =  2.46E-10,  avg # of iterations =  4.9

     negative rho (up, down):  1.048E-04 0.000E+00

     total cpu time spent up to now is     1474.9 secs

     total energy              =   -1373.25178077 Ry
     estimated scf accuracy    <       0.00000105 Ry

     iteration # 20     ecut=   150.00 Ry     beta= 0.70
     Davidson diagonalization with overlap
     ethr =  2.46E-10,  avg # of iterations =  3.7

     negative rho (up, down):  1.045E-04 0.000E+00

     total cpu time spent up to now is     1537.4 secs

     total energy              =   -1373.25178075 Ry
     estimated scf accuracy    <       0.00000062 Ry

     iteration # 21     ecut=   150.00 Ry     beta= 0.70
     Davidson diagonalization with overlap
     ethr =  2.46E-10,  avg # of iterations =  6.2

     negative rho (up, down):  1.044E-04 0.000E+00

     total cpu time spent up to now is     1609.5 secs

     total energy              =   -1373.25178076 Ry
     estimated scf accuracy    <       0.00000007 Ry

     iteration # 22     ecut=   150.00 Ry     beta= 0.70
     Davidson diagonalization with overlap
     ethr =  1.16E-10,  avg # of iterations =  4.0

     negative rho (up, down):  1.043E-04 0.000E+00

     total cpu time spent up to now is     1673.3 secs

     total energy              =   -1373.25178076 Ry
     estimated scf accuracy    <          5.2E-09 Ry

     iteration # 23     ecut=   150.00 Ry     beta= 0.70
     Davidson diagonalization with overlap
     ethr =  9.01E-12,  avg # of iterations =  7.1

     negative rho (up, down):  1.044E-04 0.000E+00

     total cpu time spent up to now is     1753.7 secs

     total energy              =   -1373.25178076 Ry
     estimated scf accuracy    <       0.00000002 Ry

     iteration # 24     ecut=   150.00 Ry     beta= 0.70
     Davidson diagonalization with overlap
     ethr =  9.01E-12,  avg # of iterations =  6.4

     negative rho (up, down):  1.043E-04 0.000E+00

     total cpu time spent up to now is     1827.0 secs

     total energy              =   -1373.25178076 Ry
     estimated scf accuracy    <          1.2E-10 Ry

     iteration # 25     ecut=   150.00 Ry     beta= 0.70
     Davidson diagonalization with overlap
     c_bands:  1 eigenvalues not converged
     ethr =  2.04E-13,  avg # of iterations =  6.5

     negative rho (up, down):  1.043E-04 0.000E+00

     total cpu time spent up to now is     1903.7 secs

     total energy              =   -1373.25178076 Ry
     estimated scf accuracy    <          5.3E-10 Ry

     iteration # 26     ecut=   150.00 Ry     beta= 0.70
     Davidson diagonalization with overlap
     ethr =  2.04E-13,  avg # of iterations =  6.2

     negative rho (up, down):  1.043E-04 0.000E+00

     total cpu time spent up to now is     1975.6 secs

     total energy              =   -1373.25178076 Ry
     estimated scf accuracy    <          5.2E-12 Ry

     iteration # 27     ecut=   150.00 Ry     beta= 0.70
     Davidson diagonalization with overlap
     ethr =  1.00E-13,  avg # of iterations =  6.7

     negative rho (up, down):  1.043E-04 0.000E+00

     total cpu time spent up to now is     2051.7 secs

     total energy              =   -1373.25178076 Ry
     estimated scf accuracy    <          2.4E-10 Ry

     iteration # 28     ecut=   150.00 Ry     beta= 0.70
     Davidson diagonalization with overlap
     ethr =  1.00E-13,  avg # of iterations =  6.3

     negative rho (up, down):  1.043E-04 0.000E+00

     total cpu time spent up to now is     2123.7 secs

     total energy              =   -1373.25178076 Ry
     estimated scf accuracy    <          2.3E-12 Ry

     iteration # 29     ecut=   150.00 Ry     beta= 0.70
     Davidson diagonalization with overlap
     ethr =  1.00E-13,  avg # of iterations =  1.2

     negative rho (up, down):  1.043E-04 0.000E+00

     total cpu time spent up to now is     2177.5 secs

     End of self-consistent calculation

     Number of k-points >= 100: set verbosity='high' to print the bands.

     highest occupied level (ev):     0.1235

!    total energy              =   -1373.25178076 Ry
     estimated scf accuracy    <          4.2E-13 Ry

     The total energy is the sum of the following terms:
     one-electron contribution =  -10892.13709663 Ry
     hartree contribution      =    5474.53056660 Ry
     xc contribution           =    -138.78397045 Ry
     ewald contribution        =    4183.13871972 Ry

     convergence has been achieved in  29 iterations

     negative rho (up, down):  1.043E-04 0.000E+00

     Forces acting on atoms (cartesian axes, Ry/au):

     atom    1 type  2   force =     0.00030958    0.00028172   -0.00017833
     atom    2 type  1   force =    -0.00027881   -0.00041704    0.00166040
     atom    3 type  1   force =    -0.00003077    0.00013533   -0.00148207

     Total force =     0.002286     Total SCF correction =     0.000008


     Computing stress (Cartesian axis) and pressure


     negative rho (up, down):  1.043E-04 0.000E+00
          total   stress  (Ry/bohr**3)                   (kbar)     P=        5.48
   0.00006662  -0.00000280   0.00000036            9.80       -0.41        0.05
  -0.00000280   0.00005043   0.00000080           -0.41        7.42        0.12
   0.00000036   0.00000080  -0.00000522            0.05        0.12       -0.77


     Writing output data file /scratch/as3359/Mos2_ct_lat/Ta2C.save/
 
     init_run     :     65.32s CPU     35.14s WALL (       1 calls)
     electrons    :   4220.14s CPU   2142.22s WALL (       1 calls)
     forces       :     16.93s CPU      8.69s WALL (       1 calls)
     stress       :     84.43s CPU     43.10s WALL (       1 calls)

     Called by init_run:
     wfcinit      :     56.40s CPU     29.19s WALL (       1 calls)
     potinit      :      2.18s CPU      1.11s WALL (       1 calls)
     hinit0       :      4.81s CPU      3.49s WALL (       1 calls)

     Called by electrons:
     c_bands      :   3557.31s CPU   1795.13s WALL (      29 calls)
     sum_band     :    603.80s CPU    311.11s WALL (      29 calls)
     v_of_rho     :      8.65s CPU      4.73s WALL (      30 calls)
     newd         :     47.83s CPU     29.92s WALL (      30 calls)
     mix_rho      :      3.86s CPU      2.17s WALL (      29 calls)

     Called by c_bands:
     init_us_2    :     85.17s CPU     42.63s WALL (    6893 calls)
     cegterg      :   3299.69s CPU   1665.36s WALL (    3277 calls)

     Called by *egterg:
     cdiaghg      :     32.20s CPU     16.49s WALL (   21757 calls)
     h_psi        :   2630.53s CPU   1330.00s WALL (   21870 calls)
     s_psi        :    157.84s CPU     79.03s WALL (   21870 calls)
     g_psi        :     14.89s CPU      7.47s WALL (   18480 calls)

     Called by h_psi:
     h_psi:calbec :    116.40s CPU     58.38s WALL (   21870 calls)
     vloc_psi     :   2318.33s CPU   1173.28s WALL (   21870 calls)
     add_vuspsi   :    174.09s CPU     87.19s WALL (   21870 calls)

     General routines
     calbec       :    149.21s CPU     74.85s WALL (   25712 calls)
     fft          :      4.24s CPU      2.18s WALL (     355 calls)
     ffts         :      0.32s CPU      0.16s WALL (      29 calls)
     fftw         :   2369.71s CPU   1200.27s WALL (  605949 calls)
 
     Parallel routines
 
     PWSCF        :      1h13m CPU  37m14.90s WALL

 
   This run was terminated on:  18:22:11   9Apr2022            

=------------------------------------------------------------------------------=
   JOB DONE.
=------------------------------------------------------------------------------=
