
     Program PWSCF v.6.8 starts on  9Apr2022 at 18:22:12 

     This program is part of the open-source Quantum ESPRESSO suite
     for quantum simulation of materials; please cite
         "P. Giannozzi et al., J. Phys.:Condens. Matter 21 395502 (2009);
         "P. Giannozzi et al., J. Phys.:Condens. Matter 29 465901 (2017);
         "P. Giannozzi et al., J. Chem. Phys. 152 154105 (2020);
          URL http://www.quantum-espresso.org", 
     in publications or presentations arising from this work. More details at
     http://www.quantum-espresso.org/quote

     Parallel version (MPI & OpenMP), running on       4 processor cores
     Number of MPI processes:                 2
     Threads/MPI process:                     2

     MPI processes distributed on     1 nodes
     R & G space division:  proc/nbgrp/npool/nimage =       2
     124990 MiB available memory on the printing compute node when the environment starts
 
     Reading input from Ta2C.scf.5.600.in
Warning: card  &CELL ignored
Warning: card     CELL_DYNAMICS='BFGS' ignored
Warning: card  / ignored

     Current dimensions of program PWSCF are:
     Max number of different atomic species (ntypx) = 10
     Max number of k-points (npk) =  40000
     Max angular momentum in pseudopotentials (lmaxx) =  4
     Message from routine iosys:
     restart disabled: needed files not found
     file Ta.pbesol-spfn-rrkjus_psl.1.0.0.UPF: wavefunction(s)  5S 5P renormalized

     Subspace diagonalization in iterative solution of the eigenvalue problem:
     a serial algorithm will be used

 
     Parallelization info
     --------------------
     sticks:   dense  smooth     PW     G-vecs:    dense   smooth      PW
     Min         696     696    209               202618   202618   32135
     Max         697     697    210               202643   202643   32136
     Sum        1393    1393    419               405261   405261   64271
 
     Using Slab Decomposition
 


     bravais-lattice index     =            0
     lattice parameter (alat)  =       5.6000  a.u.
     unit-cell volume          =    1632.1125 (a.u.)^3
     number of atoms/cell      =            3
     number of atomic types    =            2
     number of electrons       =        58.00
     number of Kohn-Sham states=           29
     kinetic-energy cutoff     =     150.0000  Ry
     charge density cutoff     =     600.0000  Ry
     scf convergence threshold =      1.0E-12
     mixing beta               =       0.7000
     number of iterations used =            8  plain     mixing
     Exchange-correlation= PBESOL
                           (   1   4  10   8   0   0   0)

     celldm(1)=   5.600000  celldm(2)=   0.000000  celldm(3)=   0.000000
     celldm(4)=   0.000000  celldm(5)=   0.000000  celldm(6)=   0.000000

     crystal axes: (cart. coord. in units of alat)
               a(1) = (   1.034114   0.000203   0.000000 )  
               a(2) = (  -0.516207   0.898604   0.000000 )  
               a(3) = (   0.000000   0.000000  10.000000 )  

     reciprocal axes: (cart. coord. in units 2 pi/alat)
               b(1) = (  0.966902  0.555441  0.000000 )  
               b(2) = ( -0.000219  1.112711  0.000000 )  
               b(3) = (  0.000000  0.000000  0.100000 )  


     PseudoPot. # 1 for Ta read from file:
     /shared/home/as3359/pseudo/Ta.pbesol-spfn-rrkjus_psl.1.0.0.UPF
     MD5 check sum: f099565ffaca9b150a52e9412a28e20b
     Pseudo is Ultrasoft + core correction, Zval = 27.0
     Generated using &quot;atomic&quot; code by A. Dal Corso  v.6.3
     Using radial grid of 1273 points,  8 beta functions with: 
                l(1) =   0
                l(2) =   0
                l(3) =   1
                l(4) =   1
                l(5) =   2
                l(6) =   2
                l(7) =   3
                l(8) =   3
     Q(r) pseudized with 0 coefficients 


     PseudoPot. # 2 for C  read from file:
     /shared/home/as3359/pseudo/C.pbesol-n-rrkjus_psl.1.0.0.UPF
     MD5 check sum: 05995be603a8a7c99da3dc4413f31573
     Pseudo is Ultrasoft + core correction, Zval =  4.0
     Generated using &quot;atomic&quot; code by A. Dal Corso  v.6.3MaX
     Using radial grid of 1073 points,  4 beta functions with: 
                l(1) =   0
                l(2) =   0
                l(3) =   1
                l(4) =   1
     Q(r) pseudized with 0 coefficients 


     atomic species   valence    mass     pseudopotential
        Ta            27.00   180.94788     Ta( 1.00)
        C              4.00    12.01070     C ( 1.00)

     No symmetry found



   Cartesian axes

     site n.     atom                  positions (alat units)
         1           C   tau(   1) = (   0.0000000   0.0000000   0.0000000  )
         2           Ta  tau(   2) = (   0.5174615   0.3004190  -0.4127129  )
         3           Ta  tau(   3) = (   0.0007158   0.5986355   0.4125272  )

     number of k points=   113

     Number of k-points >= 100: set verbosity='high' to print them.

     Dense  grid:   405261 G-vectors     FFT dimensions: (  45,  45, 450)

     Estimated max dynamical RAM per process >       3.16 GB

     Estimated total dynamical RAM >       6.32 GB
     Cannot read rho : file not found

     Initial potential from superposition of free atoms

     starting charge   57.99842, renormalised to   58.00000

     negative rho (up, down):  1.019E-04 0.000E+00
     Message from routine qexsd_readschema :
     xml data file /scratch/as3359/Mos2_ct_lat/Ta2C.save/data-file-schema.xml not fou
     Cannot read wfcs: file not found
     Starting wfcs are   38 randomized atomic wfcs

     total cpu time spent up to now is       37.5 secs

     Self-consistent Calculation

     iteration #  1     ecut=   150.00 Ry     beta= 0.70
     Davidson diagonalization with overlap
     c_bands:  1 eigenvalues not converged
     c_bands:  1 eigenvalues not converged
     c_bands:  1 eigenvalues not converged
     ethr =  1.00E-05,  avg # of iterations = 12.4

     negative rho (up, down):  9.709E-05 0.000E+00

     total cpu time spent up to now is      191.2 secs

     total energy              =   -1372.48658866 Ry
     estimated scf accuracy    <       1.26857522 Ry

     iteration #  2     ecut=   150.00 Ry     beta= 0.70
     Davidson diagonalization with overlap
     ethr =  2.19E-03,  avg # of iterations =  6.8

     total cpu time spent up to now is      287.1 secs

     total energy              =   -1371.83732265 Ry
     estimated scf accuracy    <       8.78958186 Ry

     iteration #  3     ecut=   150.00 Ry     beta= 0.70
     Davidson diagonalization with overlap
     ethr =  2.19E-03,  avg # of iterations =  5.9

     total cpu time spent up to now is      374.8 secs

     total energy              =   -1373.20163508 Ry
     estimated scf accuracy    <       0.11405218 Ry

     iteration #  4     ecut=   150.00 Ry     beta= 0.70
     Davidson diagonalization with overlap
     ethr =  1.97E-04,  avg # of iterations =  5.4

     total cpu time spent up to now is      453.0 secs

     total energy              =   -1373.24827700 Ry
     estimated scf accuracy    <       0.02845754 Ry

     iteration #  5     ecut=   150.00 Ry     beta= 0.70
     Davidson diagonalization with overlap
     c_bands:  1 eigenvalues not converged
     ethr =  4.91E-05,  avg # of iterations =  7.5

     total cpu time spent up to now is      537.9 secs

     total energy              =   -1373.23791392 Ry
     estimated scf accuracy    <       0.25343047 Ry

     iteration #  6     ecut=   150.00 Ry     beta= 0.70
     Davidson diagonalization with overlap
     ethr =  4.91E-05,  avg # of iterations =  7.4

     negative rho (up, down):  2.391E-07 0.000E+00

     total cpu time spent up to now is      622.4 secs

     total energy              =   -1373.25043202 Ry
     estimated scf accuracy    <       0.01000241 Ry

     iteration #  7     ecut=   150.00 Ry     beta= 0.70
     Davidson diagonalization with overlap
     ethr =  1.72E-05,  avg # of iterations =  2.8

     negative rho (up, down):  7.533E-06 0.000E+00

     total cpu time spent up to now is      689.2 secs

     total energy              =   -1373.25117226 Ry
     estimated scf accuracy    <       0.00271744 Ry

     iteration #  8     ecut=   150.00 Ry     beta= 0.70
     Davidson diagonalization with overlap
     ethr =  4.69E-06,  avg # of iterations =  5.8

     negative rho (up, down):  3.541E-05 0.000E+00

     total cpu time spent up to now is      766.5 secs

     total energy              =   -1373.25157485 Ry
     estimated scf accuracy    <       0.00082999 Ry

     iteration #  9     ecut=   150.00 Ry     beta= 0.70
     Davidson diagonalization with overlap
     ethr =  1.43E-06,  avg # of iterations =  2.4

     negative rho (up, down):  1.046E-04 0.000E+00

     total cpu time spent up to now is      830.0 secs

     total energy              =   -1373.25155604 Ry
     estimated scf accuracy    <       0.00063814 Ry

     iteration # 10     ecut=   150.00 Ry     beta= 0.70
     Davidson diagonalization with overlap
     ethr =  1.10E-06,  avg # of iterations =  3.3

     negative rho (up, down):  1.631E-04 0.000E+00

     total cpu time spent up to now is      897.9 secs

     total energy              =   -1373.25158453 Ry
     estimated scf accuracy    <       0.00013538 Ry

     iteration # 11     ecut=   150.00 Ry     beta= 0.70
     Davidson diagonalization with overlap
     ethr =  2.33E-07,  avg # of iterations =  6.3

     negative rho (up, down):  9.719E-05 0.000E+00

     total cpu time spent up to now is      976.1 secs

     total energy              =   -1373.25159986 Ry
     estimated scf accuracy    <       0.00006327 Ry

     iteration # 12     ecut=   150.00 Ry     beta= 0.70
     Davidson diagonalization with overlap
     ethr =  1.09E-07,  avg # of iterations =  2.2

     negative rho (up, down):  1.104E-04 0.000E+00

     total cpu time spent up to now is     1043.2 secs

     total energy              =   -1373.25159955 Ry
     estimated scf accuracy    <       0.00003259 Ry

     iteration # 13     ecut=   150.00 Ry     beta= 0.70
     Davidson diagonalization with overlap
     ethr =  5.62E-08,  avg # of iterations =  5.9

     negative rho (up, down):  1.055E-04 0.000E+00

     total cpu time spent up to now is     1119.2 secs

     total energy              =   -1373.25160339 Ry
     estimated scf accuracy    <       0.00000443 Ry

     iteration # 14     ecut=   150.00 Ry     beta= 0.70
     Davidson diagonalization with overlap
     ethr =  7.63E-09,  avg # of iterations =  4.4

     negative rho (up, down):  1.063E-04 0.000E+00

     total cpu time spent up to now is     1192.2 secs

     total energy              =   -1373.25160386 Ry
     estimated scf accuracy    <       0.00000108 Ry

     iteration # 15     ecut=   150.00 Ry     beta= 0.70
     Davidson diagonalization with overlap
     ethr =  1.85E-09,  avg # of iterations =  5.6

     negative rho (up, down):  1.062E-04 0.000E+00

     total cpu time spent up to now is     1264.2 secs

     total energy              =   -1373.25160398 Ry
     estimated scf accuracy    <       0.00000003 Ry

     iteration # 16     ecut=   150.00 Ry     beta= 0.70
     Davidson diagonalization with overlap
     ethr =  5.52E-11,  avg # of iterations =  8.6

     negative rho (up, down):  1.066E-04 0.000E+00

     total cpu time spent up to now is     1361.7 secs

     total energy              =   -1373.25160400 Ry
     estimated scf accuracy    <          8.1E-09 Ry

     iteration # 17     ecut=   150.00 Ry     beta= 0.70
     Davidson diagonalization with overlap
     ethr =  1.40E-11,  avg # of iterations =  3.1

     negative rho (up, down):  1.066E-04 0.000E+00

     total cpu time spent up to now is     1428.6 secs

     total energy              =   -1373.25160400 Ry
     estimated scf accuracy    <          3.1E-09 Ry

     iteration # 18     ecut=   150.00 Ry     beta= 0.70
     Davidson diagonalization with overlap
     ethr =  5.29E-12,  avg # of iterations =  4.0

     negative rho (up, down):  1.066E-04 0.000E+00

     total cpu time spent up to now is     1501.5 secs

     total energy              =   -1373.25160400 Ry
     estimated scf accuracy    <          2.8E-10 Ry

     iteration # 19     ecut=   150.00 Ry     beta= 0.70
     Davidson diagonalization with overlap
     ethr =  4.89E-13,  avg # of iterations =  7.5

     negative rho (up, down):  1.066E-04 0.000E+00

     total cpu time spent up to now is     1603.2 secs

     total energy              =   -1373.25160400 Ry
     estimated scf accuracy    <          8.3E-10 Ry

     iteration # 20     ecut=   150.00 Ry     beta= 0.70
     Davidson diagonalization with overlap
     ethr =  4.89E-13,  avg # of iterations =  3.4

     negative rho (up, down):  1.065E-04 0.000E+00

     total cpu time spent up to now is     1674.2 secs

     total energy              =   -1373.25160400 Ry
     estimated scf accuracy    <          2.7E-10 Ry

     iteration # 21     ecut=   150.00 Ry     beta= 0.70
     Davidson diagonalization with overlap
     ethr =  4.65E-13,  avg # of iterations =  1.9

     negative rho (up, down):  1.065E-04 0.000E+00

     total cpu time spent up to now is     1733.9 secs

     total energy              =   -1373.25160400 Ry
     estimated scf accuracy    <          1.4E-10 Ry

     iteration # 22     ecut=   150.00 Ry     beta= 0.70
     Davidson diagonalization with overlap
     ethr =  2.44E-13,  avg # of iterations =  3.8

     negative rho (up, down):  1.065E-04 0.000E+00

     total cpu time spent up to now is     1802.0 secs

     total energy              =   -1373.25160400 Ry
     estimated scf accuracy    <          2.2E-11 Ry

     iteration # 23     ecut=   150.00 Ry     beta= 0.70
     Davidson diagonalization with overlap
     ethr =  1.00E-13,  avg # of iterations =  3.8

     negative rho (up, down):  1.065E-04 0.000E+00

     total cpu time spent up to now is     1868.6 secs

     total energy              =   -1373.25160400 Ry
     estimated scf accuracy    <          2.0E-12 Ry

     iteration # 24     ecut=   150.00 Ry     beta= 0.70
     Davidson diagonalization with overlap
     ethr =  1.00E-13,  avg # of iterations =  1.5

     negative rho (up, down):  1.065E-04 0.000E+00

     total cpu time spent up to now is     1928.6 secs

     End of self-consistent calculation

     Number of k-points >= 100: set verbosity='high' to print the bands.

     highest occupied level (ev):    -0.0254

!    total energy              =   -1373.25160400 Ry
     estimated scf accuracy    <          5.3E-13 Ry

     The total energy is the sum of the following terms:
     one-electron contribution =  -10816.83892947 Ry
     hartree contribution      =    5436.49557156 Ry
     xc contribution           =    -138.69751295 Ry
     ewald contribution        =    4145.78926687 Ry

     convergence has been achieved in  24 iterations

     negative rho (up, down):  1.065E-04 0.000E+00

     Forces acting on atoms (cartesian axes, Ry/au):

     atom    1 type  2   force =     0.00028680    0.00026083   -0.00016749
     atom    2 type  1   force =    -0.00023615   -0.00043097    0.02241809
     atom    3 type  1   force =    -0.00005065    0.00017014   -0.02225060

     Total force =     0.031590     Total SCF correction =     0.000007


     Computing stress (Cartesian axis) and pressure


     negative rho (up, down):  1.065E-04 0.000E+00
          total   stress  (Ry/bohr**3)                   (kbar)     P=       -6.61
  -0.00002783  -0.00000260   0.00000026           -4.09       -0.38        0.04
  -0.00000260  -0.00004306   0.00000085           -0.38       -6.33        0.13
   0.00000026   0.00000085  -0.00006391            0.04        0.13       -9.40


     Writing output data file /scratch/as3359/Mos2_ct_lat/Ta2C.save/
 
     init_run     :     69.15s CPU     37.09s WALL (       1 calls)
     electrons    :   3724.65s CPU   1891.23s WALL (       1 calls)
     forces       :     17.42s CPU      8.95s WALL (       1 calls)
     stress       :     86.67s CPU     44.21s WALL (       1 calls)

     Called by init_run:
     wfcinit      :     59.94s CPU     30.97s WALL (       1 calls)
     potinit      :      2.24s CPU      1.14s WALL (       1 calls)
     hinit0       :      4.94s CPU      3.56s WALL (       1 calls)

     Called by electrons:
     c_bands      :   3127.85s CPU   1579.16s WALL (      24 calls)
     sum_band     :    545.78s CPU    280.96s WALL (      24 calls)
     v_of_rho     :      7.40s CPU      4.04s WALL (      25 calls)
     newd         :     41.85s CPU     26.14s WALL (      25 calls)
     mix_rho      :      3.28s CPU      1.86s WALL (      24 calls)

     Called by c_bands:
     init_us_2    :     73.88s CPU     36.99s WALL (    5763 calls)
     cegterg      :   2904.96s CPU   1466.96s WALL (    2712 calls)

     Called by *egterg:
     cdiaghg      :     24.18s CPU     12.39s WALL (   16468 calls)
     h_psi        :   2363.05s CPU   1195.53s WALL (   16581 calls)
     s_psi        :    129.16s CPU     64.66s WALL (   16581 calls)
     g_psi        :     13.35s CPU      6.70s WALL (   13756 calls)

     Called by h_psi:
     h_psi:calbec :     94.14s CPU     47.17s WALL (   16581 calls)
     vloc_psi     :   2109.02s CPU   1068.06s WALL (   16581 calls)
     add_vuspsi   :    141.29s CPU     70.73s WALL (   16581 calls)

     General routines
     calbec       :    122.64s CPU     61.45s WALL (   19858 calls)
     fft          :      3.92s CPU      2.01s WALL (     300 calls)
     ffts         :      0.28s CPU      0.14s WALL (      24 calls)
     fftw         :   2158.46s CPU   1093.94s WALL (  502470 calls)
 
     Parallel routines
 
     PWSCF        :      1h 5m CPU  33m 7.40s WALL

 
   This run was terminated on:  18:55:20   9Apr2022            

=------------------------------------------------------------------------------=
   JOB DONE.
=------------------------------------------------------------------------------=
