
     Program PWSCF v.6.8 starts on  9Apr2022 at 18:55:21 

     This program is part of the open-source Quantum ESPRESSO suite
     for quantum simulation of materials; please cite
         "P. Giannozzi et al., J. Phys.:Condens. Matter 21 395502 (2009);
         "P. Giannozzi et al., J. Phys.:Condens. Matter 29 465901 (2017);
         "P. Giannozzi et al., J. Chem. Phys. 152 154105 (2020);
          URL http://www.quantum-espresso.org", 
     in publications or presentations arising from this work. More details at
     http://www.quantum-espresso.org/quote

     Parallel version (MPI & OpenMP), running on       4 processor cores
     Number of MPI processes:                 2
     Threads/MPI process:                     2

     MPI processes distributed on     1 nodes
     R & G space division:  proc/nbgrp/npool/nimage =       2
     124983 MiB available memory on the printing compute node when the environment starts
 
     Reading input from Ta2C.scf.5.650.in
Warning: card  &CELL ignored
Warning: card     CELL_DYNAMICS='BFGS' ignored
Warning: card  / ignored

     Current dimensions of program PWSCF are:
     Max number of different atomic species (ntypx) = 10
     Max number of k-points (npk) =  40000
     Max angular momentum in pseudopotentials (lmaxx) =  4
     Message from routine iosys:
     restart disabled: needed files not found
     file Ta.pbesol-spfn-rrkjus_psl.1.0.0.UPF: wavefunction(s)  5S 5P renormalized

     Subspace diagonalization in iterative solution of the eigenvalue problem:
     a serial algorithm will be used

 
     Parallelization info
     --------------------
     sticks:   dense  smooth     PW     G-vecs:    dense   smooth      PW
     Min         708     708    210               208058   208058   33000
     Max         709     709    211               208079   208079   33031
     Sum        1417    1417    421               416137   416137   66031
 
     Using Slab Decomposition
 


     bravais-lattice index     =            0
     lattice parameter (alat)  =       5.6500  a.u.
     unit-cell volume          =    1676.2213 (a.u.)^3
     number of atoms/cell      =            3
     number of atomic types    =            2
     number of electrons       =        58.00
     number of Kohn-Sham states=           29
     kinetic-energy cutoff     =     150.0000  Ry
     charge density cutoff     =     600.0000  Ry
     scf convergence threshold =      1.0E-12
     mixing beta               =       0.7000
     number of iterations used =            8  plain     mixing
     Exchange-correlation= PBESOL
                           (   1   4  10   8   0   0   0)

     celldm(1)=   5.650000  celldm(2)=   0.000000  celldm(3)=   0.000000
     celldm(4)=   0.000000  celldm(5)=   0.000000  celldm(6)=   0.000000

     crystal axes: (cart. coord. in units of alat)
               a(1) = (   1.034114   0.000203   0.000000 )  
               a(2) = (  -0.516207   0.898604   0.000000 )  
               a(3) = (   0.000000   0.000000  10.000000 )  

     reciprocal axes: (cart. coord. in units 2 pi/alat)
               b(1) = (  0.966902  0.555441  0.000000 )  
               b(2) = ( -0.000219  1.112711  0.000000 )  
               b(3) = (  0.000000  0.000000  0.100000 )  


     PseudoPot. # 1 for Ta read from file:
     /shared/home/as3359/pseudo/Ta.pbesol-spfn-rrkjus_psl.1.0.0.UPF
     MD5 check sum: f099565ffaca9b150a52e9412a28e20b
     Pseudo is Ultrasoft + core correction, Zval = 27.0
     Generated using &quot;atomic&quot; code by A. Dal Corso  v.6.3
     Using radial grid of 1273 points,  8 beta functions with: 
                l(1) =   0
                l(2) =   0
                l(3) =   1
                l(4) =   1
                l(5) =   2
                l(6) =   2
                l(7) =   3
                l(8) =   3
     Q(r) pseudized with 0 coefficients 


     PseudoPot. # 2 for C  read from file:
     /shared/home/as3359/pseudo/C.pbesol-n-rrkjus_psl.1.0.0.UPF
     MD5 check sum: 05995be603a8a7c99da3dc4413f31573
     Pseudo is Ultrasoft + core correction, Zval =  4.0
     Generated using &quot;atomic&quot; code by A. Dal Corso  v.6.3MaX
     Using radial grid of 1073 points,  4 beta functions with: 
                l(1) =   0
                l(2) =   0
                l(3) =   1
                l(4) =   1
     Q(r) pseudized with 0 coefficients 


     atomic species   valence    mass     pseudopotential
        Ta            27.00   180.94788     Ta( 1.00)
        C              4.00    12.01070     C ( 1.00)

     No symmetry found



   Cartesian axes

     site n.     atom                  positions (alat units)
         1           C   tau(   1) = (   0.0000000   0.0000000   0.0000000  )
         2           Ta  tau(   2) = (   0.5174615   0.3004190  -0.4127129  )
         3           Ta  tau(   3) = (   0.0007158   0.5986355   0.4125272  )

     number of k points=   113

     Number of k-points >= 100: set verbosity='high' to print them.

     Dense  grid:   416137 G-vectors     FFT dimensions: (  45,  45, 450)

     Estimated max dynamical RAM per process >       3.24 GB

     Estimated total dynamical RAM >       6.49 GB
     Cannot read rho : file not found

     Initial potential from superposition of free atoms

     starting charge   57.99842, renormalised to   58.00000

     negative rho (up, down):  1.049E-04 0.000E+00
     Message from routine qexsd_readschema :
     xml data file /scratch/as3359/Mos2_ct_lat/Ta2C.save/data-file-schema.xml not fou
     Cannot read wfcs: file not found
     Starting wfcs are   38 randomized atomic wfcs

     total cpu time spent up to now is       37.6 secs

     Self-consistent Calculation

     iteration #  1     ecut=   150.00 Ry     beta= 0.70
     Davidson diagonalization with overlap
     c_bands:  1 eigenvalues not converged
     c_bands:  2 eigenvalues not converged
     ethr =  1.00E-05,  avg # of iterations = 12.2

     negative rho (up, down):  1.014E-04 0.000E+00

     total cpu time spent up to now is      187.8 secs

     total energy              =   -1372.49839537 Ry
     estimated scf accuracy    <       1.23788460 Ry

     iteration #  2     ecut=   150.00 Ry     beta= 0.70
     Davidson diagonalization with overlap
     ethr =  2.13E-03,  avg # of iterations =  6.9

     total cpu time spent up to now is      279.8 secs

     total energy              =   -1371.93707378 Ry
     estimated scf accuracy    <       8.22417753 Ry

     iteration #  3     ecut=   150.00 Ry     beta= 0.70
     Davidson diagonalization with overlap
     ethr =  2.13E-03,  avg # of iterations =  5.6

     total cpu time spent up to now is      365.7 secs

     total energy              =   -1373.20214270 Ry
     estimated scf accuracy    <       0.09288636 Ry

     iteration #  4     ecut=   150.00 Ry     beta= 0.70
     Davidson diagonalization with overlap
     ethr =  1.60E-04,  avg # of iterations =  5.9

     total cpu time spent up to now is      443.1 secs

     total energy              =   -1373.24563783 Ry
     estimated scf accuracy    <       0.02049314 Ry

     iteration #  5     ecut=   150.00 Ry     beta= 0.70
     Davidson diagonalization with overlap
     ethr =  3.53E-05,  avg # of iterations =  6.7

     total cpu time spent up to now is      527.4 secs

     total energy              =   -1373.24038790 Ry
     estimated scf accuracy    <       0.09906679 Ry

     iteration #  6     ecut=   150.00 Ry     beta= 0.70
     Davidson diagonalization with overlap
     ethr =  3.53E-05,  avg # of iterations =  7.3

     negative rho (up, down):  1.786E-08 0.000E+00

     total cpu time spent up to now is      609.7 secs

     total energy              =   -1373.24619973 Ry
     estimated scf accuracy    <       0.02616615 Ry

     iteration #  7     ecut=   150.00 Ry     beta= 0.70
     Davidson diagonalization with overlap
     ethr =  3.53E-05,  avg # of iterations =  3.4

     negative rho (up, down):  7.053E-07 0.000E+00

     total cpu time spent up to now is      677.2 secs

     total energy              =   -1373.24733915 Ry
     estimated scf accuracy    <       0.00376386 Ry

     iteration #  8     ecut=   150.00 Ry     beta= 0.70
     Davidson diagonalization with overlap
     ethr =  6.49E-06,  avg # of iterations =  6.1

     negative rho (up, down):  2.431E-05 0.000E+00

     total cpu time spent up to now is      752.5 secs

     total energy              =   -1373.24799606 Ry
     estimated scf accuracy    <       0.00172939 Ry

     iteration #  9     ecut=   150.00 Ry     beta= 0.70
     Davidson diagonalization with overlap
     ethr =  2.98E-06,  avg # of iterations =  1.8

     negative rho (up, down):  9.320E-05 0.000E+00

     total cpu time spent up to now is      812.6 secs

     total energy              =   -1373.24793183 Ry
     estimated scf accuracy    <       0.00132060 Ry

     iteration # 10     ecut=   150.00 Ry     beta= 0.70
     Davidson diagonalization with overlap
     ethr =  2.28E-06,  avg # of iterations =  3.1

     negative rho (up, down):  1.332E-04 0.000E+00

     total cpu time spent up to now is      875.5 secs

     total energy              =   -1373.24796940 Ry
     estimated scf accuracy    <       0.00033300 Ry

     iteration # 11     ecut=   150.00 Ry     beta= 0.70
     Davidson diagonalization with overlap
     ethr =  5.74E-07,  avg # of iterations =  5.7

     negative rho (up, down):  9.104E-05 0.000E+00

     total cpu time spent up to now is      948.7 secs

     total energy              =   -1373.24801071 Ry
     estimated scf accuracy    <       0.00006696 Ry

     iteration # 12     ecut=   150.00 Ry     beta= 0.70
     Davidson diagonalization with overlap
     ethr =  1.15E-07,  avg # of iterations =  3.2

     negative rho (up, down):  1.082E-04 0.000E+00

     total cpu time spent up to now is     1013.5 secs

     total energy              =   -1373.24800006 Ry
     estimated scf accuracy    <       0.00008000 Ry

     iteration # 13     ecut=   150.00 Ry     beta= 0.70
     Davidson diagonalization with overlap
     ethr =  1.15E-07,  avg # of iterations =  5.2

     negative rho (up, down):  1.098E-04 0.000E+00

     total cpu time spent up to now is     1085.8 secs

     total energy              =   -1373.24800809 Ry
     estimated scf accuracy    <       0.00000342 Ry

     iteration # 14     ecut=   150.00 Ry     beta= 0.70
     Davidson diagonalization with overlap
     ethr =  5.90E-09,  avg # of iterations =  6.6

     negative rho (up, down):  1.103E-04 0.000E+00

     total cpu time spent up to now is     1165.9 secs

     total energy              =   -1373.24800887 Ry
     estimated scf accuracy    <       0.00000108 Ry

     iteration # 15     ecut=   150.00 Ry     beta= 0.70
     Davidson diagonalization with overlap
     ethr =  1.86E-09,  avg # of iterations =  5.0

     negative rho (up, down):  1.098E-04 0.000E+00

     total cpu time spent up to now is     1236.8 secs

     total energy              =   -1373.24800898 Ry
     estimated scf accuracy    <       0.00000006 Ry

     iteration # 16     ecut=   150.00 Ry     beta= 0.70
     Davidson diagonalization with overlap
     ethr =  9.82E-11,  avg # of iterations =  9.7

     negative rho (up, down):  1.104E-04 0.000E+00

     total cpu time spent up to now is     1336.2 secs

     total energy              =   -1373.24800901 Ry
     estimated scf accuracy    <       0.00000015 Ry

     iteration # 17     ecut=   150.00 Ry     beta= 0.70
     Davidson diagonalization with overlap
     ethr =  9.82E-11,  avg # of iterations =  3.4

     negative rho (up, down):  1.102E-04 0.000E+00

     total cpu time spent up to now is     1403.4 secs

     total energy              =   -1373.24800901 Ry
     estimated scf accuracy    <       0.00000004 Ry

     iteration # 18     ecut=   150.00 Ry     beta= 0.70
     Davidson diagonalization with overlap
     ethr =  7.04E-11,  avg # of iterations =  6.4

     negative rho (up, down):  1.103E-04 0.000E+00

     total cpu time spent up to now is     1481.0 secs

     total energy              =   -1373.24800902 Ry
     estimated scf accuracy    <       0.00000002 Ry

     iteration # 19     ecut=   150.00 Ry     beta= 0.70
     Davidson diagonalization with overlap
     ethr =  4.07E-11,  avg # of iterations =  1.1

     negative rho (up, down):  1.103E-04 0.000E+00

     total cpu time spent up to now is     1537.0 secs

     total energy              =   -1373.24800902 Ry
     estimated scf accuracy    <       0.00000002 Ry

     iteration # 20     ecut=   150.00 Ry     beta= 0.70
     Davidson diagonalization with overlap
     ethr =  3.95E-11,  avg # of iterations =  1.0

     negative rho (up, down):  1.103E-04 0.000E+00

     total cpu time spent up to now is     1592.2 secs

     total energy              =   -1373.24800902 Ry
     estimated scf accuracy    <       0.00000002 Ry

     iteration # 21     ecut=   150.00 Ry     beta= 0.70
     Davidson diagonalization with overlap
     ethr =  3.45E-11,  avg # of iterations =  3.3

     negative rho (up, down):  1.103E-04 0.000E+00

     total cpu time spent up to now is     1656.2 secs

     total energy              =   -1373.24800902 Ry
     estimated scf accuracy    <          1.5E-09 Ry

     iteration # 22     ecut=   150.00 Ry     beta= 0.70
     Davidson diagonalization with overlap
     ethr =  2.59E-12,  avg # of iterations =  6.9

     negative rho (up, down):  1.103E-04 0.000E+00

     total cpu time spent up to now is     1736.9 secs

     total energy              =   -1373.24800902 Ry
     estimated scf accuracy    <          5.0E-09 Ry

     iteration # 23     ecut=   150.00 Ry     beta= 0.70
     Davidson diagonalization with overlap
     ethr =  2.59E-12,  avg # of iterations =  3.6

     negative rho (up, down):  1.103E-04 0.000E+00

     total cpu time spent up to now is     1801.0 secs

     total energy              =   -1373.24800902 Ry
     estimated scf accuracy    <          2.0E-09 Ry

     iteration # 24     ecut=   150.00 Ry     beta= 0.70
     Davidson diagonalization with overlap
     ethr =  2.59E-12,  avg # of iterations =  6.1

     negative rho (up, down):  1.103E-04 0.000E+00

     total cpu time spent up to now is     1875.3 secs

     total energy              =   -1373.24800902 Ry
     estimated scf accuracy    <          3.2E-10 Ry

     iteration # 25     ecut=   150.00 Ry     beta= 0.70
     Davidson diagonalization with overlap
     ethr =  5.43E-13,  avg # of iterations =  3.1

     negative rho (up, down):  1.103E-04 0.000E+00

     total cpu time spent up to now is     1938.2 secs

     total energy              =   -1373.24800902 Ry
     estimated scf accuracy    <          3.3E-10 Ry

     iteration # 26     ecut=   150.00 Ry     beta= 0.70
     Davidson diagonalization with overlap
     ethr =  5.43E-13,  avg # of iterations =  2.5

     negative rho (up, down):  1.103E-04 0.000E+00

     total cpu time spent up to now is     1998.6 secs

     total energy              =   -1373.24800902 Ry
     estimated scf accuracy    <          1.6E-10 Ry

     iteration # 27     ecut=   150.00 Ry     beta= 0.70
     Davidson diagonalization with overlap
     ethr =  2.68E-13,  avg # of iterations =  3.4

     negative rho (up, down):  1.103E-04 0.000E+00

     total cpu time spent up to now is     2061.3 secs

     total energy              =   -1373.24800902 Ry
     estimated scf accuracy    <          3.0E-11 Ry

     iteration # 28     ecut=   150.00 Ry     beta= 0.70
     Davidson diagonalization with overlap
     ethr =  1.00E-13,  avg # of iterations =  5.1

     negative rho (up, down):  1.103E-04 0.000E+00

     total cpu time spent up to now is     2128.3 secs

     End of self-consistent calculation

     Number of k-points >= 100: set verbosity='high' to print the bands.

     highest occupied level (ev):    -0.1663

!    total energy              =   -1373.24800902 Ry
     estimated scf accuracy    <          5.0E-14 Ry

     The total energy is the sum of the following terms:
     one-electron contribution =  -10742.87430681 Ry
     hartree contribution      =    5399.13944269 Ry
     xc contribution           =    -138.61401117 Ry
     ewald contribution        =    4109.10086628 Ry

     convergence has been achieved in  28 iterations

 %%%%%%%%%%%%%%%%%%%%%%%%%%%%%%%%%%%%%%%%%%%%%%%%%%%%%%%%%%%%%%%%%%%%%%%%%%%%%%
     Error in routine create_directory (1):
     unable to create directory /scratch/as3359/Mos2_ct_lat/Ta2C.save/
 %%%%%%%%%%%%%%%%%%%%%%%%%%%%%%%%%%%%%%%%%%%%%%%%%%%%%%%%%%%%%%%%%%%%%%%%%%%%%%

     stopping ...

 %%%%%%%%%%%%%%%%%%%%%%%%%%%%%%%%%%%%%%%%%%%%%%%%%%%%%%%%%%%%%%%%%%%%%%%%%%%%%%
     Error in routine create_directory (1):
     unable to create directory /scratch/as3359/Mos2_ct_lat/Ta2C.save/
 %%%%%%%%%%%%%%%%%%%%%%%%%%%%%%%%%%%%%%%%%%%%%%%%%%%%%%%%%%%%%%%%%%%%%%%%%%%%%%

     stopping ...
