
     Program PWSCF v.6.8 starts on  8Apr2022 at 19:21: 7 

     This program is part of the open-source Quantum ESPRESSO suite
     for quantum simulation of materials; please cite
         "P. Giannozzi et al., J. Phys.:Condens. Matter 21 395502 (2009);
         "P. Giannozzi et al., J. Phys.:Condens. Matter 29 465901 (2017);
         "P. Giannozzi et al., J. Chem. Phys. 152 154105 (2020);
          URL http://www.quantum-espresso.org", 
     in publications or presentations arising from this work. More details at
     http://www.quantum-espresso.org/quote

     Parallel version (MPI & OpenMP), running on       4 processor cores
     Number of MPI processes:                 2
     Threads/MPI process:                     2

     MPI processes distributed on     1 nodes
     R & G space division:  proc/nbgrp/npool/nimage =       2
     124989 MiB available memory on the printing compute node when the environment starts
 
     Reading input from Ta2C.scf.5.300.in
Warning: card  &CELL ignored
Warning: card     CELL_DYNAMICS='BFGS' ignored
Warning: card  / ignored

     Current dimensions of program PWSCF are:
     Max number of different atomic species (ntypx) = 10
     Max number of k-points (npk) =  40000
     Max angular momentum in pseudopotentials (lmaxx) =  4
     Message from routine iosys:
     restart disabled: needed files not found
     file Ta.pbesol-spfn-rrkjus_psl.1.0.0.UPF: wavefunction(s)  5S 5P renormalized

     Subspace diagonalization in iterative solution of the eigenvalue problem:
     a serial algorithm will be used

 
     Parallelization info
     --------------------
     sticks:   dense  smooth     PW     G-vecs:    dense   smooth      PW
     Min         626     626    183               171806   171806   27619
     Max         627     627    184               171815   171815   27636
     Sum        1253    1253    367               343621   343621   55255
 
     Using Slab Decomposition
 


     bravais-lattice index     =            0
     lattice parameter (alat)  =       5.3000  a.u.
     unit-cell volume          =    1383.6098 (a.u.)^3
     number of atoms/cell      =            3
     number of atomic types    =            2
     number of electrons       =        58.00
     number of Kohn-Sham states=           29
     kinetic-energy cutoff     =     150.0000  Ry
     charge density cutoff     =     600.0000  Ry
     scf convergence threshold =      1.0E-12
     mixing beta               =       0.7000
     number of iterations used =            8  plain     mixing
     Exchange-correlation= PBESOL
                           (   1   4  10   8   0   0   0)

     celldm(1)=   5.300000  celldm(2)=   0.000000  celldm(3)=   0.000000
     celldm(4)=   0.000000  celldm(5)=   0.000000  celldm(6)=   0.000000

     crystal axes: (cart. coord. in units of alat)
               a(1) = (   1.034114   0.000203   0.000000 )  
               a(2) = (  -0.516207   0.898604   0.000000 )  
               a(3) = (   0.000000   0.000000  10.000000 )  

     reciprocal axes: (cart. coord. in units 2 pi/alat)
               b(1) = (  0.966902  0.555441  0.000000 )  
               b(2) = ( -0.000219  1.112711  0.000000 )  
               b(3) = (  0.000000  0.000000  0.100000 )  


     PseudoPot. # 1 for Ta read from file:
     /shared/home/as3359/pseudo/Ta.pbesol-spfn-rrkjus_psl.1.0.0.UPF
     MD5 check sum: f099565ffaca9b150a52e9412a28e20b
     Pseudo is Ultrasoft + core correction, Zval = 27.0
     Generated using &quot;atomic&quot; code by A. Dal Corso  v.6.3
     Using radial grid of 1273 points,  8 beta functions with: 
                l(1) =   0
                l(2) =   0
                l(3) =   1
                l(4) =   1
                l(5) =   2
                l(6) =   2
                l(7) =   3
                l(8) =   3
     Q(r) pseudized with 0 coefficients 


     PseudoPot. # 2 for C  read from file:
     /shared/home/as3359/pseudo/C.pbesol-n-rrkjus_psl.1.0.0.UPF
     MD5 check sum: 05995be603a8a7c99da3dc4413f31573
     Pseudo is Ultrasoft + core correction, Zval =  4.0
     Generated using &quot;atomic&quot; code by A. Dal Corso  v.6.3MaX
     Using radial grid of 1073 points,  4 beta functions with: 
                l(1) =   0
                l(2) =   0
                l(3) =   1
                l(4) =   1
     Q(r) pseudized with 0 coefficients 


     atomic species   valence    mass     pseudopotential
        Ta            27.00   180.94788     Ta( 1.00)
        C              4.00    12.01070     C ( 1.00)

     No symmetry found



   Cartesian axes

     site n.     atom                  positions (alat units)
         1           C   tau(   1) = (   0.0000000   0.0000000   0.0000000  )
         2           Ta  tau(   2) = (   0.5174615   0.3004190  -0.4127129  )
         3           Ta  tau(   3) = (   0.0007158   0.5986355   0.4125272  )

     number of k points=   113

     Number of k-points >= 100: set verbosity='high' to print them.

     Dense  grid:   343621 G-vectors     FFT dimensions: (  45,  45, 432)

     Estimated max dynamical RAM per process >       2.68 GB

     Estimated total dynamical RAM >       5.37 GB
     Cannot read rho : file not found

     Initial potential from superposition of free atoms

     starting charge   57.99842, renormalised to   58.00000

     negative rho (up, down):  9.034E-05 0.000E+00
     Message from routine qexsd_readschema :
     xml data file /scratch/as3359/Mos2_ct_lat/Ta2C.save/data-file-schema.xml not fou
     Cannot read wfcs: file not found
     Starting wfcs are   38 randomized atomic wfcs

     total cpu time spent up to now is       30.8 secs

     Self-consistent Calculation

     iteration #  1     ecut=   150.00 Ry     beta= 0.70
     Davidson diagonalization with overlap
     ethr =  1.00E-05,  avg # of iterations = 12.4

     negative rho (up, down):  8.095E-05 0.000E+00

     total cpu time spent up to now is      167.0 secs

     total energy              =   -1372.19871591 Ry
     estimated scf accuracy    <       1.62060161 Ry

     iteration #  2     ecut=   150.00 Ry     beta= 0.70
     Davidson diagonalization with overlap
     c_bands:  1 eigenvalues not converged
     c_bands:  1 eigenvalues not converged
     c_bands:  1 eigenvalues not converged
     c_bands:  1 eigenvalues not converged
     ethr =  2.79E-03,  avg # of iterations =  9.7

     total cpu time spent up to now is      253.1 secs

     total energy              =   -1369.79962457 Ry
     estimated scf accuracy    <      23.08430394 Ry

     iteration #  3     ecut=   150.00 Ry     beta= 0.70
     Davidson diagonalization with overlap
     ethr =  2.79E-03,  avg # of iterations =  7.6

     total cpu time spent up to now is      330.8 secs

     total energy              =   -1373.14033234 Ry
     estimated scf accuracy    <       0.38347885 Ry

     iteration #  4     ecut=   150.00 Ry     beta= 0.70
     Davidson diagonalization with overlap
     ethr =  6.61E-04,  avg # of iterations =  3.6

     total cpu time spent up to now is      390.4 secs

     total energy              =   -1373.20198519 Ry
     estimated scf accuracy    <       0.08830513 Ry

     iteration #  5     ecut=   150.00 Ry     beta= 0.70
     Davidson diagonalization with overlap
     ethr =  1.52E-04,  avg # of iterations =  7.0

     total cpu time spent up to now is      457.2 secs

     total energy              =   -1373.18556467 Ry
     estimated scf accuracy    <       0.47594057 Ry

     iteration #  6     ecut=   150.00 Ry     beta= 0.70
     Davidson diagonalization with overlap
     ethr =  1.52E-04,  avg # of iterations =  6.7

     total cpu time spent up to now is      522.4 secs

     total energy              =   -1373.19968860 Ry
     estimated scf accuracy    <       0.06301884 Ry

     iteration #  7     ecut=   150.00 Ry     beta= 0.70
     Davidson diagonalization with overlap
     ethr =  1.09E-04,  avg # of iterations =  1.8

     total cpu time spent up to now is      572.9 secs

     total energy              =   -1373.18894161 Ry
     estimated scf accuracy    <       0.03576109 Ry

     iteration #  8     ecut=   150.00 Ry     beta= 0.70
     Davidson diagonalization with overlap
     ethr =  6.17E-05,  avg # of iterations =  3.4

     total cpu time spent up to now is      629.7 secs

     total energy              =   -1373.19020463 Ry
     estimated scf accuracy    <       0.00907308 Ry

     iteration #  9     ecut=   150.00 Ry     beta= 0.70
     Davidson diagonalization with overlap
     ethr =  1.56E-05,  avg # of iterations =  5.1

     total cpu time spent up to now is      687.5 secs

     total energy              =   -1373.19003609 Ry
     estimated scf accuracy    <       0.00859702 Ry

     iteration # 10     ecut=   150.00 Ry     beta= 0.70
     Davidson diagonalization with overlap
     ethr =  1.48E-05,  avg # of iterations =  2.1

     total cpu time spent up to now is      738.9 secs

     total energy              =   -1373.18967061 Ry
     estimated scf accuracy    <       0.00426813 Ry

     iteration # 11     ecut=   150.00 Ry     beta= 0.70
     Davidson diagonalization with overlap
     ethr =  7.36E-06,  avg # of iterations =  4.6

     negative rho (up, down):  2.384E-05 0.000E+00

     total cpu time spent up to now is      798.3 secs

     total energy              =   -1373.19015229 Ry
     estimated scf accuracy    <       0.00030959 Ry

     iteration # 12     ecut=   150.00 Ry     beta= 0.70
     Davidson diagonalization with overlap
     ethr =  5.34E-07,  avg # of iterations =  6.9

     negative rho (up, down):  4.178E-05 0.000E+00

     total cpu time spent up to now is      867.1 secs

     total energy              =   -1373.19008608 Ry
     estimated scf accuracy    <       0.00208926 Ry

     iteration # 13     ecut=   150.00 Ry     beta= 0.70
     Davidson diagonalization with overlap
     ethr =  5.34E-07,  avg # of iterations =  6.3

     negative rho (up, down):  8.905E-05 0.000E+00

     total cpu time spent up to now is      931.6 secs

     total energy              =   -1373.19014931 Ry
     estimated scf accuracy    <       0.00007221 Ry

     iteration # 14     ecut=   150.00 Ry     beta= 0.70
     Davidson diagonalization with overlap
     ethr =  1.24E-07,  avg # of iterations =  5.3

     negative rho (up, down):  8.851E-05 0.000E+00

     total cpu time spent up to now is      993.2 secs

     total energy              =   -1373.19015934 Ry
     estimated scf accuracy    <       0.00000610 Ry

     iteration # 15     ecut=   150.00 Ry     beta= 0.70
     Davidson diagonalization with overlap
     ethr =  1.05E-08,  avg # of iterations =  6.0

     negative rho (up, down):  9.153E-05 0.000E+00

     total cpu time spent up to now is     1055.5 secs

     total energy              =   -1373.19016047 Ry
     estimated scf accuracy    <       0.00000007 Ry

     iteration # 16     ecut=   150.00 Ry     beta= 0.70
     Davidson diagonalization with overlap
     ethr =  1.29E-10,  avg # of iterations =  8.2

     negative rho (up, down):  9.209E-05 0.000E+00

     total cpu time spent up to now is     1146.3 secs

     total energy              =   -1373.19016057 Ry
     estimated scf accuracy    <       0.00000003 Ry

     iteration # 17     ecut=   150.00 Ry     beta= 0.70
     Davidson diagonalization with overlap
     ethr =  5.23E-11,  avg # of iterations =  3.8

     negative rho (up, down):  9.389E-05 0.000E+00

     total cpu time spent up to now is     1209.9 secs

     total energy              =   -1373.19016057 Ry
     estimated scf accuracy    <          5.6E-09 Ry

     iteration # 18     ecut=   150.00 Ry     beta= 0.70
     Davidson diagonalization with overlap
     ethr =  9.60E-12,  avg # of iterations =  7.5

     negative rho (up, down):  9.422E-05 0.000E+00

     total cpu time spent up to now is     1287.0 secs

     total energy              =   -1373.19016057 Ry
     estimated scf accuracy    <       0.00000002 Ry

     iteration # 19     ecut=   150.00 Ry     beta= 0.70
     Davidson diagonalization with overlap
     ethr =  9.60E-12,  avg # of iterations =  2.8

     negative rho (up, down):  9.427E-05 0.000E+00

     total cpu time spent up to now is     1339.6 secs

     total energy              =   -1373.19016057 Ry
     estimated scf accuracy    <          9.0E-09 Ry

     iteration # 20     ecut=   150.00 Ry     beta= 0.70
     Davidson diagonalization with overlap
     ethr =  9.60E-12,  avg # of iterations =  5.2

     negative rho (up, down):  9.417E-05 0.000E+00

     total cpu time spent up to now is     1400.0 secs

     total energy              =   -1373.19016057 Ry
     estimated scf accuracy    <          1.8E-09 Ry

     iteration # 21     ecut=   150.00 Ry     beta= 0.70
     Davidson diagonalization with overlap
     ethr =  3.16E-12,  avg # of iterations =  1.9

     negative rho (up, down):  9.414E-05 0.000E+00

     total cpu time spent up to now is     1449.7 secs

     total energy              =   -1373.19016057 Ry
     estimated scf accuracy    <          1.4E-09 Ry

     iteration # 22     ecut=   150.00 Ry     beta= 0.70
     Davidson diagonalization with overlap
     ethr =  2.49E-12,  avg # of iterations =  2.0

     negative rho (up, down):  9.411E-05 0.000E+00

     total cpu time spent up to now is     1498.9 secs

     total energy              =   -1373.19016057 Ry
     estimated scf accuracy    <          7.4E-10 Ry

     iteration # 23     ecut=   150.00 Ry     beta= 0.70
     Davidson diagonalization with overlap
     ethr =  1.28E-12,  avg # of iterations =  5.1

     negative rho (up, down):  9.412E-05 0.000E+00

     total cpu time spent up to now is     1557.0 secs

     total energy              =   -1373.19016057 Ry
     estimated scf accuracy    <          2.4E-10 Ry

     iteration # 24     ecut=   150.00 Ry     beta= 0.70
     Davidson diagonalization with overlap
     ethr =  4.13E-13,  avg # of iterations =  2.4

     negative rho (up, down):  9.412E-05 0.000E+00

     total cpu time spent up to now is     1606.9 secs

     total energy              =   -1373.19016057 Ry
     estimated scf accuracy    <          7.7E-11 Ry

     iteration # 25     ecut=   150.00 Ry     beta= 0.70
     Davidson diagonalization with overlap
     ethr =  1.32E-13,  avg # of iterations =  4.1

     negative rho (up, down):  9.412E-05 0.000E+00

     total cpu time spent up to now is     1661.0 secs

     total energy              =   -1373.19016057 Ry
     estimated scf accuracy    <          1.9E-12 Ry

     iteration # 26     ecut=   150.00 Ry     beta= 0.70
     Davidson diagonalization with overlap
     ethr =  1.00E-13,  avg # of iterations =  1.4

     negative rho (up, down):  9.411E-05 0.000E+00

     total cpu time spent up to now is     1708.5 secs

     End of self-consistent calculation

     Number of k-points >= 100: set verbosity='high' to print the bands.

     highest occupied level (ev):     1.0091

!    total energy              =   -1373.19016057 Ry
     estimated scf accuracy    <          1.4E-13 Ry

     The total energy is the sum of the following terms:
     one-electron contribution =  -11289.92483836 Ry
     hartree contribution      =    5675.54202257 Ry
     xc contribution           =    -139.26392864 Ry
     ewald contribution        =    4380.45658386 Ry

     convergence has been achieved in  26 iterations

     negative rho (up, down):  9.411E-05 0.000E+00

     Forces acting on atoms (cartesian axes, Ry/au):

     atom    1 type  2   force =     0.00043753    0.00039941   -0.00025722
     atom    2 type  1   force =    -0.00053532   -0.00031022   -0.13292841
     atom    3 type  1   force =     0.00009778   -0.00008919    0.13318563

     Total force =     0.188172     Total SCF correction =     0.000003


     Computing stress (Cartesian axis) and pressure


     negative rho (up, down):  9.411E-05 0.000E+00
          total   stress  (Ry/bohr**3)                   (kbar)     P=       92.06
   0.00073965  -0.00000396   0.00000100          108.81       -0.58        0.15
  -0.00000396   0.00071800   0.00000035           -0.58      105.62        0.05
   0.00000100   0.00000035   0.00041980            0.15        0.05       61.75


     Writing output data file /scratch/as3359/Mos2_ct_lat/Ta2C.save/
 
     init_run     :     57.04s CPU     30.64s WALL (       1 calls)
     electrons    :   3305.46s CPU   1677.77s WALL (       1 calls)
     forces       :     14.01s CPU      7.20s WALL (       1 calls)
     stress       :     61.79s CPU     31.70s WALL (       1 calls)

     Called by init_run:
     wfcinit      :     49.29s CPU     25.48s WALL (       1 calls)
     potinit      :      1.88s CPU      0.96s WALL (       1 calls)
     hinit0       :      4.32s CPU      3.10s WALL (       1 calls)

     Called by electrons:
     c_bands      :   2782.23s CPU   1404.21s WALL (      26 calls)
     sum_band     :    480.37s CPU    247.27s WALL (      26 calls)
     v_of_rho     :      6.78s CPU      3.72s WALL (      27 calls)
     newd         :     34.44s CPU     21.79s WALL (      27 calls)
     mix_rho      :      2.79s CPU      1.49s WALL (      26 calls)

     Called by c_bands:
     init_us_2    :     62.79s CPU     31.43s WALL (    6215 calls)
     cegterg      :   2583.12s CPU   1304.16s WALL (    2938 calls)

     Called by *egterg:
     cdiaghg      :     26.39s CPU     13.53s WALL (   17947 calls)
     h_psi        :   2126.46s CPU   1075.30s WALL (   18060 calls)
     s_psi        :    104.09s CPU     52.10s WALL (   18060 calls)
     g_psi        :     11.90s CPU      5.97s WALL (   15009 calls)

     Called by h_psi:
     h_psi:calbec :     80.04s CPU     40.13s WALL (   18060 calls)
     vloc_psi     :   1918.85s CPU    971.06s WALL (   18060 calls)
     add_vuspsi   :    114.87s CPU     57.52s WALL (   18060 calls)

     General routines
     calbec       :    104.62s CPU     52.45s WALL (   21563 calls)
     fft          :      3.43s CPU      1.75s WALL (     322 calls)
     ffts         :      0.23s CPU      0.12s WALL (      26 calls)
     fftw         :   1985.02s CPU   1005.40s WALL (  546036 calls)
 
     Parallel routines
 
     PWSCF        :  57m23.78s CPU  29m12.10s WALL

 
   This run was terminated on:  19:50:19   8Apr2022            

=------------------------------------------------------------------------------=
   JOB DONE.
=------------------------------------------------------------------------------=
