
     Program PWSCF v.6.8 starts on  8Apr2022 at 18:20:10 

     This program is part of the open-source Quantum ESPRESSO suite
     for quantum simulation of materials; please cite
         "P. Giannozzi et al., J. Phys.:Condens. Matter 21 395502 (2009);
         "P. Giannozzi et al., J. Phys.:Condens. Matter 29 465901 (2017);
         "P. Giannozzi et al., J. Chem. Phys. 152 154105 (2020);
          URL http://www.quantum-espresso.org", 
     in publications or presentations arising from this work. More details at
     http://www.quantum-espresso.org/quote

     Parallel version (MPI & OpenMP), running on       4 processor cores
     Number of MPI processes:                 2
     Threads/MPI process:                     2

     MPI processes distributed on     1 nodes
     R & G space division:  proc/nbgrp/npool/nimage =       2
     125185 MiB available memory on the printing compute node when the environment starts
 
     Reading input from Ta2C.scf.5.100.in
Warning: card  &CELL ignored
Warning: card     CELL_DYNAMICS='BFGS' ignored
Warning: card  / ignored

     Current dimensions of program PWSCF are:
     Max number of different atomic species (ntypx) = 10
     Max number of k-points (npk) =  40000
     Max angular momentum in pseudopotentials (lmaxx) =  4
     Message from routine iosys:
     restart disabled: needed files not found
     file Ta.pbesol-spfn-rrkjus_psl.1.0.0.UPF: wavefunction(s)  5S 5P renormalized

     Subspace diagonalization in iterative solution of the eigenvalue problem:
     a serial algorithm will be used

 
     Parallelization info
     --------------------
     sticks:   dense  smooth     PW     G-vecs:    dense   smooth      PW
     Min         579     579    174               153147   153147   24832
     Max         580     580    175               153168   153168   24857
     Sum        1159    1159    349               306315   306315   49689
 
     Using Slab Decomposition
 


     bravais-lattice index     =            0
     lattice parameter (alat)  =       5.1000  a.u.
     unit-cell volume          =    1232.8111 (a.u.)^3
     number of atoms/cell      =            3
     number of atomic types    =            2
     number of electrons       =        58.00
     number of Kohn-Sham states=           29
     kinetic-energy cutoff     =     150.0000  Ry
     charge density cutoff     =     600.0000  Ry
     scf convergence threshold =      1.0E-12
     mixing beta               =       0.7000
     number of iterations used =            8  plain     mixing
     Exchange-correlation= PBESOL
                           (   1   4  10   8   0   0   0)

     celldm(1)=   5.100000  celldm(2)=   0.000000  celldm(3)=   0.000000
     celldm(4)=   0.000000  celldm(5)=   0.000000  celldm(6)=   0.000000

     crystal axes: (cart. coord. in units of alat)
               a(1) = (   1.034114   0.000203   0.000000 )  
               a(2) = (  -0.516207   0.898604   0.000000 )  
               a(3) = (   0.000000   0.000000  10.000000 )  

     reciprocal axes: (cart. coord. in units 2 pi/alat)
               b(1) = (  0.966902  0.555441  0.000000 )  
               b(2) = ( -0.000219  1.112711  0.000000 )  
               b(3) = (  0.000000  0.000000  0.100000 )  


     PseudoPot. # 1 for Ta read from file:
     /shared/home/as3359/pseudo/Ta.pbesol-spfn-rrkjus_psl.1.0.0.UPF
     MD5 check sum: f099565ffaca9b150a52e9412a28e20b
     Pseudo is Ultrasoft + core correction, Zval = 27.0
     Generated using &quot;atomic&quot; code by A. Dal Corso  v.6.3
     Using radial grid of 1273 points,  8 beta functions with: 
                l(1) =   0
                l(2) =   0
                l(3) =   1
                l(4) =   1
                l(5) =   2
                l(6) =   2
                l(7) =   3
                l(8) =   3
     Q(r) pseudized with 0 coefficients 


     PseudoPot. # 2 for C  read from file:
     /shared/home/as3359/pseudo/C.pbesol-n-rrkjus_psl.1.0.0.UPF
     MD5 check sum: 05995be603a8a7c99da3dc4413f31573
     Pseudo is Ultrasoft + core correction, Zval =  4.0
     Generated using &quot;atomic&quot; code by A. Dal Corso  v.6.3MaX
     Using radial grid of 1073 points,  4 beta functions with: 
                l(1) =   0
                l(2) =   0
                l(3) =   1
                l(4) =   1
     Q(r) pseudized with 0 coefficients 


     atomic species   valence    mass     pseudopotential
        Ta            27.00   180.94788     Ta( 1.00)
        C              4.00    12.01070     C ( 1.00)

     No symmetry found



   Cartesian axes

     site n.     atom                  positions (alat units)
         1           C   tau(   1) = (   0.0000000   0.0000000   0.0000000  )
         2           Ta  tau(   2) = (   0.5174615   0.3004190  -0.4127129  )
         3           Ta  tau(   3) = (   0.0007158   0.5986355   0.4125272  )

     number of k points=   113

     Number of k-points >= 100: set verbosity='high' to print them.

     Dense  grid:   306315 G-vectors     FFT dimensions: (  45,  45, 400)

     Estimated max dynamical RAM per process >       2.39 GB

     Estimated total dynamical RAM >       4.79 GB
     Cannot read rho : file not found

     Initial potential from superposition of free atoms

     starting charge   57.99842, renormalised to   58.00000

     negative rho (up, down):  8.647E-05 0.000E+00
     Message from routine qexsd_readschema :
     xml data file /scratch/as3359/Mos2_ct_lat/Ta2C.save/data-file-schema.xml not fou
     Cannot read wfcs: file not found
     Starting wfcs are   38 randomized atomic wfcs

     total cpu time spent up to now is       27.5 secs

     Self-consistent Calculation

     iteration #  1     ecut=   150.00 Ry     beta= 0.70
     Davidson diagonalization with overlap
     c_bands:  1 eigenvalues not converged
     c_bands:  1 eigenvalues not converged
     c_bands:  2 eigenvalues not converged
     ethr =  1.00E-05,  avg # of iterations = 12.5

     negative rho (up, down):  7.022E-05 0.000E+00

     total cpu time spent up to now is      154.1 secs

     total energy              =   -1371.79775964 Ry
     estimated scf accuracy    <       2.00930765 Ry

     iteration #  2     ecut=   150.00 Ry     beta= 0.70
     Davidson diagonalization with overlap
     c_bands:  1 eigenvalues not converged
     c_bands:  1 eigenvalues not converged
     ethr =  3.46E-03,  avg # of iterations = 11.6

     total cpu time spent up to now is      235.5 secs

     total energy              =   -1367.71289723 Ry
     estimated scf accuracy    <      40.83195011 Ry

     iteration #  3     ecut=   150.00 Ry     beta= 0.70
     Davidson diagonalization with overlap
     ethr =  3.46E-03,  avg # of iterations =  8.7

     total cpu time spent up to now is      307.2 secs

     total energy              =   -1372.95544496 Ry
     estimated scf accuracy    <       0.62148993 Ry

     iteration #  4     ecut=   150.00 Ry     beta= 0.70
     Davidson diagonalization with overlap
     ethr =  1.07E-03,  avg # of iterations =  3.5

     total cpu time spent up to now is      360.2 secs

     total energy              =   -1373.06705624 Ry
     estimated scf accuracy    <       0.11769680 Ry

     iteration #  5     ecut=   150.00 Ry     beta= 0.70
     Davidson diagonalization with overlap
     ethr =  2.03E-04,  avg # of iterations =  7.0

     total cpu time spent up to now is      418.9 secs

     total energy              =   -1373.05022378 Ry
     estimated scf accuracy    <       0.57448289 Ry

     iteration #  6     ecut=   150.00 Ry     beta= 0.70
     Davidson diagonalization with overlap
     ethr =  2.03E-04,  avg # of iterations =  6.7

     total cpu time spent up to now is      476.2 secs

     total energy              =   -1373.06410879 Ry
     estimated scf accuracy    <       0.10585182 Ry

     iteration #  7     ecut=   150.00 Ry     beta= 0.70
     Davidson diagonalization with overlap
     ethr =  1.83E-04,  avg # of iterations =  1.8

     total cpu time spent up to now is      520.6 secs

     total energy              =   -1373.05077816 Ry
     estimated scf accuracy    <       0.06392488 Ry

     iteration #  8     ecut=   150.00 Ry     beta= 0.70
     Davidson diagonalization with overlap
     ethr =  1.10E-04,  avg # of iterations =  2.6

     total cpu time spent up to now is      567.5 secs

     total energy              =   -1373.04824787 Ry
     estimated scf accuracy    <       0.02320575 Ry

     iteration #  9     ecut=   150.00 Ry     beta= 0.70
     Davidson diagonalization with overlap
     ethr =  4.00E-05,  avg # of iterations =  3.0

     total cpu time spent up to now is      614.4 secs

     total energy              =   -1373.04210254 Ry
     estimated scf accuracy    <       0.01482141 Ry

     iteration # 10     ecut=   150.00 Ry     beta= 0.70
     Davidson diagonalization with overlap
     ethr =  2.56E-05,  avg # of iterations =  4.4

     total cpu time spent up to now is      663.9 secs

     total energy              =   -1373.04320529 Ry
     estimated scf accuracy    <       0.00151745 Ry

     iteration # 11     ecut=   150.00 Ry     beta= 0.70
     Davidson diagonalization with overlap
     ethr =  2.62E-06,  avg # of iterations =  6.5

     negative rho (up, down):  4.868E-07 0.000E+00

     total cpu time spent up to now is      719.6 secs

     total energy              =   -1373.04251580 Ry
     estimated scf accuracy    <       0.00232193 Ry

     iteration # 12     ecut=   150.00 Ry     beta= 0.70
     Davidson diagonalization with overlap
     ethr =  2.62E-06,  avg # of iterations =  5.6

     negative rho (up, down):  7.148E-05 0.000E+00

     total cpu time spent up to now is      775.7 secs

     total energy              =   -1373.04276235 Ry
     estimated scf accuracy    <       0.00090131 Ry

     iteration # 13     ecut=   150.00 Ry     beta= 0.70
     Davidson diagonalization with overlap
     ethr =  1.55E-06,  avg # of iterations =  2.1

     negative rho (up, down):  5.377E-05 0.000E+00

     total cpu time spent up to now is      822.0 secs

     total energy              =   -1373.04273228 Ry
     estimated scf accuracy    <       0.00052836 Ry

     iteration # 14     ecut=   150.00 Ry     beta= 0.70
     Davidson diagonalization with overlap
     ethr =  9.11E-07,  avg # of iterations =  4.9

     negative rho (up, down):  6.560E-05 0.000E+00

     total cpu time spent up to now is      875.0 secs

     total energy              =   -1373.04278225 Ry
     estimated scf accuracy    <       0.00006443 Ry

     iteration # 15     ecut=   150.00 Ry     beta= 0.70
     Davidson diagonalization with overlap
     ethr =  1.11E-07,  avg # of iterations =  4.3

     negative rho (up, down):  6.743E-05 0.000E+00

     total cpu time spent up to now is      925.3 secs

     total energy              =   -1373.04278609 Ry
     estimated scf accuracy    <       0.00001191 Ry

     iteration # 16     ecut=   150.00 Ry     beta= 0.70
     Davidson diagonalization with overlap
     ethr =  2.05E-08,  avg # of iterations =  5.7

     negative rho (up, down):  7.941E-05 0.000E+00

     total cpu time spent up to now is      978.8 secs

     total energy              =   -1373.04278762 Ry
     estimated scf accuracy    <       0.00000070 Ry

     iteration # 17     ecut=   150.00 Ry     beta= 0.70
     Davidson diagonalization with overlap
     ethr =  1.20E-09,  avg # of iterations =  6.4

     negative rho (up, down):  8.505E-05 0.000E+00

     total cpu time spent up to now is     1038.4 secs

     total energy              =   -1373.04278772 Ry
     estimated scf accuracy    <       0.00000253 Ry

     iteration # 18     ecut=   150.00 Ry     beta= 0.70
     Davidson diagonalization with overlap
     ethr =  1.20E-09,  avg # of iterations =  3.0

     negative rho (up, down):  8.629E-05 0.000E+00

     total cpu time spent up to now is     1086.4 secs

     total energy              =   -1373.04278767 Ry
     estimated scf accuracy    <       0.00000092 Ry

     iteration # 19     ecut=   150.00 Ry     beta= 0.70
     Davidson diagonalization with overlap
     ethr =  1.20E-09,  avg # of iterations =  3.8

     negative rho (up, down):  8.738E-05 0.000E+00

     total cpu time spent up to now is     1136.4 secs

     total energy              =   -1373.04278772 Ry
     estimated scf accuracy    <       0.00000002 Ry

     iteration # 20     ecut=   150.00 Ry     beta= 0.70
     Davidson diagonalization with overlap
     c_bands:  1 eigenvalues not converged
     c_bands:  1 eigenvalues not converged
     ethr =  3.21E-11,  avg # of iterations =  8.9

     negative rho (up, down):  8.755E-05 0.000E+00

     total cpu time spent up to now is     1205.7 secs

     total energy              =   -1373.04278774 Ry
     estimated scf accuracy    <       0.00000077 Ry

     iteration # 21     ecut=   150.00 Ry     beta= 0.70
     Davidson diagonalization with overlap
     ethr =  3.21E-11,  avg # of iterations =  6.9

     negative rho (up, down):  8.733E-05 0.000E+00

     total cpu time spent up to now is     1265.9 secs

     total energy              =   -1373.04278773 Ry
     estimated scf accuracy    <       0.00000024 Ry

     iteration # 22     ecut=   150.00 Ry     beta= 0.70
     Davidson diagonalization with overlap
     ethr =  3.21E-11,  avg # of iterations =  7.2

     negative rho (up, down):  8.715E-05 0.000E+00

     total cpu time spent up to now is     1328.1 secs

     total energy              =   -1373.04278774 Ry
     estimated scf accuracy    <          2.3E-09 Ry

     iteration # 23     ecut=   150.00 Ry     beta= 0.70
     Davidson diagonalization with overlap
     ethr =  4.01E-12,  avg # of iterations =  3.5

     negative rho (up, down):  8.725E-05 0.000E+00

     total cpu time spent up to now is     1377.5 secs

     total energy              =   -1373.04278774 Ry
     estimated scf accuracy    <          3.5E-10 Ry

     iteration # 24     ecut=   150.00 Ry     beta= 0.70
     Davidson diagonalization with overlap
     ethr =  5.99E-13,  avg # of iterations =  7.9

     negative rho (up, down):  8.730E-05 0.000E+00

     total cpu time spent up to now is     1443.8 secs

     total energy              =   -1373.04278774 Ry
     estimated scf accuracy    <          7.1E-09 Ry

     iteration # 25     ecut=   150.00 Ry     beta= 0.70
     Davidson diagonalization with overlap
     ethr =  5.99E-13,  avg # of iterations =  6.8

     negative rho (up, down):  8.730E-05 0.000E+00

     total cpu time spent up to now is     1504.6 secs

     total energy              =   -1373.04278774 Ry
     estimated scf accuracy    <          5.5E-10 Ry

     iteration # 26     ecut=   150.00 Ry     beta= 0.70
     Davidson diagonalization with overlap
     ethr =  5.99E-13,  avg # of iterations =  1.9

     negative rho (up, down):  8.730E-05 0.000E+00

     total cpu time spent up to now is     1549.5 secs

     total energy              =   -1373.04278774 Ry
     estimated scf accuracy    <          2.8E-10 Ry

     iteration # 27     ecut=   150.00 Ry     beta= 0.70
     Davidson diagonalization with overlap
     ethr =  4.88E-13,  avg # of iterations =  2.8

     negative rho (up, down):  8.730E-05 0.000E+00

     total cpu time spent up to now is     1596.1 secs

     total energy              =   -1373.04278774 Ry
     estimated scf accuracy    <          5.3E-11 Ry

     iteration # 28     ecut=   150.00 Ry     beta= 0.70
     Davidson diagonalization with overlap
     ethr =  1.00E-13,  avg # of iterations =  6.3

     negative rho (up, down):  8.730E-05 0.000E+00

     total cpu time spent up to now is     1653.5 secs

     total energy              =   -1373.04278774 Ry
     estimated scf accuracy    <          1.5E-11 Ry

     iteration # 29     ecut=   150.00 Ry     beta= 0.70
     Davidson diagonalization with overlap
     ethr =  1.00E-13,  avg # of iterations =  1.0

     negative rho (up, down):  8.730E-05 0.000E+00

     total cpu time spent up to now is     1696.0 secs

     total energy              =   -1373.04278774 Ry
     estimated scf accuracy    <          1.3E-11 Ry

     iteration # 30     ecut=   150.00 Ry     beta= 0.70
     Davidson diagonalization with overlap
     ethr =  1.00E-13,  avg # of iterations =  1.0

     negative rho (up, down):  8.730E-05 0.000E+00

     total cpu time spent up to now is     1740.5 secs

     total energy              =   -1373.04278774 Ry
     estimated scf accuracy    <          1.0E-11 Ry

     iteration # 31     ecut=   150.00 Ry     beta= 0.70
     Davidson diagonalization with overlap
     ethr =  1.00E-13,  avg # of iterations =  1.0

     negative rho (up, down):  8.730E-05 0.000E+00

     total cpu time spent up to now is     1783.8 secs

     total energy              =   -1373.04278774 Ry
     estimated scf accuracy    <          4.5E-12 Ry

     iteration # 32     ecut=   150.00 Ry     beta= 0.70
     Davidson diagonalization with overlap
     ethr =  1.00E-13,  avg # of iterations =  1.0

     negative rho (up, down):  8.730E-05 0.000E+00

     total cpu time spent up to now is     1827.0 secs

     total energy              =   -1373.04278774 Ry
     estimated scf accuracy    <          2.6E-12 Ry

     iteration # 33     ecut=   150.00 Ry     beta= 0.70
     Davidson diagonalization with overlap
     ethr =  1.00E-13,  avg # of iterations =  1.0

     negative rho (up, down):  8.730E-05 0.000E+00

     total cpu time spent up to now is     1869.9 secs

     total energy              =   -1373.04278774 Ry
     estimated scf accuracy    <          1.1E-12 Ry

     iteration # 34     ecut=   150.00 Ry     beta= 0.70
     Davidson diagonalization with overlap
     ethr =  1.00E-13,  avg # of iterations =  1.0

     negative rho (up, down):  8.730E-05 0.000E+00

     total cpu time spent up to now is     1912.9 secs

     End of self-consistent calculation

     Number of k-points >= 100: set verbosity='high' to print the bands.

     highest occupied level (ev):     1.9328

!    total energy              =   -1373.04278774 Ry
     estimated scf accuracy    <          6.2E-13 Ry

     The total energy is the sum of the following terms:
     one-electron contribution =  -11636.15417360 Ry
     hartree contribution      =    5850.58368293 Ry
     xc contribution           =    -139.71149207 Ry
     ewald contribution        =    4552.23919499 Ry

     convergence has been achieved in  34 iterations

     negative rho (up, down):  8.730E-05 0.000E+00

     Forces acting on atoms (cartesian axes, Ry/au):

     atom    1 type  2   force =     0.00055731    0.00050968   -0.00033315
     atom    2 type  1   force =    -0.00079775   -0.00015956   -0.28768976
     atom    3 type  1   force =     0.00024045   -0.00035012    0.28802291

     Total force =     0.407091     Total SCF correction =     0.000013


     Computing stress (Cartesian axis) and pressure


     negative rho (up, down):  8.730E-05 0.000E+00
          total   stress  (Ry/bohr**3)                   (kbar)     P=      204.50
   0.00160758  -0.00000510   0.00000177          236.48       -0.75        0.26
  -0.00000510   0.00158100  -0.00000033           -0.75      232.57       -0.05
   0.00000177  -0.00000033   0.00098182            0.26       -0.05      144.43


     Writing output data file /scratch/as3359/Mos2_ct_lat/Ta2C.save/
 
     init_run     :     51.43s CPU     27.30s WALL (       1 calls)
     electrons    :   3712.06s CPU   1885.44s WALL (       1 calls)
     forces       :     12.70s CPU      6.52s WALL (       1 calls)
     stress       :     55.21s CPU     28.28s WALL (       1 calls)

     Called by init_run:
     wfcinit      :     44.44s CPU     22.64s WALL (       1 calls)
     potinit      :      1.68s CPU      0.86s WALL (       1 calls)
     hinit0       :      3.92s CPU      2.82s WALL (       1 calls)

     Called by electrons:
     c_bands      :   3101.48s CPU   1565.88s WALL (      34 calls)
     sum_band     :    560.55s CPU    288.78s WALL (      34 calls)
     v_of_rho     :      7.87s CPU      4.32s WALL (      35 calls)
     newd         :     39.51s CPU     25.07s WALL (      35 calls)
     mix_rho      :      3.50s CPU      1.93s WALL (      34 calls)

     Called by c_bands:
     init_us_2    :     71.51s CPU     35.79s WALL (    8023 calls)
     cegterg      :   2875.99s CPU   1452.39s WALL (    3842 calls)

     Called by *egterg:
     cdiaghg      :     31.92s CPU     16.36s WALL (   22192 calls)
     h_psi        :   2378.87s CPU   1202.92s WALL (   22305 calls)
     s_psi        :    116.27s CPU     58.21s WALL (   22305 calls)
     g_psi        :     11.84s CPU      5.94s WALL (   18350 calls)

     Called by h_psi:
     h_psi:calbec :     86.96s CPU     43.62s WALL (   22305 calls)
     vloc_psi     :   2148.94s CPU   1087.59s WALL (   22305 calls)
     add_vuspsi   :    128.85s CPU     64.53s WALL (   22305 calls)

     General routines
     calbec       :    114.25s CPU     57.32s WALL (   26712 calls)
     fft          :      3.53s CPU      1.81s WALL (     410 calls)
     ffts         :      0.26s CPU      0.13s WALL (      34 calls)
     fftw         :   2238.97s CPU   1133.93s WALL (  686146 calls)
 
     Parallel routines
 
     PWSCF        :      1h 3m CPU  32m31.97s WALL

 
   This run was terminated on:  18:52:42   8Apr2022            

=------------------------------------------------------------------------------=
   JOB DONE.
=------------------------------------------------------------------------------=
