
     Program PWSCF v.6.8 starts on  9Apr2022 at 19:30:50 

     This program is part of the open-source Quantum ESPRESSO suite
     for quantum simulation of materials; please cite
         "P. Giannozzi et al., J. Phys.:Condens. Matter 21 395502 (2009);
         "P. Giannozzi et al., J. Phys.:Condens. Matter 29 465901 (2017);
         "P. Giannozzi et al., J. Chem. Phys. 152 154105 (2020);
          URL http://www.quantum-espresso.org", 
     in publications or presentations arising from this work. More details at
     http://www.quantum-espresso.org/quote

     Parallel version (MPI & OpenMP), running on       4 processor cores
     Number of MPI processes:                 2
     Threads/MPI process:                     2

     MPI processes distributed on     1 nodes
     R & G space division:  proc/nbgrp/npool/nimage =       2
     124979 MiB available memory on the printing compute node when the environment starts
 
     Reading input from Ta2C.scf.5.700.in
Warning: card  &CELL ignored
Warning: card     CELL_DYNAMICS='BFGS' ignored
Warning: card  / ignored

     Current dimensions of program PWSCF are:
     Max number of different atomic species (ntypx) = 10
     Max number of k-points (npk) =  40000
     Max angular momentum in pseudopotentials (lmaxx) =  4
     Message from routine iosys:
     restart disabled: needed files not found
     file Ta.pbesol-spfn-rrkjus_psl.1.0.0.UPF: wavefunction(s)  5S 5P renormalized

     Subspace diagonalization in iterative solution of the eigenvalue problem:
     a serial algorithm will be used

 
     Parallelization info
     --------------------
     sticks:   dense  smooth     PW     G-vecs:    dense   smooth      PW
     Min         712     712    210               213265   213265   33774
     Max         713     713    211               213272   213272   33815
     Sum        1425    1425    421               426537   426537   67589
 
     Using Slab Decomposition
 


     bravais-lattice index     =            0
     lattice parameter (alat)  =       5.7000  a.u.
     unit-cell volume          =    1721.1177 (a.u.)^3
     number of atoms/cell      =            3
     number of atomic types    =            2
     number of electrons       =        58.00
     number of Kohn-Sham states=           29
     kinetic-energy cutoff     =     150.0000  Ry
     charge density cutoff     =     600.0000  Ry
     scf convergence threshold =      1.0E-12
     mixing beta               =       0.7000
     number of iterations used =            8  plain     mixing
     Exchange-correlation= PBESOL
                           (   1   4  10   8   0   0   0)

     celldm(1)=   5.700000  celldm(2)=   0.000000  celldm(3)=   0.000000
     celldm(4)=   0.000000  celldm(5)=   0.000000  celldm(6)=   0.000000

     crystal axes: (cart. coord. in units of alat)
               a(1) = (   1.034114   0.000203   0.000000 )  
               a(2) = (  -0.516207   0.898604   0.000000 )  
               a(3) = (   0.000000   0.000000  10.000000 )  

     reciprocal axes: (cart. coord. in units 2 pi/alat)
               b(1) = (  0.966902  0.555441  0.000000 )  
               b(2) = ( -0.000219  1.112711  0.000000 )  
               b(3) = (  0.000000  0.000000  0.100000 )  


     PseudoPot. # 1 for Ta read from file:
     /shared/home/as3359/pseudo/Ta.pbesol-spfn-rrkjus_psl.1.0.0.UPF
     MD5 check sum: f099565ffaca9b150a52e9412a28e20b
     Pseudo is Ultrasoft + core correction, Zval = 27.0
     Generated using &quot;atomic&quot; code by A. Dal Corso  v.6.3
     Using radial grid of 1273 points,  8 beta functions with: 
                l(1) =   0
                l(2) =   0
                l(3) =   1
                l(4) =   1
                l(5) =   2
                l(6) =   2
                l(7) =   3
                l(8) =   3
     Q(r) pseudized with 0 coefficients 


     PseudoPot. # 2 for C  read from file:
     /shared/home/as3359/pseudo/C.pbesol-n-rrkjus_psl.1.0.0.UPF
     MD5 check sum: 05995be603a8a7c99da3dc4413f31573
     Pseudo is Ultrasoft + core correction, Zval =  4.0
     Generated using &quot;atomic&quot; code by A. Dal Corso  v.6.3MaX
     Using radial grid of 1073 points,  4 beta functions with: 
                l(1) =   0
                l(2) =   0
                l(3) =   1
                l(4) =   1
     Q(r) pseudized with 0 coefficients 


     atomic species   valence    mass     pseudopotential
        Ta            27.00   180.94788     Ta( 1.00)
        C              4.00    12.01070     C ( 1.00)

     No symmetry found



   Cartesian axes

     site n.     atom                  positions (alat units)
         1           C   tau(   1) = (   0.0000000   0.0000000   0.0000000  )
         2           Ta  tau(   2) = (   0.5174615   0.3004190  -0.4127129  )
         3           Ta  tau(   3) = (   0.0007158   0.5986355   0.4125272  )

     number of k points=   113

     Number of k-points >= 100: set verbosity='high' to print them.

     Dense  grid:   426537 G-vectors     FFT dimensions: (  45,  48, 450)

     Estimated max dynamical RAM per process >       3.33 GB

     Estimated total dynamical RAM >       6.66 GB
     Cannot read rho : file not found

     Initial potential from superposition of free atoms

     starting charge   57.99842, renormalised to   58.00000

     negative rho (up, down):  1.030E-04 0.000E+00
     Message from routine qexsd_readschema :
     xml data file /scratch/as3359/Mos2_ct_lat/Ta2C.save/data-file-schema.xml not fou
     Cannot read wfcs: file not found
     Starting wfcs are   38 randomized atomic wfcs

     total cpu time spent up to now is       37.3 secs

     Self-consistent Calculation

     iteration #  1     ecut=   150.00 Ry     beta= 0.70
     Davidson diagonalization with overlap
     c_bands:  1 eigenvalues not converged
     c_bands:  1 eigenvalues not converged
     c_bands:  1 eigenvalues not converged
     c_bands:  1 eigenvalues not converged
     ethr =  1.00E-05,  avg # of iterations = 12.7

     negative rho (up, down):  1.008E-04 0.000E+00

     total cpu time spent up to now is      186.6 secs

     total energy              =   -1372.52713063 Ry
     estimated scf accuracy    <       1.18995470 Ry

     iteration #  2     ecut=   150.00 Ry     beta= 0.70
     Davidson diagonalization with overlap
     ethr =  2.05E-03,  avg # of iterations =  6.2

     negative rho (up, down):  4.231E-05 0.000E+00

     total cpu time spent up to now is      277.3 secs

     total energy              =   -1372.11653464 Ry
     estimated scf accuracy    <       7.15033366 Ry

     iteration #  3     ecut=   150.00 Ry     beta= 0.70
     Davidson diagonalization with overlap
     ethr =  2.05E-03,  avg # of iterations =  5.2

     negative rho (up, down):  4.913E-05 0.000E+00

     total cpu time spent up to now is      362.0 secs

     total energy              =   -1373.21478417 Ry
     estimated scf accuracy    <       0.06805385 Ry

     iteration #  4     ecut=   150.00 Ry     beta= 0.70
     Davidson diagonalization with overlap
     ethr =  1.17E-04,  avg # of iterations =  6.2

     negative rho (up, down):  4.969E-05 0.000E+00

     total cpu time spent up to now is      441.5 secs

     total energy              =   -1373.23856586 Ry
     estimated scf accuracy    <       0.01431717 Ry

     iteration #  5     ecut=   150.00 Ry     beta= 0.70
     Davidson diagonalization with overlap
     ethr =  2.47E-05,  avg # of iterations =  8.8

     negative rho (up, down):  5.171E-05 0.000E+00

     total cpu time spent up to now is      540.5 secs

     total energy              =   -1373.23064534 Ry
     estimated scf accuracy    <       0.16996737 Ry

     iteration #  6     ecut=   150.00 Ry     beta= 0.70
     Davidson diagonalization with overlap
     ethr =  2.47E-05,  avg # of iterations =  7.7

     negative rho (up, down):  7.405E-05 0.000E+00

     total cpu time spent up to now is      624.8 secs

     total energy              =   -1373.24031749 Ry
     estimated scf accuracy    <       0.01384155 Ry

     iteration #  7     ecut=   150.00 Ry     beta= 0.70
     Davidson diagonalization with overlap
     ethr =  2.39E-05,  avg # of iterations =  2.9

     negative rho (up, down):  7.959E-05 0.000E+00

     total cpu time spent up to now is      689.0 secs

     total energy              =   -1373.24077898 Ry
     estimated scf accuracy    <       0.00304202 Ry

     iteration #  8     ecut=   150.00 Ry     beta= 0.70
     Davidson diagonalization with overlap
     ethr =  5.24E-06,  avg # of iterations =  5.9

     negative rho (up, down):  9.689E-05 0.000E+00

     total cpu time spent up to now is      765.1 secs

     total energy              =   -1373.24125843 Ry
     estimated scf accuracy    <       0.00082236 Ry

     iteration #  9     ecut=   150.00 Ry     beta= 0.70
     Davidson diagonalization with overlap
     ethr =  1.42E-06,  avg # of iterations =  2.1

     negative rho (up, down):  1.070E-04 0.000E+00

     total cpu time spent up to now is      826.9 secs

     total energy              =   -1373.24122809 Ry
     estimated scf accuracy    <       0.00067598 Ry

     iteration # 10     ecut=   150.00 Ry     beta= 0.70
     Davidson diagonalization with overlap
     ethr =  1.17E-06,  avg # of iterations =  3.0

     negative rho (up, down):  1.088E-04 0.000E+00

     total cpu time spent up to now is      890.9 secs

     total energy              =   -1373.24125165 Ry
     estimated scf accuracy    <       0.00017162 Ry

     iteration # 11     ecut=   150.00 Ry     beta= 0.70
     Davidson diagonalization with overlap
     ethr =  2.96E-07,  avg # of iterations =  6.0

     negative rho (up, down):  1.059E-04 0.000E+00

     total cpu time spent up to now is      964.9 secs

     total energy              =   -1373.24127103 Ry
     estimated scf accuracy    <       0.00001934 Ry

     iteration # 12     ecut=   150.00 Ry     beta= 0.70
     Davidson diagonalization with overlap
     ethr =  3.33E-08,  avg # of iterations =  5.3

     negative rho (up, down):  1.075E-04 0.000E+00

     total cpu time spent up to now is     1037.1 secs

     total energy              =   -1373.24127140 Ry
     estimated scf accuracy    <       0.00001909 Ry

     iteration # 13     ecut=   150.00 Ry     beta= 0.70
     Davidson diagonalization with overlap
     ethr =  3.29E-08,  avg # of iterations =  4.7

     negative rho (up, down):  1.086E-04 0.000E+00

     total cpu time spent up to now is     1105.5 secs

     total energy              =   -1373.24127277 Ry
     estimated scf accuracy    <       0.00000044 Ry

     iteration # 14     ecut=   150.00 Ry     beta= 0.70
     Davidson diagonalization with overlap
     ethr =  7.53E-10,  avg # of iterations =  7.1

     negative rho (up, down):  1.087E-04 0.000E+00

     total cpu time spent up to now is     1190.5 secs

     total energy              =   -1373.24127302 Ry
     estimated scf accuracy    <       0.00000024 Ry

     iteration # 15     ecut=   150.00 Ry     beta= 0.70
     Davidson diagonalization with overlap
     ethr =  4.05E-10,  avg # of iterations =  2.3

     negative rho (up, down):  1.087E-04 0.000E+00

     total cpu time spent up to now is     1252.2 secs

     total energy              =   -1373.24127301 Ry
     estimated scf accuracy    <       0.00000010 Ry

     iteration # 16     ecut=   150.00 Ry     beta= 0.70
     Davidson diagonalization with overlap
     ethr =  1.80E-10,  avg # of iterations =  7.0

     negative rho (up, down):  1.087E-04 0.000E+00

     total cpu time spent up to now is     1333.1 secs

     total energy              =   -1373.24127303 Ry
     estimated scf accuracy    <       0.00000016 Ry

     iteration # 17     ecut=   150.00 Ry     beta= 0.70
     Davidson diagonalization with overlap
     ethr =  1.80E-10,  avg # of iterations =  1.1

     negative rho (up, down):  1.087E-04 0.000E+00

     total cpu time spent up to now is     1390.1 secs

     total energy              =   -1373.24127303 Ry
     estimated scf accuracy    <       0.00000013 Ry

     iteration # 18     ecut=   150.00 Ry     beta= 0.70
     Davidson diagonalization with overlap
     ethr =  1.80E-10,  avg # of iterations =  1.4

     negative rho (up, down):  1.087E-04 0.000E+00

     total cpu time spent up to now is     1448.1 secs

     total energy              =   -1373.24127302 Ry
     estimated scf accuracy    <       0.00000009 Ry

     iteration # 19     ecut=   150.00 Ry     beta= 0.70
     Davidson diagonalization with overlap
     ethr =  1.57E-10,  avg # of iterations =  4.9

     negative rho (up, down):  1.087E-04 0.000E+00

     total cpu time spent up to now is     1516.5 secs

     total energy              =   -1373.24127303 Ry
     estimated scf accuracy    <          7.7E-10 Ry

     iteration # 20     ecut=   150.00 Ry     beta= 0.70
     Davidson diagonalization with overlap
     c_bands:  1 eigenvalues not converged
     ethr =  1.32E-12,  avg # of iterations =  7.9

     negative rho (up, down):  1.087E-04 0.000E+00

     total cpu time spent up to now is     1609.0 secs

     total energy              =   -1373.24127303 Ry
     estimated scf accuracy    <       0.00000001 Ry

     iteration # 21     ecut=   150.00 Ry     beta= 0.70
     Davidson diagonalization with overlap
     ethr =  1.32E-12,  avg # of iterations =  6.5

     negative rho (up, down):  1.087E-04 0.000E+00

     total cpu time spent up to now is     1686.6 secs

     total energy              =   -1373.24127303 Ry
     estimated scf accuracy    <          3.6E-09 Ry

     iteration # 22     ecut=   150.00 Ry     beta= 0.70
     Davidson diagonalization with overlap
     ethr =  1.32E-12,  avg # of iterations =  3.9

     negative rho (up, down):  1.087E-04 0.000E+00

     total cpu time spent up to now is     1754.0 secs

     total energy              =   -1373.24127303 Ry
     estimated scf accuracy    <          1.3E-09 Ry

     iteration # 23     ecut=   150.00 Ry     beta= 0.70
     Davidson diagonalization with overlap
     ethr =  1.32E-12,  avg # of iterations =  5.1

     negative rho (up, down):  1.087E-04 0.000E+00

     total cpu time spent up to now is     1824.4 secs

     total energy              =   -1373.24127303 Ry
     estimated scf accuracy    <          6.0E-11 Ry

     iteration # 24     ecut=   150.00 Ry     beta= 0.70
     Davidson diagonalization with overlap
     ethr =  1.03E-13,  avg # of iterations =  7.2

     negative rho (up, down):  1.087E-04 0.000E+00

     total cpu time spent up to now is     1909.6 secs

     total energy              =   -1373.24127303 Ry
     estimated scf accuracy    <          2.6E-10 Ry

     iteration # 25     ecut=   150.00 Ry     beta= 0.70
     Davidson diagonalization with overlap
     ethr =  1.03E-13,  avg # of iterations =  3.7

     negative rho (up, down):  1.087E-04 0.000E+00

     total cpu time spent up to now is     1975.5 secs

     total energy              =   -1373.24127303 Ry
     estimated scf accuracy    <          9.5E-11 Ry

     iteration # 26     ecut=   150.00 Ry     beta= 0.70
     Davidson diagonalization with overlap
     ethr =  1.03E-13,  avg # of iterations =  4.8

     negative rho (up, down):  1.087E-04 0.000E+00

     total cpu time spent up to now is     2044.1 secs

     total energy              =   -1373.24127303 Ry
     estimated scf accuracy    <          7.7E-12 Ry

     iteration # 27     ecut=   150.00 Ry     beta= 0.70
     Davidson diagonalization with overlap
     ethr =  1.00E-13,  avg # of iterations =  3.0

     negative rho (up, down):  1.087E-04 0.000E+00

     total cpu time spent up to now is     2107.1 secs

     End of self-consistent calculation

     Number of k-points >= 100: set verbosity='high' to print the bands.

     highest occupied level (ev):    -0.2997

!    total energy              =   -1373.24127303 Ry
     estimated scf accuracy    <          8.4E-14 Ry

     The total energy is the sum of the following terms:
     one-electron contribution =  -10670.20905029 Ry
     hartree contribution      =    5362.44502326 Ry
     xc contribution           =    -138.53336784 Ry
     ewald contribution        =    4073.05612183 Ry

     convergence has been achieved in  27 iterations

     negative rho (up, down):  1.087E-04 0.000E+00

     Forces acting on atoms (cartesian axes, Ry/au):

     atom    1 type  2   force =     0.00024438    0.00022185   -0.00013910
     atom    2 type  1   force =    -0.00015836   -0.00045372    0.05886236
     atom    3 type  1   force =    -0.00008603    0.00023187   -0.05872326

     Total force =     0.083147     Total SCF correction =     0.000005


     Computing stress (Cartesian axis) and pressure


     negative rho (up, down):  1.087E-04 0.000E+00
          total   stress  (Ry/bohr**3)                   (kbar)     P=      -26.79
  -0.00018575  -0.00000224   0.00000010          -27.32       -0.33        0.01
  -0.00000224  -0.00019918   0.00000094           -0.33      -29.30        0.14
   0.00000010   0.00000094  -0.00016132            0.01        0.14      -23.73


     Writing output data file /scratch/as3359/Mos2_ct_lat/Ta2C.save/
 
     init_run     :     69.12s CPU     37.13s WALL (       1 calls)
     electrons    :   4077.08s CPU   2069.88s WALL (       1 calls)
     forces       :     18.71s CPU      9.64s WALL (       1 calls)
     stress       :     91.84s CPU     46.88s WALL (       1 calls)

     Called by init_run:
     wfcinit      :     59.60s CPU     30.81s WALL (       1 calls)
     potinit      :      2.33s CPU      1.18s WALL (       1 calls)
     hinit0       :      5.07s CPU      3.67s WALL (       1 calls)

     Called by electrons:
     c_bands      :   3426.37s CPU   1729.21s WALL (      27 calls)
     sum_band     :    590.38s CPU    304.10s WALL (      27 calls)
     v_of_rho     :      8.80s CPU      4.76s WALL (      28 calls)
     newd         :     49.00s CPU     30.57s WALL (      28 calls)
     mix_rho      :      4.03s CPU      2.15s WALL (      27 calls)

     Called by c_bands:
     init_us_2    :     86.14s CPU     43.12s WALL (    6441 calls)
     cegterg      :   3163.19s CPU   1596.92s WALL (    3051 calls)

     Called by *egterg:
     cdiaghg      :     27.67s CPU     14.19s WALL (   19177 calls)
     h_psi        :   2517.51s CPU   1273.52s WALL (   19290 calls)
     s_psi        :    153.45s CPU     76.82s WALL (   19290 calls)
     g_psi        :     15.34s CPU      7.70s WALL (   16126 calls)

     Called by h_psi:
     h_psi:calbec :    113.04s CPU     56.64s WALL (   19290 calls)
     vloc_psi     :   2217.13s CPU   1122.77s WALL (   19290 calls)
     add_vuspsi   :    165.71s CPU     82.96s WALL (   19290 calls)

     General routines
     calbec       :    146.72s CPU     73.53s WALL (   22906 calls)
     fft          :      4.30s CPU      2.19s WALL (     333 calls)
     ffts         :      0.33s CPU      0.17s WALL (      27 calls)
     fftw         :   2255.31s CPU   1143.21s WALL (  554167 calls)
 
     Parallel routines
 
     PWSCF        :      1h11m CPU  36m 9.60s WALL

 
   This run was terminated on:  20: 6:59   9Apr2022            

=------------------------------------------------------------------------------=
   JOB DONE.
=------------------------------------------------------------------------------=
