
     Program PWSCF v.6.8 starts on  8Apr2022 at 18:52:43 

     This program is part of the open-source Quantum ESPRESSO suite
     for quantum simulation of materials; please cite
         "P. Giannozzi et al., J. Phys.:Condens. Matter 21 395502 (2009);
         "P. Giannozzi et al., J. Phys.:Condens. Matter 29 465901 (2017);
         "P. Giannozzi et al., J. Chem. Phys. 152 154105 (2020);
          URL http://www.quantum-espresso.org", 
     in publications or presentations arising from this work. More details at
     http://www.quantum-espresso.org/quote

     Parallel version (MPI & OpenMP), running on       4 processor cores
     Number of MPI processes:                 2
     Threads/MPI process:                     2

     MPI processes distributed on     1 nodes
     R & G space division:  proc/nbgrp/npool/nimage =       2
     125006 MiB available memory on the printing compute node when the environment starts
 
     Reading input from Ta2C.scf.5.200.in
Warning: card  &CELL ignored
Warning: card     CELL_DYNAMICS='BFGS' ignored
Warning: card  / ignored

     Current dimensions of program PWSCF are:
     Max number of different atomic species (ntypx) = 10
     Max number of k-points (npk) =  40000
     Max angular momentum in pseudopotentials (lmaxx) =  4
     Message from routine iosys:
     restart disabled: needed files not found
     file Ta.pbesol-spfn-rrkjus_psl.1.0.0.UPF: wavefunction(s)  5S 5P renormalized

     Subspace diagonalization in iterative solution of the eigenvalue problem:
     a serial algorithm will be used

 
     Parallelization info
     --------------------
     sticks:   dense  smooth     PW     G-vecs:    dense   smooth      PW
     Min         597     597    180               162019   162019   26232
     Max         598     598    181               162020   162020   26245
     Sum        1195    1195    361               324039   324039   52477
 
     Using Slab Decomposition
 


     bravais-lattice index     =            0
     lattice parameter (alat)  =       5.2000  a.u.
     unit-cell volume          =    1306.7606 (a.u.)^3
     number of atoms/cell      =            3
     number of atomic types    =            2
     number of electrons       =        58.00
     number of Kohn-Sham states=           29
     kinetic-energy cutoff     =     150.0000  Ry
     charge density cutoff     =     600.0000  Ry
     scf convergence threshold =      1.0E-12
     mixing beta               =       0.7000
     number of iterations used =            8  plain     mixing
     Exchange-correlation= PBESOL
                           (   1   4  10   8   0   0   0)

     celldm(1)=   5.200000  celldm(2)=   0.000000  celldm(3)=   0.000000
     celldm(4)=   0.000000  celldm(5)=   0.000000  celldm(6)=   0.000000

     crystal axes: (cart. coord. in units of alat)
               a(1) = (   1.034114   0.000203   0.000000 )  
               a(2) = (  -0.516207   0.898604   0.000000 )  
               a(3) = (   0.000000   0.000000  10.000000 )  

     reciprocal axes: (cart. coord. in units 2 pi/alat)
               b(1) = (  0.966902  0.555441  0.000000 )  
               b(2) = ( -0.000219  1.112711  0.000000 )  
               b(3) = (  0.000000  0.000000  0.100000 )  


     PseudoPot. # 1 for Ta read from file:
     /shared/home/as3359/pseudo/Ta.pbesol-spfn-rrkjus_psl.1.0.0.UPF
     MD5 check sum: f099565ffaca9b150a52e9412a28e20b
     Pseudo is Ultrasoft + core correction, Zval = 27.0
     Generated using &quot;atomic&quot; code by A. Dal Corso  v.6.3
     Using radial grid of 1273 points,  8 beta functions with: 
                l(1) =   0
                l(2) =   0
                l(3) =   1
                l(4) =   1
                l(5) =   2
                l(6) =   2
                l(7) =   3
                l(8) =   3
     Q(r) pseudized with 0 coefficients 


     PseudoPot. # 2 for C  read from file:
     /shared/home/as3359/pseudo/C.pbesol-n-rrkjus_psl.1.0.0.UPF
     MD5 check sum: 05995be603a8a7c99da3dc4413f31573
     Pseudo is Ultrasoft + core correction, Zval =  4.0
     Generated using &quot;atomic&quot; code by A. Dal Corso  v.6.3MaX
     Using radial grid of 1073 points,  4 beta functions with: 
                l(1) =   0
                l(2) =   0
                l(3) =   1
                l(4) =   1
     Q(r) pseudized with 0 coefficients 


     atomic species   valence    mass     pseudopotential
        Ta            27.00   180.94788     Ta( 1.00)
        C              4.00    12.01070     C ( 1.00)

     No symmetry found



   Cartesian axes

     site n.     atom                  positions (alat units)
         1           C   tau(   1) = (   0.0000000   0.0000000   0.0000000  )
         2           Ta  tau(   2) = (   0.5174615   0.3004190  -0.4127129  )
         3           Ta  tau(   3) = (   0.0007158   0.5986355   0.4125272  )

     number of k points=   113

     Number of k-points >= 100: set verbosity='high' to print them.

     Dense  grid:   324039 G-vectors     FFT dimensions: (  45,  45, 405)

     Estimated max dynamical RAM per process >       2.53 GB

     Estimated total dynamical RAM >       5.07 GB
     Cannot read rho : file not found

     Initial potential from superposition of free atoms

     starting charge   57.99842, renormalised to   58.00000

     negative rho (up, down):  8.637E-05 0.000E+00
     Message from routine qexsd_readschema :
     xml data file /scratch/as3359/Mos2_ct_lat/Ta2C.save/data-file-schema.xml not fou
     Cannot read wfcs: file not found
     Starting wfcs are   38 randomized atomic wfcs

     total cpu time spent up to now is       30.2 secs

     Self-consistent Calculation

     iteration #  1     ecut=   150.00 Ry     beta= 0.70
     Davidson diagonalization with overlap
     c_bands:  1 eigenvalues not converged
     c_bands:  1 eigenvalues not converged
     c_bands:  1 eigenvalues not converged
     c_bands:  2 eigenvalues not converged
     ethr =  1.00E-05,  avg # of iterations = 12.7

     negative rho (up, down):  7.350E-05 0.000E+00

     total cpu time spent up to now is      166.6 secs

     total energy              =   -1372.02057410 Ry
     estimated scf accuracy    <       1.79839831 Ry

     iteration #  2     ecut=   150.00 Ry     beta= 0.70
     Davidson diagonalization with overlap
     c_bands:  1 eigenvalues not converged
     c_bands:  1 eigenvalues not converged
     ethr =  3.10E-03,  avg # of iterations = 10.5

     total cpu time spent up to now is      251.3 secs

     total energy              =   -1368.92269130 Ry
     estimated scf accuracy    <      30.18268969 Ry

     iteration #  3     ecut=   150.00 Ry     beta= 0.70
     Davidson diagonalization with overlap
     ethr =  3.10E-03,  avg # of iterations =  7.8

     total cpu time spent up to now is      327.1 secs

     total energy              =   -1373.06355856 Ry
     estimated scf accuracy    <       0.48434137 Ry

     iteration #  4     ecut=   150.00 Ry     beta= 0.70
     Davidson diagonalization with overlap
     ethr =  8.35E-04,  avg # of iterations =  3.4

     total cpu time spent up to now is      383.2 secs

     total energy              =   -1373.14885842 Ry
     estimated scf accuracy    <       0.08455879 Ry

     iteration #  5     ecut=   150.00 Ry     beta= 0.70
     Davidson diagonalization with overlap
     ethr =  1.46E-04,  avg # of iterations =  3.8

     total cpu time spent up to now is      437.9 secs

     total energy              =   -1373.14312560 Ry
     estimated scf accuracy    <       0.07476114 Ry

     iteration #  6     ecut=   150.00 Ry     beta= 0.70
     Davidson diagonalization with overlap
     ethr =  1.29E-04,  avg # of iterations =  2.2

     total cpu time spent up to now is      486.9 secs

     total energy              =   -1373.13989259 Ry
     estimated scf accuracy    <       0.04394725 Ry

     iteration #  7     ecut=   150.00 Ry     beta= 0.70
     Davidson diagonalization with overlap
     ethr =  7.58E-05,  avg # of iterations =  3.4

     total cpu time spent up to now is      538.5 secs

     total energy              =   -1373.13138430 Ry
     estimated scf accuracy    <       0.03996899 Ry

     iteration #  8     ecut=   150.00 Ry     beta= 0.70
     Davidson diagonalization with overlap
     ethr =  6.89E-05,  avg # of iterations =  2.7

     total cpu time spent up to now is      588.9 secs

     total energy              =   -1373.13070363 Ry
     estimated scf accuracy    <       0.00843939 Ry

     iteration #  9     ecut=   150.00 Ry     beta= 0.70
     Davidson diagonalization with overlap
     ethr =  1.46E-05,  avg # of iterations =  4.0

     negative rho (up, down):  9.369E-03 0.000E+00

     total cpu time spent up to now is      642.6 secs

     total energy              =   -1373.12934432 Ry
     estimated scf accuracy    <       0.00398585 Ry

     iteration # 10     ecut=   150.00 Ry     beta= 0.70
     Davidson diagonalization with overlap
     ethr =  6.87E-06,  avg # of iterations =  4.7

     total cpu time spent up to now is      696.8 secs

     total energy              =   -1373.12945550 Ry
     estimated scf accuracy    <       0.00091454 Ry

     iteration # 11     ecut=   150.00 Ry     beta= 0.70
     Davidson diagonalization with overlap
     ethr =  1.58E-06,  avg # of iterations =  4.8

     negative rho (up, down):  3.599E-05 0.000E+00

     total cpu time spent up to now is      753.5 secs

     total energy              =   -1373.12934361 Ry
     estimated scf accuracy    <       0.00054152 Ry

     iteration # 12     ecut=   150.00 Ry     beta= 0.70
     Davidson diagonalization with overlap
     ethr =  9.34E-07,  avg # of iterations =  2.5

     negative rho (up, down):  7.018E-05 0.000E+00

     total cpu time spent up to now is      805.2 secs

     total energy              =   -1373.12940000 Ry
     estimated scf accuracy    <       0.00001583 Ry

     iteration # 13     ecut=   150.00 Ry     beta= 0.70
     Davidson diagonalization with overlap
     ethr =  2.73E-08,  avg # of iterations =  7.9

     negative rho (up, down):  7.433E-05 0.000E+00

     total cpu time spent up to now is      879.4 secs

     total energy              =   -1373.12940370 Ry
     estimated scf accuracy    <       0.00003679 Ry

     iteration # 14     ecut=   150.00 Ry     beta= 0.70
     Davidson diagonalization with overlap
     ethr =  2.73E-08,  avg # of iterations =  3.0

     negative rho (up, down):  7.738E-05 0.000E+00

     total cpu time spent up to now is      931.8 secs

     total energy              =   -1373.12940349 Ry
     estimated scf accuracy    <       0.00000801 Ry

     iteration # 15     ecut=   150.00 Ry     beta= 0.70
     Davidson diagonalization with overlap
     ethr =  1.38E-08,  avg # of iterations =  6.6

     negative rho (up, down):  8.321E-05 0.000E+00

     total cpu time spent up to now is      993.2 secs

     total energy              =   -1373.12940444 Ry
     estimated scf accuracy    <       0.00000678 Ry

     iteration # 16     ecut=   150.00 Ry     beta= 0.70
     Davidson diagonalization with overlap
     ethr =  1.17E-08,  avg # of iterations =  2.5

     negative rho (up, down):  8.658E-05 0.000E+00

     total cpu time spent up to now is     1042.3 secs

     total energy              =   -1373.12940465 Ry
     estimated scf accuracy    <       0.00000163 Ry

     iteration # 17     ecut=   150.00 Ry     beta= 0.70
     Davidson diagonalization with overlap
     ethr =  2.82E-09,  avg # of iterations =  4.5

     negative rho (up, down):  8.941E-05 0.000E+00

     total cpu time spent up to now is     1094.7 secs

     total energy              =   -1373.12940471 Ry
     estimated scf accuracy    <       0.00000018 Ry

     iteration # 18     ecut=   150.00 Ry     beta= 0.70
     Davidson diagonalization with overlap
     ethr =  3.11E-10,  avg # of iterations =  5.1

     negative rho (up, down):  8.984E-05 0.000E+00

     total cpu time spent up to now is     1151.2 secs

     total energy              =   -1373.12940473 Ry
     estimated scf accuracy    <       0.00000004 Ry

     iteration # 19     ecut=   150.00 Ry     beta= 0.70
     Davidson diagonalization with overlap
     ethr =  7.03E-11,  avg # of iterations =  4.2

     negative rho (up, down):  8.870E-05 0.000E+00

     total cpu time spent up to now is     1212.4 secs

     total energy              =   -1373.12940474 Ry
     estimated scf accuracy    <       0.00000001 Ry

     iteration # 20     ecut=   150.00 Ry     beta= 0.70
     Davidson diagonalization with overlap
     ethr =  2.00E-11,  avg # of iterations =  2.4

     negative rho (up, down):  8.877E-05 0.000E+00

     total cpu time spent up to now is     1261.8 secs

     total energy              =   -1373.12940474 Ry
     estimated scf accuracy    <          5.2E-09 Ry

     iteration # 21     ecut=   150.00 Ry     beta= 0.70
     Davidson diagonalization with overlap
     ethr =  8.99E-12,  avg # of iterations =  2.9

     negative rho (up, down):  8.883E-05 0.000E+00

     total cpu time spent up to now is     1312.5 secs

     total energy              =   -1373.12940474 Ry
     estimated scf accuracy    <          1.7E-09 Ry

     iteration # 22     ecut=   150.00 Ry     beta= 0.70
     Davidson diagonalization with overlap
     ethr =  2.99E-12,  avg # of iterations =  5.9

     negative rho (up, down):  8.885E-05 0.000E+00

     total cpu time spent up to now is     1369.5 secs

     total energy              =   -1373.12940474 Ry
     estimated scf accuracy    <          1.4E-10 Ry

     iteration # 23     ecut=   150.00 Ry     beta= 0.70
     Davidson diagonalization with overlap
     ethr =  2.49E-13,  avg # of iterations =  5.5

     negative rho (up, down):  8.883E-05 0.000E+00

     total cpu time spent up to now is     1426.9 secs

     total energy              =   -1373.12940474 Ry
     estimated scf accuracy    <          3.9E-11 Ry

     iteration # 24     ecut=   150.00 Ry     beta= 0.70
     Davidson diagonalization with overlap
     ethr =  1.00E-13,  avg # of iterations =  5.4

     negative rho (up, down):  8.884E-05 0.000E+00

     total cpu time spent up to now is     1483.0 secs

     total energy              =   -1373.12940474 Ry
     estimated scf accuracy    <          1.1E-11 Ry

     iteration # 25     ecut=   150.00 Ry     beta= 0.70
     Davidson diagonalization with overlap
     ethr =  1.00E-13,  avg # of iterations =  1.0

     negative rho (up, down):  8.884E-05 0.000E+00

     total cpu time spent up to now is     1527.5 secs

     total energy              =   -1373.12940474 Ry
     estimated scf accuracy    <          9.4E-12 Ry

     iteration # 26     ecut=   150.00 Ry     beta= 0.70
     Davidson diagonalization with overlap
     ethr =  1.00E-13,  avg # of iterations =  1.0

     negative rho (up, down):  8.884E-05 0.000E+00

     total cpu time spent up to now is     1572.0 secs

     total energy              =   -1373.12940474 Ry
     estimated scf accuracy    <          5.5E-12 Ry

     iteration # 27     ecut=   150.00 Ry     beta= 0.70
     Davidson diagonalization with overlap
     ethr =  1.00E-13,  avg # of iterations =  1.2

     negative rho (up, down):  8.884E-05 0.000E+00

     total cpu time spent up to now is     1617.0 secs

     total energy              =   -1373.12940474 Ry
     estimated scf accuracy    <          1.0E-12 Ry

     iteration # 28     ecut=   150.00 Ry     beta= 0.70
     Davidson diagonalization with overlap
     ethr =  1.00E-13,  avg # of iterations =  1.1

     negative rho (up, down):  8.884E-05 0.000E+00

     total cpu time spent up to now is     1661.7 secs

     End of self-consistent calculation

     Number of k-points >= 100: set verbosity='high' to print the bands.

     highest occupied level (ev):     1.4431

!    total energy              =   -1373.12940475 Ry
     estimated scf accuracy    <          4.2E-14 Ry

     The total energy is the sum of the following terms:
     one-electron contribution =  -11459.72472324 Ry
     hartree contribution      =    5761.37929973 Ry
     xc contribution           =    -139.48011479 Ry
     ewald contribution        =    4464.69613355 Ry

     convergence has been achieved in  28 iterations

     negative rho (up, down):  8.884E-05 0.000E+00

     Forces acting on atoms (cartesian axes, Ry/au):

     atom    1 type  2   force =     0.00049553    0.00045277   -0.00029309
     atom    2 type  1   force =    -0.00065842   -0.00024419   -0.20416916
     atom    3 type  1   force =     0.00016289   -0.00020858    0.20446225

     Total force =     0.288947     Total SCF correction =     0.000002


     Computing stress (Cartesian axis) and pressure


     negative rho (up, down):  8.884E-05 0.000E+00
          total   stress  (Ry/bohr**3)                   (kbar)     P=      142.39
   0.00112896  -0.00000451   0.00000135          166.08       -0.66        0.20
  -0.00000451   0.00110488   0.00000006           -0.66      162.53        0.01
   0.00000135   0.00000006   0.00067011            0.20        0.01       98.58


     Writing output data file /scratch/as3359/Mos2_ct_lat/Ta2C.save/
 
     init_run     :     55.89s CPU     29.97s WALL (       1 calls)
     electrons    :   3212.30s CPU   1631.60s WALL (       1 calls)
     forces       :     13.27s CPU      6.82s WALL (       1 calls)
     stress       :     56.42s CPU     28.94s WALL (       1 calls)

     Called by init_run:
     wfcinit      :     48.40s CPU     24.97s WALL (       1 calls)
     potinit      :      1.80s CPU      0.92s WALL (       1 calls)
     hinit0       :      4.22s CPU      3.04s WALL (       1 calls)

     Called by electrons:
     c_bands      :   2677.20s CPU   1351.69s WALL (      28 calls)
     sum_band     :    491.86s CPU    253.33s WALL (      28 calls)
     v_of_rho     :      6.78s CPU      3.71s WALL (      29 calls)
     newd         :     34.77s CPU     21.97s WALL (      29 calls)
     mix_rho      :      2.69s CPU      1.52s WALL (      28 calls)

     Called by c_bands:
     init_us_2    :     63.69s CPU     31.90s WALL (    6667 calls)
     cegterg      :   2478.32s CPU   1251.65s WALL (    3164 calls)

     Called by *egterg:
     cdiaghg      :     24.21s CPU     12.43s WALL (   17020 calls)
     h_psi        :   2060.35s CPU   1042.10s WALL (   17133 calls)
     s_psi        :     97.63s CPU     48.89s WALL (   17133 calls)
     g_psi        :     10.46s CPU      5.26s WALL (   13856 calls)

     Called by h_psi:
     h_psi:calbec :     73.26s CPU     36.76s WALL (   17133 calls)
     vloc_psi     :   1867.47s CPU    945.21s WALL (   17133 calls)
     add_vuspsi   :    107.50s CPU     53.84s WALL (   17133 calls)

     General routines
     calbec       :     97.54s CPU     48.96s WALL (   20862 calls)
     fft          :      2.98s CPU      1.52s WALL (     344 calls)
     ffts         :      0.23s CPU      0.12s WALL (      28 calls)
     fftw         :   1948.69s CPU    987.16s WALL (  563988 calls)
 
     Parallel routines
 
     PWSCF        :  55m43.32s CPU  28m22.18s WALL

 
   This run was terminated on:  19:21: 6   8Apr2022            

=------------------------------------------------------------------------------=
   JOB DONE.
=------------------------------------------------------------------------------=
