
     Program PWSCF v.6.8 starts on 16Apr2022 at 15:23:27 

     This program is part of the open-source Quantum ESPRESSO suite
     for quantum simulation of materials; please cite
         "P. Giannozzi et al., J. Phys.:Condens. Matter 21 395502 (2009);
         "P. Giannozzi et al., J. Phys.:Condens. Matter 29 465901 (2017);
         "P. Giannozzi et al., J. Chem. Phys. 152 154105 (2020);
          URL http://www.quantum-espresso.org", 
     in publications or presentations arising from this work. More details at
     http://www.quantum-espresso.org/quote

     Parallel version (MPI & OpenMP), running on       4 processor cores
     Number of MPI processes:                 2
     Threads/MPI process:                     2

     MPI processes distributed on     1 nodes
     R & G space division:  proc/nbgrp/npool/nimage =       2
     119279 MiB available memory on the printing compute node when the environment starts
 
     Waiting for input...
     Reading input from standard input

     Current dimensions of program PWSCF are:
     Max number of different atomic species (ntypx) = 10
     Max number of k-points (npk) =  40000
     Max angular momentum in pseudopotentials (lmaxx) =  4

     Atomic positions and unit cell read from directory:
     /scratch/as3359/MoS2_bulk_bandsdos/Ta.save/
 
     file Mo.pbesol-spn-kjpaw_psl.1.0.0.UPF: wavefunction(s)  4S 4D renormalized
     file S.pbesol-nl-kjpaw_psl.1.0.0.UPF: wavefunction(s)  3S renormalized
     Message from routine setup:
     using ibrav=0 with symmetry is DISCOURAGED, use correct ibrav instead

     Subspace diagonalization in iterative solution of the eigenvalue problem:
     a serial algorithm will be used

 
     Parallelization info
     --------------------
     sticks:   dense  smooth     PW     G-vecs:    dense   smooth      PW
     Min         843     729    210               231296   183661   27194
     Max         844     730    211               231299   183676   27199
     Sum        1687    1459    421               462595   367337   54393
 
     Using Slab Decomposition
 


     bravais-lattice index     =            0
     lattice parameter (alat)  =       6.0720  a.u.
     unit-cell volume          =    1481.2748 (a.u.)^3
     number of atoms/cell      =            6
     number of atomic types    =            2
     number of electrons       =        52.00
     number of Kohn-Sham states=           42
     kinetic-energy cutoff     =     150.0000  Ry
     charge density cutoff     =     700.0000  Ry
     Exchange-correlation= SLA  PW   PSX  PSC
                           (   1   4  10   8   0   0   0)

     celldm(1)=   6.072000  celldm(2)=   0.000000  celldm(3)=   0.000000
     celldm(4)=   0.000000  celldm(5)=   0.000000  celldm(6)=   0.000000

     crystal axes: (cart. coord. in units of alat)
               a(1) = (   0.977326  -0.000176   0.000000 )  
               a(2) = (  -0.488540   0.846362   0.000000 )  
               a(3) = (   0.000000   0.000000   8.000000 )  

     reciprocal axes: (cart. coord. in units 2 pi/alat)
               b(1) = (  1.023307  0.590676  0.000000 )  
               b(2) = (  0.000213  1.181651  0.000000 )  
               b(3) = (  0.000000  0.000000  0.125000 )  


     PseudoPot. # 1 for Mo read from file:
     /shared/home/as3359/pseudo/Mo.pbesol-spn-kjpaw_psl.1.0.0.UPF
     MD5 check sum: de57925cfc675213e43241dcc441eda8
     Pseudo is Projector augmented-wave + core cor, Zval = 14.0
     Generated using &quot;atomic&quot; code by A. Dal Corso  v.6.3
     Shape of augmentation charge: PSQ
     Using radial grid of 1229 points,  6 beta functions with: 
                l(1) =   0
                l(2) =   0
                l(3) =   1
                l(4) =   1
                l(5) =   2
                l(6) =   2
     Q(r) pseudized with 0 coefficients 


     PseudoPot. # 2 for S  read from file:
     /shared/home/as3359/pseudo/S.pbesol-nl-kjpaw_psl.1.0.0.UPF
     MD5 check sum: bf3db50ec3f960682bbc396f1aadd1dd
     Pseudo is Projector augmented-wave + core cor, Zval =  6.0
     Generated using &quot;atomic&quot; code by A. Dal Corso  v.6.3
     Shape of augmentation charge: PSQ
     Using radial grid of 1151 points,  4 beta functions with: 
                l(1) =   0
                l(2) =   0
                l(3) =   1
                l(4) =   1
     Q(r) pseudized with 0 coefficients 


     atomic species   valence    mass     pseudopotential
        Mo            14.00    95.94000     Mo( 1.00)
        S              6.00    32.06500     S ( 1.00)

      2 Sym. Ops., with inversion, found ( 1 have fractional translation)



   Cartesian axes

     site n.     atom                  positions (alat units)
         1           Mo  tau(   1) = (   0.0000000   0.0000000   0.9844997  )
         2           S   tau(   2) = (   0.4887119   0.2819702   1.4701535  )
         3           S   tau(   3) = (   0.4887135   0.2819635   0.4988906  )
         4           Mo  tau(   4) = (   0.0000000   0.0000000   3.0155003  )
         5           S   tau(   5) = (  -0.4887135  -0.2819635   3.5011094  )
         6           S   tau(   6) = (  -0.4887119  -0.2819702   2.5298465  )

     number of k points=    91  Marzari-Vanderbilt smearing, width (Ry)=  0.0010
                       cart. coord. in units 2pi/alat
        k(    1) = (   0.0000000   0.0000000   0.0000000), wk =   0.0219780
        k(    2) = (   0.0227378  -0.0000033   0.0000000), wk =   0.0219780
        k(    3) = (   0.0454756  -0.0000066   0.0000000), wk =   0.0219780
        k(    4) = (   0.0682133  -0.0000099   0.0000000), wk =   0.0219780
        k(    5) = (   0.0909511  -0.0000132   0.0000000), wk =   0.0219780
        k(    6) = (   0.1136889  -0.0000166   0.0000000), wk =   0.0219780
        k(    7) = (   0.1364267  -0.0000199   0.0000000), wk =   0.0219780
        k(    8) = (   0.1591644  -0.0000232   0.0000000), wk =   0.0219780
        k(    9) = (   0.1819022  -0.0000265   0.0000000), wk =   0.0219780
        k(   10) = (   0.2046400  -0.0000298   0.0000000), wk =   0.0219780
        k(   11) = (   0.2273778  -0.0000331   0.0000000), wk =   0.0219780
        k(   12) = (   0.2501156  -0.0000364   0.0000000), wk =   0.0219780
        k(   13) = (   0.2728533  -0.0000397   0.0000000), wk =   0.0219780
        k(   14) = (   0.2955911  -0.0000430   0.0000000), wk =   0.0219780
        k(   15) = (   0.3183289  -0.0000464   0.0000000), wk =   0.0219780
        k(   16) = (   0.3410667  -0.0000497   0.0000000), wk =   0.0219780
        k(   17) = (   0.3638044  -0.0000530   0.0000000), wk =   0.0219780
        k(   18) = (   0.3865422  -0.0000563   0.0000000), wk =   0.0219780
        k(   19) = (   0.4092800  -0.0000596   0.0000000), wk =   0.0219780
        k(   20) = (   0.4320178  -0.0000629   0.0000000), wk =   0.0219780
        k(   21) = (   0.4547556  -0.0000662   0.0000000), wk =   0.0219780
        k(   22) = (   0.4774933  -0.0000695   0.0000000), wk =   0.0219780
        k(   23) = (   0.5002311  -0.0000729   0.0000000), wk =   0.0219780
        k(   24) = (   0.5229689  -0.0000762   0.0000000), wk =   0.0219780
        k(   25) = (   0.5457067  -0.0000795   0.0000000), wk =   0.0219780
        k(   26) = (   0.5684445  -0.0000828   0.0000000), wk =   0.0219780
        k(   27) = (   0.5911822  -0.0000861   0.0000000), wk =   0.0219780
        k(   28) = (   0.6139200  -0.0000894   0.0000000), wk =   0.0219780
        k(   29) = (   0.6366578  -0.0000927   0.0000000), wk =   0.0219780
        k(   30) = (   0.6593956  -0.0000960   0.0000000), wk =   0.0219780
        k(   31) = (   0.6821333  -0.0000993   0.0000000), wk =   0.0219780
        k(   32) = (   0.6764471  -0.0099456   0.0000000), wk =   0.0219780
        k(   33) = (   0.6707609  -0.0197919   0.0000000), wk =   0.0219780
        k(   34) = (   0.6650747  -0.0296381   0.0000000), wk =   0.0219780
        k(   35) = (   0.6593885  -0.0394844   0.0000000), wk =   0.0219780
        k(   36) = (   0.6537022  -0.0493306   0.0000000), wk =   0.0219780
        k(   37) = (   0.6480160  -0.0591769   0.0000000), wk =   0.0219780
        k(   38) = (   0.6423298  -0.0690232   0.0000000), wk =   0.0219780
        k(   39) = (   0.6366436  -0.0788694   0.0000000), wk =   0.0219780
        k(   40) = (   0.6309574  -0.0887157   0.0000000), wk =   0.0219780
        k(   41) = (   0.6252711  -0.0985620   0.0000000), wk =   0.0219780
        k(   42) = (   0.6195849  -0.1084082   0.0000000), wk =   0.0219780
        k(   43) = (   0.6138987  -0.1182545   0.0000000), wk =   0.0219780
        k(   44) = (   0.6082125  -0.1281007   0.0000000), wk =   0.0219780
        k(   45) = (   0.6025262  -0.1379470   0.0000000), wk =   0.0219780
        k(   46) = (   0.5968400  -0.1477933   0.0000000), wk =   0.0219780
        k(   47) = (   0.5911538  -0.1576395   0.0000000), wk =   0.0219780
        k(   48) = (   0.5854676  -0.1674858   0.0000000), wk =   0.0219780
        k(   49) = (   0.5797814  -0.1773320   0.0000000), wk =   0.0219780
        k(   50) = (   0.5740951  -0.1871783   0.0000000), wk =   0.0219780
        k(   51) = (   0.5684089  -0.1970246   0.0000000), wk =   0.0219780
        k(   52) = (   0.5627227  -0.2068708   0.0000000), wk =   0.0219780
        k(   53) = (   0.5570365  -0.2167171   0.0000000), wk =   0.0219780
        k(   54) = (   0.5513503  -0.2265633   0.0000000), wk =   0.0219780
        k(   55) = (   0.5456640  -0.2364096   0.0000000), wk =   0.0219780
        k(   56) = (   0.5399778  -0.2462559   0.0000000), wk =   0.0219780
        k(   57) = (   0.5342916  -0.2561021   0.0000000), wk =   0.0219780
        k(   58) = (   0.5286054  -0.2659484   0.0000000), wk =   0.0219780
        k(   59) = (   0.5229192  -0.2757946   0.0000000), wk =   0.0219780
        k(   60) = (   0.5172329  -0.2856409   0.0000000), wk =   0.0219780
        k(   61) = (   0.5115467  -0.2954872   0.0000000), wk =   0.0219780
        k(   62) = (   0.4944952  -0.2856376   0.0000000), wk =   0.0219780
        k(   63) = (   0.4774436  -0.2757880   0.0000000), wk =   0.0219780
        k(   64) = (   0.4603920  -0.2659384   0.0000000), wk =   0.0219780
        k(   65) = (   0.4433405  -0.2560889   0.0000000), wk =   0.0219780
        k(   66) = (   0.4262889  -0.2462393   0.0000000), wk =   0.0219780
        k(   67) = (   0.4092374  -0.2363897   0.0000000), wk =   0.0219780
        k(   68) = (   0.3921858  -0.2265402   0.0000000), wk =   0.0219780
        k(   69) = (   0.3751343  -0.2166906   0.0000000), wk =   0.0219780
        k(   70) = (   0.3580827  -0.2068410   0.0000000), wk =   0.0219780
        k(   71) = (   0.3410311  -0.1969914   0.0000000), wk =   0.0219780
        k(   72) = (   0.3239796  -0.1871419   0.0000000), wk =   0.0219780
        k(   73) = (   0.3069280  -0.1772923   0.0000000), wk =   0.0219780
        k(   74) = (   0.2898765  -0.1674427   0.0000000), wk =   0.0219780
        k(   75) = (   0.2728249  -0.1575932   0.0000000), wk =   0.0219780
        k(   76) = (   0.2557734  -0.1477436   0.0000000), wk =   0.0219780
        k(   77) = (   0.2387218  -0.1378940   0.0000000), wk =   0.0219780
        k(   78) = (   0.2216702  -0.1280444   0.0000000), wk =   0.0219780
        k(   79) = (   0.2046187  -0.1181949   0.0000000), wk =   0.0219780
        k(   80) = (   0.1875671  -0.1083453   0.0000000), wk =   0.0219780
        k(   81) = (   0.1705156  -0.0984957   0.0000000), wk =   0.0219780
        k(   82) = (   0.1534640  -0.0886461   0.0000000), wk =   0.0219780
        k(   83) = (   0.1364125  -0.0787966   0.0000000), wk =   0.0219780
        k(   84) = (   0.1193609  -0.0689470   0.0000000), wk =   0.0219780
        k(   85) = (   0.1023093  -0.0590974   0.0000000), wk =   0.0219780
        k(   86) = (   0.0852578  -0.0492479   0.0000000), wk =   0.0219780
        k(   87) = (   0.0682062  -0.0393983   0.0000000), wk =   0.0219780
        k(   88) = (   0.0511547  -0.0295487   0.0000000), wk =   0.0219780
        k(   89) = (   0.0341031  -0.0196991   0.0000000), wk =   0.0219780
        k(   90) = (   0.0170516  -0.0098496   0.0000000), wk =   0.0219780
        k(   91) = (   0.0000000   0.0000000   0.0000000), wk =   0.0219780

     Dense  grid:   462595 G-vectors     FFT dimensions: (  50,  50, 432)

     Smooth grid:   367337 G-vectors     FFT dimensions: (  48,  48, 384)

     Estimated max dynamical RAM per process >     789.21 MB

     Estimated total dynamical RAM >       1.54 GB

     The potential is recalculated from file :
     /scratch/as3359/MoS2_bulk_bandsdos/Ta.save/charge-density


     negative rho (up, down):  9.050E-05 0.000E+00
     Starting wfcs are   36 randomized atomic wfcs +    6 random wfcs
     Checking if some PAW data can be deallocated... 

     Band Structure Calculation
     Davidson diagonalization with overlap
     c_bands:  1 eigenvalues not converged
     c_bands:  1 eigenvalues not converged
     c_bands:  1 eigenvalues not converged
     c_bands:  1 eigenvalues not converged
     c_bands:  1 eigenvalues not converged
     c_bands:  1 eigenvalues not converged
     c_bands:  1 eigenvalues not converged
     c_bands:  1 eigenvalues not converged

     ethr =  1.00E-13,  avg # of iterations = 78.2

     total cpu time spent up to now is      651.1 secs

     End of band structure calculation

          k = 0.0000 0.0000 0.0000 ( 46059 PWs)   bands (ev):

   -58.7839 -58.7839 -32.9878 -32.9878 -32.7211 -32.7211 -32.7208 -32.7208
   -12.3216 -12.2562 -10.9923 -10.8812  -4.0195  -3.7051  -0.6693  -0.6678
    -0.6658  -0.6644  -0.3296   0.4475   0.4896   0.4912   0.4917   0.4934
     1.6757   2.1884   4.8170   4.8171   4.8527   4.8527   5.0897   5.0913
     5.1125   5.1141   7.3988   7.5491   8.1446   8.3533   8.4789   9.4619
    10.4375  10.8920

          k = 0.0227-0.0000 0.0000 ( 46055 PWs)   bands (ev):

   -58.7837 -58.7837 -32.9875 -32.9875 -32.7227 -32.7227 -32.7212 -32.7212
   -12.3156 -12.2503 -10.9898 -10.8788  -4.0127  -3.6983  -0.6830  -0.6795
    -0.6617  -0.6582  -0.3512   0.3232   0.4813   0.4833   0.5054   0.6046
     1.6753   2.1842   4.8078   4.8277   4.8421   4.8635   5.0736   5.0830
     5.0924   5.1074   7.4079   7.5586   8.1653   8.3809   8.4947   9.4696
    10.4436  10.9018

          k = 0.0455-0.0000 0.0000 ( 46061 PWs)   bands (ev):

   -58.7832 -58.7832 -32.9865 -32.9865 -32.7276 -32.7276 -32.7223 -32.7223
   -12.2979 -12.2326 -10.9822 -10.8718  -3.9925  -3.6782  -0.7236  -0.7200
    -0.6431  -0.6396  -0.4111   0.1734   0.4516   0.4530   0.5418   0.7267
     1.6737   2.1712   4.7816   4.8114   4.8595   4.8956   5.0279   5.0285
     5.0644   5.0870   7.4345   7.5863   8.2224   8.4624   8.5454   9.4924
    10.4614  10.9285

          k = 0.0682-0.0000 0.0000 ( 46081 PWs)   bands (ev):

   -58.7824 -58.7824 -32.9850 -32.9849 -32.7356 -32.7356 -32.7242 -32.7242
   -12.2685 -12.2033 -10.9695 -10.8601  -3.9591  -3.6451  -0.7891  -0.7855
    -0.6126  -0.6089  -0.4990   0.0189   0.4014   0.4021   0.5914   0.8360
     1.6699   2.1483   4.7423   4.7652   4.9080   4.9368   4.9441   4.9621
     5.0304   5.0541   7.4771   7.6303   8.3021   8.5945   8.6398   9.5305
    10.4896  10.9672

          k = 0.0910-0.0000 0.0000 ( 46061 PWs)   bands (ev):

   -58.7813 -58.7813 -32.9828 -32.9828 -32.7466 -32.7466 -32.7268 -32.7268
   -12.2277 -12.1626 -10.9520 -10.8439  -3.9134  -3.5998  -0.8767  -0.8729
    -0.6050  -0.5702  -0.5666  -0.1377   0.3301   0.3303   0.6456   0.9305
     1.6623   2.1140   4.6949   4.7090   4.8140   4.8721   4.9656   4.9965
     5.0008   5.0333   7.5345   7.6890   8.3897   8.7716   8.7857   9.5841
    10.5264  11.0154

          k = 0.1137-0.0000 0.0000 ( 46057 PWs)   bands (ev):

   -58.7799 -58.7799 -32.9800 -32.9800 -32.7603 -32.7603 -32.7301 -32.7301
   -12.1758 -12.1109 -10.9297 -10.8232  -3.8563  -3.5435  -0.9824  -0.9787
    -0.7208  -0.5174  -0.5134  -0.2939   0.2366   0.2378   0.6985   1.0093
     1.6489   2.0666   4.6433   4.6469   4.6836   4.7810   4.9190   4.9477
     5.0765   5.1167   7.6056   7.7610   8.4797   8.9802   8.9863   9.6539
    10.5704  11.0722

          k = 0.1364-0.0000 0.0000 ( 46053 PWs)   bands (ev):

   -58.7782 -58.7782 -32.9767 -32.9767 -32.7765 -32.7765 -32.7342 -32.7342
   -12.1131 -12.0485 -10.9028 -10.7983  -3.7891  -3.4775  -1.1021  -1.0987
    -0.8415  -0.4547  -0.4536  -0.4443   0.1218   0.1240   0.7466   1.0721
     1.6274   2.0047   4.5367   4.5874   4.5983   4.6957   4.8516   4.8850
     5.1784   5.2228   7.6903   7.8459   8.5743   9.2120   9.2291   9.7423
    10.6209  11.1374

          k = 0.1592-0.0000 0.0000 ( 46003 PWs)   bands (ev):

   -58.7763 -58.7763 -32.9729 -32.9729 -32.7949 -32.7949 -32.7390 -32.7390
   -12.0403 -11.9760 -10.8715 -10.7694  -3.7136  -3.4040  -1.2310  -1.2282
    -0.9631  -0.5978  -0.3836  -0.3785  -0.0133  -0.0104   0.7879   1.1191
     1.5955   1.9276   4.4007   4.5206   4.5488   4.6312   4.7771   4.8198
     5.2928   5.3422   7.7882   7.9431   8.6767   9.4676   9.4849   9.8573
    10.6786  11.2103

          k = 0.1819-0.0000 0.0000 ( 46031 PWs)   bands (ev):

   -58.7741 -58.7741 -32.9687 -32.9687 -32.8152 -32.8152 -32.7446 -32.7446
   -11.9579 -11.8940 -10.8361 -10.7367  -3.6320  -3.3256  -1.3641  -1.3627
    -1.0829  -0.7424  -0.3065  -0.3007  -0.1668  -0.1637   0.8211   1.1505
     1.5513   1.8358   4.2716   4.4430   4.5115   4.5901   4.7002   4.7599
     5.4160   5.4713   7.8994   8.0527   8.7890   9.7237   9.7325  10.0215
    10.7476  11.2895

          k = 0.2046-0.0000 0.0000 ( 46025 PWs)   bands (ev):

   -58.7717 -58.7717 -32.9641 -32.9641 -32.8369 -32.8369 -32.7509 -32.7509
   -11.8665 -11.8032 -10.7969 -10.7005  -3.5472  -3.2456  -1.4971  -1.4959
    -1.1988  -0.8814  -0.3354  -0.3332  -0.2261  -0.2194   0.8454   1.1671
     1.4943   1.7314   4.1547   4.3626   4.4867   4.5616   4.6266   4.7159
     5.5445   5.6065   8.0237   8.1743   8.9122   9.9124   9.9878  10.2611
    10.8363  11.3722

          k = 0.2274-0.0000 0.0000 ( 46043 PWs)   bands (ev):

   -58.7692 -58.7692 -32.9592 -32.9592 -32.8596 -32.8596 -32.7580 -32.7580
   -11.7671 -11.7044 -10.7542 -10.6610  -3.4628  -3.1689  -1.6261  -1.6203
    -1.3097  -1.0152  -0.5154  -0.5144  -0.1468  -0.1388   0.8603   1.1694
     1.4257   1.6179   4.0517   4.2835   4.4714   4.5379   4.5658   4.6968
     5.6751   5.7439   8.1609   8.3076   9.0466  10.0667  10.2081  10.5516
    10.9592  11.4531

          k = 0.2501-0.0000 0.0000 ( 46023 PWs)   bands (ev):

   -58.7666 -58.7666 -32.9541 -32.9541 -32.8829 -32.8829 -32.7659 -32.7659
   -11.6603 -11.5985 -10.7083 -10.6188  -3.3835  -3.1012  -1.7441  -1.7302
    -1.4152  -1.1462  -0.7057  -0.6972  -0.0744  -0.0644   0.8655   1.1584
     1.3494   1.5008   3.9627   4.2073   4.4550   4.5209   4.5345   4.7025
     5.8044   5.8797   8.3106   8.4522   9.1924  10.2128  10.3692  10.8530
    11.1219  11.3964

          k = 0.2729-0.0000 0.0000 ( 46041 PWs)   bands (ev):

   -58.7639 -58.7639 -32.9487 -32.9487 -32.9065 -32.9065 -32.7745 -32.7745
   -11.5472 -11.4865 -10.6597 -10.5740  -3.3150  -3.0501  -1.8449  -1.8181
    -1.5167  -1.2800  -0.8980  -0.8736  -0.0170  -0.0039   0.8609   1.1352
     1.2720   1.3871   3.8869   4.1377   4.4338   4.5155   4.5405   4.7267
     5.9294   6.0102   8.4725   8.6077   9.3493  10.3599  10.4679  11.0876
    11.2761  11.3521

          k = 0.2956-0.0000 0.0000 ( 46009 PWs)   bands (ev):

   -58.7611 -58.7611 -32.9433 -32.9433 -32.9298 -32.9298 -32.7838 -32.7838
   -11.4289 -11.3694 -10.6088 -10.5273  -3.2635  -3.0227  -1.9228  -1.8770
    -1.6176  -1.4255  -1.0836  -1.0302   0.0153   0.0330   0.8467   1.1022
     1.2028   1.2844   3.8241   4.0798   4.4240   4.5234   4.5694   4.7636
     6.0471   6.1319   8.6458   8.7731   9.5171  10.5086  10.5191  11.0582
    11.3046  11.5577

          k = 0.3183-0.0000 0.0000 ( 46001 PWs)   bands (ev):

   -58.7583 -58.7583 -32.9525 -32.9525 -32.9378 -32.9378 -32.7938 -32.7938
   -11.3064 -11.2484 -10.5561 -10.4789  -3.2340  -3.0230  -1.9746  -1.9045
    -1.7245  -1.5891  -1.2503  -1.1555   0.0125   0.0362   0.8227   1.0627
     1.1520   1.1998   3.7763   4.0400   4.4331   4.5426   4.6117   4.8090
     6.1554   6.2421   8.8297   8.9475   9.6952  10.5365  10.6508  10.9391
    11.2285  11.6055

          k = 0.3411-0.0000 0.0000 ( 46005 PWs)   bands (ev):

   -58.7555 -58.7555 -32.9742 -32.9742 -32.9324 -32.9324 -32.8046 -32.8046
   -11.1812 -11.1250 -10.5021 -10.4295  -3.2286  -3.0490  -2.0076  -1.9129
    -1.8397  -1.7599  -1.3835  -1.2475  -0.0310  -0.0011   0.7876   1.0161
     1.1270   1.1411   3.7468   4.0239   4.4604   4.5698   4.6631   4.8597
     6.2523   6.3389   9.0226   9.1297   9.8826  10.5282  10.7020  10.8899
    11.1086  11.5407

          k = 0.3638-0.0001 0.0000 ( 45997 PWs)   bands (ev):

   -58.7528 -58.7528 -32.9945 -32.9945 -32.9271 -32.9271 -32.8160 -32.8160
   -11.0546 -11.0004 -10.4474 -10.3795  -3.2440  -3.0932  -2.0755  -2.0049
    -1.9180  -1.8352  -1.4753  -1.3115  -0.1130  -0.0784   0.7401   0.9548
     1.1164   1.1280   3.7394   4.0352   4.5022   4.6009   4.7203   4.9131
     6.3371   6.4212   9.2222   9.3179  10.0768  10.4973  10.5717  10.9686
    11.0067  11.5091

          k = 0.3865-0.0001 0.0000 ( 45965 PWs)   bands (ev):

   -58.7502 -58.7502 -33.0132 -33.0131 -32.9219 -32.9219 -32.8280 -32.8280
   -10.9281 -10.8763 -10.3925 -10.3295  -3.2735  -3.1462  -2.2237  -2.1907
    -1.9150  -1.8073  -1.5302  -1.3531  -0.2255  -0.1885   0.6804   0.8788
     1.1209   1.1489   3.7564   4.0748   4.5533   4.6323   4.7806   4.9667
     6.4100   6.4896   9.4243   9.5092  10.2635  10.4053  10.4501  10.8369
    11.1411  11.5118

          k = 0.4093-0.0001 0.0000 ( 45939 PWs)   bands (ev):

   -58.7477 -58.7477 -33.0298 -33.0298 -32.9170 -32.9170 -32.8406 -32.8406
   -10.8033 -10.7542 -10.3380 -10.2801  -3.3088  -3.1994  -2.3977  -2.3837
    -1.8833  -1.7661  -1.5568  -1.3760  -0.3592  -0.3221   0.6102   0.7929
     1.1448   1.1827   3.7974   4.1390   4.6088   4.6621   4.8410   5.0177
     6.4726   6.5461   9.6178   9.6985  10.2334  10.2937  10.5268  10.7448
    11.2590  11.5447

          k = 0.4320-0.0001 0.0000 ( 45941 PWs)   bands (ev):

   -58.7453 -58.7453 -33.0441 -33.0441 -32.9124 -32.9124 -32.8538 -32.8538
   -10.6818 -10.6358 -10.2846 -10.2319  -3.3424  -3.2462  -2.5749  -2.5717
    -1.8453  -1.7263  -1.5623  -1.3831  -0.5063  -0.4717   0.5311   0.6995
     1.1828   1.2254   3.8585   4.2178   4.6643   4.6926   4.8991   5.0636
     6.5273   6.5937   9.7649   9.8646  10.0784  10.2126  10.6435  10.7716
    11.3541  11.6043

          k = 0.4548-0.0001 0.0000 ( 45934 PWs)   bands (ev):

   -58.7431 -58.7431 -33.0560 -33.0560 -32.9081 -32.9080 -32.8675 -32.8675
   -10.5656 -10.5229 -10.2330 -10.1854  -3.3683  -3.2815  -2.7506  -2.7470
    -1.8093  -1.6935  -1.5518  -1.3764  -0.6611  -0.6317   0.4447   0.6004
     1.2333   1.2761   3.9315   4.2913   4.7179   4.7341   4.9524   5.1019
     6.5778   6.6366   9.7654   9.8391  10.1044  10.2452  10.6114  10.9733
    11.4264  11.6855

          k = 0.4775-0.0001 0.0000 ( 45934 PWs)   bands (ev):

   -58.7411 -58.7411 -33.0653 -33.0653 -32.9041 -32.9041 -32.8816 -32.8816
   -10.4561 -10.4171 -10.1838 -10.1415  -3.3818  -3.3017  -2.9175  -2.9097
    -1.7808  -1.6708  -1.5284  -1.3572  -0.8191  -0.7984   0.3526   0.4969
     1.2962   1.3353   4.0034   4.3320   4.7714   4.8038   4.9996   5.1317
     6.6276   6.6789   9.6397   9.6849  10.2380  10.3824  10.5643  11.1851
    11.4620  11.7658

          k = 0.5002-0.0001 0.0000 ( 45920 PWs)   bands (ev):

   -58.7393 -58.7393 -33.0718 -33.0718 -32.9006 -32.9006 -32.8961 -32.8961
   -10.3551 -10.3200 -10.1377 -10.1007  -3.3794  -3.3040  -3.0705  -3.0599
    -1.7651  -1.6601  -1.4932  -1.3264  -0.9759  -0.9686   0.2567   0.3904
     1.3713   1.4039   4.0579   4.3240   4.8296   4.9034   5.0409   5.1570
     6.6800   6.7235   9.4859   9.5308  10.3324  10.4269  10.6000  11.3779
    11.4671  11.8218

          k = 0.5230-0.0001 0.0000 ( 45932 PWs)   bands (ev):

   -58.7377 -58.7377 -33.0756 -33.0756 -32.9108 -32.9108 -32.8974 -32.8974
   -10.2641 -10.2331 -10.0953 -10.0637  -3.3592  -3.2867  -3.2077  -3.1951
    -1.7674  -1.6627  -1.4469  -1.2856  -1.1383  -1.1265   0.1590   0.2825
     1.4570   1.4816   4.0803   4.2742   4.8938   4.9996   5.0826   5.1976
     6.7370   6.7722   9.3369   9.3912  10.3201  10.3604  10.7377  11.5054
    11.5364  11.9329

          k = 0.5457-0.0001 0.0000 ( 45914 PWs)   bands (ev):

   -58.7363 -58.7363 -33.0767 -33.0767 -32.9257 -32.9257 -32.8948 -32.8948
   -10.1843 -10.1575 -10.0574 -10.0310  -3.3326  -3.3287  -3.3005  -3.2475
    -1.7935  -1.6812  -1.3926  -1.3071  -1.2623  -1.2309   0.0617   0.1750
     1.5503   1.5664   4.0647   4.1958   4.9487   5.0413   5.1424   5.2878
     6.7985   6.8245   9.2037   9.2734  10.1748  10.3262  10.8597  11.6070
    11.6801  12.1226

          k = 0.5684-0.0001 0.0000 ( 45864 PWs)   bands (ev):

   -58.7351 -58.7351 -33.0751 -33.0751 -32.9406 -32.9406 -32.8925 -32.8925
   -10.1166 -10.0941 -10.0243 -10.0032  -3.4309  -3.4209  -3.2532  -3.1879
    -1.8487  -1.7248  -1.4512  -1.3940  -1.3139  -1.1756  -0.0321   0.0702
     1.6467   1.6550   4.0168   4.1007   4.9746   5.0373   5.2352   5.4070
     6.8626   6.8788   9.0920   9.1843  10.0125  10.2551  10.9557  11.7576
    11.8363  12.3451

          k = 0.5912-0.0001 0.0000 ( 45850 PWs)   bands (ev):

   -58.7342 -58.7342 -33.0711 -33.0711 -32.9552 -32.9552 -32.8907 -32.8907
   -10.0616 -10.0434  -9.9966  -9.9806  -3.5144  -3.5046  -3.1724  -3.1080
    -1.9347  -1.8128  -1.5537  -1.4783  -1.2522  -1.1158  -0.1188  -0.0291
     1.7403   1.7420   3.9489   4.0000   4.9768   5.0158   5.3474   5.5192
     6.9257   6.9320   9.0061   9.1303   9.8438  10.1694  11.0286  11.9355
    12.0063  12.5193

          k = 0.6139-0.0001 0.0000 ( 45834 PWs)   bands (ev):

   -58.7335 -58.7335 -33.0650 -33.0650 -32.9694 -32.9694 -32.8894 -32.8894
   -10.0194 -10.0054  -9.9746  -9.9636  -3.5786  -3.5702  -3.0744  -3.0109
    -2.0434  -1.9438  -1.6086  -1.5424  -1.1881  -1.0576  -0.1933  -0.1192
     1.8208   1.8238   3.8756   3.9049   4.9674   4.9893   5.4591   5.6071
     6.9810   6.9830   8.9501   9.1156   9.6759  10.0823  11.0814  12.1245
    12.1789  12.6588

          k = 0.6367-0.0001 0.0000 ( 45808 PWs)   bands (ev):

   -58.7331 -58.7331 -33.0576 -33.0576 -32.9824 -32.9824 -32.8885 -32.8885
    -9.9896  -9.9798  -9.9586  -9.9521  -3.6235  -3.6172  -2.9675  -2.9040
    -2.1573  -2.0871  -1.6371  -1.5891  -1.1335  -1.0072  -0.2493  -0.1950
     1.8842   1.8893   3.8111   3.8268   4.9544   4.9646   5.5560   5.6625
     7.0220   7.0292   8.9271   9.1403   9.5144  10.0023  11.1160  12.3103
    12.3387  12.7218

          k = 0.6594-0.0001 0.0000 ( 45780 PWs)   bands (ev):

   -58.7328 -58.7328 -33.0505 -33.0505 -32.9928 -32.9928 -32.8879 -32.8879
    -9.9713  -9.9662  -9.9488  -9.9460  -3.6491  -3.6456  -2.8714  -2.8054
    -2.2502  -2.2130  -1.6500  -1.6235  -1.0969  -0.9724  -0.2796  -0.2503
     1.9257   1.9299   3.7672   3.7758   4.9437   4.9467   5.6284   5.6832
     7.0513   7.0585   8.9351   9.1966   9.3680   9.9394  11.1341  12.4689
    12.4739  12.6903

          k = 0.6821-0.0001 0.0000 ( 45762 PWs)   bands (ev):

   -58.7327 -58.7327 -33.0471 -33.0471 -32.9972 -32.9972 -32.8878 -32.8878
    -9.9637  -9.9637  -9.9448  -9.9448  -3.6562  -3.6562  -2.8287  -2.7591
    -2.2788  -2.2787  -1.6459  -1.6459  -1.0844  -0.9599  -0.2795  -0.2794
     1.9415   1.9416   3.7519   3.7584   4.9395   4.9396   5.6710   5.6713
     7.0655   7.0655   8.9516   9.2637   9.2640   9.9121  11.1391  12.5532
    12.5533  12.6187

          k = 0.6764-0.0099 0.0000 ( 45784 PWs)   bands (ev):

   -58.7327 -58.7327 -33.0481 -33.0480 -32.9960 -32.9960 -32.8878 -32.8878
    -9.9661  -9.9636  -9.9460  -9.9448  -3.6551  -3.6530  -2.8401  -2.7722
    -2.2752  -2.2580  -1.6510  -1.6349  -1.0873  -0.9630  -0.2838  -0.2682
     1.9367   1.9399   3.7557   3.7626   4.9411   4.9413   5.6543   5.6807
     7.0593   7.0660   8.9416   9.2496   9.2906   9.9211  11.1382  12.4967
    12.5747  12.6294

          k = 0.6708-0.0198 0.0000 ( 45758 PWs)   bands (ev):

   -58.7328 -58.7328 -33.0508 -33.0508 -32.9925 -32.9925 -32.8879 -32.8879
    -9.9706  -9.9660  -9.9485  -9.9459  -3.6499  -3.6456  -2.8712  -2.8085
    -2.2509  -2.2181  -1.6498  -1.6155  -1.0956  -0.9719  -0.2819  -0.2506
     1.9254   1.9325   3.7669   3.7750   4.9460   4.9465   5.6316   5.6824
     7.0462   7.0617   8.9095   9.2706   9.3066   9.9502  11.1357  12.4188
    12.5821  12.6264

          k = 0.6651-0.0296 0.0000 ( 45774 PWs)   bands (ev):

   -58.7329 -58.7329 -33.0549 -33.0549 -32.9873 -32.9873 -32.8881 -32.8881
    -9.9770  -9.9704  -9.9522  -9.9482  -3.6410  -3.6342  -2.9163  -2.8604
    -2.2159  -2.1681  -1.6395  -1.5854  -1.1084  -0.9859  -0.2746  -0.2277
     1.9086   1.9202   3.7848   3.7949   4.9542   4.9559   5.6037   5.6770
     7.0259   7.0524   8.8609   9.3096   9.3207  10.0008  11.1322  12.3326
    12.5760  12.5989

          k = 0.6594-0.0395 0.0000 ( 45786 PWs)   bands (ev):

   -58.7330 -58.7330 -33.0597 -33.0597 -32.9809 -32.9809 -32.8884 -32.8884
    -9.9852  -9.9769  -9.9570  -9.9514  -3.6285  -3.6190  -2.9699  -2.9213
    -2.1793  -2.1173  -1.6162  -1.5425  -1.1245  -1.0040  -0.2633  -0.2007
     1.8873   1.9038   3.8087   3.8211   4.9661   4.9697   5.5717   5.6647
     6.9984   7.0380   8.8037   9.3003   9.3915  10.0715  11.1281  12.2407
    12.5499  12.5577

          k = 0.6537-0.0493 0.0000 ( 45818 PWs)   bands (ev):

   -58.7332 -58.7332 -33.0651 -33.0651 -32.9736 -32.9736 -32.8887 -32.8887
    -9.9948  -9.9851  -9.9628  -9.9556  -3.6126  -3.6002  -3.0285  -2.9868
    -2.1468  -2.0738  -1.5754  -1.4853  -1.1430  -1.0250  -0.2491  -0.1708
     1.8626   1.8844   3.8375   3.8527   4.9821   4.9877   5.5364   5.6464
     6.9640   7.0185   8.7429   9.2809   9.4772  10.1589  11.1237  12.1448
    12.4852  12.5287

          k = 0.6480-0.0592 0.0000 ( 45834 PWs)   bands (ev):

   -58.7334 -58.7334 -33.0707 -33.0707 -32.9657 -32.9657 -32.8890 -32.8890
   -10.0058  -9.9947  -9.9695  -9.9607  -3.5937  -3.5780  -3.0896  -3.0546
    -2.1215  -2.0426  -1.5149  -1.4138  -1.1628  -1.0479  -0.2332  -0.1392
     1.8355   1.8630   3.8702   3.8884   5.0023   5.0101   5.4989   5.6226
     6.9230   6.9939   8.6811   9.2541   9.5746  10.2594  11.1191  12.0456
    12.4102  12.4902

          k = 0.6423-0.0690 0.0000 ( 45824 PWs)   bands (ev):

   -58.7336 -58.7336 -33.0764 -33.0764 -32.9575 -32.9575 -32.8895 -32.8895
   -10.0180 -10.0057  -9.9770  -9.9666  -3.5721  -3.5529  -3.1518  -3.1230
    -2.1039  -2.0246  -1.4355  -1.3290  -1.1832  -1.0719  -0.2165  -0.1067
     1.8071   1.8403   3.9058   3.9273   5.0269   5.0363   5.4604   5.5943
     6.8758   6.9645   8.6195   9.2222   9.6816  10.3698  11.1144  11.9439
    12.3291  12.4429

          k = 0.6366-0.0789 0.0000 ( 45826 PWs)   bands (ev):

   -58.7338 -58.7338 -33.0821 -33.0821 -32.9489 -32.9489 -32.8899 -32.8899
   -10.0312 -10.0178  -9.9851  -9.9733  -3.5481  -3.5250  -3.2141  -3.1911
    -2.0932  -2.0174  -1.3406  -1.2330  -1.2035  -1.0962  -0.1998  -0.0743
     1.7781   1.8172   3.9433   3.9683   5.0558   5.0656   5.4225   5.5624
     6.8230   6.9305   8.5590   9.1866   9.7965  10.4875  11.1095  11.8402
    12.2444  12.3855

          k = 0.6310-0.0887 0.0000 ( 45822 PWs)   bands (ev):

   -58.7341 -58.7341 -33.0877 -33.0877 -32.9402 -32.9402 -32.8904 -32.8904
   -10.0452 -10.0309  -9.9939  -9.9806  -3.5222  -3.4948  -3.2757  -3.2582
    -2.0882  -2.0182  -1.2344  -1.2226  -1.1281  -1.1199  -0.1840  -0.0427
     1.7492   1.7944   3.9819   4.0104   5.0889   5.0959   5.3878   5.5277
     6.7653   6.8922   8.4999   9.1486   9.9181  10.6101  11.1040  11.7349
    12.1576  12.3132

          k = 0.6253-0.0986 0.0000 ( 45838 PWs)   bands (ev):

   -58.7343 -58.7343 -33.0933 -33.0933 -32.9315 -32.9315 -32.8909 -32.8909
   -10.0598 -10.0446 -10.0031  -9.9883  -3.4948  -3.4626  -3.3360  -3.3238
    -2.0876  -2.0245  -1.2417  -1.1432  -1.1186  -1.0157  -0.1693  -0.0123
     1.7210   1.7722   4.0208   4.0528   5.1229   5.1254   5.3611   5.4917
     6.7034   6.8501   8.4425   9.1088  10.0450  10.7352  11.0977  11.6281
    12.0690  12.2126

          k = 0.6196-0.1084 0.0000 ( 45856 PWs)   bands (ev):

   -58.7346 -58.7346 -33.0987 -33.0987 -32.9227 -32.9227 -32.8915 -32.8915
   -10.0749 -10.0589 -10.0126  -9.9966  -3.4674  -3.4288  -3.3935  -3.3876
    -2.0904  -2.0345  -1.2586  -1.1650  -0.9973  -0.8982  -0.1564   0.0164
     1.6939   1.7511   4.0593   4.0947   5.1385   5.1641   5.3510   5.4565
     6.6381   6.8045   8.3872   9.0679  10.1760  10.8602  11.0902  11.5203
    11.9785  12.0730

          k = 0.6139-0.1183 0.0000 ( 45870 PWs)   bands (ev):

   -58.7349 -58.7349 -33.1039 -33.1039 -32.9139 -32.9139 -32.8920 -32.8920
   -10.0903 -10.0735 -10.0224 -10.0051  -3.4623  -3.4496  -3.4261  -3.3935
    -2.0958  -2.0470  -1.2737  -1.1853  -0.8716  -0.7766  -0.1454   0.0429
     1.6682   1.7312   4.0967   4.1354   5.1348   5.2009   5.3658   5.4265
     6.5702   6.7562   8.3339   9.0261  10.3097  10.9814  11.0813  11.4115
    11.8852  11.9082

          k = 0.6082-0.1281 0.0000 ( 45874 PWs)   bands (ev):

   -58.7352 -58.7352 -33.1089 -33.1089 -32.9053 -32.9053 -32.8926 -32.8926
   -10.1058 -10.0883 -10.0323 -10.0138  -3.5120  -3.5090  -3.4013  -3.3575
    -2.1030  -2.0611  -1.2866  -1.2036  -0.7427  -0.6523  -0.1365   0.0671
     1.6439   1.7126   4.1325   4.1743   5.1140   5.2266   5.4033   5.4114
     6.5004   6.7057   8.2830   8.9837  10.4441  11.0711  11.0931  11.3021
    11.7340  11.7893

          k = 0.6025-0.1379 0.0000 ( 45874 PWs)   bands (ev):

   -58.7355 -58.7355 -33.1137 -33.1137 -32.8969 -32.8969 -32.8932 -32.8932
   -10.1213 -10.1032 -10.0422 -10.0226  -3.5660  -3.5645  -3.3714  -3.3211
    -2.1116  -2.0763  -1.2973  -1.2199  -0.6119  -0.5262  -0.1299   0.0887
     1.6210   1.6953   4.1663   4.2108   5.0844   5.2278   5.4249   5.4556
     6.4297   6.6536   8.2343   8.9410  10.5759  11.0604  11.1838  11.1925
    11.5578  11.6951

          k = 0.5968-0.1478 0.0000 ( 45844 PWs)   bands (ev):

   -58.7358 -58.7358 -33.1183 -33.1183 -32.8937 -32.8937 -32.8887 -32.8887
   -10.1366 -10.1180 -10.0520 -10.0314  -3.6203  -3.6151  -3.3412  -3.2847
    -2.1211  -2.0921  -1.3056  -1.2339  -0.4800  -0.3993  -0.1254   0.1076
     1.5996   1.6790   4.1977   4.2444   5.0515   5.2054   5.4664   5.5171
     6.3587   6.6007   8.1882   8.8982  10.6978  11.0535  11.0828  11.2321
    11.3837  11.6173

          k = 0.5912-0.1576 0.0000 ( 45848 PWs)   bands (ev):

   -58.7361 -58.7361 -33.1227 -33.1227 -32.8943 -32.8943 -32.8808 -32.8808
   -10.1516 -10.1325 -10.0617 -10.0401  -3.6718  -3.6633  -3.3114  -3.2486
    -2.1313  -2.1081  -1.3115  -1.2456  -0.3478  -0.2728  -0.1227   0.1239
     1.5793   1.6635   4.2263   4.2745   5.0185   5.1715   5.5239   5.5846
     6.2882   6.5476   8.1445   8.8552  10.7903  10.9738  11.0619  11.2100
    11.2189  11.5758

          k = 0.5855-0.1675 0.0000 ( 45846 PWs)   bands (ev):

   -58.7363 -58.7363 -33.1268 -33.1268 -32.8948 -32.8948 -32.8732 -32.8732
   -10.1662 -10.1466 -10.0711 -10.0487  -3.7203  -3.7088  -3.2825  -3.2133
    -2.1418  -2.1240  -1.3149  -1.2549  -0.2162  -0.1532  -0.1161   0.1375
     1.5598   1.6485   4.2518   4.3007   4.9871   5.1335   5.5902   5.6561
     6.2190   6.4952   8.1033   8.8124  10.8190  10.8660  11.0290  11.1253
    11.1532  11.5603

          k = 0.5798-0.1773 0.0000 ( 45858 PWs)   bands (ev):

   -58.7366 -58.7366 -33.1306 -33.1306 -32.8954 -32.8954 -32.8659 -32.8659
   -10.1802 -10.1602 -10.0802 -10.0570  -3.7657  -3.7516  -3.2549  -3.1793
    -2.1524  -2.1396  -1.3161  -1.2618  -0.1290  -0.0860  -0.0175   0.1486
     1.5410   1.6335   4.2742   4.3227   4.9582   5.0945   5.6619   5.7302
     6.1519   6.4444   8.0647   8.7699  10.7597  10.7683  10.9102  11.0109
    11.2454  11.5445

          k = 0.5741-0.1872 0.0000 ( 45870 PWs)   bands (ev):

   -58.7369 -58.7369 -33.1342 -33.1342 -32.8959 -32.8959 -32.8591 -32.8591
   -10.1935 -10.1731 -10.0889 -10.0649  -3.8079  -3.7914  -3.2287  -3.1467
    -2.1629  -2.1547  -1.3150  -1.2663  -0.1319   0.0418   0.1042   0.1577
     1.5222   1.6181   4.2932   4.3402   4.9326   5.0563   5.7369   5.8052
     6.0875   6.3963   8.0287   8.7279  10.6472  10.6554  10.8291  10.8873
    11.3612  11.5218

          k = 0.5684-0.1970 0.0000 ( 45866 PWs)   bands (ev):

   -58.7371 -58.7371 -33.1375 -33.1375 -32.8964 -32.8964 -32.8528 -32.8528
   -10.2060 -10.1853 -10.0970 -10.0724  -3.8468  -3.8281  -3.2044  -3.1161
    -2.1730  -2.1691  -1.3121  -1.2687  -0.1372   0.1530   0.1786   0.2237
     1.5030   1.6016   4.3088   4.3533   4.9107   5.0199   5.8138   5.8793
     6.0264   6.3522   7.9954   8.6867  10.5024  10.5531  10.7611  10.7642
    11.4657  11.4948

          k = 0.5627-0.2069 0.0000 ( 45880 PWs)   bands (ev):

   -58.7374 -58.7374 -33.1405 -33.1405 -32.8968 -32.8968 -32.8469 -32.8469
   -10.2176 -10.1967 -10.1046 -10.0793  -3.8823  -3.8616  -3.1820  -3.0877
    -2.1827  -2.1825  -1.3075  -1.2692  -0.1439   0.1655   0.2926   0.3398
     1.4828   1.5836   4.3212   4.3620   4.8927   4.9860   5.8912   5.9495
     5.9695   6.3145   7.9646   8.6467  10.3572  10.4527  10.6474  10.6914
    11.4256  11.4668

          k = 0.5570-0.2167 0.0000 ( 45880 PWs)   bands (ev):

   -58.7376 -58.7376 -33.1432 -33.1432 -32.8972 -32.8972 -32.8415 -32.8415
   -10.2283 -10.2071 -10.1116 -10.0858  -3.9142  -3.8918  -3.1618  -3.0617
    -2.1949  -2.1917  -1.3017  -1.2679  -0.1515   0.1686   0.4102   0.4518
     1.4612   1.5635   4.3304   4.3668   4.8784   4.9551   5.9160   5.9689
     6.0111   6.2871   7.9366   8.6084  10.2182  10.3540  10.5412  10.6198
    11.3798  11.4397

          k = 0.5514-0.2266 0.0000 ( 45894 PWs)   bands (ev):

   -58.7378 -58.7378 -33.1456 -33.1456 -32.8976 -32.8976 -32.8367 -32.8367
   -10.2379 -10.2165 -10.1179 -10.0916  -3.9426  -3.9187  -3.1439  -3.0384
    -2.2062  -2.2000  -1.2949  -1.2653  -0.1597   0.1698   0.5232   0.5588
     1.4374   1.5407   4.3368   4.3684   4.8675   4.9277   5.8687   6.0430
     6.0554   6.2777   7.9114   8.5723  10.0882  10.2575  10.4482  10.5492
    11.3428  11.4147

          k = 0.5457-0.2364 0.0000 ( 45910 PWs)   bands (ev):

   -58.7379 -58.7379 -33.1477 -33.1477 -32.8979 -32.8979 -32.8325 -32.8325
   -10.2463 -10.2247 -10.1234 -10.0967  -3.9674  -3.9421  -3.1283  -3.0179
    -2.2161  -2.2074  -1.2878  -1.2618  -0.1680   0.1699   0.6304   0.6604
     1.4110   1.5149   4.3407   4.3675   4.8596   4.9038   5.8266   6.0744
     6.1133   6.2933   7.8891   8.5390   9.9695  10.1654  10.3692  10.4825
    11.3135  11.3925

          k = 0.5400-0.2463 0.0000 ( 45908 PWs)   bands (ev):

   -58.7381 -58.7381 -33.1495 -33.1495 -32.8982 -32.8982 -32.8289 -32.8289
   -10.2536 -10.2318 -10.1282 -10.1011  -3.9884  -3.9621  -3.1151  -3.0004
    -2.2247  -2.2138  -1.2808  -1.2578  -0.1760   0.1692   0.7309   0.7559
     1.3813   1.4857   4.3427   4.3650   4.8540   4.8837   5.7903   6.0725
     6.1778   6.3281   7.8698   8.5091   9.8641  10.0805  10.3039  10.4224
    11.2904  11.3734

          k = 0.5343-0.2561 0.0000 ( 45884 PWs)   bands (ev):

   -58.7382 -58.7382 -33.1509 -33.1509 -32.8984 -32.8984 -32.8259 -32.8259
   -10.2596 -10.2377 -10.1321 -10.1048  -4.0057  -3.9785  -3.1043  -2.9860
    -2.2319  -2.2192  -1.2743  -1.2537  -0.1833   0.1680   0.8232   0.8447
     1.3479   1.4535   4.3433   4.3617   4.8503   4.8674   5.7602   6.0615
     6.2344   6.3689   7.8536   8.4835   9.7742  10.0061  10.2515  10.3707
    11.2727  11.3577

          k = 0.5286-0.2659 0.0000 ( 45862 PWs)   bands (ev):

   -58.7383 -58.7383 -33.1521 -33.1521 -32.8986 -32.8986 -32.8236 -32.8236
   -10.2643 -10.2424 -10.1352 -10.1077  -4.0192  -3.9912  -3.0959  -2.9748
    -2.2375  -2.2234  -1.2687  -1.2500  -0.1894   0.1668   0.9054   0.9261
     1.3107   1.4191   4.3430   4.3583   4.8479   4.8549   5.7365   6.0491
     6.2812   6.4066   7.8408   8.4626   9.7016   9.9450  10.2113  10.3292
    11.2595  11.3453

          k = 0.5229-0.2758 0.0000 ( 45882 PWs)   bands (ev):

   -58.7384 -58.7384 -33.1529 -33.1529 -32.8988 -32.8988 -32.8219 -32.8219
   -10.2677 -10.2457 -10.1374 -10.1098  -4.0288  -4.0004  -3.0899  -2.9667
    -2.2415  -2.2265  -1.2644  -1.2470  -0.1941   0.1657   0.9741   0.9986
     1.2703   1.3852   4.3424   4.3554   4.8460   4.8464   5.7194   6.0388
     6.3162   6.4361   7.8314   8.4473   9.6482   9.8996  10.1829  10.2987
    11.2504  11.3365

          k = 0.5172-0.2856 0.0000 ( 45866 PWs)   bands (ev):

   -58.7384 -58.7384 -33.1534 -33.1534 -32.8988 -32.8988 -32.8209 -32.8209
   -10.2698 -10.2477 -10.1388 -10.1110  -4.0346  -4.0059  -3.0863  -2.9618
    -2.2440  -2.2283  -1.2618  -1.2451  -0.1970   0.1649   1.0227   1.0578
     1.2305   1.3578   4.3419   4.3536   4.8407   4.8457   5.7091   6.0321
     6.3379   6.4548   7.8258   8.4378   9.6155   9.8717  10.1659  10.2802
    11.2451  11.3312

          k = 0.5115-0.2955 0.0000 ( 45880 PWs)   bands (ev):

   -58.7384 -58.7384 -33.1535 -33.1535 -32.8989 -32.8989 -32.8206 -32.8206
   -10.2704 -10.2484 -10.1392 -10.1114  -4.0366  -4.0078  -3.0851  -2.9602
    -2.2448  -2.2289  -1.2608  -1.2444  -0.1980   0.1647   1.0409   1.0857
     1.2092   1.3466   4.3417   4.3529   4.8390   4.8454   5.7056   6.0299
     6.3452   6.4612   7.8239   8.4347   9.6045   9.8622  10.1602  10.2740
    11.2433  11.3294

          k = 0.4945-0.2856 0.0000 ( 45868 PWs)   bands (ev):

   -58.7385 -58.7385 -33.1524 -33.1524 -32.8991 -32.8991 -32.8203 -32.8203
   -10.2783 -10.2555 -10.1423 -10.1139  -4.0296  -4.0001  -3.0782  -2.9531
    -2.2409  -2.2246  -1.2574  -1.2410  -0.1956   0.1672   1.0371   1.0816
     1.2004   1.3387   4.3392   4.3508   4.8129   4.8524   5.7035   6.0267
     6.3435   6.4592   7.8497   8.4552   9.6047   9.8523  10.1359  10.2923
    11.2080  11.3590

          k = 0.4774-0.2758 0.0000 ( 45881 PWs)   bands (ev):

   -58.7389 -58.7389 -33.1490 -33.1490 -32.8999 -32.8998 -32.8195 -32.8195
   -10.3017 -10.2769 -10.1513 -10.1213  -4.0091  -3.9775  -3.0574  -2.9317
    -2.2296  -2.2117  -1.2472  -1.2308  -0.1883   0.1749   1.0254   1.0692
     1.1749   1.3157   4.3319   4.3447   4.7661   4.8438   5.6967   6.0170
     6.3383   6.4531   7.9253   8.5154   9.6056   9.8239  10.0893  10.3204
    11.1461  11.3989

          k = 0.4604-0.2659 0.0000 ( 45904 PWs)   bands (ev):

   -58.7395 -58.7395 -33.1433 -33.1433 -32.9011 -32.9011 -32.8182 -32.8182
   -10.3399 -10.3121 -10.1661 -10.1335  -3.9755  -3.9405  -3.0232  -2.8963
    -2.2118  -2.1911  -1.2301  -1.2138  -0.1761   0.1879   1.0060   1.0485
     1.1352   1.2792   4.3207   4.3353   4.7046   4.8198   5.6836   6.0002
     6.3295   6.4430   8.0464   8.6114   9.6085   9.7809  10.0411  10.3368
    11.0749  11.4177

          k = 0.4433-0.2561 0.0000 ( 45894 PWs)   bands (ev):

   -58.7404 -58.7404 -33.1354 -33.1354 -32.9027 -32.9027 -32.8163 -32.8163
   -10.3915 -10.3604 -10.1862 -10.1504  -3.9300  -3.8903  -2.9759  -2.8475
    -2.1889  -2.1637  -1.2063  -1.1901  -0.1588   0.2061   0.9785   1.0193
     1.0854   1.2319   4.3068   4.3239   4.6324   4.7836   5.6626   5.9755
     6.3170   6.4285   8.2063   8.7371   9.6150   9.7297   9.9960  10.3365
    10.9905  11.4011

          k = 0.4263-0.2462 0.0000 ( 45902 PWs)   bands (ev):

   -58.7415 -58.7415 -33.1254 -33.1254 -32.9049 -32.9049 -32.8140 -32.8140
   -10.4554 -10.4207 -10.2113 -10.1718  -3.8739  -3.8283  -2.9164  -2.7857
    -2.1627  -2.1314  -1.1759  -1.1597  -0.1362   0.2297   0.9430   0.9818
     1.0302   1.1777   4.2917   4.3118   4.5536   4.7391   5.6320   5.9423
     6.3005   6.4096   8.3980   8.8843   9.6263   9.6759   9.9541  10.3220
    10.8857  11.3468

          k = 0.4092-0.2364 0.0000 ( 45912 PWs)   bands (ev):

   -58.7428 -58.7428 -33.1134 -33.1134 -32.9074 -32.9074 -32.8112 -32.8112
   -10.5300 -10.4918 -10.2408 -10.1972  -3.8089  -3.7562  -2.8455  -2.7119
    -2.1354  -2.0964  -1.1389  -1.1229  -0.1081   0.2588   0.8993   0.9357
     0.9750   1.1215   4.2771   4.3006   4.4716   4.6893   5.5907   5.8999
     6.2798   6.3859   8.6138   9.0419   9.6217   9.6439   9.9149  10.3001
    10.7590  11.2686

          k = 0.3922-0.2265 0.0000 ( 45944 PWs)   bands (ev):

   -58.7443 -58.7443 -33.0996 -33.0996 -32.9104 -32.9104 -32.8079 -32.8079
   -10.6138 -10.5722 -10.2742 -10.2264  -3.7373  -3.6757  -2.7642  -2.6269
    -2.1091  -2.0611  -1.0955  -1.0796  -0.0742   0.2935   0.8475   0.8814
     0.9253   1.0689   4.2649   4.2920   4.3893   4.6369   5.5382   5.8479
     6.2544   6.3572   8.8462   9.1938   9.5671   9.6669   9.8807  10.2809
    10.6183  11.1880

          k = 0.3751-0.2167 0.0000 ( 45964 PWs)   bands (ev):

   -58.7460 -58.7460 -33.0839 -33.0839 -32.9137 -32.9137 -32.8042 -32.8042
   -10.7051 -10.6603 -10.3109 -10.2587  -3.6615  -3.5892  -2.6736  -2.5318
    -2.0857  -2.0283  -1.0459  -1.0302  -0.0344   0.3339   0.7879   0.8191
     0.8863   1.0254   4.2566   4.2874   4.3088   4.5840   5.4746   5.7861
     6.2242   6.3232   9.0865   9.3128   9.5064   9.6947   9.8672  10.2750
    10.4762  11.1206

          k = 0.3581-0.2068 0.0000 ( 45986 PWs)   bands (ev):

   -58.7478 -58.7478 -33.0667 -33.0667 -32.9173 -32.9173 -32.8002 -32.8002
   -10.8024 -10.7547 -10.3504 -10.2938  -3.5843  -3.4990  -2.5752  -2.4280
    -2.0663  -1.9998  -0.9903  -0.9748   0.0114   0.3801   0.7209   0.7492
     0.8626   0.9965   4.2322   4.2536   4.2881   4.5323   5.4010   5.7147
     6.1888   6.2837   9.3030   9.3790   9.4353   9.7204   9.9117  10.2869
    10.3443  11.0603

          k = 0.3410-0.1970 0.0000 ( 45992 PWs)   bands (ev):

   -58.7498 -58.7498 -33.0481 -33.0481 -32.9212 -32.9212 -32.7959 -32.7959
   -10.9042 -10.8539 -10.3920 -10.3310  -3.5093  -3.4081  -2.4705  -2.3174
    -2.0501  -1.9765  -0.9289  -0.9137   0.0633   0.4321   0.6469   0.6725
     0.8574   0.9865   4.1613   4.2571   4.2950   4.4832   5.3189   5.6341
     6.1478   6.2383   9.2890   9.3522   9.5633   9.7579  10.0157  10.2245
    10.3224  11.0175

          k = 0.3240-0.1871 0.0000 ( 46006 PWs)   bands (ev):

   -58.7520 -58.7520 -33.0282 -33.0282 -32.9254 -32.9254 -32.7912 -32.7912
   -11.0089 -10.9563 -10.4351 -10.3698  -3.4408  -3.3201  -2.3614  -2.2029
    -2.0343  -1.9559  -0.8621  -0.8471   0.1207   0.4896   0.5670   0.5899
     0.8724   0.9979   4.0978   4.2678   4.3088   4.4379   5.2305   5.5456
     6.1009   6.1868   9.1830   9.2501   9.6920   9.8664  10.0768  10.2040
    10.3647  11.0145

          k = 0.3069-0.1773 0.0000 ( 46014 PWs)   bands (ev):

   -58.7542 -58.7542 -33.0073 -33.0073 -32.9298 -32.9298 -32.7864 -32.7864
   -11.1154 -11.0607 -10.4793 -10.4097  -3.3835  -3.2394  -2.2509  -2.0930
    -2.0125  -1.9284  -0.7901  -0.7755   0.1832   0.4820   0.5025   0.5523
     0.9077   1.0315   4.0437   4.2861   4.3299   4.3978   5.1381   5.4506
     6.0480   6.1292   9.0510   9.1300   9.7097   9.9658  10.0948  10.3313
    10.4205  11.0582

          k = 0.2899-0.1674 0.0000 ( 46042 PWs)   bands (ev):

   -58.7565 -58.7565 -32.9857 -32.9857 -32.9343 -32.9343 -32.7814 -32.7813
   -11.2223 -11.1658 -10.5239 -10.4502  -3.3426  -3.1716  -2.1445  -2.0109
    -1.9749  -1.8666  -0.7134  -0.6991   0.2498   0.3932   0.4112   0.6191
     0.9617   1.0860   4.0008   4.3121   4.3583   4.3642   5.0443   5.3512
     5.9890   6.0653   8.9078   8.9999   9.6580   9.9575  10.2188  10.4483
    10.5237  11.1014

          k = 0.2728-0.1576 0.0000 ( 46038 PWs)   bands (ev):

   -58.7588 -58.7588 -32.9634 -32.9634 -32.9389 -32.9389 -32.7762 -32.7762
   -11.3284 -11.2704 -10.5684 -10.4908  -3.3224  -3.1223  -2.0510  -1.9604
    -1.9114  -1.7575  -0.6325  -0.6185   0.3016   0.3175   0.3190   0.6886
     1.0312   1.1587   3.9715   4.3384   4.3456   4.3936   4.9519   5.2498
     5.9239   5.9954   8.7608   8.8655   9.5588   9.9698  10.2693  10.5774
    10.6572  11.1206

          k = 0.2558-0.1477 0.0000 ( 46014 PWs)   bands (ev):

   -58.7612 -58.7612 -32.9435 -32.9435 -32.9409 -32.9409 -32.7710 -32.7710
   -11.4329 -11.3735 -10.6125 -10.5311  -3.3248  -3.0966  -1.9700  -1.9132
    -1.8158  -1.6272  -0.5478  -0.5342   0.2086   0.2226   0.3891   0.7589
     1.1118   1.2461   3.9578   4.3219   4.3861   4.4355   4.8638   5.1490
     5.8528   5.9196   8.6149   8.7308   9.4408   9.9905  10.2507  10.7180
    10.7677  11.1739

          k = 0.2387-0.1379 0.0000 ( 46024 PWs)   bands (ev):

   -58.7636 -58.7636 -32.9482 -32.9482 -32.9182 -32.9182 -32.7658 -32.7658
   -11.5346 -11.4741 -10.6556 -10.5705  -3.3489  -3.0962  -1.8869  -1.8523
    -1.7025  -1.4893  -0.4600  -0.4468   0.1154   0.1277   0.4579   0.8277
     1.1981   1.3440   3.9619   4.3161   4.4329   4.4832   4.7829   5.0518
     5.7761   5.8385   8.4730   8.5985   9.3179  10.0053  10.1950  10.7507
    10.9022  11.2875

          k = 0.2217-0.1280 0.0000 ( 46026 PWs)   bands (ev):

   -58.7659 -58.7659 -32.9528 -32.9528 -32.8958 -32.8958 -32.7606 -32.7606
   -11.6329 -11.5714 -10.6973 -10.6088  -3.3912  -3.1194  -1.7936  -1.7737
    -1.5826  -1.3477  -0.3697  -0.3571   0.0233   0.0341   0.5229   0.8924
     1.2846   1.4484   3.9856   4.3224   4.4853   4.5359   4.7120   4.9613
     5.6945   5.7526   8.3370   8.4706   9.1957  10.0032  10.1169  10.6796
    11.0228  11.4435

          k = 0.2046-0.1182 0.0000 ( 46042 PWs)   bands (ev):

   -58.7682 -58.7682 -32.9573 -32.9573 -32.8737 -32.8737 -32.7556 -32.7556
   -11.7267 -11.6645 -10.7373 -10.6456  -3.4473  -3.1615  -1.6896  -1.6790
    -1.4603  -1.2042  -0.2779  -0.2658  -0.0666  -0.0571   0.5814   0.9502
     1.3665   1.5550   4.0297   4.3418   4.5421   4.5925   4.6540   4.8805
     5.6087   5.6628   8.2082   8.3484   9.0773   9.9725  10.0238  10.5395
    11.0501  11.3907

          k = 0.1876-0.1083 0.0000 ( 46042 PWs)   bands (ev):

   -58.7705 -58.7705 -32.9616 -32.9616 -32.8524 -32.8524 -32.7507 -32.7507
   -11.8156 -11.7526 -10.7753 -10.6806  -3.5121  -3.2166  -1.5774  -1.5723
    -1.3378  -1.0596  -0.1863  -0.1742  -0.1522  -0.1445   0.6308   0.9980
     1.4401   1.6597   4.0944   4.3748   4.6023   4.6112   4.6520   4.8127
     5.5198   5.5702   8.0876   8.2330   8.9642   9.9003   9.9173  10.3562
    10.9588  11.3530

          k = 0.1705-0.0985 0.0000 ( 46036 PWs)   bands (ev):

   -58.7726 -58.7726 -32.9657 -32.9657 -32.8319 -32.8319 -32.7460 -32.7460
   -11.8988 -11.8353 -10.8109 -10.7134  -3.5815  -3.2794  -1.4607  -1.4575
    -1.2159  -0.9145  -0.2359  -0.2282  -0.0927  -0.0821   0.6684   1.0328
     1.5031   1.7590   4.1784   4.4211   4.5852   4.6645   4.7130   4.7609
     5.4290   5.4762   7.9756   8.1250   8.8573   9.7784   9.7922  10.1607
    10.8424  11.3111

          k = 0.1535-0.0886 0.0000 ( 46066 PWs)   bands (ev):

   -58.7746 -58.7746 -32.9696 -32.9696 -32.8126 -32.8126 -32.7416 -32.7416
   -11.9757 -11.9118 -10.8439 -10.7438  -3.6520  -3.3455  -1.3425  -1.3390
    -1.0955  -0.7695  -0.3128  -0.3061  -0.0023   0.0077   0.6925   1.0521
     1.5544   1.8498   4.2788   4.4788   4.5770   4.7274   4.7279   4.7742
     5.3379   5.3823   7.8726   8.0249   8.7573   9.6116   9.6359   9.9861
    10.7485  11.2562

          k = 0.1364-0.0788 0.0000 ( 46043 PWs)   bands (ev):

   -58.7764 -58.7764 -32.9732 -32.9732 -32.7946 -32.7946 -32.7375 -32.7375
   -12.0459 -11.9816 -10.8740 -10.7717  -3.7206  -3.4112  -1.2253  -1.2213
    -0.9772  -0.6248  -0.3837  -0.3778   0.0854   0.0946   0.7019   1.0539
     1.5944   1.9300   4.3917   4.5436   4.5865   4.7169   4.7896   4.8343
     5.2483   5.2902   7.7790   7.9332   8.6641   9.4169   9.4442   9.8515
    10.6786  11.1966

          k = 0.1194-0.0689 0.0000 ( 46054 PWs)   bands (ev):

   -58.7781 -58.7781 -32.9765 -32.9765 -32.7782 -32.7782 -32.7338 -32.7338
   -12.1089 -12.0443 -10.9010 -10.7967  -3.7852  -3.4739  -1.1122  -1.1079
    -0.8619  -0.4808  -0.4479  -0.4426   0.1687   0.1770   0.6967   1.0370
     1.6239   1.9984   4.5111   4.6051   4.6144   4.7334   4.8495   4.8917
     5.1621   5.2018   7.6950   7.8502   8.5774   9.2136   9.2349   9.7501
    10.6244  11.1378

          k = 0.1023-0.0591 0.0000 ( 46052 PWs)   bands (ev):

   -58.7796 -58.7796 -32.9794 -32.9794 -32.7636 -32.7636 -32.7305 -32.7305
   -12.1643 -12.0995 -10.9248 -10.8187  -3.8441  -3.5315  -1.0062  -1.0019
    -0.7506  -0.5048  -0.5000  -0.3378   0.2460   0.2534   0.6779   1.0013
     1.6446   2.0548   4.6195   4.6585   4.6638   4.7821   4.9051   4.9446
     5.0819   5.1196   7.6207   7.7760   8.4961   9.0179   9.0283   9.6701
    10.5792  11.0826

          k = 0.0853-0.0492 0.0000 ( 46048 PWs)   bands (ev):

   -58.7809 -58.7809 -32.9819 -32.9819 -32.7510 -32.7510 -32.7276 -32.7276
   -12.2118 -12.1468 -10.9452 -10.8375  -3.8958  -3.5825  -0.9104  -0.9062
    -0.6449  -0.5538  -0.5494  -0.1962   0.3155   0.3220   0.6478   0.9476
     1.6584   2.0996   4.6771   4.7032   4.7671   4.8521   4.9514   4.9896
     5.0133   5.0477   7.5562   7.7110   8.4183   8.8372   8.8438   9.6054
    10.5398  11.0325

          k = 0.0682-0.0394 0.0000 ( 46044 PWs)   bands (ev):

   -58.7819 -58.7819 -32.9840 -32.9840 -32.7404 -32.7404 -32.7252 -32.7252
   -12.2510 -12.1858 -10.9620 -10.8531  -3.9394  -3.6256  -0.8274  -0.8234
    -0.5945  -0.5904  -0.5473  -0.0565   0.3756   0.3810   0.6097   0.8773
     1.6669   2.1338   4.7212   4.7459   4.8764   4.9266   4.9358   4.9744
     5.0093   5.0392   7.5019   7.6557   8.3421   8.6711   8.7008   9.5535
    10.5055  10.9882

          k = 0.0512-0.0295 0.0000 ( 46052 PWs)   bands (ev):

   -58.7828 -58.7828 -32.9857 -32.9857 -32.7320 -32.7320 -32.7233 -32.7233
   -12.2817 -12.2165 -10.9752 -10.8653  -3.9741  -3.6599  -0.7599  -0.7561
    -0.6265  -0.6227  -0.4612   0.0805   0.4246   0.4290   0.5684   0.7924
     1.6717   2.1588   4.7596   4.7872   4.8868   4.9236   4.9708   4.9949
     5.0425   5.0703   7.4581   7.6108   8.2683   8.5356   8.5959   9.5134
    10.4771  10.9504

          k = 0.0341-0.0197 0.0000 ( 46055 PWs)   bands (ev):

   -58.7834 -58.7834 -32.9869 -32.9869 -32.7260 -32.7260 -32.7220 -32.7220
   -12.3038 -12.2385 -10.9847 -10.8741  -3.9992  -3.6849  -0.7100  -0.7064
    -0.6495  -0.6459  -0.3919   0.2141   0.4609   0.4643   0.5300   0.6950
     1.6743   2.1756   4.7901   4.8218   4.8487   4.8848   5.0399   5.0534
     5.0690   5.0942   7.4257   7.5772   8.2042   8.4354   8.5280   9.4848
    10.4556  10.9200

          k = 0.0171-0.0098 0.0000 ( 46063 PWs)   bands (ev):

   -58.7838 -58.7838 -32.9876 -32.9876 -32.7223 -32.7223 -32.7212 -32.7211
   -12.3171 -12.2518 -10.9904 -10.8794  -4.0144  -3.7000  -0.6794  -0.6759
    -0.6634  -0.6599  -0.3458   0.3428   0.4834   0.4858   0.5023   0.5875
     1.6754   2.1852   4.8101   4.8251   4.8447   4.8608   5.0776   5.0855
     5.0970   5.1089   7.4056   7.5563   8.1602   8.3740   8.4907   9.4676
    10.4421  10.8994

          k = 0.0000 0.0000 0.0000 ( 46059 PWs)   bands (ev):

   -58.7839 -58.7839 -32.9878 -32.9878 -32.7211 -32.7211 -32.7208 -32.7208
   -12.3216 -12.2562 -10.9923 -10.8812  -4.0195  -3.7051  -0.6693  -0.6678
    -0.6658  -0.6644  -0.3296   0.4475   0.4896   0.4912   0.4917   0.4934
     1.6757   2.1884   4.8170   4.8171   4.8527   4.8527   5.0897   5.0913
     5.1125   5.1141   7.3988   7.5491   8.1446   8.3533   8.4789   9.4619
    10.4375  10.8920

     Writing output data file /scratch/as3359/MoS2_bulk_bandsdos/Ta.save/
 
     init_run     :      7.74s CPU      5.31s WALL (       1 calls)
     electrons    :   1273.67s CPU    645.47s WALL (       1 calls)

     Called by init_run:
     wfcinit      :      0.00s CPU      0.00s WALL (       1 calls)
     potinit      :      0.59s CPU      0.34s WALL (       1 calls)
     hinit0       :      5.93s CPU      4.29s WALL (       1 calls)

     Called by electrons:
     c_bands      :   1273.67s CPU    645.47s WALL (       1 calls)
     v_of_rho     :      0.27s CPU      0.15s WALL (       1 calls)
     newd         :      0.50s CPU      0.30s WALL (       1 calls)
     PAW_pot      :      0.23s CPU      0.12s WALL (       1 calls)

     Called by c_bands:
     init_us_2    :      0.64s CPU      0.33s WALL (      91 calls)
     cegterg      :   1239.29s CPU    627.37s WALL (     391 calls)

     Called by *egterg:
     cdiaghg      :     23.83s CPU     12.19s WALL (    7207 calls)
     h_psi        :    915.40s CPU    464.57s WALL (    7598 calls)
     s_psi        :     40.15s CPU     20.12s WALL (    7598 calls)
     g_psi        :     10.37s CPU      5.20s WALL (    7116 calls)

     Called by h_psi:
     h_psi:calbec :     35.98s CPU     18.03s WALL (    7598 calls)
     vloc_psi     :    830.22s CPU    421.59s WALL (    7598 calls)
     add_vuspsi   :     41.70s CPU     20.88s WALL (    7598 calls)

     General routines
     calbec       :     35.92s CPU     18.00s WALL (    7598 calls)
     fft          :      0.76s CPU      0.53s WALL (      13 calls)
     ffts         :      0.01s CPU      0.00s WALL (       1 calls)
     fftw         :    715.75s CPU    363.92s WALL (  268860 calls)
     interpolate  :      0.02s CPU      0.01s WALL (       1 calls)
     davcio       :      0.83s CPU      0.87s WALL (     182 calls)
 
     Parallel routines
 
     PWSCF        :  21m37.29s CPU  11m 2.43s WALL

 
   This run was terminated on:  15:34:29  16Apr2022            

=------------------------------------------------------------------------------=
   JOB DONE.
=------------------------------------------------------------------------------=
