
     Program BANDS v.6.8 starts on 16Apr2022 at 15:34:30 

     This program is part of the open-source Quantum ESPRESSO suite
     for quantum simulation of materials; please cite
         "P. Giannozzi et al., J. Phys.:Condens. Matter 21 395502 (2009);
         "P. Giannozzi et al., J. Phys.:Condens. Matter 29 465901 (2017);
         "P. Giannozzi et al., J. Chem. Phys. 152 154105 (2020);
          URL http://www.quantum-espresso.org", 
     in publications or presentations arising from this work. More details at
     http://www.quantum-espresso.org/quote

     Parallel version (MPI & OpenMP), running on       4 processor cores
     Number of MPI processes:                 2
     Threads/MPI process:                     2

     MPI processes distributed on     1 nodes
     R & G space division:  proc/nbgrp/npool/nimage =       2
     119257 MiB available memory on the printing compute node when the environment starts
 

     Reading xml data from directory:

     /scratch/as3359/MoS2_bulk_bandsdos/Ta.save/
     file Mo.pbesol-spn-kjpaw_psl.1.0.0.UPF: wavefunction(s)  4S 4D renormalized
     file S.pbesol-nl-kjpaw_psl.1.0.0.UPF: wavefunction(s)  3S renormalized

     IMPORTANT: XC functional enforced from input :
     Exchange-correlation= PBESOL
                           (   1   4  10   8   0   0   0)
     Any further DFT definition will be discarded
     Please, verify this is what you really want

 
     Parallelization info
     --------------------
     sticks:   dense  smooth     PW     G-vecs:    dense   smooth      PW
     Min         843     729    210               231296   183661   27194
     Max         844     730    211               231299   183676   27199
     Sum        1687    1459    421               462595   367337   54393
 
     Using Slab Decomposition
 

     negative rho (up, down):  9.050E-05 0.000E+00
     Reading collected, re-writing distributed wavefunctions
     high-symmetry point:  0.0000 0.0000 0.0000   x coordinate   0.0000
     high-symmetry point:  0.6821-0.0001 0.0000   x coordinate   0.6821
     high-symmetry point:  0.5115-0.2955 0.0000   x coordinate   1.0232
     high-symmetry point:  0.0000 0.0000 0.0000   x coordinate   1.6140

     Plottable bands (eV) written to file MoS2.Bandx.dat.gnu
     Bands written to file MoS2.Bandx.dat

 **************************************************************************

                    xk=(   0.00000,   0.00000,   0.00000  )

     point group C_i (-1)   
     there are  2 classes
     the character table:

       E     i    
A_g    1.00  1.00
A_u    1.00 -1.00

     the symmetry operations in each class and the name of the first element:

     E        1
                                                                 
     i        2
                                                                 

     Band symmetry, C_i (-1)    point group:

     e(  1 -  2) =    -58.78390  eV     2   --> A_g            
     e(  1 -  2) =    -58.78390  eV     2   --> A_u            
     e(  3 -  4) =    -32.98783  eV     2   --> A_g            
     e(  3 -  4) =    -32.98783  eV     2   --> A_u            
     e(  5 -  6) =    -32.72110  eV     2   --> A_g            
     e(  5 -  6) =    -32.72110  eV     2   --> A_u            
     e(  7 -  8) =    -32.72084  eV     2   --> A_g            
     e(  7 -  8) =    -32.72084  eV     2   --> A_u            
     e(  9 -  9) =    -12.32156  eV     1   --> A_g            
     e( 10 - 10) =    -12.25623  eV     1   --> A_u            
     e( 11 - 11) =    -10.99233  eV     1   --> A_g            
     e( 12 - 12) =    -10.88119  eV     1   --> A_u            
     e( 13 - 13) =     -4.01954  eV     1   --> A_g            
     e( 14 - 14) =     -3.70509  eV     1   --> A_u            
     e( 15 - 15) =     -0.66926  eV     1   --> A_g            
     e( 16 - 16) =     -0.66783  eV     1   --> A_g            
     e( 17 - 17) =     -0.66582  eV     1   --> A_u            
     e( 18 - 18) =     -0.66440  eV     1   --> A_u            
     e( 19 - 19) =     -0.32955  eV     1   --> A_g            
     e( 20 - 20) =      0.44745  eV     1   --> A_u            
     e( 21 - 21) =      0.48959  eV     1   --> A_g            
     e( 22 - 22) =      0.49123  eV     1   --> A_g            
     e( 23 - 23) =      0.49172  eV     1   --> A_u            
     e( 24 - 24) =      0.49337  eV     1   --> A_u            
     e( 25 - 25) =      1.67571  eV     1   --> A_g            
     e( 26 - 26) =      2.18838  eV     1   --> A_u            
     e( 27 - 28) =      4.81701  eV     2   -->   2 A_g            
     e( 29 - 30) =      4.85268  eV     2   -->   2 A_u            
     e( 31 - 31) =      5.08973  eV     1   --> A_g            
     e( 32 - 32) =      5.09133  eV     1   --> A_g            
     e( 33 - 33) =      5.11245  eV     1   --> A_u            
     e( 34 - 34) =      5.11410  eV     1   --> A_u            
     e( 35 - 35) =      7.39879  eV     1   --> A_g            
     e( 36 - 36) =      7.54914  eV     1   --> A_u            
     e( 37 - 37) =      8.14461  eV     1   --> A_g            
     e( 38 - 38) =      8.35333  eV     1   --> A_u            
     e( 39 - 39) =      8.47893  eV     1   --> A_g            
     e( 40 - 40) =      9.46192  eV     1   --> A_u            
     e( 41 - 41) =     10.43753  eV     1   --> A_g            
     e( 42 - 42) =     10.89205  eV     1   --> A_g            

 **************************************************************************

 **************************************************************************

                    xk=(   0.02274,  -0.00000,   0.00000  )

     point group C_1 (1)    
     there are  1 classes
     the character table:

       E    
A      1.00

     the symmetry operations in each class and the name of the first element:

     E        1
                                                                 

     Band symmetry, C_1 (1)     point group:

     e(  1 -  2) =    -58.78374  eV     2   -->   2 A              
     e(  3 -  4) =    -32.98751  eV     2   -->   2 A              
     e(  5 -  6) =    -32.72273  eV     2   -->   2 A              
     e(  7 -  8) =    -32.72121  eV     2   -->   2 A              
     e(  9 -  9) =    -12.31564  eV     1   --> A              
     e( 10 - 10) =    -12.25032  eV     1   --> A              
     e( 11 - 11) =    -10.98978  eV     1   --> A              
     e( 12 - 12) =    -10.87884  eV     1   --> A              
     e( 13 - 13) =     -4.01274  eV     1   --> A              
     e( 14 - 14) =     -3.69833  eV     1   --> A              
     e( 15 - 15) =     -0.68299  eV     1   --> A              
     e( 16 - 16) =     -0.67952  eV     1   --> A              
     e( 17 - 17) =     -0.66165  eV     1   --> A              
     e( 18 - 18) =     -0.65819  eV     1   --> A              
     e( 19 - 19) =     -0.35115  eV     1   --> A              
     e( 20 - 20) =      0.32321  eV     1   --> A              
     e( 21 - 21) =      0.48132  eV     1   --> A              
     e( 22 - 22) =      0.48331  eV     1   --> A              
     e( 23 - 23) =      0.50541  eV     1   --> A              
     e( 24 - 24) =      0.60459  eV     1   --> A              
     e( 25 - 25) =      1.67528  eV     1   --> A              
     e( 26 - 26) =      2.18417  eV     1   --> A              
     e( 27 - 27) =      4.80781  eV     1   --> A              
     e( 28 - 28) =      4.82767  eV     1   --> A              
     e( 29 - 29) =      4.84210  eV     1   --> A              
     e( 30 - 30) =      4.86352  eV     1   --> A              
     e( 31 - 31) =      5.07364  eV     1   --> A              
     e( 32 - 32) =      5.08297  eV     1   --> A              
     e( 33 - 33) =      5.09237  eV     1   --> A              
     e( 34 - 34) =      5.10736  eV     1   --> A              
     e( 35 - 35) =      7.40788  eV     1   --> A              
     e( 36 - 36) =      7.55862  eV     1   --> A              
     e( 37 - 37) =      8.16530  eV     1   --> A              
     e( 38 - 38) =      8.38088  eV     1   --> A              
     e( 39 - 39) =      8.49473  eV     1   --> A              
     e( 40 - 40) =      9.46955  eV     1   --> A              
     e( 41 - 41) =     10.44363  eV     1   --> A              
     e( 42 - 42) =     10.90183  eV     1   --> A              

 **************************************************************************

 **************************************************************************

                    xk=(   0.04548,  -0.00001,   0.00000  )

     Band symmetry, C_1 (1)     point group:

     e(  1 -  2) =    -58.78324  eV     2   -->   2 A              
     e(  3 -  4) =    -32.98655  eV     2   -->   2 A              
     e(  5 -  6) =    -32.72759  eV     2   -->   2 A              
     e(  7 -  8) =    -32.72232  eV     2   -->   2 A              
     e(  9 -  9) =    -12.29791  eV     1   --> A              
     e( 10 - 10) =    -12.23264  eV     1   --> A              
     e( 11 - 11) =    -10.98217  eV     1   --> A              
     e( 12 - 12) =    -10.87178  eV     1   --> A              
     e( 13 - 13) =     -3.99247  eV     1   --> A              
     e( 14 - 14) =     -3.67818  eV     1   --> A              
     e( 15 - 15) =     -0.72359  eV     1   --> A              
     e( 16 - 16) =     -0.72003  eV     1   --> A              
     e( 17 - 17) =     -0.64314  eV     1   --> A              
     e( 18 - 18) =     -0.63960  eV     1   --> A              
     e( 19 - 19) =     -0.41113  eV     1   --> A              
     e( 20 - 20) =      0.17345  eV     1   --> A              
     e( 21 - 21) =      0.45157  eV     1   --> A              
     e( 22 - 22) =      0.45305  eV     1   --> A              
     e( 23 - 23) =      0.54179  eV     1   --> A              
     e( 24 - 24) =      0.72673  eV     1   --> A              
     e( 25 - 25) =      1.67366  eV     1   --> A              
     e( 26 - 26) =      2.17117  eV     1   --> A              
     e( 27 - 27) =      4.78163  eV     1   --> A              
     e( 28 - 28) =      4.81139  eV     1   --> A              
     e( 29 - 29) =      4.85953  eV     1   --> A              
     e( 30 - 30) =      4.89557  eV     1   --> A              
     e( 31 - 31) =      5.02794  eV     1   --> A              
     e( 32 - 32) =      5.02850  eV     1   --> A              
     e( 33 - 33) =      5.06444  eV     1   --> A              
     e( 34 - 34) =      5.08702  eV     1   --> A              
     e( 35 - 35) =      7.43448  eV     1   --> A              
     e( 36 - 36) =      7.58628  eV     1   --> A              
     e( 37 - 37) =      8.22237  eV     1   --> A              
     e( 38 - 38) =      8.46239  eV     1   --> A              
     e( 39 - 39) =      8.54542  eV     1   --> A              
     e( 40 - 40) =      9.49242  eV     1   --> A              
     e( 41 - 41) =     10.46142  eV     1   --> A              
     e( 42 - 42) =     10.92847  eV     1   --> A              

 **************************************************************************

 **************************************************************************

                    xk=(   0.06821,  -0.00001,   0.00000  )

     Band symmetry, C_1 (1)     point group:

     e(  1 -  2) =    -58.78243  eV     2   -->   2 A              
     e(  3 -  4) =    -32.98496  eV     2   -->   2 A              
     e(  5 -  6) =    -32.73559  eV     2   -->   2 A              
     e(  7 -  8) =    -32.72417  eV     2   -->   2 A              
     e(  9 -  9) =    -12.26852  eV     1   --> A              
     e( 10 - 10) =    -12.20333  eV     1   --> A              
     e( 11 - 11) =    -10.96955  eV     1   --> A              
     e( 12 - 12) =    -10.86009  eV     1   --> A              
     e( 13 - 13) =     -3.95913  eV     1   --> A              
     e( 14 - 14) =     -3.64510  eV     1   --> A              
     e( 15 - 15) =     -0.78913  eV     1   --> A              
     e( 16 - 16) =     -0.78546  eV     1   --> A              
     e( 17 - 17) =     -0.61260  eV     1   --> A              
     e( 18 - 18) =     -0.60891  eV     1   --> A              
     e( 19 - 19) =     -0.49900  eV     1   --> A              
     e( 20 - 20) =      0.01888  eV     1   --> A              
     e( 21 - 21) =      0.40144  eV     1   --> A              
     e( 22 - 22) =      0.40214  eV     1   --> A              
     e( 23 - 23) =      0.59141  eV     1   --> A              
     e( 24 - 24) =      0.83596  eV     1   --> A              
     e( 25 - 25) =      1.66986  eV     1   --> A              
     e( 26 - 26) =      2.14830  eV     1   --> A              
     e( 27 - 27) =      4.74233  eV     1   --> A              
     e( 28 - 28) =      4.76519  eV     1   --> A              
     e( 29 - 29) =      4.90797  eV     1   --> A              
     e( 30 - 30) =      4.93685  eV     1   --> A              
     e( 31 - 31) =      4.94413  eV     1   --> A              
     e( 32 - 32) =      4.96206  eV     1   --> A              
     e( 33 - 33) =      5.03039  eV     1   --> A              
     e( 34 - 34) =      5.05411  eV     1   --> A              
     e( 35 - 35) =      7.47713  eV     1   --> A              
     e( 36 - 36) =      7.63032  eV     1   --> A              
     e( 37 - 37) =      8.30212  eV     1   --> A              
     e( 38 - 38) =      8.59447  eV     1   --> A              
     e( 39 - 39) =      8.63984  eV     1   --> A              
     e( 40 - 40) =      9.53055  eV     1   --> A              
     e( 41 - 41) =     10.48959  eV     1   --> A              
     e( 42 - 42) =     10.96722  eV     1   --> A              

 **************************************************************************

 **************************************************************************

                    xk=(   0.09095,  -0.00001,   0.00000  )

     Band symmetry, C_1 (1)     point group:

     e(  1 -  2) =    -58.78131  eV     2   -->   2 A              
     e(  3 -  4) =    -32.98277  eV     2   -->   2 A              
     e(  5 -  6) =    -32.74656  eV     2   -->   2 A              
     e(  7 -  8) =    -32.72676  eV     2   -->   2 A              
     e(  9 -  9) =    -12.22769  eV     1   --> A              
     e( 10 - 10) =    -12.16263  eV     1   --> A              
     e( 11 - 11) =    -10.95202  eV     1   --> A              
     e( 12 - 12) =    -10.84385  eV     1   --> A              
     e( 13 - 13) =     -3.91341  eV     1   --> A              
     e( 14 - 14) =     -3.59983  eV     1   --> A              
     e( 15 - 15) =     -0.87666  eV     1   --> A              
     e( 16 - 16) =     -0.87291  eV     1   --> A              
     e( 17 - 17) =     -0.60498  eV     1   --> A              
     e( 18 - 18) =     -0.57020  eV     1   --> A              
     e( 19 - 19) =     -0.56659  eV     1   --> A              
     e( 20 - 20) =     -0.13767  eV     1   --> A              
     e( 21 - 21) =      0.33009  eV     1   --> A              
     e( 22 - 22) =      0.33033  eV     1   --> A              
     e( 23 - 23) =      0.64560  eV     1   --> A              
     e( 24 - 24) =      0.93047  eV     1   --> A              
     e( 25 - 25) =      1.66231  eV     1   --> A              
     e( 26 - 26) =      2.11402  eV     1   --> A              
     e( 27 - 27) =      4.69488  eV     1   --> A              
     e( 28 - 28) =      4.70897  eV     1   --> A              
     e( 29 - 29) =      4.81397  eV     1   --> A              
     e( 30 - 30) =      4.87215  eV     1   --> A              
     e( 31 - 31) =      4.96555  eV     1   --> A              
     e( 32 - 32) =      4.99648  eV     1   --> A              
     e( 33 - 33) =      5.00076  eV     1   --> A              
     e( 34 - 34) =      5.03331  eV     1   --> A              
     e( 35 - 35) =      7.53445  eV     1   --> A              
     e( 36 - 36) =      7.68897  eV     1   --> A              
     e( 37 - 37) =      8.38972  eV     1   --> A              
     e( 38 - 38) =      8.77157  eV     1   --> A              
     e( 39 - 39) =      8.78573  eV     1   --> A              
     e( 40 - 40) =      9.58411  eV     1   --> A              
     e( 41 - 41) =     10.52642  eV     1   --> A              
     e( 42 - 42) =     11.01537  eV     1   --> A              

 **************************************************************************

 **************************************************************************

                    xk=(   0.11369,  -0.00002,   0.00000  )

     Band symmetry, C_1 (1)     point group:

     e(  1 -  2) =    -58.77989  eV     2   -->   2 A              
     e(  3 -  4) =    -32.98001  eV     2   -->   2 A              
     e(  5 -  6) =    -32.76030  eV     2   -->   2 A              
     e(  7 -  8) =    -32.73009  eV     2   -->   2 A              
     e(  9 -  9) =    -12.17576  eV     1   --> A              
     e( 10 - 10) =    -12.11088  eV     1   --> A              
     e( 11 - 11) =    -10.92971  eV     1   --> A              
     e( 12 - 12) =    -10.82320  eV     1   --> A              
     e( 13 - 13) =     -3.85629  eV     1   --> A              
     e( 14 - 14) =     -3.54348  eV     1   --> A              
     e( 15 - 15) =     -0.98243  eV     1   --> A              
     e( 16 - 16) =     -0.97871  eV     1   --> A              
     e( 17 - 17) =     -0.72076  eV     1   --> A              
     e( 18 - 18) =     -0.51739  eV     1   --> A              
     e( 19 - 19) =     -0.51337  eV     1   --> A              
     e( 20 - 20) =     -0.29385  eV     1   --> A              
     e( 21 - 21) =      0.23659  eV     1   --> A              
     e( 22 - 22) =      0.23783  eV     1   --> A              
     e( 23 - 23) =      0.69851  eV     1   --> A              
     e( 24 - 24) =      1.00930  eV     1   --> A              
     e( 25 - 25) =      1.64895  eV     1   --> A              
     e( 26 - 26) =      2.06663  eV     1   --> A              
     e( 27 - 27) =      4.64334  eV     1   --> A              
     e( 28 - 28) =      4.64689  eV     1   --> A              
     e( 29 - 29) =      4.68355  eV     1   --> A              
     e( 30 - 30) =      4.78097  eV     1   --> A              
     e( 31 - 31) =      4.91900  eV     1   --> A              
     e( 32 - 32) =      4.94766  eV     1   --> A              
     e( 33 - 33) =      5.07646  eV     1   --> A              
     e( 34 - 34) =      5.11673  eV     1   --> A              
     e( 35 - 35) =      7.60562  eV     1   --> A              
     e( 36 - 36) =      7.76102  eV     1   --> A              
     e( 37 - 37) =      8.47969  eV     1   --> A              
     e( 38 - 38) =      8.98022  eV     1   --> A              
     e( 39 - 39) =      8.98629  eV     1   --> A              
     e( 40 - 40) =      9.65388  eV     1   --> A              
     e( 41 - 41) =     10.57041  eV     1   --> A              
     e( 42 - 42) =     11.07218  eV     1   --> A              

 **************************************************************************

 **************************************************************************

                    xk=(   0.13643,  -0.00002,   0.00000  )

     Band symmetry, C_1 (1)     point group:

     e(  1 -  2) =    -58.77820  eV     2   -->   2 A              
     e(  3 -  4) =    -32.97671  eV     2   -->   2 A              
     e(  5 -  6) =    -32.77653  eV     2   -->   2 A              
     e(  7 -  8) =    -32.73417  eV     2   -->   2 A              
     e(  9 -  9) =    -12.11313  eV     1   --> A              
     e( 10 - 10) =    -12.04850  eV     1   --> A              
     e( 11 - 11) =    -10.90281  eV     1   --> A              
     e( 12 - 12) =    -10.79831  eV     1   --> A              
     e( 13 - 13) =     -3.78911  eV     1   --> A              
     e( 14 - 14) =     -3.47755  eV     1   --> A              
     e( 15 - 15) =     -1.10213  eV     1   --> A              
     e( 16 - 16) =     -1.09867  eV     1   --> A              
     e( 17 - 17) =     -0.84147  eV     1   --> A              
     e( 18 - 18) =     -0.45465  eV     1   --> A              
     e( 19 - 19) =     -0.45362  eV     1   --> A              
     e( 20 - 20) =     -0.44434  eV     1   --> A              
     e( 21 - 21) =      0.12180  eV     1   --> A              
     e( 22 - 22) =      0.12398  eV     1   --> A              
     e( 23 - 23) =      0.74662  eV     1   --> A              
     e( 24 - 24) =      1.07213  eV     1   --> A              
     e( 25 - 25) =      1.62744  eV     1   --> A              
     e( 26 - 26) =      2.00472  eV     1   --> A              
     e( 27 - 27) =      4.53672  eV     1   --> A              
     e( 28 - 28) =      4.58742  eV     1   --> A              
     e( 29 - 29) =      4.59828  eV     1   --> A              
     e( 30 - 30) =      4.69574  eV     1   --> A              
     e( 31 - 31) =      4.85160  eV     1   --> A              
     e( 32 - 32) =      4.88505  eV     1   --> A              
     e( 33 - 33) =      5.17844  eV     1   --> A              
     e( 34 - 34) =      5.22276  eV     1   --> A              
     e( 35 - 35) =      7.69026  eV     1   --> A              
     e( 36 - 36) =      7.84585  eV     1   --> A              
     e( 37 - 37) =      8.57427  eV     1   --> A              
     e( 38 - 38) =      9.21197  eV     1   --> A              
     e( 39 - 39) =      9.22905  eV     1   --> A              
     e( 40 - 40) =      9.74232  eV     1   --> A              
     e( 41 - 41) =     10.62085  eV     1   --> A              
     e( 42 - 42) =     11.13737  eV     1   --> A              

 **************************************************************************

 **************************************************************************

                    xk=(   0.15916,  -0.00002,   0.00000  )

     Band symmetry, C_1 (1)     point group:

     e(  1 -  2) =    -58.77626  eV     2   -->   2 A              
     e(  3 -  4) =    -32.97293  eV     2   -->   2 A              
     e(  5 -  6) =    -32.79494  eV     2   -->   2 A              
     e(  7 -  8) =    -32.73900  eV     2   -->   2 A              
     e(  9 -  9) =    -12.04031  eV     1   --> A              
     e( 10 - 10) =    -11.97601  eV     1   --> A              
     e( 11 - 11) =    -10.87154  eV     1   --> A              
     e( 12 - 12) =    -10.76939  eV     1   --> A              
     e( 13 - 13) =     -3.71360  eV     1   --> A              
     e( 14 - 14) =     -3.40404  eV     1   --> A              
     e( 15 - 15) =     -1.23104  eV     1   --> A              
     e( 16 - 16) =     -1.22824  eV     1   --> A              
     e( 17 - 17) =     -0.96313  eV     1   --> A              
     e( 18 - 18) =     -0.59779  eV     1   --> A              
     e( 19 - 19) =     -0.38364  eV     1   --> A              
     e( 20 - 20) =     -0.37851  eV     1   --> A              
     e( 21 - 21) =     -0.01331  eV     1   --> A              
     e( 22 - 22) =     -0.01041  eV     1   --> A              
     e( 23 - 23) =      0.78789  eV     1   --> A              
     e( 24 - 24) =      1.11905  eV     1   --> A              
     e( 25 - 25) =      1.59550  eV     1   --> A              
     e( 26 - 26) =      1.92761  eV     1   --> A              
     e( 27 - 27) =      4.40067  eV     1   --> A              
     e( 28 - 28) =      4.52064  eV     1   --> A              
     e( 29 - 29) =      4.54876  eV     1   --> A              
     e( 30 - 30) =      4.63118  eV     1   --> A              
     e( 31 - 31) =      4.77712  eV     1   --> A              
     e( 32 - 32) =      4.81982  eV     1   --> A              
     e( 33 - 33) =      5.29281  eV     1   --> A              
     e( 34 - 34) =      5.34218  eV     1   --> A              
     e( 35 - 35) =      7.78822  eV     1   --> A              
     e( 36 - 36) =      7.94315  eV     1   --> A              
     e( 37 - 37) =      8.67670  eV     1   --> A              
     e( 38 - 38) =      9.46759  eV     1   --> A              
     e( 39 - 39) =      9.48485  eV     1   --> A              
     e( 40 - 40) =      9.85726  eV     1   --> A              
     e( 41 - 41) =     10.67864  eV     1   --> A              
     e( 42 - 42) =     11.21029  eV     1   --> A              

 **************************************************************************

 **************************************************************************

                    xk=(   0.18190,  -0.00003,   0.00000  )

     Band symmetry, C_1 (1)     point group:

     e(  1 -  2) =    -58.77410  eV     2   -->   2 A              
     e(  3 -  4) =    -32.96871  eV     2   -->   2 A              
     e(  5 -  6) =    -32.81517  eV     2   -->   2 A              
     e(  7 -  8) =    -32.74459  eV     2   -->   2 A              
     e(  9 -  9) =    -11.95789  eV     1   --> A              
     e( 10 - 10) =    -11.89402  eV     1   --> A              
     e( 11 - 11) =    -10.83613  eV     1   --> A              
     e( 12 - 12) =    -10.73668  eV     1   --> A              
     e( 13 - 13) =     -3.63200  eV     1   --> A              
     e( 14 - 14) =     -3.32557  eV     1   --> A              
     e( 15 - 15) =     -1.36412  eV     1   --> A              
     e( 16 - 16) =     -1.36269  eV     1   --> A              
     e( 17 - 17) =     -1.08292  eV     1   --> A              
     e( 18 - 18) =     -0.74243  eV     1   --> A              
     e( 19 - 19) =     -0.30648  eV     1   --> A              
     e( 20 - 20) =     -0.30070  eV     1   --> A              
     e( 21 - 21) =     -0.16675  eV     1   --> A              
     e( 22 - 22) =     -0.16367  eV     1   --> A              
     e( 23 - 23) =      0.82109  eV     1   --> A              
     e( 24 - 24) =      1.15050  eV     1   --> A              
     e( 25 - 25) =      1.55133  eV     1   --> A              
     e( 26 - 26) =      1.83583  eV     1   --> A              
     e( 27 - 27) =      4.27164  eV     1   --> A              
     e( 28 - 28) =      4.44299  eV     1   --> A              
     e( 29 - 29) =      4.51148  eV     1   --> A              
     e( 30 - 30) =      4.59011  eV     1   --> A              
     e( 31 - 31) =      4.70016  eV     1   --> A              
     e( 32 - 32) =      4.75992  eV     1   --> A              
     e( 33 - 33) =      5.41595  eV     1   --> A              
     e( 34 - 34) =      5.47133  eV     1   --> A              
     e( 35 - 35) =      7.89940  eV     1   --> A              
     e( 36 - 36) =      8.05269  eV     1   --> A              
     e( 37 - 37) =      8.78899  eV     1   --> A              
     e( 38 - 38) =      9.72374  eV     1   --> A              
     e( 39 - 39) =      9.73248  eV     1   --> A              
     e( 40 - 40) =     10.02151  eV     1   --> A              
     e( 41 - 41) =     10.74756  eV     1   --> A              
     e( 42 - 42) =     11.28950  eV     1   --> A              

 **************************************************************************

 **************************************************************************

                    xk=(   0.20464,  -0.00003,   0.00000  )

     Band symmetry, C_1 (1)     point group:

     e(  1 -  2) =    -58.77175  eV     2   -->   2 A              
     e(  3 -  4) =    -32.96411  eV     2   -->   2 A              
     e(  5 -  6) =    -32.83686  eV     2   -->   2 A              
     e(  7 -  8) =    -32.75093  eV     2   -->   2 A              
     e(  9 -  9) =    -11.86655  eV     1   --> A              
     e( 10 - 10) =    -11.80322  eV     1   --> A              
     e( 11 - 11) =    -10.79690  eV     1   --> A              
     e( 12 - 12) =    -10.70045  eV     1   --> A              
     e( 13 - 13) =     -3.54717  eV     1   --> A              
     e( 14 - 14) =     -3.24564  eV     1   --> A              
     e( 15 - 15) =     -1.49706  eV     1   --> A              
     e( 16 - 16) =     -1.49590  eV     1   --> A              
     e( 17 - 17) =     -1.19884  eV     1   --> A              
     e( 18 - 18) =     -0.88138  eV     1   --> A              
     e( 19 - 19) =     -0.33535  eV     1   --> A              
     e( 20 - 20) =     -0.33324  eV     1   --> A              
     e( 21 - 21) =     -0.22610  eV     1   --> A              
     e( 22 - 22) =     -0.21944  eV     1   --> A              
     e( 23 - 23) =      0.84542  eV     1   --> A              
     e( 24 - 24) =      1.16706  eV     1   --> A              
     e( 25 - 25) =      1.49433  eV     1   --> A              
     e( 26 - 26) =      1.73135  eV     1   --> A              
     e( 27 - 27) =      4.15466  eV     1   --> A              
     e( 28 - 28) =      4.36262  eV     1   --> A              
     e( 29 - 29) =      4.48666  eV     1   --> A              
     e( 30 - 30) =      4.56155  eV     1   --> A              
     e( 31 - 31) =      4.62663  eV     1   --> A              
     e( 32 - 32) =      4.71591  eV     1   --> A              
     e( 33 - 33) =      5.54449  eV     1   --> A              
     e( 34 - 34) =      5.60652  eV     1   --> A              
     e( 35 - 35) =      8.02368  eV     1   --> A              
     e( 36 - 36) =      8.17427  eV     1   --> A              
     e( 37 - 37) =      8.91215  eV     1   --> A              
     e( 38 - 38) =      9.91240  eV     1   --> A              
     e( 39 - 39) =      9.98785  eV     1   --> A              
     e( 40 - 40) =     10.26107  eV     1   --> A              
     e( 41 - 41) =     10.83632  eV     1   --> A              
     e( 42 - 42) =     11.37223  eV     1   --> A              

 **************************************************************************

 **************************************************************************

                    xk=(   0.22738,  -0.00003,   0.00000  )

     Band symmetry, C_1 (1)     point group:

     e(  1 -  2) =    -58.76924  eV     2   -->   2 A              
     e(  3 -  4) =    -32.95921  eV     2   -->   2 A              
     e(  5 -  6) =    -32.85958  eV     2   -->   2 A              
     e(  7 -  8) =    -32.75803  eV     2   -->   2 A              
     e(  9 -  9) =    -11.76706  eV     1   --> A              
     e( 10 - 10) =    -11.70442  eV     1   --> A              
     e( 11 - 11) =    -10.75416  eV     1   --> A              
     e( 12 - 12) =    -10.66103  eV     1   --> A              
     e( 13 - 13) =     -3.46279  eV     1   --> A              
     e( 14 - 14) =     -3.16885  eV     1   --> A              
     e( 15 - 15) =     -1.62609  eV     1   --> A              
     e( 16 - 16) =     -1.62027  eV     1   --> A              
     e( 17 - 17) =     -1.30970  eV     1   --> A              
     e( 18 - 18) =     -1.01516  eV     1   --> A              
     e( 19 - 19) =     -0.51544  eV     1   --> A              
     e( 20 - 20) =     -0.51442  eV     1   --> A              
     e( 21 - 21) =     -0.14680  eV     1   --> A              
     e( 22 - 22) =     -0.13880  eV     1   --> A              
     e( 23 - 23) =      0.86032  eV     1   --> A              
     e( 24 - 24) =      1.16942  eV     1   --> A              
     e( 25 - 25) =      1.42575  eV     1   --> A              
     e( 26 - 26) =      1.61786  eV     1   --> A              
     e( 27 - 27) =      4.05171  eV     1   --> A              
     e( 28 - 28) =      4.28347  eV     1   --> A              
     e( 29 - 29) =      4.47143  eV     1   --> A              
     e( 30 - 30) =      4.53792  eV     1   --> A              
     e( 31 - 31) =      4.56584  eV     1   --> A              
     e( 32 - 32) =      4.69679  eV     1   --> A              
     e( 33 - 33) =      5.67507  eV     1   --> A              
     e( 34 - 34) =      5.74393  eV     1   --> A              
     e( 35 - 35) =      8.16086  eV     1   --> A              
     e( 36 - 36) =      8.30760  eV     1   --> A              
     e( 37 - 37) =      9.04659  eV     1   --> A              
     e( 38 - 38) =     10.06673  eV     1   --> A              
     e( 39 - 39) =     10.20814  eV     1   --> A              
     e( 40 - 40) =     10.55163  eV     1   --> A              
     e( 41 - 41) =     10.95915  eV     1   --> A              
     e( 42 - 42) =     11.45315  eV     1   --> A              

 **************************************************************************

 **************************************************************************

                    xk=(   0.25012,  -0.00004,   0.00000  )

     Band symmetry, C_1 (1)     point group:

     e(  1 -  2) =    -58.76660  eV     2   -->   2 A              
     e(  3 -  4) =    -32.95406  eV     2   -->   2 A              
     e(  5 -  6) =    -32.88293  eV     2   -->   2 A              
     e(  7 -  8) =    -32.76587  eV     2   -->   2 A              
     e(  9 -  9) =    -11.66029  eV     1   --> A              
     e( 10 - 10) =    -11.59850  eV     1   --> A              
     e( 11 - 11) =    -10.70829  eV     1   --> A              
     e( 12 - 12) =    -10.61877  eV     1   --> A              
     e( 13 - 13) =     -3.38352  eV     1   --> A              
     e( 14 - 14) =     -3.10124  eV     1   --> A              
     e( 15 - 15) =     -1.74407  eV     1   --> A              
     e( 16 - 16) =     -1.73023  eV     1   --> A              
     e( 17 - 17) =     -1.41523  eV     1   --> A              
     e( 18 - 18) =     -1.14616  eV     1   --> A              
     e( 19 - 19) =     -0.70573  eV     1   --> A              
     e( 20 - 20) =     -0.69718  eV     1   --> A              
     e( 21 - 21) =     -0.07440  eV     1   --> A              
     e( 22 - 22) =     -0.06442  eV     1   --> A              
     e( 23 - 23) =      0.86547  eV     1   --> A              
     e( 24 - 24) =      1.15839  eV     1   --> A              
     e( 25 - 25) =      1.34940  eV     1   --> A              
     e( 26 - 26) =      1.50079  eV     1   --> A              
     e( 27 - 27) =      3.96275  eV     1   --> A              
     e( 28 - 28) =      4.20735  eV     1   --> A              
     e( 29 - 29) =      4.45498  eV     1   --> A              
     e( 30 - 30) =      4.52090  eV     1   --> A              
     e( 31 - 31) =      4.53452  eV     1   --> A              
     e( 32 - 32) =      4.70250  eV     1   --> A              
     e( 33 - 33) =      5.80440  eV     1   --> A              
     e( 34 - 34) =      5.87970  eV     1   --> A              
     e( 35 - 35) =      8.31062  eV     1   --> A              
     e( 36 - 36) =      8.45225  eV     1   --> A              
     e( 37 - 37) =      9.19236  eV     1   --> A              
     e( 38 - 38) =     10.21285  eV     1   --> A              
     e( 39 - 39) =     10.36921  eV     1   --> A              
     e( 40 - 40) =     10.85303  eV     1   --> A              
     e( 41 - 41) =     11.12189  eV     1   --> A              
     e( 42 - 42) =     11.39637  eV     1   --> A              

 **************************************************************************

 **************************************************************************

                    xk=(   0.27285,  -0.00004,   0.00000  )

     Band symmetry, C_1 (1)     point group:

     e(  1 -  2) =    -58.76388  eV     2   -->   2 A              
     e(  3 -  4) =    -32.94874  eV     2   -->   2 A              
     e(  5 -  6) =    -32.90648  eV     2   -->   2 A              
     e(  7 -  8) =    -32.77446  eV     2   -->   2 A              
     e(  9 -  9) =    -11.54720  eV     1   --> A              
     e( 10 - 10) =    -11.48645  eV     1   --> A              
     e( 11 - 11) =    -10.65969  eV     1   --> A              
     e( 12 - 12) =    -10.57405  eV     1   --> A              
     e( 13 - 13) =     -3.31501  eV     1   --> A              
     e( 14 - 14) =     -3.05010  eV     1   --> A              
     e( 15 - 15) =     -1.84491  eV     1   --> A              
     e( 16 - 16) =     -1.81809  eV     1   --> A              
     e( 17 - 17) =     -1.51666  eV     1   --> A              
     e( 18 - 18) =     -1.27996  eV     1   --> A              
     e( 19 - 19) =     -0.89799  eV     1   --> A              
     e( 20 - 20) =     -0.87360  eV     1   --> A              
     e( 21 - 21) =     -0.01701  eV     1   --> A              
     e( 22 - 22) =     -0.00393  eV     1   --> A              
     e( 23 - 23) =      0.86086  eV     1   --> A              
     e( 24 - 24) =      1.13519  eV     1   --> A              
     e( 25 - 25) =      1.27199  eV     1   --> A              
     e( 26 - 26) =      1.38709  eV     1   --> A              
     e( 27 - 27) =      3.88689  eV     1   --> A              
     e( 28 - 28) =      4.13765  eV     1   --> A              
     e( 29 - 29) =      4.43379  eV     1   --> A              
     e( 30 - 30) =      4.51553  eV     1   --> A              
     e( 31 - 31) =      4.54055  eV     1   --> A              
     e( 32 - 32) =      4.72671  eV     1   --> A              
     e( 33 - 33) =      5.92937  eV     1   --> A              
     e( 34 - 34) =      6.01015  eV     1   --> A              
     e( 35 - 35) =      8.47250  eV     1   --> A              
     e( 36 - 36) =      8.60765  eV     1   --> A              
     e( 37 - 37) =      9.34931  eV     1   --> A              
     e( 38 - 38) =     10.35991  eV     1   --> A              
     e( 39 - 39) =     10.46793  eV     1   --> A              
     e( 40 - 40) =     11.08762  eV     1   --> A              
     e( 41 - 41) =     11.27609  eV     1   --> A              
     e( 42 - 42) =     11.35208  eV     1   --> A              

 **************************************************************************

 **************************************************************************

                    xk=(   0.29559,  -0.00004,   0.00000  )

     Band symmetry, C_1 (1)     point group:

     e(  1 -  2) =    -58.76110  eV     2   -->   2 A              
     e(  3 -  4) =    -32.94331  eV     2   -->   2 A              
     e(  5 -  6) =    -32.92982  eV     2   -->   2 A              
     e(  7 -  8) =    -32.78378  eV     2   -->   2 A              
     e(  9 -  9) =    -11.42886  eV     1   --> A              
     e( 10 - 10) =    -11.36937  eV     1   --> A              
     e( 11 - 11) =    -10.60880  eV     1   --> A              
     e( 12 - 12) =    -10.52729  eV     1   --> A              
     e( 13 - 13) =     -3.26346  eV     1   --> A              
     e( 14 - 14) =     -3.02265  eV     1   --> A              
     e( 15 - 15) =     -1.92280  eV     1   --> A              
     e( 16 - 16) =     -1.87695  eV     1   --> A              
     e( 17 - 17) =     -1.61757  eV     1   --> A              
     e( 18 - 18) =     -1.42548  eV     1   --> A              
     e( 19 - 19) =     -1.08364  eV     1   --> A              
     e( 20 - 20) =     -1.03023  eV     1   --> A              
     e( 21 - 21) =      0.01529  eV     1   --> A              
     e( 22 - 22) =      0.03301  eV     1   --> A              
     e( 23 - 23) =      0.84668  eV     1   --> A              
     e( 24 - 24) =      1.10216  eV     1   --> A              
     e( 25 - 25) =      1.20281  eV     1   --> A              
     e( 26 - 26) =      1.28444  eV     1   --> A              
     e( 27 - 27) =      3.82411  eV     1   --> A              
     e( 28 - 28) =      4.07982  eV     1   --> A              
     e( 29 - 29) =      4.42402  eV     1   --> A              
     e( 30 - 30) =      4.52338  eV     1   --> A              
     e( 31 - 31) =      4.56937  eV     1   --> A              
     e( 32 - 32) =      4.76358  eV     1   --> A              
     e( 33 - 33) =      6.04714  eV     1   --> A              
     e( 34 - 34) =      6.13191  eV     1   --> A              
     e( 35 - 35) =      8.64583  eV     1   --> A              
     e( 36 - 36) =      8.77307  eV     1   --> A              
     e( 37 - 37) =      9.51710  eV     1   --> A              
     e( 38 - 38) =     10.50865  eV     1   --> A              
     e( 39 - 39) =     10.51907  eV     1   --> A              
     e( 40 - 40) =     11.05819  eV     1   --> A              
     e( 41 - 41) =     11.30456  eV     1   --> A              
     e( 42 - 42) =     11.55771  eV     1   --> A              

 **************************************************************************

 **************************************************************************

                    xk=(   0.31833,  -0.00005,   0.00000  )

     Band symmetry, C_1 (1)     point group:

     e(  1 -  2) =    -58.75831  eV     2   -->   2 A              
     e(  3 -  4) =    -32.95253  eV     2   -->   2 A              
     e(  5 -  6) =    -32.93784  eV     2   -->   2 A              
     e(  7 -  8) =    -32.79382  eV     2   -->   2 A              
     e(  9 -  9) =    -11.30643  eV     1   --> A              
     e( 10 - 10) =    -11.24844  eV     1   --> A              
     e( 11 - 11) =    -10.55610  eV     1   --> A              
     e( 12 - 12) =    -10.47895  eV     1   --> A              
     e( 13 - 13) =     -3.23404  eV     1   --> A              
     e( 14 - 14) =     -3.02297  eV     1   --> A              
     e( 15 - 15) =     -1.97457  eV     1   --> A              
     e( 16 - 16) =     -1.90447  eV     1   --> A              
     e( 17 - 17) =     -1.72446  eV     1   --> A              
     e( 18 - 18) =     -1.58912  eV     1   --> A              
     e( 19 - 19) =     -1.25032  eV     1   --> A              
     e( 20 - 20) =     -1.15551  eV     1   --> A              
     e( 21 - 21) =      0.01247  eV     1   --> A              
     e( 22 - 22) =      0.03619  eV     1   --> A              
     e( 23 - 23) =      0.82273  eV     1   --> A              
     e( 24 - 24) =      1.06270  eV     1   --> A              
     e( 25 - 25) =      1.15204  eV     1   --> A              
     e( 26 - 26) =      1.19983  eV     1   --> A              
     e( 27 - 27) =      3.77625  eV     1   --> A              
     e( 28 - 28) =      4.04004  eV     1   --> A              
     e( 29 - 29) =      4.43309  eV     1   --> A              
     e( 30 - 30) =      4.54262  eV     1   --> A              
     e( 31 - 31) =      4.61166  eV     1   --> A              
     e( 32 - 32) =      4.80896  eV     1   --> A              
     e( 33 - 33) =      6.15535  eV     1   --> A              
     e( 34 - 34) =      6.24214  eV     1   --> A              
     e( 35 - 35) =      8.82966  eV     1   --> A              
     e( 36 - 36) =      8.94751  eV     1   --> A              
     e( 37 - 37) =      9.69517  eV     1   --> A              
     e( 38 - 38) =     10.53652  eV     1   --> A              
     e( 39 - 39) =     10.65081  eV     1   --> A              
     e( 40 - 40) =     10.93905  eV     1   --> A              
     e( 41 - 41) =     11.22851  eV     1   --> A              
     e( 42 - 42) =     11.60552  eV     1   --> A              

 **************************************************************************

 **************************************************************************

                    xk=(   0.34107,  -0.00005,   0.00000  )

     Band symmetry, C_1 (1)     point group:

     e(  1 -  2) =    -58.75553  eV     2   -->   2 A              
     e(  3 -  4) =    -32.97422  eV     2   -->   2 A              
     e(  5 -  6) =    -32.93242  eV     2   -->   2 A              
     e(  7 -  8) =    -32.80455  eV     2   -->   2 A              
     e(  9 -  9) =    -11.18121  eV     1   --> A              
     e( 10 - 10) =    -11.12499  eV     1   --> A              
     e( 11 - 11) =    -10.50210  eV     1   --> A              
     e( 12 - 12) =    -10.42952  eV     1   --> A              
     e( 13 - 13) =     -3.22857  eV     1   --> A              
     e( 14 - 14) =     -3.04901  eV     1   --> A              
     e( 15 - 15) =     -2.00755  eV     1   --> A              
     e( 16 - 16) =     -1.91289  eV     1   --> A              
     e( 17 - 17) =     -1.83970  eV     1   --> A              
     e( 18 - 18) =     -1.75986  eV     1   --> A              
     e( 19 - 19) =     -1.38346  eV     1   --> A              
     e( 20 - 20) =     -1.24751  eV     1   --> A              
     e( 21 - 21) =     -0.03103  eV     1   --> A              
     e( 22 - 22) =     -0.00115  eV     1   --> A              
     e( 23 - 23) =      0.78763  eV     1   --> A              
     e( 24 - 24) =      1.01608  eV     1   --> A              
     e( 25 - 25) =      1.12701  eV     1   --> A              
     e( 26 - 26) =      1.14115  eV     1   --> A              
     e( 27 - 27) =      3.74678  eV     1   --> A              
     e( 28 - 28) =      4.02391  eV     1   --> A              
     e( 29 - 29) =      4.46041  eV     1   --> A              
     e( 30 - 30) =      4.56979  eV     1   --> A              
     e( 31 - 31) =      4.66305  eV     1   --> A              
     e( 32 - 32) =      4.85970  eV     1   --> A              
     e( 33 - 33) =      6.25228  eV     1   --> A              
     e( 34 - 34) =      6.33887  eV     1   --> A              
     e( 35 - 35) =      9.02257  eV     1   --> A              
     e( 36 - 36) =      9.12971  eV     1   --> A              
     e( 37 - 37) =      9.88255  eV     1   --> A              
     e( 38 - 38) =     10.52824  eV     1   --> A              
     e( 39 - 39) =     10.70201  eV     1   --> A              
     e( 40 - 40) =     10.88992  eV     1   --> A              
     e( 41 - 41) =     11.10860  eV     1   --> A              
     e( 42 - 42) =     11.54070  eV     1   --> A              

 **************************************************************************

 **************************************************************************

                    xk=(   0.36380,  -0.00005,   0.00000  )

     Band symmetry, C_1 (1)     point group:

     e(  1 -  2) =    -58.75281  eV     2   -->   2 A              
     e(  3 -  4) =    -32.99454  eV     2   -->   2 A              
     e(  5 -  6) =    -32.92710  eV     2   -->   2 A              
     e(  7 -  8) =    -32.81596  eV     2   -->   2 A              
     e(  9 -  9) =    -11.05459  eV     1   --> A              
     e( 10 - 10) =    -11.00043  eV     1   --> A              
     e( 11 - 11) =    -10.44736  eV     1   --> A              
     e( 12 - 12) =    -10.37952  eV     1   --> A              
     e( 13 - 13) =     -3.24401  eV     1   --> A              
     e( 14 - 14) =     -3.09324  eV     1   --> A              
     e( 15 - 15) =     -2.07549  eV     1   --> A              
     e( 16 - 16) =     -2.00493  eV     1   --> A              
     e( 17 - 17) =     -1.91800  eV     1   --> A              
     e( 18 - 18) =     -1.83517  eV     1   --> A              
     e( 19 - 19) =     -1.47531  eV     1   --> A              
     e( 20 - 20) =     -1.31151  eV     1   --> A              
     e( 21 - 21) =     -0.11301  eV     1   --> A              
     e( 22 - 22) =     -0.07843  eV     1   --> A              
     e( 23 - 23) =      0.74005  eV     1   --> A              
     e( 24 - 24) =      0.95480  eV     1   --> A              
     e( 25 - 25) =      1.11643  eV     1   --> A              
     e( 26 - 26) =      1.12799  eV     1   --> A              
     e( 27 - 27) =      3.73937  eV     1   --> A              
     e( 28 - 28) =      4.03523  eV     1   --> A              
     e( 29 - 29) =      4.50216  eV     1   --> A              
     e( 30 - 30) =      4.60090  eV     1   --> A              
     e( 31 - 31) =      4.72034  eV     1   --> A              
     e( 32 - 32) =      4.91311  eV     1   --> A              
     e( 33 - 33) =      6.33709  eV     1   --> A              
     e( 34 - 34) =      6.42121  eV     1   --> A              
     e( 35 - 35) =      9.22224  eV     1   --> A              
     e( 36 - 36) =      9.31785  eV     1   --> A              
     e( 37 - 37) =     10.07678  eV     1   --> A              
     e( 38 - 38) =     10.49727  eV     1   --> A              
     e( 39 - 39) =     10.57166  eV     1   --> A              
     e( 40 - 40) =     10.96861  eV     1   --> A              
     e( 41 - 41) =     11.00675  eV     1   --> A              
     e( 42 - 42) =     11.50910  eV     1   --> A              

 **************************************************************************

 **************************************************************************

                    xk=(   0.38654,  -0.00006,   0.00000  )

     Band symmetry, C_1 (1)     point group:

     e(  1 -  2) =    -58.75018  eV     2   -->   2 A              
     e(  3 -  4) =    -33.01315  eV     2   -->   2 A              
     e(  5 -  6) =    -32.92194  eV     2   -->   2 A              
     e(  7 -  8) =    -32.82801  eV     2   -->   2 A              
     e(  9 -  9) =    -10.92807  eV     1   --> A              
     e( 10 - 10) =    -10.87629  eV     1   --> A              
     e( 11 - 11) =    -10.39245  eV     1   --> A              
     e( 12 - 12) =    -10.32952  eV     1   --> A              
     e( 13 - 13) =     -3.27347  eV     1   --> A              
     e( 14 - 14) =     -3.14621  eV     1   --> A              
     e( 15 - 15) =     -2.22370  eV     1   --> A              
     e( 16 - 16) =     -2.19067  eV     1   --> A              
     e( 17 - 17) =     -1.91499  eV     1   --> A              
     e( 18 - 18) =     -1.80732  eV     1   --> A              
     e( 19 - 19) =     -1.53015  eV     1   --> A              
     e( 20 - 20) =     -1.35306  eV     1   --> A              
     e( 21 - 21) =     -0.22548  eV     1   --> A              
     e( 22 - 22) =     -0.18848  eV     1   --> A              
     e( 23 - 23) =      0.68038  eV     1   --> A              
     e( 24 - 24) =      0.87884  eV     1   --> A              
     e( 25 - 25) =      1.12094  eV     1   --> A              
     e( 26 - 26) =      1.14887  eV     1   --> A              
     e( 27 - 27) =      3.75637  eV     1   --> A              
     e( 28 - 28) =      4.07478  eV     1   --> A              
     e( 29 - 29) =      4.55335  eV     1   --> A              
     e( 30 - 30) =      4.63231  eV     1   --> A              
     e( 31 - 31) =      4.78058  eV     1   --> A              
     e( 32 - 32) =      4.96666  eV     1   --> A              
     e( 33 - 33) =      6.41003  eV     1   --> A              
     e( 34 - 34) =      6.48963  eV     1   --> A              
     e( 35 - 35) =      9.42428  eV     1   --> A              
     e( 36 - 36) =      9.50920  eV     1   --> A              
     e( 37 - 37) =     10.26353  eV     1   --> A              
     e( 38 - 38) =     10.40529  eV     1   --> A              
     e( 39 - 39) =     10.45006  eV     1   --> A              
     e( 40 - 40) =     10.83691  eV     1   --> A              
     e( 41 - 41) =     11.14105  eV     1   --> A              
     e( 42 - 42) =     11.51183  eV     1   --> A              

 **************************************************************************

 **************************************************************************

                    xk=(   0.40928,  -0.00006,   0.00000  )

     Band symmetry, C_1 (1)     point group:

     e(  1 -  2) =    -58.74766  eV     2   -->   2 A              
     e(  3 -  4) =    -33.02976  eV     2   -->   2 A              
     e(  5 -  6) =    -32.91702  eV     2   -->   2 A              
     e(  7 -  8) =    -32.84065  eV     2   -->   2 A              
     e(  9 -  9) =    -10.80326  eV     1   --> A              
     e( 10 - 10) =    -10.75419  eV     1   --> A              
     e( 11 - 11) =    -10.33799  eV     1   --> A              
     e( 12 - 12) =    -10.28009  eV     1   --> A              
     e( 13 - 13) =     -3.30876  eV     1   --> A              
     e( 14 - 14) =     -3.19940  eV     1   --> A              
     e( 15 - 15) =     -2.39775  eV     1   --> A              
     e( 16 - 16) =     -2.38367  eV     1   --> A              
     e( 17 - 17) =     -1.88334  eV     1   --> A              
     e( 18 - 18) =     -1.76610  eV     1   --> A              
     e( 19 - 19) =     -1.55677  eV     1   --> A              
     e( 20 - 20) =     -1.37602  eV     1   --> A              
     e( 21 - 21) =     -0.35916  eV     1   --> A              
     e( 22 - 22) =     -0.32212  eV     1   --> A              
     e( 23 - 23) =      0.61016  eV     1   --> A              
     e( 24 - 24) =      0.79287  eV     1   --> A              
     e( 25 - 25) =      1.14480  eV     1   --> A              
     e( 26 - 26) =      1.18270  eV     1   --> A              
     e( 27 - 27) =      3.79742  eV     1   --> A              
     e( 28 - 28) =      4.13900  eV     1   --> A              
     e( 29 - 29) =      4.60882  eV     1   --> A              
     e( 30 - 30) =      4.66211  eV     1   --> A              
     e( 31 - 31) =      4.84102  eV     1   --> A              
     e( 32 - 32) =      5.01772  eV     1   --> A              
     e( 33 - 33) =      6.47258  eV     1   --> A              
     e( 34 - 34) =      6.54606  eV     1   --> A              
     e( 35 - 35) =      9.61784  eV     1   --> A              
     e( 36 - 36) =      9.69846  eV     1   --> A              
     e( 37 - 37) =     10.23337  eV     1   --> A              
     e( 38 - 38) =     10.29373  eV     1   --> A              
     e( 39 - 39) =     10.52676  eV     1   --> A              
     e( 40 - 40) =     10.74475  eV     1   --> A              
     e( 41 - 41) =     11.25895  eV     1   --> A              
     e( 42 - 42) =     11.54471  eV     1   --> A              

 **************************************************************************

 **************************************************************************

                    xk=(   0.43202,  -0.00006,   0.00000  )

     Band symmetry, C_1 (1)     point group:

     e(  1 -  2) =    -58.74529  eV     2   -->   2 A              
     e(  3 -  4) =    -33.04411  eV     2   -->   2 A              
     e(  5 -  6) =    -32.91237  eV     2   -->   2 A              
     e(  7 -  8) =    -32.85384  eV     2   -->   2 A              
     e(  9 -  9) =    -10.68185  eV     1   --> A              
     e( 10 - 10) =    -10.63581  eV     1   --> A              
     e( 11 - 11) =    -10.28462  eV     1   --> A              
     e( 12 - 12) =    -10.23185  eV     1   --> A              
     e( 13 - 13) =     -3.34238  eV     1   --> A              
     e( 14 - 14) =     -3.24616  eV     1   --> A              
     e( 15 - 15) =     -2.57490  eV     1   --> A              
     e( 16 - 16) =     -2.57171  eV     1   --> A              
     e( 17 - 17) =     -1.84525  eV     1   --> A              
     e( 18 - 18) =     -1.72632  eV     1   --> A              
     e( 19 - 19) =     -1.56233  eV     1   --> A              
     e( 20 - 20) =     -1.38312  eV     1   --> A              
     e( 21 - 21) =     -0.50632  eV     1   --> A              
     e( 22 - 22) =     -0.47170  eV     1   --> A              
     e( 23 - 23) =      0.53105  eV     1   --> A              
     e( 24 - 24) =      0.69953  eV     1   --> A              
     e( 25 - 25) =      1.18276  eV     1   --> A              
     e( 26 - 26) =      1.22542  eV     1   --> A              
     e( 27 - 27) =      3.85853  eV     1   --> A              
     e( 28 - 28) =      4.21779  eV     1   --> A              
     e( 29 - 29) =      4.66434  eV     1   --> A              
     e( 30 - 30) =      4.69257  eV     1   --> A              
     e( 31 - 31) =      4.89906  eV     1   --> A              
     e( 32 - 32) =      5.06361  eV     1   --> A              
     e( 33 - 33) =      6.52734  eV     1   --> A              
     e( 34 - 34) =      6.59372  eV     1   --> A              
     e( 35 - 35) =      9.76487  eV     1   --> A              
     e( 36 - 36) =      9.86457  eV     1   --> A              
     e( 37 - 37) =     10.07838  eV     1   --> A              
     e( 38 - 38) =     10.21263  eV     1   --> A              
     e( 39 - 39) =     10.64346  eV     1   --> A              
     e( 40 - 40) =     10.77158  eV     1   --> A              
     e( 41 - 41) =     11.35415  eV     1   --> A              
     e( 42 - 42) =     11.60432  eV     1   --> A              

 **************************************************************************

 **************************************************************************

                    xk=(   0.45476,  -0.00007,   0.00000  )

     Band symmetry, C_1 (1)     point group:

     e(  1 -  2) =    -58.74308  eV     2   -->   2 A              
     e(  3 -  4) =    -33.05600  eV     2   -->   2 A              
     e(  5 -  6) =    -32.90805  eV     2   -->   2 A              
     e(  7 -  8) =    -32.86753  eV     2   -->   2 A              
     e(  9 -  9) =    -10.56555  eV     1   --> A              
     e( 10 - 10) =    -10.52287  eV     1   --> A              
     e( 11 - 11) =    -10.23300  eV     1   --> A              
     e( 12 - 12) =    -10.18545  eV     1   --> A              
     e( 13 - 13) =     -3.36826  eV     1   --> A              
     e( 14 - 14) =     -3.28150  eV     1   --> A              
     e( 15 - 15) =     -2.75055  eV     1   --> A              
     e( 16 - 16) =     -2.74702  eV     1   --> A              
     e( 17 - 17) =     -1.80926  eV     1   --> A              
     e( 18 - 18) =     -1.69355  eV     1   --> A              
     e( 19 - 19) =     -1.55183  eV     1   --> A              
     e( 20 - 20) =     -1.37639  eV     1   --> A              
     e( 21 - 21) =     -0.66113  eV     1   --> A              
     e( 22 - 22) =     -0.63175  eV     1   --> A              
     e( 23 - 23) =      0.44466  eV     1   --> A              
     e( 24 - 24) =      0.60042  eV     1   --> A              
     e( 25 - 25) =      1.23327  eV     1   --> A              
     e( 26 - 26) =      1.27607  eV     1   --> A              
     e( 27 - 27) =      3.93146  eV     1   --> A              
     e( 28 - 28) =      4.29131  eV     1   --> A              
     e( 29 - 29) =      4.71793  eV     1   --> A              
     e( 30 - 30) =      4.73414  eV     1   --> A              
     e( 31 - 31) =      4.95244  eV     1   --> A              
     e( 32 - 32) =      5.10193  eV     1   --> A              
     e( 33 - 33) =      6.57777  eV     1   --> A              
     e( 34 - 34) =      6.63665  eV     1   --> A              
     e( 35 - 35) =      9.76539  eV     1   --> A              
     e( 36 - 36) =      9.83910  eV     1   --> A              
     e( 37 - 37) =     10.10445  eV     1   --> A              
     e( 38 - 38) =     10.24520  eV     1   --> A              
     e( 39 - 39) =     10.61144  eV     1   --> A              
     e( 40 - 40) =     10.97327  eV     1   --> A              
     e( 41 - 41) =     11.42636  eV     1   --> A              
     e( 42 - 42) =     11.68551  eV     1   --> A              

 **************************************************************************

 **************************************************************************

                    xk=(   0.47749,  -0.00007,   0.00000  )

     Band symmetry, C_1 (1)     point group:

     e(  1 -  2) =    -58.74107  eV     2   -->   2 A              
     e(  3 -  4) =    -33.06528  eV     2   -->   2 A              
     e(  5 -  6) =    -32.90411  eV     2   -->   2 A              
     e(  7 -  8) =    -32.88164  eV     2   -->   2 A              
     e(  9 -  9) =    -10.45609  eV     1   --> A              
     e( 10 - 10) =    -10.41707  eV     1   --> A              
     e( 11 - 11) =    -10.18380  eV     1   --> A              
     e( 12 - 12) =    -10.14153  eV     1   --> A              
     e( 13 - 13) =     -3.38176  eV     1   --> A              
     e( 14 - 14) =     -3.30171  eV     1   --> A              
     e( 15 - 15) =     -2.91750  eV     1   --> A              
     e( 16 - 16) =     -2.90968  eV     1   --> A              
     e( 17 - 17) =     -1.78082  eV     1   --> A              
     e( 18 - 18) =     -1.67085  eV     1   --> A              
     e( 19 - 19) =     -1.52836  eV     1   --> A              
     e( 20 - 20) =     -1.35719  eV     1   --> A              
     e( 21 - 21) =     -0.81906  eV     1   --> A              
     e( 22 - 22) =     -0.79843  eV     1   --> A              
     e( 23 - 23) =      0.35262  eV     1   --> A              
     e( 24 - 24) =      0.49690  eV     1   --> A              
     e( 25 - 25) =      1.29623  eV     1   --> A              
     e( 26 - 26) =      1.33531  eV     1   --> A              
     e( 27 - 27) =      4.00336  eV     1   --> A              
     e( 28 - 28) =      4.33195  eV     1   --> A              
     e( 29 - 29) =      4.77137  eV     1   --> A              
     e( 30 - 30) =      4.80377  eV     1   --> A              
     e( 31 - 31) =      4.99958  eV     1   --> A              
     e( 32 - 32) =      5.13175  eV     1   --> A              
     e( 33 - 33) =      6.62760  eV     1   --> A              
     e( 34 - 34) =      6.67887  eV     1   --> A              
     e( 35 - 35) =      9.63970  eV     1   --> A              
     e( 36 - 36) =      9.68487  eV     1   --> A              
     e( 37 - 37) =     10.23797  eV     1   --> A              
     e( 38 - 38) =     10.38238  eV     1   --> A              
     e( 39 - 39) =     10.56432  eV     1   --> A              
     e( 40 - 40) =     11.18507  eV     1   --> A              
     e( 41 - 41) =     11.46199  eV     1   --> A              
     e( 42 - 42) =     11.76578  eV     1   --> A              

 **************************************************************************

 **************************************************************************

                    xk=(   0.50023,  -0.00007,   0.00000  )

     Band symmetry, C_1 (1)     point group:

     e(  1 -  2) =    -58.73925  eV     2   -->   2 A              
     e(  3 -  4) =    -33.07184  eV     2   -->   2 A              
     e(  5 -  6) =    -32.90056  eV     2   -->   2 A              
     e(  7 -  8) =    -32.89610  eV     2   -->   2 A              
     e(  9 -  9) =    -10.35510  eV     1   --> A              
     e( 10 - 10) =    -10.32000  eV     1   --> A              
     e( 11 - 11) =    -10.13770  eV     1   --> A              
     e( 12 - 12) =    -10.10073  eV     1   --> A              
     e( 13 - 13) =     -3.37943  eV     1   --> A              
     e( 14 - 14) =     -3.30404  eV     1   --> A              
     e( 15 - 15) =     -3.07046  eV     1   --> A              
     e( 16 - 16) =     -3.05988  eV     1   --> A              
     e( 17 - 17) =     -1.76507  eV     1   --> A              
     e( 18 - 18) =     -1.66011  eV     1   --> A              
     e( 19 - 19) =     -1.49317  eV     1   --> A              
     e( 20 - 20) =     -1.32645  eV     1   --> A              
     e( 21 - 21) =     -0.97589  eV     1   --> A              
     e( 22 - 22) =     -0.96858  eV     1   --> A              
     e( 23 - 23) =      0.25671  eV     1   --> A              
     e( 24 - 24) =      0.39039  eV     1   --> A              
     e( 25 - 25) =      1.37130  eV     1   --> A              
     e( 26 - 26) =      1.40390  eV     1   --> A              
     e( 27 - 27) =      4.05794  eV     1   --> A              
     e( 28 - 28) =      4.32405  eV     1   --> A              
     e( 29 - 29) =      4.82963  eV     1   --> A              
     e( 30 - 30) =      4.90340  eV     1   --> A              
     e( 31 - 31) =      5.04092  eV     1   --> A              
     e( 32 - 32) =      5.15697  eV     1   --> A              
     e( 33 - 33) =      6.68004  eV     1   --> A              
     e( 34 - 34) =      6.72353  eV     1   --> A              
     e( 35 - 35) =      9.48587  eV     1   --> A              
     e( 36 - 36) =      9.53084  eV     1   --> A              
     e( 37 - 37) =     10.33243  eV     1   --> A              
     e( 38 - 38) =     10.42692  eV     1   --> A              
     e( 39 - 39) =     10.60002  eV     1   --> A              
     e( 40 - 40) =     11.37791  eV     1   --> A              
     e( 41 - 41) =     11.46713  eV     1   --> A              
     e( 42 - 42) =     11.82184  eV     1   --> A              

 **************************************************************************

 **************************************************************************

                    xk=(   0.52297,  -0.00008,   0.00000  )

     Band symmetry, C_1 (1)     point group:

     e(  1 -  2) =    -58.73766  eV     2   -->   2 A              
     e(  3 -  4) =    -33.07563  eV     2   -->   2 A              
     e(  5 -  6) =    -32.91082  eV     2   -->   2 A              
     e(  7 -  8) =    -32.89744  eV     2   -->   2 A              
     e(  9 -  9) =    -10.26409  eV     1   --> A              
     e( 10 - 10) =    -10.23309  eV     1   --> A              
     e( 11 - 11) =    -10.09535  eV     1   --> A              
     e( 12 - 12) =    -10.06369  eV     1   --> A              
     e( 13 - 13) =     -3.35916  eV     1   --> A              
     e( 14 - 14) =     -3.28669  eV     1   --> A              
     e( 15 - 15) =     -3.20765  eV     1   --> A              
     e( 16 - 16) =     -3.19512  eV     1   --> A              
     e( 17 - 17) =     -1.76744  eV     1   --> A              
     e( 18 - 18) =     -1.66271  eV     1   --> A              
     e( 19 - 19) =     -1.44685  eV     1   --> A              
     e( 20 - 20) =     -1.28556  eV     1   --> A              
     e( 21 - 21) =     -1.13829  eV     1   --> A              
     e( 22 - 22) =     -1.12651  eV     1   --> A              
     e( 23 - 23) =      0.15895  eV     1   --> A              
     e( 24 - 24) =      0.28248  eV     1   --> A              
     e( 25 - 25) =      1.45699  eV     1   --> A              
     e( 26 - 26) =      1.48156  eV     1   --> A              
     e( 27 - 27) =      4.08034  eV     1   --> A              
     e( 28 - 28) =      4.27424  eV     1   --> A              
     e( 29 - 29) =      4.89383  eV     1   --> A              
     e( 30 - 30) =      4.99957  eV     1   --> A              
     e( 31 - 31) =      5.08261  eV     1   --> A              
     e( 32 - 32) =      5.19757  eV     1   --> A              
     e( 33 - 33) =      6.73699  eV     1   --> A              
     e( 34 - 34) =      6.77219  eV     1   --> A              
     e( 35 - 35) =      9.33686  eV     1   --> A              
     e( 36 - 36) =      9.39119  eV     1   --> A              
     e( 37 - 37) =     10.32010  eV     1   --> A              
     e( 38 - 38) =     10.36037  eV     1   --> A              
     e( 39 - 39) =     10.73768  eV     1   --> A              
     e( 40 - 40) =     11.50536  eV     1   --> A              
     e( 41 - 41) =     11.53640  eV     1   --> A              
     e( 42 - 42) =     11.93288  eV     1   --> A              

 **************************************************************************

 **************************************************************************

                    xk=(   0.54571,  -0.00008,   0.00000  )

     Band symmetry, C_1 (1)     point group:

     e(  1 -  2) =    -58.73629  eV     2   -->   2 A              
     e(  3 -  4) =    -33.07669  eV     2   -->   2 A              
     e(  5 -  6) =    -32.92569  eV     2   -->   2 A              
     e(  7 -  8) =    -32.89476  eV     2   -->   2 A              
     e(  9 -  9) =    -10.18428  eV     1   --> A              
     e( 10 - 10) =    -10.15753  eV     1   --> A              
     e( 11 - 11) =    -10.05736  eV     1   --> A              
     e( 12 - 12) =    -10.03100  eV     1   --> A              
     e( 13 - 13) =     -3.33258  eV     1   --> A              
     e( 14 - 14) =     -3.32869  eV     1   --> A              
     e( 15 - 15) =     -3.30054  eV     1   --> A              
     e( 16 - 16) =     -3.24751  eV     1   --> A              
     e( 17 - 17) =     -1.79347  eV     1   --> A              
     e( 18 - 18) =     -1.68124  eV     1   --> A              
     e( 19 - 19) =     -1.39256  eV     1   --> A              
     e( 20 - 20) =     -1.30712  eV     1   --> A              
     e( 21 - 21) =     -1.26231  eV     1   --> A              
     e( 22 - 22) =     -1.23088  eV     1   --> A              
     e( 23 - 23) =      0.06171  eV     1   --> A              
     e( 24 - 24) =      0.17501  eV     1   --> A              
     e( 25 - 25) =      1.55031  eV     1   --> A              
     e( 26 - 26) =      1.56645  eV     1   --> A              
     e( 27 - 27) =      4.06475  eV     1   --> A              
     e( 28 - 28) =      4.19583  eV     1   --> A              
     e( 29 - 29) =      4.94865  eV     1   --> A              
     e( 30 - 30) =      5.04131  eV     1   --> A              
     e( 31 - 31) =      5.14244  eV     1   --> A              
     e( 32 - 32) =      5.28779  eV     1   --> A              
     e( 33 - 33) =      6.79847  eV     1   --> A              
     e( 34 - 34) =      6.82454  eV     1   --> A              
     e( 35 - 35) =      9.20365  eV     1   --> A              
     e( 36 - 36) =      9.27336  eV     1   --> A              
     e( 37 - 37) =     10.17482  eV     1   --> A              
     e( 38 - 38) =     10.32622  eV     1   --> A              
     e( 39 - 39) =     10.85970  eV     1   --> A              
     e( 40 - 40) =     11.60699  eV     1   --> A              
     e( 41 - 41) =     11.68006  eV     1   --> A              
     e( 42 - 42) =     12.12258  eV     1   --> A              

 **************************************************************************

 **************************************************************************

                    xk=(   0.56844,  -0.00008,   0.00000  )

     Band symmetry, C_1 (1)     point group:

     e(  1 -  2) =    -58.73515  eV     2   -->   2 A              
     e(  3 -  4) =    -33.07511  eV     2   -->   2 A              
     e(  5 -  6) =    -32.94056  eV     2   -->   2 A              
     e(  7 -  8) =    -32.89253  eV     2   -->   2 A              
     e(  9 -  9) =    -10.11662  eV     1   --> A              
     e( 10 - 10) =    -10.09415  eV     1   --> A              
     e( 11 - 11) =    -10.02427  eV     1   --> A              
     e( 12 - 12) =    -10.00316  eV     1   --> A              
     e( 13 - 13) =     -3.43086  eV     1   --> A              
     e( 14 - 14) =     -3.42087  eV     1   --> A              
     e( 15 - 15) =     -3.25317  eV     1   --> A              
     e( 16 - 16) =     -3.18792  eV     1   --> A              
     e( 17 - 17) =     -1.84866  eV     1   --> A              
     e( 18 - 18) =     -1.72476  eV     1   --> A              
     e( 19 - 19) =     -1.45121  eV     1   --> A              
     e( 20 - 20) =     -1.39397  eV     1   --> A              
     e( 21 - 21) =     -1.31391  eV     1   --> A              
     e( 22 - 22) =     -1.17563  eV     1   --> A              
     e( 23 - 23) =     -0.03212  eV     1   --> A              
     e( 24 - 24) =      0.07021  eV     1   --> A              
     e( 25 - 25) =      1.64674  eV     1   --> A              
     e( 26 - 26) =      1.65499  eV     1   --> A              
     e( 27 - 27) =      4.01677  eV     1   --> A              
     e( 28 - 28) =      4.10072  eV     1   --> A              
     e( 29 - 29) =      4.97459  eV     1   --> A              
     e( 30 - 30) =      5.03731  eV     1   --> A              
     e( 31 - 31) =      5.23516  eV     1   --> A              
     e( 32 - 32) =      5.40702  eV     1   --> A              
     e( 33 - 33) =      6.86255  eV     1   --> A              
     e( 34 - 34) =      6.87877  eV     1   --> A              
     e( 35 - 35) =      9.09195  eV     1   --> A              
     e( 36 - 36) =      9.18428  eV     1   --> A              
     e( 37 - 37) =     10.01246  eV     1   --> A              
     e( 38 - 38) =     10.25509  eV     1   --> A              
     e( 39 - 39) =     10.95568  eV     1   --> A              
     e( 40 - 40) =     11.75761  eV     1   --> A              
     e( 41 - 41) =     11.83625  eV     1   --> A              
     e( 42 - 42) =     12.34506  eV     1   --> A              

 **************************************************************************

 **************************************************************************

                    xk=(   0.59118,  -0.00009,   0.00000  )

     Band symmetry, C_1 (1)     point group:

     e(  1 -  2) =    -58.73423  eV     2   -->   2 A              
     e(  3 -  4) =    -33.07110  eV     2   -->   2 A              
     e(  5 -  6) =    -32.95524  eV     2   -->   2 A              
     e(  7 -  8) =    -32.89074  eV     2   -->   2 A              
     e(  9 -  9) =    -10.06164  eV     1   --> A              
     e( 10 - 10) =    -10.04342  eV     1   --> A              
     e( 11 - 11) =     -9.99656  eV     1   --> A              
     e( 12 - 12) =     -9.98060  eV     1   --> A              
     e( 13 - 13) =     -3.51438  eV     1   --> A              
     e( 14 - 14) =     -3.50462  eV     1   --> A              
     e( 15 - 15) =     -3.17240  eV     1   --> A              
     e( 16 - 16) =     -3.10798  eV     1   --> A              
     e( 17 - 17) =     -1.93470  eV     1   --> A              
     e( 18 - 18) =     -1.81277  eV     1   --> A              
     e( 19 - 19) =     -1.55370  eV     1   --> A              
     e( 20 - 20) =     -1.47830  eV     1   --> A              
     e( 21 - 21) =     -1.25215  eV     1   --> A              
     e( 22 - 22) =     -1.11579  eV     1   --> A              
     e( 23 - 23) =     -0.11880  eV     1   --> A              
     e( 24 - 24) =     -0.02911  eV     1   --> A              
     e( 25 - 25) =      1.74029  eV     1   --> A              
     e( 26 - 26) =      1.74197  eV     1   --> A              
     e( 27 - 27) =      3.94888  eV     1   --> A              
     e( 28 - 28) =      3.99998  eV     1   --> A              
     e( 29 - 29) =      4.97677  eV     1   --> A              
     e( 30 - 30) =      5.01581  eV     1   --> A              
     e( 31 - 31) =      5.34743  eV     1   --> A              
     e( 32 - 32) =      5.51919  eV     1   --> A              
     e( 33 - 33) =      6.92565  eV     1   --> A              
     e( 34 - 34) =      6.93202  eV     1   --> A              
     e( 35 - 35) =      9.00610  eV     1   --> A              
     e( 36 - 36) =      9.13027  eV     1   --> A              
     e( 37 - 37) =      9.84382  eV     1   --> A              
     e( 38 - 38) =     10.16938  eV     1   --> A              
     e( 39 - 39) =     11.02856  eV     1   --> A              
     e( 40 - 40) =     11.93554  eV     1   --> A              
     e( 41 - 41) =     12.00633  eV     1   --> A              
     e( 42 - 42) =     12.51934  eV     1   --> A              

 **************************************************************************

 **************************************************************************

                    xk=(   0.61392,  -0.00009,   0.00000  )

     Band symmetry, C_1 (1)     point group:

     e(  1 -  2) =    -58.73354  eV     2   -->   2 A              
     e(  3 -  4) =    -33.06502  eV     2   -->   2 A              
     e(  5 -  6) =    -32.96940  eV     2   -->   2 A              
     e(  7 -  8) =    -32.88940  eV     2   -->   2 A              
     e(  9 -  9) =    -10.01941  eV     1   --> A              
     e( 10 - 10) =    -10.00540  eV     1   --> A              
     e( 11 - 11) =     -9.97459  eV     1   --> A              
     e( 12 - 12) =     -9.96358  eV     1   --> A              
     e( 13 - 13) =     -3.57862  eV     1   --> A              
     e( 14 - 14) =     -3.57022  eV     1   --> A              
     e( 15 - 15) =     -3.07440  eV     1   --> A              
     e( 16 - 16) =     -3.01090  eV     1   --> A              
     e( 17 - 17) =     -2.04338  eV     1   --> A              
     e( 18 - 18) =     -1.94378  eV     1   --> A              
     e( 19 - 19) =     -1.60855  eV     1   --> A              
     e( 20 - 20) =     -1.54235  eV     1   --> A              
     e( 21 - 21) =     -1.18809  eV     1   --> A              
     e( 22 - 22) =     -1.05755  eV     1   --> A              
     e( 23 - 23) =     -0.19335  eV     1   --> A              
     e( 24 - 24) =     -0.11921  eV     1   --> A              
     e( 25 - 25) =      1.82081  eV     1   --> A              
     e( 26 - 26) =      1.82377  eV     1   --> A              
     e( 27 - 27) =      3.87560  eV     1   --> A              
     e( 28 - 28) =      3.90488  eV     1   --> A              
     e( 29 - 29) =      4.96737  eV     1   --> A              
     e( 30 - 30) =      4.98930  eV     1   --> A              
     e( 31 - 31) =      5.45914  eV     1   --> A              
     e( 32 - 32) =      5.60707  eV     1   --> A              
     e( 33 - 33) =      6.98097  eV     1   --> A              
     e( 34 - 34) =      6.98303  eV     1   --> A              
     e( 35 - 35) =      8.95014  eV     1   --> A              
     e( 36 - 36) =      9.11562  eV     1   --> A              
     e( 37 - 37) =      9.67590  eV     1   --> A              
     e( 38 - 38) =     10.08228  eV     1   --> A              
     e( 39 - 39) =     11.08144  eV     1   --> A              
     e( 40 - 40) =     12.12448  eV     1   --> A              
     e( 41 - 41) =     12.17887  eV     1   --> A              
     e( 42 - 42) =     12.65882  eV     1   --> A              

 **************************************************************************

 **************************************************************************

                    xk=(   0.63666,  -0.00009,   0.00000  )

     Band symmetry, C_1 (1)     point group:

     e(  1 -  2) =    -58.73306  eV     2   -->   2 A              
     e(  3 -  4) =    -33.05760  eV     2   -->   2 A              
     e(  5 -  6) =    -32.98241  eV     2   -->   2 A              
     e(  7 -  8) =    -32.88847  eV     2   -->   2 A              
     e(  9 -  9) =     -9.98956  eV     1   --> A              
     e( 10 - 10) =     -9.97984  eV     1   --> A              
     e( 11 - 11) =     -9.95862  eV     1   --> A              
     e( 12 - 12) =     -9.95214  eV     1   --> A              
     e( 13 - 13) =     -3.62346  eV     1   --> A              
     e( 14 - 14) =     -3.61716  eV     1   --> A              
     e( 15 - 15) =     -2.96745  eV     1   --> A              
     e( 16 - 16) =     -2.90399  eV     1   --> A              
[...]
     e( 41 - 41) =     10.62437  eV     1   --> A              
     e( 42 - 42) =     11.13778  eV     1   --> A              

 **************************************************************************

 **************************************************************************

                    xk=(   0.10231,  -0.05910,   0.00000  )

     Band symmetry, C_1 (1)     point group:

     e(  1 -  2) =    -58.77958  eV     2   -->   2 A              
     e(  3 -  4) =    -32.97940  eV     2   -->   2 A              
     e(  5 -  6) =    -32.76363  eV     2   -->   2 A              
     e(  7 -  8) =    -32.73049  eV     2   -->   2 A              
     e(  9 -  9) =    -12.16431  eV     1   --> A              
     e( 10 - 10) =    -12.09948  eV     1   --> A              
     e( 11 - 11) =    -10.92480  eV     1   --> A              
     e( 12 - 12) =    -10.81866  eV     1   --> A              
     e( 13 - 13) =     -3.84409  eV     1   --> A              
     e( 14 - 14) =     -3.53154  eV     1   --> A              
     e( 15 - 15) =     -1.00624  eV     1   --> A              
     e( 16 - 16) =     -1.00191  eV     1   --> A              
     e( 17 - 17) =     -0.75060  eV     1   --> A              
     e( 18 - 18) =     -0.50483  eV     1   --> A              
     e( 19 - 19) =     -0.50002  eV     1   --> A              
     e( 20 - 20) =     -0.33775  eV     1   --> A              
     e( 21 - 21) =      0.24597  eV     1   --> A              
     e( 22 - 22) =      0.25340  eV     1   --> A              
     e( 23 - 23) =      0.67793  eV     1   --> A              
     e( 24 - 24) =      1.00129  eV     1   --> A              
     e( 25 - 25) =      1.64464  eV     1   --> A              
     e( 26 - 26) =      2.05478  eV     1   --> A              
     e( 27 - 27) =      4.61947  eV     1   --> A              
     e( 28 - 28) =      4.65849  eV     1   --> A              
     e( 29 - 29) =      4.66378  eV     1   --> A              
     e( 30 - 30) =      4.78205  eV     1   --> A              
     e( 31 - 31) =      4.90505  eV     1   --> A              
     e( 32 - 32) =      4.94463  eV     1   --> A              
     e( 33 - 33) =      5.08188  eV     1   --> A              
     e( 34 - 34) =      5.11961  eV     1   --> A              
     e( 35 - 35) =      7.62070  eV     1   --> A              
     e( 36 - 36) =      7.77599  eV     1   --> A              
     e( 37 - 37) =      8.49611  eV     1   --> A              
     e( 38 - 38) =      9.01794  eV     1   --> A              
     e( 39 - 39) =      9.02834  eV     1   --> A              
     e( 40 - 40) =      9.67011  eV     1   --> A              
     e( 41 - 41) =     10.57916  eV     1   --> A              
     e( 42 - 42) =     11.08258  eV     1   --> A              

 **************************************************************************

 **************************************************************************

                    xk=(   0.08526,  -0.04925,   0.00000  )

     Band symmetry, C_1 (1)     point group:

     e(  1 -  2) =    -58.78087  eV     2   -->   2 A              
     e(  3 -  4) =    -32.98192  eV     2   -->   2 A              
     e(  5 -  6) =    -32.75095  eV     2   -->   2 A              
     e(  7 -  8) =    -32.72763  eV     2   -->   2 A              
     e(  9 -  9) =    -12.21176  eV     1   --> A              
     e( 10 - 10) =    -12.14675  eV     1   --> A              
     e( 11 - 11) =    -10.94517  eV     1   --> A              
     e( 12 - 12) =    -10.83752  eV     1   --> A              
     e( 13 - 13) =     -3.89583  eV     1   --> A              
     e( 14 - 14) =     -3.58248  eV     1   --> A              
     e( 15 - 15) =     -0.91039  eV     1   --> A              
     e( 16 - 16) =     -0.90618  eV     1   --> A              
     e( 17 - 17) =     -0.64495  eV     1   --> A              
     e( 18 - 18) =     -0.55381  eV     1   --> A              
     e( 19 - 19) =     -0.54943  eV     1   --> A              
     e( 20 - 20) =     -0.19618  eV     1   --> A              
     e( 21 - 21) =      0.31553  eV     1   --> A              
     e( 22 - 22) =      0.32197  eV     1   --> A              
     e( 23 - 23) =      0.64781  eV     1   --> A              
     e( 24 - 24) =      0.94760  eV     1   --> A              
     e( 25 - 25) =      1.65837  eV     1   --> A              
     e( 26 - 26) =      2.09958  eV     1   --> A              
     e( 27 - 27) =      4.67714  eV     1   --> A              
     e( 28 - 28) =      4.70323  eV     1   --> A              
     e( 29 - 29) =      4.76709  eV     1   --> A              
     e( 30 - 30) =      4.85214  eV     1   --> A              
     e( 31 - 31) =      4.95137  eV     1   --> A              
     e( 32 - 32) =      4.98963  eV     1   --> A              
     e( 33 - 33) =      5.01327  eV     1   --> A              
     e( 34 - 34) =      5.04766  eV     1   --> A              
     e( 35 - 35) =      7.55624  eV     1   --> A              
     e( 36 - 36) =      7.71103  eV     1   --> A              
     e( 37 - 37) =      8.41833  eV     1   --> A              
     e( 38 - 38) =      8.83717  eV     1   --> A              
     e( 39 - 39) =      8.84378  eV     1   --> A              
     e( 40 - 40) =      9.60541  eV     1   --> A              
     e( 41 - 41) =     10.53977  eV     1   --> A              
     e( 42 - 42) =     11.03249  eV     1   --> A              

 **************************************************************************

 **************************************************************************

                    xk=(   0.06821,  -0.03940,   0.00000  )

     Band symmetry, C_1 (1)     point group:

     e(  1 -  2) =    -58.78195  eV     2   -->   2 A              
     e(  3 -  4) =    -32.98402  eV     2   -->   2 A              
     e(  5 -  6) =    -32.74037  eV     2   -->   2 A              
     e(  7 -  8) =    -32.72523  eV     2   -->   2 A              
     e(  9 -  9) =    -12.25097  eV     1   --> A              
     e( 10 - 10) =    -12.18584  eV     1   --> A              
     e( 11 - 11) =    -10.96201  eV     1   --> A              
     e( 12 - 12) =    -10.85311  eV     1   --> A              
     e( 13 - 13) =     -3.93942  eV     1   --> A              
     e( 14 - 14) =     -3.62557  eV     1   --> A              
     e( 15 - 15) =     -0.82745  eV     1   --> A              
     e( 16 - 16) =     -0.82343  eV     1   --> A              
     e( 17 - 17) =     -0.59448  eV     1   --> A              
     e( 18 - 18) =     -0.59044  eV     1   --> A              
     e( 19 - 19) =     -0.54730  eV     1   --> A              
     e( 20 - 20) =     -0.05653  eV     1   --> A              
     e( 21 - 21) =      0.37564  eV     1   --> A              
     e( 22 - 22) =      0.38104  eV     1   --> A              
     e( 23 - 23) =      0.60971  eV     1   --> A              
     e( 24 - 24) =      0.87734  eV     1   --> A              
     e( 25 - 25) =      1.66687  eV     1   --> A              
     e( 26 - 26) =      2.13383  eV     1   --> A              
     e( 27 - 27) =      4.72121  eV     1   --> A              
     e( 28 - 28) =      4.74589  eV     1   --> A              
     e( 29 - 29) =      4.87639  eV     1   --> A              
     e( 30 - 30) =      4.92656  eV     1   --> A              
     e( 31 - 31) =      4.93585  eV     1   --> A              
     e( 32 - 32) =      4.97445  eV     1   --> A              
     e( 33 - 33) =      5.00927  eV     1   --> A              
     e( 34 - 34) =      5.03924  eV     1   --> A              
     e( 35 - 35) =      7.50191  eV     1   --> A              
     e( 36 - 36) =      7.65572  eV     1   --> A              
     e( 37 - 37) =      8.34210  eV     1   --> A              
     e( 38 - 38) =      8.67111  eV     1   --> A              
     e( 39 - 39) =      8.70075  eV     1   --> A              
     e( 40 - 40) =      9.55349  eV     1   --> A              
     e( 41 - 41) =     10.50554  eV     1   --> A              
     e( 42 - 42) =     10.98825  eV     1   --> A              

 **************************************************************************

 **************************************************************************

                    xk=(   0.05115,  -0.02955,   0.00000  )

     Band symmetry, C_1 (1)     point group:

     e(  1 -  2) =    -58.78279  eV     2   -->   2 A              
     e(  3 -  4) =    -32.98567  eV     2   -->   2 A              
     e(  5 -  6) =    -32.73200  eV     2   -->   2 A              
     e(  7 -  8) =    -32.72335  eV     2   -->   2 A              
     e(  9 -  9) =    -12.28172  eV     1   --> A              
     e( 10 - 10) =    -12.21649  eV     1   --> A              
     e( 11 - 11) =    -10.97522  eV     1   --> A              
     e( 12 - 12) =    -10.86534  eV     1   --> A              
     e( 13 - 13) =     -3.97407  eV     1   --> A              
     e( 14 - 14) =     -3.65992  eV     1   --> A              
     e( 15 - 15) =     -0.75995  eV     1   --> A              
     e( 16 - 16) =     -0.75615  eV     1   --> A              
     e( 17 - 17) =     -0.62646  eV     1   --> A              
     e( 18 - 18) =     -0.62269  eV     1   --> A              
     e( 19 - 19) =     -0.46122  eV     1   --> A              
     e( 20 - 20) =      0.08052  eV     1   --> A              
     e( 21 - 21) =      0.42462  eV     1   --> A              
     e( 22 - 22) =      0.42897  eV     1   --> A              
     e( 23 - 23) =      0.56837  eV     1   --> A              
     e( 24 - 24) =      0.79242  eV     1   --> A              
     e( 25 - 25) =      1.67173  eV     1   --> A              
     e( 26 - 26) =      2.15876  eV     1   --> A              
     e( 27 - 27) =      4.75957  eV     1   --> A              
     e( 28 - 28) =      4.78721  eV     1   --> A              
     e( 29 - 29) =      4.88678  eV     1   --> A              
     e( 30 - 30) =      4.92364  eV     1   --> A              
     e( 31 - 31) =      4.97084  eV     1   --> A              
     e( 32 - 32) =      4.99494  eV     1   --> A              
     e( 33 - 33) =      5.04252  eV     1   --> A              
     e( 34 - 34) =      5.07032  eV     1   --> A              
     e( 35 - 35) =      7.45814  eV     1   --> A              
     e( 36 - 36) =      7.61076  eV     1   --> A              
     e( 37 - 37) =      8.26834  eV     1   --> A              
     e( 38 - 38) =      8.53556  eV     1   --> A              
     e( 39 - 39) =      8.59594  eV     1   --> A              
     e( 40 - 40) =      9.51339  eV     1   --> A              
     e( 41 - 41) =     10.47708  eV     1   --> A              
     e( 42 - 42) =     10.95038  eV     1   --> A              

 **************************************************************************

 **************************************************************************

                    xk=(   0.03410,  -0.01970,   0.00000  )

     Band symmetry, C_1 (1)     point group:

     e(  1 -  2) =    -58.78341  eV     2   -->   2 A              
     e(  3 -  4) =    -32.98687  eV     2   -->   2 A              
     e(  5 -  6) =    -32.72595  eV     2   -->   2 A              
     e(  7 -  8) =    -32.72198  eV     2   -->   2 A              
     e(  9 -  9) =    -12.30381  eV     1   --> A              
     e( 10 - 10) =    -12.23852  eV     1   --> A              
     e( 11 - 11) =    -10.98470  eV     1   --> A              
     e( 12 - 12) =    -10.87413  eV     1   --> A              
     e( 13 - 13) =     -3.99920  eV     1   --> A              
     e( 14 - 14) =     -3.68488  eV     1   --> A              
     e( 15 - 15) =     -0.71004  eV     1   --> A              
     e( 16 - 16) =     -0.70643  eV     1   --> A              
     e( 17 - 17) =     -0.64950  eV     1   --> A              
     e( 18 - 18) =     -0.64591  eV     1   --> A              
     e( 19 - 19) =     -0.39186  eV     1   --> A              
     e( 20 - 20) =      0.21410  eV     1   --> A              
     e( 21 - 21) =      0.46094  eV     1   --> A              
     e( 22 - 22) =      0.46428  eV     1   --> A              
     e( 23 - 23) =      0.53005  eV     1   --> A              
     e( 24 - 24) =      0.69498  eV     1   --> A              
     e( 25 - 25) =      1.67426  eV     1   --> A              
     e( 26 - 26) =      2.17557  eV     1   --> A              
     e( 27 - 27) =      4.79015  eV     1   --> A              
     e( 28 - 28) =      4.82180  eV     1   --> A              
     e( 29 - 29) =      4.84870  eV     1   --> A              
     e( 30 - 30) =      4.88483  eV     1   --> A              
     e( 31 - 31) =      5.03987  eV     1   --> A              
     e( 32 - 32) =      5.05342  eV     1   --> A              
     e( 33 - 33) =      5.06896  eV     1   --> A              
     e( 34 - 34) =      5.09423  eV     1   --> A              
     e( 35 - 35) =      7.42572  eV     1   --> A              
     e( 36 - 36) =      7.57718  eV     1   --> A              
     e( 37 - 37) =      8.20416  eV     1   --> A              
     e( 38 - 38) =      8.43541  eV     1   --> A              
     e( 39 - 39) =      8.52798  eV     1   --> A              
     e( 40 - 40) =      9.48480  eV     1   --> A              
     e( 41 - 41) =     10.45556  eV     1   --> A              
     e( 42 - 42) =     10.91996  eV     1   --> A              

 **************************************************************************

 **************************************************************************

                    xk=(   0.01705,  -0.00985,   0.00000  )

     Band symmetry, C_1 (1)     point group:

     e(  1 -  2) =    -58.78378  eV     2   -->   2 A              
     e(  3 -  4) =    -32.98759  eV     2   -->   2 A              
     e(  5 -  6) =    -32.72230  eV     2   -->   2 A              
     e(  7 -  8) =    -32.72115  eV     2   -->   2 A              
     e(  9 -  9) =    -12.31712  eV     1   --> A              
     e( 10 - 10) =    -12.25180  eV     1   --> A              
     e( 11 - 11) =    -10.99042  eV     1   --> A              
     e( 12 - 12) =    -10.87943  eV     1   --> A              
     e( 13 - 13) =     -4.01443  eV     1   --> A              
     e( 14 - 14) =     -3.70002  eV     1   --> A              
     e( 15 - 15) =     -0.67940  eV     1   --> A              
     e( 16 - 16) =     -0.67592  eV     1   --> A              
     e( 17 - 17) =     -0.66338  eV     1   --> A              
     e( 18 - 18) =     -0.65991  eV     1   --> A              
     e( 19 - 19) =     -0.34583  eV     1   --> A              
     e( 20 - 20) =      0.34276  eV     1   --> A              
     e( 21 - 21) =      0.48337  eV     1   --> A              
     e( 22 - 22) =      0.48585  eV     1   --> A              
     e( 23 - 23) =      0.50227  eV     1   --> A              
     e( 24 - 24) =      0.58755  eV     1   --> A              
     e( 25 - 25) =      1.67539  eV     1   --> A              
     e( 26 - 26) =      2.18523  eV     1   --> A              
     e( 27 - 27) =      4.81008  eV     1   --> A              
     e( 28 - 28) =      4.82506  eV     1   --> A              
     e( 29 - 29) =      4.84469  eV     1   --> A              
     e( 30 - 30) =      4.86082  eV     1   --> A              
     e( 31 - 31) =      5.07761  eV     1   --> A              
     e( 32 - 32) =      5.08550  eV     1   --> A              
     e( 33 - 33) =      5.09701  eV     1   --> A              
     e( 34 - 34) =      5.10894  eV     1   --> A              
     e( 35 - 35) =      7.40562  eV     1   --> A              
     e( 36 - 36) =      7.55627  eV     1   --> A              
     e( 37 - 37) =      8.16020  eV     1   --> A              
     e( 38 - 38) =      8.37401  eV     1   --> A              
     e( 39 - 39) =      8.49073  eV     1   --> A              
     e( 40 - 40) =      9.46764  eV     1   --> A              
     e( 41 - 41) =     10.44211  eV     1   --> A              
     e( 42 - 42) =     10.89943  eV     1   --> A              

 **************************************************************************

 **************************************************************************

                    xk=(   0.00000,   0.00000,   0.00000  )

     point group C_i (-1)   
     there are  2 classes
     the character table:

       E     i    
A_g    1.00  1.00
A_u    1.00 -1.00

     the symmetry operations in each class and the name of the first element:

     E        1
                                                                 
     i        2
                                                                 

     Band symmetry, C_i (-1)    point group:

     e(  1 -  2) =    -58.78390  eV     2   --> A_g            
     e(  1 -  2) =    -58.78390  eV     2   --> A_u            
     e(  3 -  4) =    -32.98783  eV     2   --> A_g            
     e(  3 -  4) =    -32.98783  eV     2   --> A_u            
     e(  5 -  6) =    -32.72110  eV     2   --> A_g            
     e(  5 -  6) =    -32.72110  eV     2   --> A_u            
     e(  7 -  8) =    -32.72084  eV     2   --> A_g            
     e(  7 -  8) =    -32.72084  eV     2   --> A_u            
     e(  9 -  9) =    -12.32156  eV     1   --> A_g            
     e( 10 - 10) =    -12.25623  eV     1   --> A_u            
     e( 11 - 11) =    -10.99233  eV     1   --> A_g            
     e( 12 - 12) =    -10.88119  eV     1   --> A_u            
     e( 13 - 13) =     -4.01954  eV     1   --> A_g            
     e( 14 - 14) =     -3.70509  eV     1   --> A_u            
     e( 15 - 15) =     -0.66926  eV     1   --> A_g            
     e( 16 - 16) =     -0.66783  eV     1   --> A_g            
     e( 17 - 17) =     -0.66582  eV     1   --> A_u            
     e( 18 - 18) =     -0.66440  eV     1   --> A_u            
     e( 19 - 19) =     -0.32955  eV     1   --> A_g            
     e( 20 - 20) =      0.44745  eV     1   --> A_u            
     e( 21 - 21) =      0.48959  eV     1   --> A_g            
     e( 22 - 22) =      0.49123  eV     1   --> A_g            
     e( 23 - 23) =      0.49172  eV     1   --> A_u            
     e( 24 - 24) =      0.49337  eV     1   --> A_u            
     e( 25 - 25) =      1.67571  eV     1   --> A_g            
     e( 26 - 26) =      2.18838  eV     1   --> A_u            
     e( 27 - 28) =      4.81701  eV     2   -->   2 A_g            
     e( 29 - 30) =      4.85268  eV     2   -->   2 A_u            
     e( 31 - 31) =      5.08973  eV     1   --> A_g            
     e( 32 - 32) =      5.09133  eV     1   --> A_g            
     e( 33 - 33) =      5.11245  eV     1   --> A_u            
     e( 34 - 34) =      5.11410  eV     1   --> A_u            
     e( 35 - 35) =      7.39879  eV     1   --> A_g            
     e( 36 - 36) =      7.54914  eV     1   --> A_u            
     e( 37 - 37) =      8.14461  eV     1   --> A_g            
     e( 38 - 38) =      8.35333  eV     1   --> A_u            
     e( 39 - 39) =      8.47893  eV     1   --> A_g            
     e( 40 - 40) =      9.46192  eV     1   --> A_u            
     e( 41 - 41) =     10.43753  eV     1   --> A_g            
     e( 42 - 42) =     10.89205  eV     1   --> A_g            

 **************************************************************************
 
     BANDS        :   1m17.98s CPU     57.00s WALL

 
   This run was terminated on:  15:35:27  16Apr2022            

=------------------------------------------------------------------------------=
   JOB DONE.
=------------------------------------------------------------------------------=
