
     Program PWSCF v.6.8 starts on 16Apr2022 at 14:40:42 

     This program is part of the open-source Quantum ESPRESSO suite
     for quantum simulation of materials; please cite
         "P. Giannozzi et al., J. Phys.:Condens. Matter 21 395502 (2009);
         "P. Giannozzi et al., J. Phys.:Condens. Matter 29 465901 (2017);
         "P. Giannozzi et al., J. Chem. Phys. 152 154105 (2020);
          URL http://www.quantum-espresso.org", 
     in publications or presentations arising from this work. More details at
     http://www.quantum-espresso.org/quote

     Parallel version (MPI & OpenMP), running on       4 processor cores
     Number of MPI processes:                 2
     Threads/MPI process:                     2

     MPI processes distributed on     1 nodes
     R & G space division:  proc/nbgrp/npool/nimage =       2
     125266 MiB available memory on the printing compute node when the environment starts
 
     Reading input from MoS2.scf.in

     Current dimensions of program PWSCF are:
     Max number of different atomic species (ntypx) = 10
     Max number of k-points (npk) =  40000
     Max angular momentum in pseudopotentials (lmaxx) =  4
     file Mo.pbesol-spn-kjpaw_psl.1.0.0.UPF: wavefunction(s)  4S 4D renormalized
     file S.pbesol-nl-kjpaw_psl.1.0.0.UPF: wavefunction(s)  3S renormalized
     Message from routine setup:
     using ibrav=0 with symmetry is DISCOURAGED, use correct ibrav instead

     Subspace diagonalization in iterative solution of the eigenvalue problem:
     a serial algorithm will be used

 
     Parallelization info
     --------------------
     sticks:   dense  smooth     PW     G-vecs:    dense   smooth      PW
     Min         843     729    215               231296   183661   29058
     Max         844     730    218               231299   183676   29063
     Sum        1687    1459    433               462595   367337   58121
 
     Using Slab Decomposition
 


     bravais-lattice index     =            0
     lattice parameter (alat)  =       6.0720  a.u.
     unit-cell volume          =    1481.2748 (a.u.)^3
     number of atoms/cell      =            6
     number of atomic types    =            2
     number of electrons       =        52.00
     number of Kohn-Sham states=           31
     kinetic-energy cutoff     =     150.0000  Ry
     charge density cutoff     =     700.0000  Ry
     scf convergence threshold =      1.0E-12
     mixing beta               =       0.7000
     number of iterations used =            8  plain     mixing
     Exchange-correlation= SLA  PW   PSX  PSC
                           (   1   4  10   8   0   0   0)

     celldm(1)=   6.072000  celldm(2)=   0.000000  celldm(3)=   0.000000
     celldm(4)=   0.000000  celldm(5)=   0.000000  celldm(6)=   0.000000

     crystal axes: (cart. coord. in units of alat)
               a(1) = (   0.977326  -0.000176   0.000000 )  
               a(2) = (  -0.488540   0.846362   0.000000 )  
               a(3) = (   0.000000   0.000000   8.000000 )  

     reciprocal axes: (cart. coord. in units 2 pi/alat)
               b(1) = (  1.023307  0.590676  0.000000 )  
               b(2) = (  0.000213  1.181651  0.000000 )  
               b(3) = (  0.000000  0.000000  0.125000 )  


     PseudoPot. # 1 for Mo read from file:
     /shared/home/as3359/pseudo/Mo.pbesol-spn-kjpaw_psl.1.0.0.UPF
     MD5 check sum: de57925cfc675213e43241dcc441eda8
     Pseudo is Projector augmented-wave + core cor, Zval = 14.0
     Generated using &quot;atomic&quot; code by A. Dal Corso  v.6.3
     Shape of augmentation charge: PSQ
     Using radial grid of 1229 points,  6 beta functions with: 
                l(1) =   0
                l(2) =   0
                l(3) =   1
                l(4) =   1
                l(5) =   2
                l(6) =   2
     Q(r) pseudized with 0 coefficients 


     PseudoPot. # 2 for S  read from file:
     /shared/home/as3359/pseudo/S.pbesol-nl-kjpaw_psl.1.0.0.UPF
     MD5 check sum: bf3db50ec3f960682bbc396f1aadd1dd
     Pseudo is Projector augmented-wave + core cor, Zval =  6.0
     Generated using &quot;atomic&quot; code by A. Dal Corso  v.6.3
     Shape of augmentation charge: PSQ
     Using radial grid of 1151 points,  4 beta functions with: 
                l(1) =   0
                l(2) =   0
                l(3) =   1
                l(4) =   1
     Q(r) pseudized with 0 coefficients 


     atomic species   valence    mass     pseudopotential
        Mo            14.00    95.94000     Mo( 1.00)
        S              6.00    32.06500     S ( 1.00)

      2 Sym. Ops., with inversion, found ( 1 have fractional translation)



   Cartesian axes

     site n.     atom                  positions (alat units)
         1           Mo  tau(   1) = (   0.0000000   0.0000000   0.9844997  )
         2           S   tau(   2) = (   0.4887119   0.2819702   1.4701535  )
         3           S   tau(   3) = (   0.4887135   0.2819635   0.4988906  )
         4           Mo  tau(   4) = (   0.0000000   0.0000000   3.0155003  )
         5           S   tau(   5) = (  -0.4887135  -0.2819635   3.5011094  )
         6           S   tau(   6) = (  -0.4887119  -0.2819702   2.5298465  )

     number of k points=   113  Marzari-Vanderbilt smearing, width (Ry)=  0.0010

     Number of k-points >= 100: set verbosity='high' to print them.

     Dense  grid:   462595 G-vectors     FFT dimensions: (  50,  50, 432)

     Smooth grid:   367337 G-vectors     FFT dimensions: (  48,  48, 384)

     Estimated max dynamical RAM per process >       2.07 GB

     Estimated total dynamical RAM >       4.13 GB

     Initial potential from superposition of free atoms

     starting charge   51.99828, renormalised to   52.00000

     negative rho (up, down):  6.771E-05 0.000E+00
     Starting wfcs are   36 randomized atomic wfcs
     Checking if some PAW data can be deallocated... 

     total cpu time spent up to now is       28.6 secs

     Self-consistent Calculation

     iteration #  1     ecut=   150.00 Ry     beta= 0.70
     Davidson diagonalization with overlap
     ethr =  1.00E-02,  avg # of iterations =  2.3

     Threshold (ethr) on eigenvalues was too large:
     Diagonalizing with lowered threshold

     Davidson diagonalization with overlap
     ethr =  3.37E-04,  avg # of iterations =  3.8

     negative rho (up, down):  6.769E-05 0.000E+00

     total cpu time spent up to now is      131.7 secs

     total energy              =    -979.40070681 Ry
     estimated scf accuracy    <       0.27046468 Ry

     iteration #  2     ecut=   150.00 Ry     beta= 0.70
     Davidson diagonalization with overlap
     ethr =  5.20E-04,  avg # of iterations =  4.3

     negative rho (up, down):  6.723E-05 0.000E+00

     total cpu time spent up to now is      191.6 secs

     total energy              =    -979.32019252 Ry
     estimated scf accuracy    <       0.95841533 Ry

     iteration #  3     ecut=   150.00 Ry     beta= 0.70
     Davidson diagonalization with overlap
     ethr =  5.20E-04,  avg # of iterations =  4.5

     negative rho (up, down):  7.102E-05 0.000E+00

     total cpu time spent up to now is      248.1 secs

     total energy              =    -979.48903023 Ry
     estimated scf accuracy    <       0.17836758 Ry

     iteration #  4     ecut=   150.00 Ry     beta= 0.70
     Davidson diagonalization with overlap
     ethr =  3.43E-04,  avg # of iterations =  2.2

     negative rho (up, down):  7.285E-05 0.000E+00

     total cpu time spent up to now is      291.6 secs

     total energy              =    -979.51014878 Ry
     estimated scf accuracy    <       0.02087964 Ry

     iteration #  5     ecut=   150.00 Ry     beta= 0.70
     Davidson diagonalization with overlap
     ethr =  4.02E-05,  avg # of iterations =  4.5

     negative rho (up, down):  8.091E-05 0.000E+00

     total cpu time spent up to now is      344.7 secs

     total energy              =    -979.51489542 Ry
     estimated scf accuracy    <       0.02423858 Ry

     iteration #  6     ecut=   150.00 Ry     beta= 0.70
     Davidson diagonalization with overlap
     ethr =  4.02E-05,  avg # of iterations =  2.1

     negative rho (up, down):  8.503E-05 0.000E+00

     total cpu time spent up to now is      387.1 secs

     total energy              =    -979.51666009 Ry
     estimated scf accuracy    <       0.00126320 Ry

     iteration #  7     ecut=   150.00 Ry     beta= 0.70
     Davidson diagonalization with overlap
     c_bands:  2 eigenvalues not converged
     ethr =  2.43E-06,  avg # of iterations =  7.4

     negative rho (up, down):  8.778E-05 0.000E+00

     total cpu time spent up to now is      447.6 secs

     total energy              =    -979.51692878 Ry
     estimated scf accuracy    <       0.00058481 Ry

     iteration #  8     ecut=   150.00 Ry     beta= 0.70
     Davidson diagonalization with overlap
     ethr =  1.12E-06,  avg # of iterations =  1.7

     negative rho (up, down):  9.013E-05 0.000E+00

     total cpu time spent up to now is      488.3 secs

     total energy              =    -979.51695304 Ry
     estimated scf accuracy    <       0.00005583 Ry

     iteration #  9     ecut=   150.00 Ry     beta= 0.70
     Davidson diagonalization with overlap
     ethr =  1.07E-07,  avg # of iterations =  5.4

     negative rho (up, down):  9.025E-05 0.000E+00

     total cpu time spent up to now is      543.7 secs

     total energy              =    -979.51696963 Ry
     estimated scf accuracy    <       0.00003961 Ry

     iteration # 10     ecut=   150.00 Ry     beta= 0.70
     Davidson diagonalization with overlap
     ethr =  7.62E-08,  avg # of iterations =  1.8

     negative rho (up, down):  9.042E-05 0.000E+00

     total cpu time spent up to now is      585.0 secs

     total energy              =    -979.51697177 Ry
     estimated scf accuracy    <       0.00000227 Ry

     iteration # 11     ecut=   150.00 Ry     beta= 0.70
     Davidson diagonalization with overlap
     ethr =  4.37E-09,  avg # of iterations =  5.1

     negative rho (up, down):  9.046E-05 0.000E+00

     total cpu time spent up to now is      642.2 secs

     total energy              =    -979.51697260 Ry
     estimated scf accuracy    <       0.00000197 Ry

     iteration # 12     ecut=   150.00 Ry     beta= 0.70
     Davidson diagonalization with overlap
     ethr =  3.79E-09,  avg # of iterations =  1.7

     negative rho (up, down):  9.050E-05 0.000E+00

     total cpu time spent up to now is      683.1 secs

     total energy              =    -979.51697271 Ry
     estimated scf accuracy    <       0.00000011 Ry

     iteration # 13     ecut=   150.00 Ry     beta= 0.70
     Davidson diagonalization with overlap
     ethr =  2.08E-10,  avg # of iterations =  5.0

     negative rho (up, down):  9.050E-05 0.000E+00

     total cpu time spent up to now is      737.6 secs

     total energy              =    -979.51697275 Ry
     estimated scf accuracy    <       0.00000007 Ry

     iteration # 14     ecut=   150.00 Ry     beta= 0.70
     Davidson diagonalization with overlap
     ethr =  1.38E-10,  avg # of iterations =  2.0

     negative rho (up, down):  9.050E-05 0.000E+00

     total cpu time spent up to now is      779.4 secs

     total energy              =    -979.51697275 Ry
     estimated scf accuracy    <          3.9E-09 Ry

     iteration # 15     ecut=   150.00 Ry     beta= 0.70
     Davidson diagonalization with overlap
     ethr =  7.43E-12,  avg # of iterations =  5.1

     negative rho (up, down):  9.050E-05 0.000E+00

     total cpu time spent up to now is      834.2 secs

     total energy              =    -979.51697275 Ry
     estimated scf accuracy    <          2.6E-09 Ry

     iteration # 16     ecut=   150.00 Ry     beta= 0.70
     Davidson diagonalization with overlap
     ethr =  4.95E-12,  avg # of iterations =  1.1

     negative rho (up, down):  9.050E-05 0.000E+00

     total cpu time spent up to now is      873.3 secs

     total energy              =    -979.51697275 Ry
     estimated scf accuracy    <          6.2E-10 Ry

     iteration # 17     ecut=   150.00 Ry     beta= 0.70
     Davidson diagonalization with overlap
     ethr =  1.20E-12,  avg # of iterations =  3.3

     negative rho (up, down):  9.050E-05 0.000E+00

     total cpu time spent up to now is      918.6 secs

     total energy              =    -979.51697275 Ry
     estimated scf accuracy    <          7.2E-12 Ry

     iteration # 18     ecut=   150.00 Ry     beta= 0.70
     Davidson diagonalization with overlap
     ethr =  1.00E-13,  avg # of iterations =  4.8

     negative rho (up, down):  9.050E-05 0.000E+00

     total cpu time spent up to now is      970.0 secs

     total energy              =    -979.51697275 Ry
     estimated scf accuracy    <          1.3E-11 Ry

     iteration # 19     ecut=   150.00 Ry     beta= 0.70
     Davidson diagonalization with overlap
     ethr =  1.00E-13,  avg # of iterations =  1.0

     negative rho (up, down):  9.050E-05 0.000E+00

     total cpu time spent up to now is     1008.9 secs

     total energy              =    -979.51697275 Ry
     estimated scf accuracy    <          7.4E-12 Ry

     iteration # 20     ecut=   150.00 Ry     beta= 0.70
     Davidson diagonalization with overlap
     ethr =  1.00E-13,  avg # of iterations =  1.0

     negative rho (up, down):  9.050E-05 0.000E+00

     total cpu time spent up to now is     1047.7 secs

     End of self-consistent calculation

     Number of k-points >= 100: set verbosity='high' to print the bands.

     the Fermi energy is     2.9213 ev

!    total energy              =    -979.51697275 Ry

     total all-electron energy =    -19376.432663 Ry
     estimated scf accuracy    <          3.1E-13 Ry
     smearing contrib. (-TS)   =       0.00000000 Ry
     internal energy E=F+TS    =    -979.51697275 Ry

     The total energy is F=E-TS. E is the sum of the following terms:
     one-electron contribution =   -2744.83897062 Ry
     hartree contribution      =    1383.05379813 Ry
     xc contribution           =     -59.05354151 Ry
     ewald contribution        =    1067.10016372 Ry
     one-center paw contrib.   =    -625.77842246 Ry

     convergence has been achieved in  20 iterations

     negative rho (up, down):  9.050E-05 0.000E+00

     Forces acting on atoms (cartesian axes, Ry/au):

     atom    1 type  1   force =     0.00001332   -0.00005863   -0.00000035
     atom    2 type  2   force =    -0.00000577    0.00002562   -0.00045770
     atom    3 type  2   force =    -0.00000768    0.00003359    0.00044375
     atom    4 type  1   force =    -0.00001332    0.00005863    0.00000035
     atom    5 type  2   force =     0.00000768   -0.00003359   -0.00044375
     atom    6 type  2   force =     0.00000577   -0.00002562    0.00045770

     Total force =     0.000908     Total SCF correction =     0.000004


     Computing stress (Cartesian axis) and pressure


     negative rho (up, down):  9.050E-05 0.000E+00
          total   stress  (Ry/bohr**3)                   (kbar)     P=        0.52
   0.00000697   0.00000009   0.00000001            1.03        0.01        0.00
   0.00000009   0.00000765  -0.00000004            0.01        1.13       -0.01
   0.00000001  -0.00000004  -0.00000408            0.00       -0.01       -0.60


     Writing output data file /scratch/as3359/MoS2_bulk_bandsdos/Ta.save/
 
     init_run     :     51.30s CPU     28.34s WALL (       1 calls)
     electrons    :   2007.41s CPU   1019.25s WALL (       1 calls)
     forces       :     14.06s CPU      7.13s WALL (       1 calls)
     stress       :     52.46s CPU     26.56s WALL (       1 calls)

     Called by init_run:
     wfcinit      :     39.50s CPU     20.37s WALL (       1 calls)
     potinit      :      3.96s CPU      2.36s WALL (       1 calls)
     hinit0       :      6.36s CPU      4.75s WALL (       1 calls)

     Called by electrons:
     c_bands      :   1672.81s CPU    846.84s WALL (      21 calls)
     sum_band     :    311.51s CPU    159.11s WALL (      21 calls)
     v_of_rho     :      5.71s CPU      3.14s WALL (      21 calls)
     newd         :     10.94s CPU      6.59s WALL (      21 calls)
     PAW_pot      :      4.86s CPU      2.51s WALL (      21 calls)
     mix_rho      :      1.95s CPU      1.16s WALL (      21 calls)

     Called by c_bands:
     init_us_2    :     35.76s CPU     17.90s WALL (    5085 calls)
     cegterg      :   1583.46s CPU    801.78s WALL (    2373 calls)

     Called by *egterg:
     cdiaghg      :     17.29s CPU      8.86s WALL (   10166 calls)
     h_psi        :   1284.45s CPU    651.84s WALL (   10392 calls)
     s_psi        :     57.36s CPU     28.73s WALL (   10392 calls)
     g_psi        :      9.22s CPU      4.62s WALL (    7906 calls)

     Called by h_psi:
     h_psi:calbec :     50.19s CPU     25.16s WALL (   10392 calls)
     vloc_psi     :   1164.45s CPU    591.55s WALL (   10392 calls)
     add_vuspsi   :     59.06s CPU     29.59s WALL (   10392 calls)

     General routines
     calbec       :     70.94s CPU     35.56s WALL (   13330 calls)
     fft          :      3.67s CPU      2.38s WALL (     297 calls)
     ffts         :      0.28s CPU      0.15s WALL (      42 calls)
     fftw         :   1207.27s CPU    614.11s WALL (  444313 calls)
     interpolate  :      0.50s CPU      0.28s WALL (      21 calls)
 
     Parallel routines
 
     PWSCF        :  35m31.95s CPU  18m 7.59s WALL

 
   This run was terminated on:  14:58:49  16Apr2022            

=------------------------------------------------------------------------------=
   JOB DONE.
=------------------------------------------------------------------------------=
