
     Program PWSCF v.6.8 starts on 16Apr2022 at 14:58:51 

     This program is part of the open-source Quantum ESPRESSO suite
     for quantum simulation of materials; please cite
         "P. Giannozzi et al., J. Phys.:Condens. Matter 21 395502 (2009);
         "P. Giannozzi et al., J. Phys.:Condens. Matter 29 465901 (2017);
         "P. Giannozzi et al., J. Chem. Phys. 152 154105 (2020);
          URL http://www.quantum-espresso.org", 
     in publications or presentations arising from this work. More details at
     http://www.quantum-espresso.org/quote

     Parallel version (MPI & OpenMP), running on       4 processor cores
     Number of MPI processes:                 2
     Threads/MPI process:                     2

     MPI processes distributed on     1 nodes
     R & G space division:  proc/nbgrp/npool/nimage =       2
     122680 MiB available memory on the printing compute node when the environment starts
 
     Reading input from MoS2.nscf.in

     Current dimensions of program PWSCF are:
     Max number of different atomic species (ntypx) = 10
     Max number of k-points (npk) =  40000
     Max angular momentum in pseudopotentials (lmaxx) =  4

     Atomic positions and unit cell read from directory:
     /scratch/as3359/MoS2_bulk_bandsdos/Ta.save/
 
     file Mo.pbesol-spn-kjpaw_psl.1.0.0.UPF: wavefunction(s)  4S 4D renormalized
     file S.pbesol-nl-kjpaw_psl.1.0.0.UPF: wavefunction(s)  3S renormalized
     Message from routine setup:
     using ibrav=0 with symmetry is DISCOURAGED, use correct ibrav instead

     Subspace diagonalization in iterative solution of the eigenvalue problem:
     a serial algorithm will be used

 
     Parallelization info
     --------------------
     sticks:   dense  smooth     PW     G-vecs:    dense   smooth      PW
     Min         843     729    215               231296   183661   29058
     Max         844     730    218               231299   183676   29063
     Sum        1687    1459    433               462595   367337   58121
 
     Using Slab Decomposition
 


     bravais-lattice index     =            0
     lattice parameter (alat)  =       6.0720  a.u.
     unit-cell volume          =    1481.2748 (a.u.)^3
     number of atoms/cell      =            6
     number of atomic types    =            2
     number of electrons       =        52.00
     number of Kohn-Sham states=           31
     kinetic-energy cutoff     =     150.0000  Ry
     charge density cutoff     =     700.0000  Ry
     Exchange-correlation= SLA  PW   PSX  PSC
                           (   1   4  10   8   0   0   0)

     celldm(1)=   6.072000  celldm(2)=   0.000000  celldm(3)=   0.000000
     celldm(4)=   0.000000  celldm(5)=   0.000000  celldm(6)=   0.000000

     crystal axes: (cart. coord. in units of alat)
               a(1) = (   0.977326  -0.000176   0.000000 )  
               a(2) = (  -0.488540   0.846362   0.000000 )  
               a(3) = (   0.000000   0.000000   8.000000 )  

     reciprocal axes: (cart. coord. in units 2 pi/alat)
               b(1) = (  1.023307  0.590676  0.000000 )  
               b(2) = (  0.000213  1.181651  0.000000 )  
               b(3) = (  0.000000  0.000000  0.125000 )  


     PseudoPot. # 1 for Mo read from file:
     /shared/home/as3359/pseudo/Mo.pbesol-spn-kjpaw_psl.1.0.0.UPF
     MD5 check sum: de57925cfc675213e43241dcc441eda8
     Pseudo is Projector augmented-wave + core cor, Zval = 14.0
     Generated using &quot;atomic&quot; code by A. Dal Corso  v.6.3
     Shape of augmentation charge: PSQ
     Using radial grid of 1229 points,  6 beta functions with: 
                l(1) =   0
                l(2) =   0
                l(3) =   1
                l(4) =   1
                l(5) =   2
                l(6) =   2
     Q(r) pseudized with 0 coefficients 


     PseudoPot. # 2 for S  read from file:
     /shared/home/as3359/pseudo/S.pbesol-nl-kjpaw_psl.1.0.0.UPF
     MD5 check sum: bf3db50ec3f960682bbc396f1aadd1dd
     Pseudo is Projector augmented-wave + core cor, Zval =  6.0
     Generated using &quot;atomic&quot; code by A. Dal Corso  v.6.3
     Shape of augmentation charge: PSQ
     Using radial grid of 1151 points,  4 beta functions with: 
                l(1) =   0
                l(2) =   0
                l(3) =   1
                l(4) =   1
     Q(r) pseudized with 0 coefficients 


     atomic species   valence    mass     pseudopotential
        Mo            14.00    95.94000     Mo( 1.00)
        S              6.00    32.06500     S ( 1.00)

      2 Sym. Ops., with inversion, found ( 1 have fractional translation)



   Cartesian axes

     site n.     atom                  positions (alat units)
         1           Mo  tau(   1) = (   0.0000000   0.0000000   0.9844997  )
         2           S   tau(   2) = (   0.4887119   0.2819702   1.4701535  )
         3           S   tau(   3) = (   0.4887135   0.2819635   0.4988906  )
         4           Mo  tau(   4) = (   0.0000000   0.0000000   3.0155003  )
         5           S   tau(   5) = (  -0.4887135  -0.2819635   3.5011094  )
         6           S   tau(   6) = (  -0.4887119  -0.2819702   2.5298465  )

     number of k points=   113  Marzari-Vanderbilt smearing, width (Ry)=  0.0010

     Number of k-points >= 100: set verbosity='high' to print them.

     Dense  grid:   462595 G-vectors     FFT dimensions: (  50,  50, 432)

     Smooth grid:   367337 G-vectors     FFT dimensions: (  48,  48, 384)

     Estimated max dynamical RAM per process >     785.35 MB

     Estimated total dynamical RAM >       1.53 GB

     The potential is recalculated from file :
     /scratch/as3359/MoS2_bulk_bandsdos/Ta.save/charge-density


     negative rho (up, down):  9.050E-05 0.000E+00
     Starting wfcs are   36 randomized atomic wfcs
     Checking if some PAW data can be deallocated... 

     Band Structure Calculation
     Davidson diagonalization with overlap
     c_bands:  1 eigenvalues not converged
     c_bands:  2 eigenvalues not converged
     c_bands:  2 eigenvalues not converged
     c_bands:  1 eigenvalues not converged
     c_bands:  2 eigenvalues not converged
     c_bands:  1 eigenvalues not converged
     c_bands:  1 eigenvalues not converged
     c_bands:  1 eigenvalues not converged
     c_bands:  1 eigenvalues not converged
     c_bands:  1 eigenvalues not converged

     ethr =  1.00E-13,  avg # of iterations = 92.4

     total cpu time spent up to now is      804.2 secs

     End of band structure calculation

     Number of k-points >= 100: set verbosity='high' to print the bands.

     the Fermi energy is     2.9213 ev
     (compare with:     2.9213 eV, computed in scf)

     Writing output data file /scratch/as3359/MoS2_bulk_bandsdos/Ta.save/
 
     init_run     :      8.22s CPU      5.80s WALL (       1 calls)
     electrons    :   1574.16s CPU    798.06s WALL (       1 calls)

     Called by init_run:
     wfcinit      :      0.00s CPU      0.00s WALL (       1 calls)
     potinit      :      0.58s CPU      0.34s WALL (       1 calls)
     hinit0       :      6.36s CPU      4.73s WALL (       1 calls)

     Called by electrons:
     c_bands      :   1574.15s CPU    798.06s WALL (       1 calls)
     v_of_rho     :      0.27s CPU      0.15s WALL (       1 calls)
     newd         :      0.53s CPU      0.31s WALL (       1 calls)
     PAW_pot      :      0.23s CPU      0.12s WALL (       1 calls)

     Called by c_bands:
     init_us_2    :      0.81s CPU      0.41s WALL (     113 calls)
     cegterg      :   1531.48s CPU    775.75s WALL (     559 calls)

     Called by *egterg:
     cdiaghg      :     20.40s CPU     10.45s WALL (   10550 calls)
     h_psi        :   1152.35s CPU    585.01s WALL (   11109 calls)
     s_psi        :     53.37s CPU     26.74s WALL (   11109 calls)
     g_psi        :     12.26s CPU      6.15s WALL (   10437 calls)

     Called by h_psi:
     h_psi:calbec :     48.22s CPU     24.16s WALL (   11109 calls)
     vloc_psi     :   1038.83s CPU    527.80s WALL (   11109 calls)
     add_vuspsi   :     55.89s CPU     28.02s WALL (   11109 calls)

     General routines
     calbec       :     48.12s CPU     24.13s WALL (   11109 calls)
     fft          :      1.20s CPU      0.97s WALL (      13 calls)
     ffts         :      0.01s CPU      0.00s WALL (       1 calls)
     fftw         :    894.32s CPU    454.98s WALL (  328938 calls)
     interpolate  :      0.02s CPU      0.01s WALL (       1 calls)
     davcio       :      0.76s CPU      0.78s WALL (     226 calls)
 
     Parallel routines
 
     PWSCF        :  26m29.71s CPU  13m30.87s WALL

 
   This run was terminated on:  15:12:22  16Apr2022            

=------------------------------------------------------------------------------=
   JOB DONE.
=------------------------------------------------------------------------------=
