
     Program PWSCF v.6.8 starts on 14Apr2022 at 11: 0:20 

     This program is part of the open-source Quantum ESPRESSO suite
     for quantum simulation of materials; please cite
         "P. Giannozzi et al., J. Phys.:Condens. Matter 21 395502 (2009);
         "P. Giannozzi et al., J. Phys.:Condens. Matter 29 465901 (2017);
         "P. Giannozzi et al., J. Chem. Phys. 152 154105 (2020);
          URL http://www.quantum-espresso.org", 
     in publications or presentations arising from this work. More details at
     http://www.quantum-espresso.org/quote

     Parallel version (MPI & OpenMP), running on       4 processor cores
     Number of MPI processes:                 2
     Threads/MPI process:                     2

     MPI processes distributed on     1 nodes
     R & G space division:  proc/nbgrp/npool/nimage =       2
     124972 MiB available memory on the printing compute node when the environment starts
 
     Reading input from Ta2CO.scf.5.900.in
Warning: card  &CELL ignored
Warning: card     CELL_DYNAMICS='BFGS' ignored
Warning: card  / ignored

     Current dimensions of program PWSCF are:
     Max number of different atomic species (ntypx) = 10
     Max number of k-points (npk) =  40000
     Max angular momentum in pseudopotentials (lmaxx) =  4
     Message from routine iosys:
     restart disabled: needed files not found
     file Ta.pbesol-spfn-rrkjus_psl.1.0.0.UPF: wavefunction(s)  5S 5P renormalized

     Subspace diagonalization in iterative solution of the eigenvalue problem:
     a serial algorithm will be used

 
     Parallelization info
     --------------------
     sticks:   dense  smooth     PW     G-vecs:    dense   smooth      PW
     Min         753     753    216               231061   231061   36278
     Max         754     754    217               231098   231098   36303
     Sum        1507    1507    433               462159   462159   72581
 
     Using Slab Decomposition
 


     bravais-lattice index     =            0
     lattice parameter (alat)  =       5.9000  a.u.
     unit-cell volume          =    1860.9764 (a.u.)^3
     number of atoms/cell      =            4
     number of atomic types    =            3
     number of electrons       =        64.00
     number of Kohn-Sham states=           32
     kinetic-energy cutoff     =     150.0000  Ry
     charge density cutoff     =     600.0000  Ry
     scf convergence threshold =      1.0E-12
     mixing beta               =       0.7000
     number of iterations used =            8  plain     mixing
     Exchange-correlation= PBESOL
                           (   1   4  10   8   0   0   0)

     celldm(1)=   5.900000  celldm(2)=   0.000000  celldm(3)=   0.000000
     celldm(4)=   0.000000  celldm(5)=   0.000000  celldm(6)=   0.000000

     crystal axes: (cart. coord. in units of alat)
               a(1) = (   1.023061   0.000071   0.000000 )  
               a(2) = (  -0.511470   0.885658   0.000000 )  
               a(3) = (   0.000000   0.000000  10.000000 )  

     reciprocal axes: (cart. coord. in units 2 pi/alat)
               b(1) = (  0.977420  0.564462  0.000000 )  
               b(2) = ( -0.000078  1.129060  0.000000 )  
               b(3) = (  0.000000  0.000000  0.100000 )  


     PseudoPot. # 1 for Ta read from file:
     /shared/home/as3359/pseudo/Ta.pbesol-spfn-rrkjus_psl.1.0.0.UPF
     MD5 check sum: f099565ffaca9b150a52e9412a28e20b
     Pseudo is Ultrasoft + core correction, Zval = 27.0
     Generated using &quot;atomic&quot; code by A. Dal Corso  v.6.3
     Using radial grid of 1273 points,  8 beta functions with: 
                l(1) =   0
                l(2) =   0
                l(3) =   1
                l(4) =   1
                l(5) =   2
                l(6) =   2
                l(7) =   3
                l(8) =   3
     Q(r) pseudized with 0 coefficients 


     PseudoPot. # 2 for C  read from file:
     /shared/home/as3359/pseudo/C.pbesol-n-rrkjus_psl.1.0.0.UPF
     MD5 check sum: 05995be603a8a7c99da3dc4413f31573
     Pseudo is Ultrasoft + core correction, Zval =  4.0
     Generated using &quot;atomic&quot; code by A. Dal Corso  v.6.3MaX
     Using radial grid of 1073 points,  4 beta functions with: 
                l(1) =   0
                l(2) =   0
                l(3) =   1
                l(4) =   1
     Q(r) pseudized with 0 coefficients 


     PseudoPot. # 3 for O  read from file:
     /shared/home/as3359/pseudo/O.pbesol-n-rrkjus_psl.1.0.0.UPF
     MD5 check sum: dd9bad2534826f832ffc9296591fc5de
     Pseudo is Ultrasoft + core correction, Zval =  6.0
     Generated using &quot;atomic&quot; code by A. Dal Corso  v.6.3MaX
     Using radial grid of 1095 points,  4 beta functions with: 
                l(1) =   0
                l(2) =   0
                l(3) =   1
                l(4) =   1
     Q(r) pseudized with 0 coefficients 


     atomic species   valence    mass     pseudopotential
        Ta            27.00   180.94788     Ta( 1.00)
        C              4.00    12.01070     C ( 1.00)
        O              6.00    15.99940     O ( 1.00)

     No symmetry found



   Cartesian axes

     site n.     atom                  positions (alat units)
         1           C   tau(   1) = (   0.0000000   0.0000000   0.0000000  )
         2           Ta  tau(   2) = (   0.5237441   0.2989654  -0.4007024  )
         3           Ta  tau(   3) = (  -0.0010323   0.6027030   0.4306046  )
         4           O   tau(   4) = (   0.5210222   0.3011869   0.8013113  )

     number of k points=   113

     Number of k-points >= 100: set verbosity='high' to print them.

     Dense  grid:   462159 G-vectors     FFT dimensions: (  48,  48, 480)

     Estimated max dynamical RAM per process >       3.77 GB

     Estimated total dynamical RAM >       7.53 GB
     Cannot read rho : file not found

     Initial potential from superposition of free atoms

     starting charge   63.99842, renormalised to   64.00000

     negative rho (up, down):  1.258E-04 0.000E+00
     Message from routine qexsd_readschema :
     xml data file /scratch/as3359/Mos2_ct_lat/Ta2CO.save/data-file-schema.xml not fo
     Cannot read wfcs: file not found
     Starting wfcs are   42 randomized atomic wfcs

     total cpu time spent up to now is       44.6 secs

     Self-consistent Calculation

     iteration #  1     ecut=   150.00 Ry     beta= 0.70
     Davidson diagonalization with overlap
     c_bands:  1 eigenvalues not converged
     c_bands:  1 eigenvalues not converged
     c_bands:  1 eigenvalues not converged
     c_bands:  1 eigenvalues not converged
     c_bands:  1 eigenvalues not converged
     c_bands:  1 eigenvalues not converged
     c_bands:  1 eigenvalues not converged
     c_bands:  1 eigenvalues not converged
     c_bands:  1 eigenvalues not converged
     ethr =  1.00E-05,  avg # of iterations = 12.1

     negative rho (up, down):  1.406E-04 0.000E+00

     total cpu time spent up to now is      236.4 secs

     total energy              =   -1405.07229826 Ry
     estimated scf accuracy    <       1.29074255 Ry

     iteration #  2     ecut=   150.00 Ry     beta= 0.70
     Davidson diagonalization with overlap
     ethr =  2.02E-03,  avg # of iterations = 10.0

     negative rho (up, down):  1.231E-04 0.000E+00

     total cpu time spent up to now is      358.8 secs

     total energy              =   -1403.61868640 Ry
     estimated scf accuracy    <      12.81610594 Ry

     iteration #  3     ecut=   150.00 Ry     beta= 0.70
     Davidson diagonalization with overlap
     ethr =  2.02E-03,  avg # of iterations = 12.0

     negative rho (up, down):  1.117E-04 0.000E+00

     total cpu time spent up to now is      493.4 secs

     total energy              =   -1404.13963638 Ry
     estimated scf accuracy    <      39.15591802 Ry

     iteration #  4     ecut=   150.00 Ry     beta= 0.70
     Davidson diagonalization with overlap
     ethr =  2.02E-03,  avg # of iterations =  8.9

     negative rho (up, down):  1.142E-04 0.000E+00

     total cpu time spent up to now is      599.7 secs

     total energy              =   -1405.74415537 Ry
     estimated scf accuracy    <       0.31396730 Ry

     iteration #  5     ecut=   150.00 Ry     beta= 0.70
     Davidson diagonalization with overlap
     ethr =  4.91E-04,  avg # of iterations =  5.1

     negative rho (up, down):  1.188E-04 0.000E+00

     total cpu time spent up to now is      677.5 secs

     total energy              =   -1405.76371431 Ry
     estimated scf accuracy    <       0.10039180 Ry

     iteration #  6     ecut=   150.00 Ry     beta= 0.70
     Davidson diagonalization with overlap
     ethr =  1.57E-04,  avg # of iterations =  5.8

     negative rho (up, down):  1.319E-04 0.000E+00

     total cpu time spent up to now is      758.0 secs

     total energy              =   -1405.77092635 Ry
     estimated scf accuracy    <       0.02908878 Ry

     iteration #  7     ecut=   150.00 Ry     beta= 0.70
     Davidson diagonalization with overlap
     ethr =  4.55E-05,  avg # of iterations =  6.2

     negative rho (up, down):  1.381E-04 0.000E+00

     total cpu time spent up to now is      852.3 secs

     total energy              =   -1405.77734054 Ry
     estimated scf accuracy    <       0.00757829 Ry

     iteration #  8     ecut=   150.00 Ry     beta= 0.70
     Davidson diagonalization with overlap
     ethr =  1.18E-05,  avg # of iterations =  6.6

     negative rho (up, down):  1.529E-04 0.000E+00

     total cpu time spent up to now is      937.9 secs

     total energy              =   -1405.77819435 Ry
     estimated scf accuracy    <       0.00571094 Ry

     iteration #  9     ecut=   150.00 Ry     beta= 0.70
     Davidson diagonalization with overlap
     ethr =  8.92E-06,  avg # of iterations =  5.7

     negative rho (up, down):  1.494E-04 0.000E+00

     total cpu time spent up to now is     1026.1 secs

     total energy              =   -1405.77842024 Ry
     estimated scf accuracy    <       0.00510536 Ry

     iteration # 10     ecut=   150.00 Ry     beta= 0.70
     Davidson diagonalization with overlap
     ethr =  7.98E-06,  avg # of iterations =  2.3

     negative rho (up, down):  1.519E-04 0.000E+00

     total cpu time spent up to now is     1096.4 secs

     total energy              =   -1405.77819447 Ry
     estimated scf accuracy    <       0.00221889 Ry

     iteration # 11     ecut=   150.00 Ry     beta= 0.70
     Davidson diagonalization with overlap
     c_bands:  1 eigenvalues not converged
     ethr =  3.47E-06,  avg # of iterations =  8.1

     negative rho (up, down):  1.519E-04 0.000E+00

     total cpu time spent up to now is     1193.4 secs

     total energy              =   -1405.77865603 Ry
     estimated scf accuracy    <       0.00186913 Ry

     iteration # 12     ecut=   150.00 Ry     beta= 0.70
     Davidson diagonalization with overlap
     ethr =  2.92E-06,  avg # of iterations =  2.2

     negative rho (up, down):  1.528E-04 0.000E+00

     total cpu time spent up to now is     1262.8 secs

     total energy              =   -1405.77860288 Ry
     estimated scf accuracy    <       0.00086237 Ry

     iteration # 13     ecut=   150.00 Ry     beta= 0.70
     Davidson diagonalization with overlap
     c_bands:  1 eigenvalues not converged
     ethr =  1.35E-06,  avg # of iterations =  6.2

     negative rho (up, down):  1.528E-04 0.000E+00

     total cpu time spent up to now is     1348.7 secs

     total energy              =   -1405.77872975 Ry
     estimated scf accuracy    <       0.00000264 Ry

     iteration # 14     ecut=   150.00 Ry     beta= 0.70
     Davidson diagonalization with overlap
     c_bands:  2 eigenvalues not converged
     c_bands:  1 eigenvalues not converged
     c_bands:  1 eigenvalues not converged
     c_bands:  1 eigenvalues not converged
     c_bands:  1 eigenvalues not converged
     c_bands:  1 eigenvalues not converged
     c_bands:  1 eigenvalues not converged
     c_bands:  1 eigenvalues not converged
     c_bands:  1 eigenvalues not converged
     c_bands:  1 eigenvalues not converged
     c_bands:  1 eigenvalues not converged
     c_bands:  1 eigenvalues not converged
     c_bands:  2 eigenvalues not converged
     c_bands:  1 eigenvalues not converged
     c_bands:  1 eigenvalues not converged
     c_bands:  1 eigenvalues not converged
     c_bands:  1 eigenvalues not converged
     c_bands:  1 eigenvalues not converged
     c_bands:  1 eigenvalues not converged
     c_bands:  1 eigenvalues not converged
     c_bands:  1 eigenvalues not converged
     c_bands:  1 eigenvalues not converged
     c_bands:  1 eigenvalues not converged
     c_bands:  1 eigenvalues not converged
     c_bands:  1 eigenvalues not converged
     c_bands:  1 eigenvalues not converged
     c_bands:  1 eigenvalues not converged
     c_bands:  1 eigenvalues not converged
     c_bands:  1 eigenvalues not converged
     ethr =  4.13E-09,  avg # of iterations = 17.0

     negative rho (up, down):  1.530E-04 0.000E+00

     total cpu time spent up to now is     1512.9 secs

     total energy              =   -1405.77876718 Ry
     estimated scf accuracy    <       0.00014021 Ry

     iteration # 15     ecut=   150.00 Ry     beta= 0.70
     Davidson diagonalization with overlap
     c_bands:  1 eigenvalues not converged
     ethr =  4.13E-09,  avg # of iterations =  6.8

     negative rho (up, down):  1.529E-04 0.000E+00

     total cpu time spent up to now is     1607.4 secs

     total energy              =   -1405.77875801 Ry
     estimated scf accuracy    <       0.00009078 Ry

     iteration # 16     ecut=   150.00 Ry     beta= 0.70
     Davidson diagonalization with overlap
     c_bands:  1 eigenvalues not converged
     ethr =  4.13E-09,  avg # of iterations =  9.9

     negative rho (up, down):  1.530E-04 0.000E+00

     total cpu time spent up to now is     1724.4 secs

     total energy              =   -1405.77876114 Ry
     estimated scf accuracy    <       0.00001062 Ry

     iteration # 17     ecut=   150.00 Ry     beta= 0.70
     Davidson diagonalization with overlap
     c_bands:  1 eigenvalues not converged
     ethr =  4.13E-09,  avg # of iterations =  6.9

     negative rho (up, down):  1.531E-04 0.000E+00

     total cpu time spent up to now is     1814.4 secs

     total energy              =   -1405.77876114 Ry
     estimated scf accuracy    <       0.00000137 Ry

     iteration # 18     ecut=   150.00 Ry     beta= 0.70
     Davidson diagonalization with overlap
     c_bands:  1 eigenvalues not converged
     ethr =  2.14E-09,  avg # of iterations = 10.0

     negative rho (up, down):  1.531E-04 0.000E+00

     total cpu time spent up to now is     1930.2 secs

     total energy              =   -1405.77876242 Ry
     estimated scf accuracy    <       0.00000843 Ry

     iteration # 19     ecut=   150.00 Ry     beta= 0.70
     Davidson diagonalization with overlap
     c_bands:  1 eigenvalues not converged
     ethr =  2.14E-09,  avg # of iterations =  1.3

     negative rho (up, down):  1.531E-04 0.000E+00

     total cpu time spent up to now is     1997.2 secs

     total energy              =   -1405.77876154 Ry
     estimated scf accuracy    <       0.00000776 Ry

     iteration # 20     ecut=   150.00 Ry     beta= 0.70
     Davidson diagonalization with overlap
     c_bands:  1 eigenvalues not converged
     ethr =  2.14E-09,  avg # of iterations =  5.8

     negative rho (up, down):  1.531E-04 0.000E+00

     total cpu time spent up to now is     2083.6 secs

     total energy              =   -1405.77876177 Ry
     estimated scf accuracy    <       0.00000170 Ry

     iteration # 21     ecut=   150.00 Ry     beta= 0.70
     Davidson diagonalization with overlap
     ethr =  2.14E-09,  avg # of iterations =  1.8

     negative rho (up, down):  1.531E-04 0.000E+00

     total cpu time spent up to now is     2154.7 secs

     total energy              =   -1405.77876172 Ry
     estimated scf accuracy    <       0.00000128 Ry

     iteration # 22     ecut=   150.00 Ry     beta= 0.70
     Davidson diagonalization with overlap
     ethr =  2.00E-09,  avg # of iterations =  2.1

     negative rho (up, down):  1.531E-04 0.000E+00

     total cpu time spent up to now is     2226.0 secs

     total energy              =   -1405.77876167 Ry
     estimated scf accuracy    <       0.00000065 Ry

     iteration # 23     ecut=   150.00 Ry     beta= 0.70
     Davidson diagonalization with overlap
     ethr =  1.02E-09,  avg # of iterations =  7.8

     negative rho (up, down):  1.531E-04 0.000E+00

     total cpu time spent up to now is     2323.6 secs

     total energy              =   -1405.77876185 Ry
     estimated scf accuracy    <       0.00000045 Ry

     iteration # 24     ecut=   150.00 Ry     beta= 0.70
     Davidson diagonalization with overlap
     ethr =  7.09E-10,  avg # of iterations =  1.2

     negative rho (up, down):  1.531E-04 0.000E+00

     total cpu time spent up to now is     2389.0 secs

     total energy              =   -1405.77876184 Ry
     estimated scf accuracy    <       0.00000044 Ry

     iteration # 25     ecut=   150.00 Ry     beta= 0.70
     Davidson diagonalization with overlap
     ethr =  6.86E-10,  avg # of iterations =  1.8

     negative rho (up, down):  1.531E-04 0.000E+00

     total cpu time spent up to now is     2457.9 secs

     total energy              =   -1405.77876183 Ry
     estimated scf accuracy    <       0.00000031 Ry

     iteration # 26     ecut=   150.00 Ry     beta= 0.70
     Davidson diagonalization with overlap
     ethr =  4.77E-10,  avg # of iterations =  1.5

     negative rho (up, down):  1.531E-04 0.000E+00

     total cpu time spent up to now is     2524.9 secs

     total energy              =   -1405.77876182 Ry
     estimated scf accuracy    <       0.00000024 Ry

     iteration # 27     ecut=   150.00 Ry     beta= 0.70
     Davidson diagonalization with overlap
     ethr =  3.67E-10,  avg # of iterations =  3.2

     negative rho (up, down):  1.531E-04 0.000E+00

     total cpu time spent up to now is     2597.9 secs

     total energy              =   -1405.77876182 Ry
     estimated scf accuracy    <       0.00000008 Ry

     iteration # 28     ecut=   150.00 Ry     beta= 0.70
     Davidson diagonalization with overlap
     c_bands:  1 eigenvalues not converged
     ethr =  1.20E-10,  avg # of iterations =  6.0

     negative rho (up, down):  1.531E-04 0.000E+00

     total cpu time spent up to now is     2676.7 secs

     total energy              =   -1405.77876183 Ry
     estimated scf accuracy    <          6.8E-09 Ry

     iteration # 29     ecut=   150.00 Ry     beta= 0.70
     Davidson diagonalization with overlap
     ethr =  1.06E-11,  avg # of iterations =  8.2

     negative rho (up, down):  1.531E-04 0.000E+00

     total cpu time spent up to now is     2777.4 secs

     total energy              =   -1405.77876184 Ry
     estimated scf accuracy    <       0.00000004 Ry

     iteration # 30     ecut=   150.00 Ry     beta= 0.70
     Davidson diagonalization with overlap
     ethr =  1.06E-11,  avg # of iterations =  2.2

     negative rho (up, down):  1.531E-04 0.000E+00

     total cpu time spent up to now is     2847.7 secs

     total energy              =   -1405.77876184 Ry
     estimated scf accuracy    <       0.00000005 Ry

     iteration # 31     ecut=   150.00 Ry     beta= 0.70
     Davidson diagonalization with overlap
     ethr =  1.06E-11,  avg # of iterations =  5.8

     negative rho (up, down):  1.531E-04 0.000E+00

     total cpu time spent up to now is     2930.6 secs

     total energy              =   -1405.77876186 Ry
     estimated scf accuracy    <       0.00000009 Ry

     iteration # 32     ecut=   150.00 Ry     beta= 0.70
     Davidson diagonalization with overlap
     c_bands:  2 eigenvalues not converged
     c_bands:  1 eigenvalues not converged
     c_bands:  2 eigenvalues not converged
     ethr =  1.06E-11,  avg # of iterations = 13.1

     negative rho (up, down):  1.531E-04 0.000E+00

     total cpu time spent up to now is     3061.7 secs

     total energy              =   -1405.77876187 Ry
     estimated scf accuracy    <       0.00000094 Ry

     iteration # 33     ecut=   150.00 Ry     beta= 0.70
     Davidson diagonalization with overlap
     c_bands:  1 eigenvalues not converged
     ethr =  1.06E-11,  avg # of iterations =  7.1

     negative rho (up, down):  1.531E-04 0.000E+00

     total cpu time spent up to now is     3153.3 secs

     total energy              =   -1405.77876185 Ry
     estimated scf accuracy    <       0.00000066 Ry

     iteration # 34     ecut=   150.00 Ry     beta= 0.70
     Davidson diagonalization with overlap
     ethr =  1.06E-11,  avg # of iterations =  7.8

     negative rho (up, down):  1.531E-04 0.000E+00

     total cpu time spent up to now is     3246.7 secs

     total energy              =   -1405.77876184 Ry
     estimated scf accuracy    <       0.00000038 Ry

     iteration # 35     ecut=   150.00 Ry     beta= 0.70
     Davidson diagonalization with overlap
     c_bands:  1 eigenvalues not converged
     ethr =  1.06E-11,  avg # of iterations =  7.5

     negative rho (up, down):  1.531E-04 0.000E+00

     total cpu time spent up to now is     3342.1 secs

     total energy              =   -1405.77876184 Ry
     estimated scf accuracy    <       0.00000018 Ry

     iteration # 36     ecut=   150.00 Ry     beta= 0.70
     Davidson diagonalization with overlap
     c_bands:  1 eigenvalues not converged
     ethr =  1.06E-11,  avg # of iterations =  1.8

     negative rho (up, down):  1.531E-04 0.000E+00

     total cpu time spent up to now is     3410.3 secs

     total energy              =   -1405.77876184 Ry
     estimated scf accuracy    <       0.00000017 Ry

     iteration # 37     ecut=   150.00 Ry     beta= 0.70
     Davidson diagonalization with overlap
     ethr =  1.06E-11,  avg # of iterations =  1.5

     negative rho (up, down):  1.531E-04 0.000E+00

     total cpu time spent up to now is     3479.1 secs

     total energy              =   -1405.77876181 Ry
     estimated scf accuracy    <       0.00000018 Ry

     iteration # 38     ecut=   150.00 Ry     beta= 0.70
     Davidson diagonalization with overlap
     c_bands:  2 eigenvalues not converged
     c_bands:  1 eigenvalues not converged
     c_bands:  1 eigenvalues not converged
     c_bands:  1 eigenvalues not converged
     ethr =  1.06E-11,  avg # of iterations = 13.1

     negative rho (up, down):  1.531E-04 0.000E+00

     total cpu time spent up to now is     3611.2 secs

     total energy              =   -1405.77876183 Ry
     estimated scf accuracy    <       0.00000010 Ry

     iteration # 39     ecut=   150.00 Ry     beta= 0.70
     Davidson diagonalization with overlap
     c_bands:  1 eigenvalues not converged
     ethr =  1.06E-11,  avg # of iterations =  7.0

     negative rho (up, down):  1.531E-04 0.000E+00

     total cpu time spent up to now is     3701.8 secs

     total energy              =   -1405.77876183 Ry
     estimated scf accuracy    <       0.00000003 Ry

     iteration # 40     ecut=   150.00 Ry     beta= 0.70
     Davidson diagonalization with overlap
     ethr =  1.06E-11,  avg # of iterations =  7.1

     negative rho (up, down):  1.531E-04 0.000E+00

     total cpu time spent up to now is     3792.8 secs

     total energy              =   -1405.77876183 Ry
     estimated scf accuracy    <          6.0E-10 Ry

     iteration # 41     ecut=   150.00 Ry     beta= 0.70
     Davidson diagonalization with overlap
     ethr =  9.37E-13,  avg # of iterations =  7.3

     negative rho (up, down):  1.531E-04 0.000E+00

     total cpu time spent up to now is     3897.4 secs

     total energy              =   -1405.77876183 Ry
     estimated scf accuracy    <          1.1E-09 Ry

     iteration # 42     ecut=   150.00 Ry     beta= 0.70
     Davidson diagonalization with overlap
     ethr =  9.37E-13,  avg # of iterations =  1.0

     negative rho (up, down):  1.531E-04 0.000E+00

     total cpu time spent up to now is     3962.4 secs

     total energy              =   -1405.77876183 Ry
     estimated scf accuracy    <          1.0E-09 Ry

     iteration # 43     ecut=   150.00 Ry     beta= 0.70
     Davidson diagonalization with overlap
     ethr =  9.37E-13,  avg # of iterations =  2.8

     negative rho (up, down):  1.531E-04 0.000E+00

     total cpu time spent up to now is     4035.8 secs

     total energy              =   -1405.77876183 Ry
     estimated scf accuracy    <          4.2E-10 Ry

     iteration # 44     ecut=   150.00 Ry     beta= 0.70
     Davidson diagonalization with overlap
     ethr =  6.53E-13,  avg # of iterations =  2.3

     negative rho (up, down):  1.531E-04 0.000E+00

     total cpu time spent up to now is     4105.3 secs

     total energy              =   -1405.77876183 Ry
     estimated scf accuracy    <          2.2E-10 Ry

     iteration # 45     ecut=   150.00 Ry     beta= 0.70
     Davidson diagonalization with overlap
     ethr =  3.45E-13,  avg # of iterations =  9.2

     negative rho (up, down):  1.531E-04 0.000E+00

     total cpu time spent up to now is     4209.2 secs

     total energy              =   -1405.77876183 Ry
     estimated scf accuracy    <          2.4E-09 Ry

     iteration # 46     ecut=   150.00 Ry     beta= 0.70
     Davidson diagonalization with overlap
     c_bands:  1 eigenvalues not converged
     ethr =  3.45E-13,  avg # of iterations =  7.9

     negative rho (up, down):  1.531E-04 0.000E+00

     total cpu time spent up to now is     4294.3 secs

     total energy              =   -1405.77876183 Ry
     estimated scf accuracy    <          5.9E-10 Ry

     iteration # 47     ecut=   150.00 Ry     beta= 0.70
     Davidson diagonalization with overlap
     ethr =  3.45E-13,  avg # of iterations =  8.0

     negative rho (up, down):  1.531E-04 0.000E+00

     total cpu time spent up to now is     4387.1 secs

     total energy              =   -1405.77876183 Ry
     estimated scf accuracy    <          1.2E-11 Ry

     iteration # 48     ecut=   150.00 Ry     beta= 0.70
     Davidson diagonalization with overlap
     c_bands:  1 eigenvalues not converged
     ethr =  1.00E-13,  avg # of iterations =  3.9

     negative rho (up, down):  1.531E-04 0.000E+00

     total cpu time spent up to now is     4462.8 secs

     total energy              =   -1405.77876183 Ry
     estimated scf accuracy    <          4.8E-11 Ry

     iteration # 49     ecut=   150.00 Ry     beta= 0.70
     Davidson diagonalization with overlap
     ethr =  1.00E-13,  avg # of iterations =  1.3

     negative rho (up, down):  1.531E-04 0.000E+00

     total cpu time spent up to now is     4530.4 secs

     total energy              =   -1405.77876183 Ry
     estimated scf accuracy    <          4.6E-11 Ry

     iteration # 50     ecut=   150.00 Ry     beta= 0.70
     Davidson diagonalization with overlap
     ethr =  1.00E-13,  avg # of iterations =  3.4

     negative rho (up, down):  1.531E-04 0.000E+00

     total cpu time spent up to now is     4604.4 secs

     total energy              =   -1405.77876183 Ry
     estimated scf accuracy    <          3.6E-12 Ry

     iteration # 51     ecut=   150.00 Ry     beta= 0.70
     Davidson diagonalization with overlap
     ethr =  1.00E-13,  avg # of iterations =  1.1

     negative rho (up, down):  1.531E-04 0.000E+00

     total cpu time spent up to now is     4670.9 secs

     total energy              =   -1405.77876183 Ry
     estimated scf accuracy    <          3.1E-12 Ry

     iteration # 52     ecut=   150.00 Ry     beta= 0.70
     Davidson diagonalization with overlap
     ethr =  1.00E-13,  avg # of iterations =  1.8

     negative rho (up, down):  1.531E-04 0.000E+00

     total cpu time spent up to now is     4739.0 secs

     End of self-consistent calculation

     Number of k-points >= 100: set verbosity='high' to print the bands.

     highest occupied level (ev):    -0.7168

!    total energy              =   -1405.77876183 Ry
     estimated scf accuracy    <          6.3E-13 Ry

     The total energy is the sum of the following terms:
     one-electron contribution =  -12291.57375307 Ry
     hartree contribution      =    6173.26548801 Ry
     xc contribution           =    -145.73907113 Ry
     ewald contribution        =    4858.26857436 Ry

     convergence has been achieved in  52 iterations

     negative rho (up, down):  1.531E-04 0.000E+00

     Forces acting on atoms (cartesian axes, Ry/au):

     atom    1 type  2   force =     0.01058482    0.01024550   -0.00292885
     atom    2 type  1   force =    -0.00779179   -0.00394060    0.10006084
     atom    3 type  1   force =     0.00082577   -0.00519077   -0.02175423
     atom    4 type  3   force =    -0.00361880   -0.00111413   -0.07537775

     Total force =     0.128495     Total SCF correction =     0.000009


     Computing stress (Cartesian axis) and pressure


     negative rho (up, down):  1.531E-04 0.000E+00
          total   stress  (Ry/bohr**3)                   (kbar)     P=      -55.61
  -0.00039362   0.00000064   0.00000183          -57.90        0.09        0.27
   0.00000064  -0.00039141  -0.00000491            0.09      -57.58       -0.72
   0.00000183  -0.00000491  -0.00034897            0.27       -0.72      -51.34


     Writing output data file /scratch/as3359/Mos2_ct_lat/Ta2CO.save/
 
     init_run     :     81.34s CPU     44.13s WALL (       1 calls)
     electrons    :   9231.90s CPU   4694.53s WALL (       1 calls)
     forces       :     23.32s CPU     11.94s WALL (       1 calls)
     stress       :    106.93s CPU     54.66s WALL (       1 calls)

     Called by init_run:
     wfcinit      :     67.69s CPU     35.03s WALL (       1 calls)
     potinit      :      3.64s CPU      1.84s WALL (       1 calls)
     hinit0       :      7.76s CPU      5.69s WALL (       1 calls)

     Called by electrons:
     c_bands      :   7742.78s CPU   3915.34s WALL (      52 calls)
     sum_band     :   1367.70s CPU    704.88s WALL (      52 calls)
     v_of_rho     :     17.32s CPU      9.38s WALL (      53 calls)
     newd         :     97.68s CPU     61.52s WALL (      53 calls)
     mix_rho      :      7.30s CPU      3.86s WALL (      52 calls)

     Called by c_bands:
     init_us_2    :    182.17s CPU     91.15s WALL (   12091 calls)
     cegterg      :   7208.40s CPU   3646.60s WALL (    5876 calls)

     Called by *egterg:
     cdiaghg      :     72.17s CPU     36.94s WALL (   40468 calls)
     h_psi        :   5696.08s CPU   2888.45s WALL (   40581 calls)
     s_psi        :    347.20s CPU    173.81s WALL (   40581 calls)
     g_psi        :     28.26s CPU     14.19s WALL (   34592 calls)

     Called by h_psi:
     h_psi:calbec :    267.99s CPU    134.52s WALL (   40581 calls)
     vloc_psi     :   5032.59s CPU   2555.45s WALL (   40581 calls)
     add_vuspsi   :    358.99s CPU    179.76s WALL (   40581 calls)

     General routines
     calbec       :    343.14s CPU    172.32s WALL (   47022 calls)
     fft          :      8.69s CPU      4.43s WALL (     608 calls)
     ffts         :      0.63s CPU      0.32s WALL (      52 calls)
     fftw         :   5049.69s CPU   2568.56s WALL ( 1199168 calls)
 
     Parallel routines
 
     PWSCF        :      2h37m CPU      1h20m WALL

 
   This run was terminated on:  12:20:34  14Apr2022            

=------------------------------------------------------------------------------=
   JOB DONE.
=------------------------------------------------------------------------------=
