
     Program PWSCF v.6.8 starts on 14Apr2022 at 12:20:35 

     This program is part of the open-source Quantum ESPRESSO suite
     for quantum simulation of materials; please cite
         "P. Giannozzi et al., J. Phys.:Condens. Matter 21 395502 (2009);
         "P. Giannozzi et al., J. Phys.:Condens. Matter 29 465901 (2017);
         "P. Giannozzi et al., J. Chem. Phys. 152 154105 (2020);
          URL http://www.quantum-espresso.org", 
     in publications or presentations arising from this work. More details at
     http://www.quantum-espresso.org/quote

     Parallel version (MPI & OpenMP), running on       4 processor cores
     Number of MPI processes:                 2
     Threads/MPI process:                     2

     MPI processes distributed on     1 nodes
     R & G space division:  proc/nbgrp/npool/nimage =       2
     124965 MiB available memory on the printing compute node when the environment starts
 
     Reading input from Ta2CO.scf.6.000.in
Warning: card  &CELL ignored
Warning: card     CELL_DYNAMICS='BFGS' ignored
Warning: card  / ignored

     Current dimensions of program PWSCF are:
     Max number of different atomic species (ntypx) = 10
     Max number of k-points (npk) =  40000
     Max angular momentum in pseudopotentials (lmaxx) =  4
     Message from routine iosys:
     restart disabled: needed files not found
     file Ta.pbesol-spfn-rrkjus_psl.1.0.0.UPF: wavefunction(s)  5S 5P renormalized

     Subspace diagonalization in iterative solution of the eigenvalue problem:
     a serial algorithm will be used

 
     Parallelization info
     --------------------
     sticks:   dense  smooth     PW     G-vecs:    dense   smooth      PW
     Min         777     777    225               242841   242841   37982
     Max         778     778    226               242848   242848   37985
     Sum        1555    1555    451               485689   485689   75967
 
     Using Slab Decomposition
 


     bravais-lattice index     =            0
     lattice parameter (alat)  =       6.0000  a.u.
     unit-cell volume          =    1957.2152 (a.u.)^3
     number of atoms/cell      =            4
     number of atomic types    =            3
     number of electrons       =        64.00
     number of Kohn-Sham states=           32
     kinetic-energy cutoff     =     150.0000  Ry
     charge density cutoff     =     600.0000  Ry
     scf convergence threshold =      1.0E-12
     mixing beta               =       0.7000
     number of iterations used =            8  plain     mixing
     Exchange-correlation= PBESOL
                           (   1   4  10   8   0   0   0)

     celldm(1)=   6.000000  celldm(2)=   0.000000  celldm(3)=   0.000000
     celldm(4)=   0.000000  celldm(5)=   0.000000  celldm(6)=   0.000000

     crystal axes: (cart. coord. in units of alat)
               a(1) = (   1.023061   0.000071   0.000000 )  
               a(2) = (  -0.511470   0.885658   0.000000 )  
               a(3) = (   0.000000   0.000000  10.000000 )  

     reciprocal axes: (cart. coord. in units 2 pi/alat)
               b(1) = (  0.977420  0.564462  0.000000 )  
               b(2) = ( -0.000078  1.129060  0.000000 )  
               b(3) = (  0.000000  0.000000  0.100000 )  


     PseudoPot. # 1 for Ta read from file:
     /shared/home/as3359/pseudo/Ta.pbesol-spfn-rrkjus_psl.1.0.0.UPF
     MD5 check sum: f099565ffaca9b150a52e9412a28e20b
     Pseudo is Ultrasoft + core correction, Zval = 27.0
     Generated using &quot;atomic&quot; code by A. Dal Corso  v.6.3
     Using radial grid of 1273 points,  8 beta functions with: 
                l(1) =   0
                l(2) =   0
                l(3) =   1
                l(4) =   1
                l(5) =   2
                l(6) =   2
                l(7) =   3
                l(8) =   3
     Q(r) pseudized with 0 coefficients 


     PseudoPot. # 2 for C  read from file:
     /shared/home/as3359/pseudo/C.pbesol-n-rrkjus_psl.1.0.0.UPF
     MD5 check sum: 05995be603a8a7c99da3dc4413f31573
     Pseudo is Ultrasoft + core correction, Zval =  4.0
     Generated using &quot;atomic&quot; code by A. Dal Corso  v.6.3MaX
     Using radial grid of 1073 points,  4 beta functions with: 
                l(1) =   0
                l(2) =   0
                l(3) =   1
                l(4) =   1
     Q(r) pseudized with 0 coefficients 


     PseudoPot. # 3 for O  read from file:
     /shared/home/as3359/pseudo/O.pbesol-n-rrkjus_psl.1.0.0.UPF
     MD5 check sum: dd9bad2534826f832ffc9296591fc5de
     Pseudo is Ultrasoft + core correction, Zval =  6.0
     Generated using &quot;atomic&quot; code by A. Dal Corso  v.6.3MaX
     Using radial grid of 1095 points,  4 beta functions with: 
                l(1) =   0
                l(2) =   0
                l(3) =   1
                l(4) =   1
     Q(r) pseudized with 0 coefficients 


     atomic species   valence    mass     pseudopotential
        Ta            27.00   180.94788     Ta( 1.00)
        C              4.00    12.01070     C ( 1.00)
        O              6.00    15.99940     O ( 1.00)

     No symmetry found



   Cartesian axes

     site n.     atom                  positions (alat units)
         1           C   tau(   1) = (   0.0000000   0.0000000   0.0000000  )
         2           Ta  tau(   2) = (   0.5237441   0.2989654  -0.4007024  )
         3           Ta  tau(   3) = (  -0.0010323   0.6027030   0.4306046  )
         4           O   tau(   4) = (   0.5210222   0.3011869   0.8013113  )

     number of k points=   113

     Number of k-points >= 100: set verbosity='high' to print them.

     Dense  grid:   485689 G-vectors     FFT dimensions: (  48,  48, 480)

     Estimated max dynamical RAM per process >       3.96 GB

     Estimated total dynamical RAM >       7.91 GB
     Cannot read rho : file not found

     Initial potential from superposition of free atoms

     starting charge   63.99842, renormalised to   64.00000

     negative rho (up, down):  1.284E-04 0.000E+00
     Message from routine qexsd_readschema :
     xml data file /scratch/as3359/Mos2_ct_lat/Ta2CO.save/data-file-schema.xml not fo
     Cannot read wfcs: file not found
     Starting wfcs are   42 randomized atomic wfcs

     total cpu time spent up to now is       46.2 secs

     Self-consistent Calculation

     iteration #  1     ecut=   150.00 Ry     beta= 0.70
     Davidson diagonalization with overlap
     c_bands:  1 eigenvalues not converged
     c_bands:  1 eigenvalues not converged
     c_bands:  1 eigenvalues not converged
     c_bands:  1 eigenvalues not converged
     c_bands:  1 eigenvalues not converged
     c_bands:  1 eigenvalues not converged
     c_bands:  1 eigenvalues not converged
     ethr =  1.00E-05,  avg # of iterations = 12.2

     negative rho (up, down):  1.456E-04 0.000E+00

     total cpu time spent up to now is      237.0 secs

     total energy              =   -1405.02397741 Ry
     estimated scf accuracy    <       1.29787947 Ry

     iteration #  2     ecut=   150.00 Ry     beta= 0.70
     Davidson diagonalization with overlap
     ethr =  2.03E-03,  avg # of iterations =  9.9

     negative rho (up, down):  1.311E-04 0.000E+00

     total cpu time spent up to now is      362.5 secs

     total energy              =   -1403.58145469 Ry
     estimated scf accuracy    <      12.88842395 Ry

     iteration #  3     ecut=   150.00 Ry     beta= 0.70
     Davidson diagonalization with overlap
     ethr =  2.03E-03,  avg # of iterations = 11.4

     negative rho (up, down):  1.202E-04 0.000E+00

     total cpu time spent up to now is      494.0 secs

     total energy              =   -1404.09240612 Ry
     estimated scf accuracy    <      40.51055355 Ry

     iteration #  4     ecut=   150.00 Ry     beta= 0.70
     Davidson diagonalization with overlap
     ethr =  2.03E-03,  avg # of iterations =  9.2

     negative rho (up, down):  1.215E-04 0.000E+00

     total cpu time spent up to now is      602.1 secs

     total energy              =   -1405.70559437 Ry
     estimated scf accuracy    <       0.29570108 Ry

     iteration #  5     ecut=   150.00 Ry     beta= 0.70
     Davidson diagonalization with overlap
     ethr =  4.62E-04,  avg # of iterations =  5.2

     negative rho (up, down):  1.315E-04 0.000E+00

     total cpu time spent up to now is      679.4 secs

     total energy              =   -1405.71356389 Ry
     estimated scf accuracy    <       0.13354602 Ry

     iteration #  6     ecut=   150.00 Ry     beta= 0.70
     Davidson diagonalization with overlap
     ethr =  2.09E-04,  avg # of iterations =  5.3

     negative rho (up, down):  1.443E-04 0.000E+00

     total cpu time spent up to now is      762.5 secs

     total energy              =   -1405.72586575 Ry
     estimated scf accuracy    <       0.03436619 Ry

     iteration #  7     ecut=   150.00 Ry     beta= 0.70
     Davidson diagonalization with overlap
     ethr =  5.37E-05,  avg # of iterations =  6.6

     negative rho (up, down):  1.509E-04 0.000E+00

     total cpu time spent up to now is      858.1 secs

     total energy              =   -1405.73546442 Ry
     estimated scf accuracy    <       0.00862027 Ry

     iteration #  8     ecut=   150.00 Ry     beta= 0.70
     Davidson diagonalization with overlap
     ethr =  1.35E-05,  avg # of iterations =  6.2

     negative rho (up, down):  1.577E-04 0.000E+00

     total cpu time spent up to now is      959.6 secs

     total energy              =   -1405.73763691 Ry
     estimated scf accuracy    <       0.01692952 Ry

     iteration #  9     ecut=   150.00 Ry     beta= 0.70
     Davidson diagonalization with overlap
     ethr =  1.35E-05,  avg # of iterations =  2.0

     negative rho (up, down):  1.531E-04 0.000E+00

     total cpu time spent up to now is     1029.9 secs

     total energy              =   -1405.73665412 Ry
     estimated scf accuracy    <       0.01024471 Ry

     iteration # 10     ecut=   150.00 Ry     beta= 0.70
     Davidson diagonalization with overlap
     ethr =  1.35E-05,  avg # of iterations =  4.1

     negative rho (up, down):  1.553E-04 0.000E+00

     total cpu time spent up to now is     1108.6 secs

     total energy              =   -1405.73740744 Ry
     estimated scf accuracy    <       0.00195272 Ry

     iteration # 11     ecut=   150.00 Ry     beta= 0.70
     Davidson diagonalization with overlap
     ethr =  3.05E-06,  avg # of iterations =  7.3

     negative rho (up, down):  1.562E-04 0.000E+00

     total cpu time spent up to now is     1202.1 secs

     total energy              =   -1405.73768911 Ry
     estimated scf accuracy    <       0.00125088 Ry

     iteration # 12     ecut=   150.00 Ry     beta= 0.70
     Davidson diagonalization with overlap
     c_bands:  1 eigenvalues not converged
     ethr =  1.95E-06,  avg # of iterations =  2.2

     negative rho (up, down):  1.564E-04 0.000E+00

     total cpu time spent up to now is     1273.3 secs

     total energy              =   -1405.73758626 Ry
     estimated scf accuracy    <       0.00070733 Ry

     iteration # 13     ecut=   150.00 Ry     beta= 0.70
     Davidson diagonalization with overlap
     ethr =  1.11E-06,  avg # of iterations =  6.4

     negative rho (up, down):  1.571E-04 0.000E+00

     total cpu time spent up to now is     1362.6 secs

     total energy              =   -1405.73773384 Ry
     estimated scf accuracy    <       0.00003507 Ry

     iteration # 14     ecut=   150.00 Ry     beta= 0.70
     Davidson diagonalization with overlap
     c_bands:  1 eigenvalues not converged
     ethr =  5.48E-08,  avg # of iterations =  7.8

     negative rho (up, down):  1.572E-04 0.000E+00

     total cpu time spent up to now is     1463.3 secs

     total energy              =   -1405.73773222 Ry
     estimated scf accuracy    <       0.00005686 Ry

     iteration # 15     ecut=   150.00 Ry     beta= 0.70
     Davidson diagonalization with overlap
     c_bands:  1 eigenvalues not converged
     ethr =  5.48E-08,  avg # of iterations =  6.6

     negative rho (up, down):  1.572E-04 0.000E+00

     total cpu time spent up to now is     1564.0 secs

     total energy              =   -1405.73774643 Ry
     estimated scf accuracy    <       0.00002539 Ry

     iteration # 16     ecut=   150.00 Ry     beta= 0.70
     Davidson diagonalization with overlap
     ethr =  3.97E-08,  avg # of iterations =  1.0

     negative rho (up, down):  1.573E-04 0.000E+00

     total cpu time spent up to now is     1628.1 secs

     total energy              =   -1405.73774433 Ry
     estimated scf accuracy    <       0.00002086 Ry

     iteration # 17     ecut=   150.00 Ry     beta= 0.70
     Davidson diagonalization with overlap
     ethr =  3.26E-08,  avg # of iterations =  2.6

     negative rho (up, down):  1.573E-04 0.000E+00

     total cpu time spent up to now is     1697.4 secs

     total energy              =   -1405.73774376 Ry
     estimated scf accuracy    <       0.00000657 Ry

     iteration # 18     ecut=   150.00 Ry     beta= 0.70
     Davidson diagonalization with overlap
     ethr =  1.03E-08,  avg # of iterations =  8.2

     negative rho (up, down):  1.573E-04 0.000E+00

     total cpu time spent up to now is     1791.8 secs

     total energy              =   -1405.73774536 Ry
     estimated scf accuracy    <       0.00000872 Ry

     iteration # 19     ecut=   150.00 Ry     beta= 0.70
     Davidson diagonalization with overlap
     ethr =  1.03E-08,  avg # of iterations =  1.6

     negative rho (up, down):  1.573E-04 0.000E+00

     total cpu time spent up to now is     1857.6 secs

     total energy              =   -1405.73774481 Ry
     estimated scf accuracy    <       0.00000614 Ry

     iteration # 20     ecut=   150.00 Ry     beta= 0.70
     Davidson diagonalization with overlap
     ethr =  9.60E-09,  avg # of iterations =  3.9

     negative rho (up, down):  1.573E-04 0.000E+00

     total cpu time spent up to now is     1930.7 secs

     total energy              =   -1405.73774502 Ry
     estimated scf accuracy    <       0.00000104 Ry

     iteration # 21     ecut=   150.00 Ry     beta= 0.70
     Davidson diagonalization with overlap
     ethr =  1.63E-09,  avg # of iterations =  9.2

     negative rho (up, down):  1.573E-04 0.000E+00

     total cpu time spent up to now is     2027.6 secs

     total energy              =   -1405.73774528 Ry
     estimated scf accuracy    <       0.00000487 Ry

     iteration # 22     ecut=   150.00 Ry     beta= 0.70
     Davidson diagonalization with overlap
     ethr =  1.63E-09,  avg # of iterations =  6.7

     negative rho (up, down):  1.573E-04 0.000E+00

     total cpu time spent up to now is     2108.9 secs

     total energy              =   -1405.73774533 Ry
     estimated scf accuracy    <       0.00000073 Ry

     iteration # 23     ecut=   150.00 Ry     beta= 0.70
     Davidson diagonalization with overlap
     ethr =  1.14E-09,  avg # of iterations =  6.5

     negative rho (up, down):  1.573E-04 0.000E+00

     total cpu time spent up to now is     2190.2 secs

     total energy              =   -1405.73774542 Ry
     estimated scf accuracy    <       0.00000001 Ry

     iteration # 24     ecut=   150.00 Ry     beta= 0.70
     Davidson diagonalization with overlap
     c_bands:  1 eigenvalues not converged
     c_bands:  2 eigenvalues not converged
     c_bands:  1 eigenvalues not converged
     c_bands:  1 eigenvalues not converged
     c_bands:  1 eigenvalues not converged
     ethr =  2.02E-11,  avg # of iterations = 13.0

     negative rho (up, down):  1.573E-04 0.000E+00

     total cpu time spent up to now is     2314.5 secs

     total energy              =   -1405.73774544 Ry
     estimated scf accuracy    <       0.00000031 Ry

     iteration # 25     ecut=   150.00 Ry     beta= 0.70
     Davidson diagonalization with overlap
     ethr =  2.02E-11,  avg # of iterations =  8.4

     negative rho (up, down):  1.573E-04 0.000E+00

     total cpu time spent up to now is     2406.4 secs

     total energy              =   -1405.73774544 Ry
     estimated scf accuracy    <       0.00000006 Ry

     iteration # 26     ecut=   150.00 Ry     beta= 0.70
     Davidson diagonalization with overlap
     c_bands:  1 eigenvalues not converged
     ethr =  2.02E-11,  avg # of iterations =  5.4

     negative rho (up, down):  1.573E-04 0.000E+00

     total cpu time spent up to now is     2486.8 secs

     total energy              =   -1405.73774543 Ry
     estimated scf accuracy    <       0.00000002 Ry

     iteration # 27     ecut=   150.00 Ry     beta= 0.70
     Davidson diagonalization with overlap
     c_bands:  1 eigenvalues not converged
     ethr =  2.02E-11,  avg # of iterations = 12.2

     negative rho (up, down):  1.573E-04 0.000E+00

     total cpu time spent up to now is     2605.9 secs

     total energy              =   -1405.73774543 Ry
     estimated scf accuracy    <       0.00000028 Ry

     iteration # 28     ecut=   150.00 Ry     beta= 0.70
     Davidson diagonalization with overlap
     c_bands:  1 eigenvalues not converged
     ethr =  2.02E-11,  avg # of iterations =  8.7

     negative rho (up, down):  1.573E-04 0.000E+00

     total cpu time spent up to now is     2704.1 secs

     total energy              =   -1405.73774544 Ry
     estimated scf accuracy    <       0.00000001 Ry

     iteration # 29     ecut=   150.00 Ry     beta= 0.70
     Davidson diagonalization with overlap
     ethr =  1.92E-11,  avg # of iterations =  1.1

     negative rho (up, down):  1.573E-04 0.000E+00

     total cpu time spent up to now is     2767.3 secs

     total energy              =   -1405.73774544 Ry
     estimated scf accuracy    <          9.5E-09 Ry

     iteration # 30     ecut=   150.00 Ry     beta= 0.70
     Davidson diagonalization with overlap
     ethr =  1.48E-11,  avg # of iterations =  2.4

     negative rho (up, down):  1.573E-04 0.000E+00

     total cpu time spent up to now is     2836.7 secs

     total energy              =   -1405.73774544 Ry
     estimated scf accuracy    <          3.8E-09 Ry

     iteration # 31     ecut=   150.00 Ry     beta= 0.70
     Davidson diagonalization with overlap
     ethr =  5.88E-12,  avg # of iterations =  8.2

     negative rho (up, down):  1.573E-04 0.000E+00

     total cpu time spent up to now is     2933.6 secs

     total energy              =   -1405.73774544 Ry
     estimated scf accuracy    <          5.2E-09 Ry

     iteration # 32     ecut=   150.00 Ry     beta= 0.70
     Davidson diagonalization with overlap
     ethr =  5.88E-12,  avg # of iterations =  1.1

     negative rho (up, down):  1.573E-04 0.000E+00

     total cpu time spent up to now is     2997.5 secs

     total energy              =   -1405.73774544 Ry
     estimated scf accuracy    <          4.0E-09 Ry

     iteration # 33     ecut=   150.00 Ry     beta= 0.70
     Davidson diagonalization with overlap
     ethr =  5.88E-12,  avg # of iterations =  1.2

     negative rho (up, down):  1.573E-04 0.000E+00

     total cpu time spent up to now is     3060.5 secs

     total energy              =   -1405.73774544 Ry
     estimated scf accuracy    <          3.1E-09 Ry

     iteration # 34     ecut=   150.00 Ry     beta= 0.70
     Davidson diagonalization with overlap
     ethr =  4.77E-12,  avg # of iterations =  2.0

     negative rho (up, down):  1.573E-04 0.000E+00

     total cpu time spent up to now is     3130.0 secs

     total energy              =   -1405.73774544 Ry
     estimated scf accuracy    <          2.0E-09 Ry

     iteration # 35     ecut=   150.00 Ry     beta= 0.70
     Davidson diagonalization with overlap
     c_bands:  1 eigenvalues not converged
     ethr =  3.14E-12,  avg # of iterations =  5.8

     negative rho (up, down):  1.573E-04 0.000E+00

     total cpu time spent up to now is     3209.2 secs

     total energy              =   -1405.73774544 Ry
     estimated scf accuracy    <          6.2E-12 Ry

     iteration # 36     ecut=   150.00 Ry     beta= 0.70
     Davidson diagonalization with overlap
     ethr =  1.00E-13,  avg # of iterations = 10.7

     negative rho (up, down):  1.573E-04 0.000E+00

     total cpu time spent up to now is     3327.5 secs

     total energy              =   -1405.73774544 Ry
     estimated scf accuracy    <          9.0E-10 Ry

     iteration # 37     ecut=   150.00 Ry     beta= 0.70
     Davidson diagonalization with overlap
     ethr =  1.00E-13,  avg # of iterations =  8.3

     negative rho (up, down):  1.573E-04 0.000E+00

     total cpu time spent up to now is     3419.7 secs

     total energy              =   -1405.73774544 Ry
     estimated scf accuracy    <          7.9E-11 Ry

     iteration # 38     ecut=   150.00 Ry     beta= 0.70
     Davidson diagonalization with overlap
     ethr =  1.00E-13,  avg # of iterations =  2.0

     negative rho (up, down):  1.573E-04 0.000E+00

     total cpu time spent up to now is     3489.3 secs

     total energy              =   -1405.73774544 Ry
     estimated scf accuracy    <          3.8E-11 Ry

     iteration # 39     ecut=   150.00 Ry     beta= 0.70
     Davidson diagonalization with overlap
     c_bands:  1 eigenvalues not converged
     ethr =  1.00E-13,  avg # of iterations =  4.6

     negative rho (up, down):  1.573E-04 0.000E+00

     total cpu time spent up to now is     3565.9 secs

     total energy              =   -1405.73774544 Ry
     estimated scf accuracy    <          1.6E-12 Ry

     iteration # 40     ecut=   150.00 Ry     beta= 0.70
     Davidson diagonalization with overlap
     ethr =  1.00E-13,  avg # of iterations =  1.4

     negative rho (up, down):  1.573E-04 0.000E+00

     total cpu time spent up to now is     3632.2 secs

     total energy              =   -1405.73774544 Ry
     estimated scf accuracy    <          2.9E-12 Ry

     iteration # 41     ecut=   150.00 Ry     beta= 0.70
     Davidson diagonalization with overlap
     ethr =  1.00E-13,  avg # of iterations =  1.1

     negative rho (up, down):  1.573E-04 0.000E+00

     total cpu time spent up to now is     3696.0 secs

     total energy              =   -1405.73774544 Ry
     estimated scf accuracy    <          4.5E-12 Ry

     iteration # 42     ecut=   150.00 Ry     beta= 0.70
     Davidson diagonalization with overlap
     ethr =  1.00E-13,  avg # of iterations =  1.2

     negative rho (up, down):  1.573E-04 0.000E+00

     total cpu time spent up to now is     3761.4 secs

     total energy              =   -1405.73774544 Ry
     estimated scf accuracy    <          4.4E-12 Ry

     iteration # 43     ecut=   150.00 Ry     beta= 0.70
     Davidson diagonalization with overlap
     ethr =  1.00E-13,  avg # of iterations =  1.2

     negative rho (up, down):  1.573E-04 0.000E+00

     total cpu time spent up to now is     3825.8 secs

     total energy              =   -1405.73774544 Ry
     estimated scf accuracy    <          1.5E-12 Ry

     iteration # 44     ecut=   150.00 Ry     beta= 0.70
     Davidson diagonalization with overlap
     ethr =  1.00E-13,  avg # of iterations =  1.1

     negative rho (up, down):  1.573E-04 0.000E+00

     total cpu time spent up to now is     3891.6 secs

     total energy              =   -1405.73774544 Ry
     estimated scf accuracy    <          2.6E-12 Ry

     iteration # 45     ecut=   150.00 Ry     beta= 0.70
     Davidson diagonalization with overlap
     ethr =  1.00E-13,  avg # of iterations =  1.0

     negative rho (up, down):  1.573E-04 0.000E+00

     total cpu time spent up to now is     3955.9 secs

     total energy              =   -1405.73774544 Ry
     estimated scf accuracy    <          2.2E-12 Ry

     iteration # 46     ecut=   150.00 Ry     beta= 0.70
     Davidson diagonalization with overlap
     c_bands:  1 eigenvalues not converged
     ethr =  1.00E-13,  avg # of iterations =  7.8

     negative rho (up, down):  1.573E-04 0.000E+00

     total cpu time spent up to now is     4060.9 secs

     total energy              =   -1405.73774544 Ry
     estimated scf accuracy    <          1.0E-09 Ry

     iteration # 47     ecut=   150.00 Ry     beta= 0.70
     Davidson diagonalization with overlap
     ethr =  1.00E-13,  avg # of iterations =  7.6

     negative rho (up, down):  1.573E-04 0.000E+00

     total cpu time spent up to now is     4149.6 secs

     total energy              =   -1405.73774544 Ry
     estimated scf accuracy    <          3.2E-10 Ry

     iteration # 48     ecut=   150.00 Ry     beta= 0.70
     Davidson diagonalization with overlap
     ethr =  1.00E-13,  avg # of iterations =  1.4

     negative rho (up, down):  1.573E-04 0.000E+00

     total cpu time spent up to now is     4216.1 secs

     total energy              =   -1405.73774544 Ry
     estimated scf accuracy    <          2.7E-10 Ry

     iteration # 49     ecut=   150.00 Ry     beta= 0.70
     Davidson diagonalization with overlap
     ethr =  1.00E-13,  avg # of iterations =  3.2

     negative rho (up, down):  1.573E-04 0.000E+00

     total cpu time spent up to now is     4289.7 secs

     total energy              =   -1405.73774544 Ry
     estimated scf accuracy    <          1.6E-10 Ry

     iteration # 50     ecut=   150.00 Ry     beta= 0.70
     Davidson diagonalization with overlap
     ethr =  1.00E-13,  avg # of iterations =  1.5

     negative rho (up, down):  1.573E-04 0.000E+00

     total cpu time spent up to now is     4356.2 secs

     total energy              =   -1405.73774544 Ry
     estimated scf accuracy    <          1.5E-10 Ry

     iteration # 51     ecut=   150.00 Ry     beta= 0.70
     Davidson diagonalization with overlap
     ethr =  1.00E-13,  avg # of iterations =  1.4

     negative rho (up, down):  1.573E-04 0.000E+00

     total cpu time spent up to now is     4421.8 secs

     total energy              =   -1405.73774544 Ry
     estimated scf accuracy    <          1.2E-10 Ry

     iteration # 52     ecut=   150.00 Ry     beta= 0.70
     Davidson diagonalization with overlap
     ethr =  1.00E-13,  avg # of iterations =  1.2

     negative rho (up, down):  1.573E-04 0.000E+00

     total cpu time spent up to now is     4487.5 secs

     total energy              =   -1405.73774544 Ry
     estimated scf accuracy    <          1.2E-10 Ry

     iteration # 53     ecut=   150.00 Ry     beta= 0.70
     Davidson diagonalization with overlap
     ethr =  1.00E-13,  avg # of iterations =  2.2

     negative rho (up, down):  1.573E-04 0.000E+00

     total cpu time spent up to now is     4556.5 secs

     total energy              =   -1405.73774544 Ry
     estimated scf accuracy    <          6.4E-11 Ry

     iteration # 54     ecut=   150.00 Ry     beta= 0.70
     Davidson diagonalization with overlap
     ethr =  1.00E-13,  avg # of iterations =  2.3

     negative rho (up, down):  1.573E-04 0.000E+00

     total cpu time spent up to now is     4626.4 secs

     total energy              =   -1405.73774544 Ry
     estimated scf accuracy    <          3.0E-11 Ry

     iteration # 55     ecut=   150.00 Ry     beta= 0.70
     Davidson diagonalization with overlap
     c_bands:  1 eigenvalues not converged
     ethr =  1.00E-13,  avg # of iterations =  7.3

     negative rho (up, down):  1.573E-04 0.000E+00

     total cpu time spent up to now is     4708.7 secs

     total energy              =   -1405.73774544 Ry
     estimated scf accuracy    <          2.3E-11 Ry

     iteration # 56     ecut=   150.00 Ry     beta= 0.70
     Davidson diagonalization with overlap
     ethr =  1.00E-13,  avg # of iterations =  1.2

     negative rho (up, down):  1.573E-04 0.000E+00

     total cpu time spent up to now is     4775.5 secs

     total energy              =   -1405.73774544 Ry
     estimated scf accuracy    <          2.0E-11 Ry

     iteration # 57     ecut=   150.00 Ry     beta= 0.70
     Davidson diagonalization with overlap
     ethr =  1.00E-13,  avg # of iterations =  1.3

     negative rho (up, down):  1.573E-04 0.000E+00

     total cpu time spent up to now is     4840.5 secs

     total energy              =   -1405.73774544 Ry
     estimated scf accuracy    <          1.2E-11 Ry

     iteration # 58     ecut=   150.00 Ry     beta= 0.70
     Davidson diagonalization with overlap
     ethr =  1.00E-13,  avg # of iterations =  1.6

     negative rho (up, down):  1.573E-04 0.000E+00

     total cpu time spent up to now is     4907.5 secs

     total energy              =   -1405.73774544 Ry
     estimated scf accuracy    <          5.2E-12 Ry

     iteration # 59     ecut=   150.00 Ry     beta= 0.70
     Davidson diagonalization with overlap
     ethr =  1.00E-13,  avg # of iterations =  1.2

     negative rho (up, down):  1.573E-04 0.000E+00

     total cpu time spent up to now is     4972.9 secs

     total energy              =   -1405.73774544 Ry
     estimated scf accuracy    <          3.5E-12 Ry

     iteration # 60     ecut=   150.00 Ry     beta= 0.70
     Davidson diagonalization with overlap
     ethr =  1.00E-13,  avg # of iterations =  1.2

     negative rho (up, down):  1.573E-04 0.000E+00

     total cpu time spent up to now is     5038.9 secs

     total energy              =   -1405.73774544 Ry
     estimated scf accuracy    <          1.9E-12 Ry

     iteration # 61     ecut=   150.00 Ry     beta= 0.70
     Davidson diagonalization with overlap
     ethr =  1.00E-13,  avg # of iterations =  1.2

     negative rho (up, down):  1.573E-04 0.000E+00

     total cpu time spent up to now is     5103.4 secs

     End of self-consistent calculation

     Number of k-points >= 100: set verbosity='high' to print the bands.

     highest occupied level (ev):    -0.9897

!    total energy              =   -1405.73774544 Ry
     estimated scf accuracy    <          5.9E-13 Ry

     The total energy is the sum of the following terms:
     one-electron contribution =  -12128.38489497 Ry
     hartree contribution      =    6090.91428618 Ry
     xc contribution           =    -145.56456810 Ry
     ewald contribution        =    4777.29743145 Ry

     convergence has been achieved in  61 iterations

     negative rho (up, down):  1.573E-04 0.000E+00

     Forces acting on atoms (cartesian axes, Ry/au):

     atom    1 type  2   force =     0.00894786    0.00846626   -0.00281725
     atom    2 type  1   force =    -0.00598957   -0.00353058    0.12379260
     atom    3 type  1   force =    -0.00071913   -0.00318497   -0.02630845
     atom    4 type  3   force =    -0.00223916   -0.00175071   -0.09466690

     Total force =     0.158762     Total SCF correction =     0.000010


     Computing stress (Cartesian axis) and pressure


     negative rho (up, down):  1.573E-04 0.000E+00
          total   stress  (Ry/bohr**3)                   (kbar)     P=      -69.23
  -0.00049671   0.00000064   0.00000091          -73.07        0.09        0.13
   0.00000064  -0.00049508  -0.00000416            0.09      -72.83       -0.61
   0.00000091  -0.00000416  -0.00041998            0.13       -0.61      -61.78


     Writing output data file /scratch/as3359/Mos2_ct_lat/Ta2CO.save/
 
     init_run     :     85.45s CPU     45.95s WALL (       1 calls)
     electrons    :   9941.15s CPU   5057.30s WALL (       1 calls)
     forces       :     24.33s CPU     12.46s WALL (       1 calls)
     stress       :    112.87s CPU     57.78s WALL (       1 calls)

     Called by init_run:
     wfcinit      :     71.10s CPU     36.40s WALL (       1 calls)
     potinit      :      3.81s CPU      1.94s WALL (       1 calls)
     hinit0       :      8.20s CPU      5.98s WALL (       1 calls)

     Called by electrons:
     c_bands      :   8274.20s CPU   4182.61s WALL (      61 calls)
     sum_band     :   1520.81s CPU    784.81s WALL (      61 calls)
     v_of_rho     :     20.64s CPU     11.26s WALL (      62 calls)
     newd         :    117.62s CPU     74.38s WALL (      62 calls)
     mix_rho      :      8.69s CPU      4.63s WALL (      61 calls)

     Called by c_bands:
     init_us_2    :    225.25s CPU    112.71s WALL (   14125 calls)
     cegterg      :   7592.13s CPU   3839.53s WALL (    6893 calls)

     Called by *egterg:
     cdiaghg      :     69.56s CPU     35.58s WALL (   39464 calls)
     h_psi        :   5975.50s CPU   3029.00s WALL (   39577 calls)
     s_psi        :    381.67s CPU    191.03s WALL (   39577 calls)
     g_psi        :     36.43s CPU     18.28s WALL (   32571 calls)

     Called by h_psi:
     h_psi:calbec :    282.35s CPU    141.48s WALL (   39577 calls)
     vloc_psi     :   5250.57s CPU   2665.73s WALL (   39577 calls)
     add_vuspsi   :    397.11s CPU    198.81s WALL (   39577 calls)

     General routines
     calbec       :    368.19s CPU    184.51s WALL (   47035 calls)
     fft          :     19.79s CPU     10.14s WALL (     707 calls)
     ffts         :      0.76s CPU      0.39s WALL (      61 calls)
     fftw         :   5300.94s CPU   2695.96s WALL ( 1327308 calls)
 
     Parallel routines
 
     PWSCF        :      2h49m CPU      1h26m WALL

 
   This run was terminated on:  13:46:59  14Apr2022            

=------------------------------------------------------------------------------=
   JOB DONE.
=------------------------------------------------------------------------------=
