
     Program PWSCF v.6.8 starts on 11Apr2022 at 10:44:50 

     This program is part of the open-source Quantum ESPRESSO suite
     for quantum simulation of materials; please cite
         "P. Giannozzi et al., J. Phys.:Condens. Matter 21 395502 (2009);
         "P. Giannozzi et al., J. Phys.:Condens. Matter 29 465901 (2017);
         "P. Giannozzi et al., J. Chem. Phys. 152 154105 (2020);
          URL http://www.quantum-espresso.org", 
     in publications or presentations arising from this work. More details at
     http://www.quantum-espresso.org/quote

     Parallel version (MPI & OpenMP), running on       4 processor cores
     Number of MPI processes:                 2
     Threads/MPI process:                     2

     MPI processes distributed on     1 nodes
     R & G space division:  proc/nbgrp/npool/nimage =       2
     125186 MiB available memory on the printing compute node when the environment starts
 
     Reading input from Ta2CH2.scf.5.500.in
Warning: card  &CELL ignored
Warning: card     CELL_DYNAMICS='BFGS' ignored
Warning: card  / ignored

     Current dimensions of program PWSCF are:
     Max number of different atomic species (ntypx) = 10
     Max number of k-points (npk) =  40000
     Max angular momentum in pseudopotentials (lmaxx) =  4
     file Ta.pbesol-spfn-rrkjus_psl.1.0.0.UPF: wavefunction(s)  5S 5P renormalized

     Subspace diagonalization in iterative solution of the eigenvalue problem:
     a serial algorithm will be used

 
     Parallelization info
     --------------------
     sticks:   dense  smooth     PW     G-vecs:    dense   smooth      PW
     Min         642     642    189               186684   186684   29841
     Max         643     643    190               186753   186753   29874
     Sum        1285    1285    379               373437   373437   59715
 
     Using Slab Decomposition
 


     bravais-lattice index     =            0
     lattice parameter (alat)  =       5.5000  a.u.
     unit-cell volume          =    1507.5541 (a.u.)^3
     number of atoms/cell      =            4
     number of atomic types    =            3
     number of electrons       =        64.00
     number of Kohn-Sham states=           32
     kinetic-energy cutoff     =     150.0000  Ry
     charge density cutoff     =     600.0000  Ry
     scf convergence threshold =      1.0E-12
     mixing beta               =       0.7000
     number of iterations used =            8  plain     mixing
     Exchange-correlation= PBESOL
                           (   1   4  10   8   0   0   0)

     celldm(1)=   5.500000  celldm(2)=   0.000000  celldm(3)=   0.000000
     celldm(4)=   0.000000  celldm(5)=   0.000000  celldm(6)=   0.000000

     crystal axes: (cart. coord. in units of alat)
               a(1) = (   1.023061   0.000071   0.000000 )  
               a(2) = (  -0.511470   0.885658   0.000000 )  
               a(3) = (   0.000000   0.000000  10.000000 )  

     reciprocal axes: (cart. coord. in units 2 pi/alat)
               b(1) = (  0.977420  0.564462  0.000000 )  
               b(2) = ( -0.000078  1.129060  0.000000 )  
               b(3) = (  0.000000  0.000000  0.100000 )  


     PseudoPot. # 1 for Ta read from file:
     /shared/home/as3359/pseudo/Ta.pbesol-spfn-rrkjus_psl.1.0.0.UPF
     MD5 check sum: f099565ffaca9b150a52e9412a28e20b
     Pseudo is Ultrasoft + core correction, Zval = 27.0
     Generated using &quot;atomic&quot; code by A. Dal Corso  v.6.3
     Using radial grid of 1273 points,  8 beta functions with: 
                l(1) =   0
                l(2) =   0
                l(3) =   1
                l(4) =   1
                l(5) =   2
                l(6) =   2
                l(7) =   3
                l(8) =   3
     Q(r) pseudized with 0 coefficients 


     PseudoPot. # 2 for C  read from file:
     /shared/home/as3359/pseudo/C.pbesol-n-rrkjus_psl.1.0.0.UPF
     MD5 check sum: 05995be603a8a7c99da3dc4413f31573
     Pseudo is Ultrasoft + core correction, Zval =  4.0
     Generated using &quot;atomic&quot; code by A. Dal Corso  v.6.3MaX
     Using radial grid of 1073 points,  4 beta functions with: 
                l(1) =   0
                l(2) =   0
                l(3) =   1
                l(4) =   1
     Q(r) pseudized with 0 coefficients 


     PseudoPot. # 3 for O  read from file:
     /shared/home/as3359/pseudo/O.pbesol-n-rrkjus_psl.1.0.0.UPF
     MD5 check sum: dd9bad2534826f832ffc9296591fc5de
     Pseudo is Ultrasoft + core correction, Zval =  6.0
     Generated using &quot;atomic&quot; code by A. Dal Corso  v.6.3MaX
     Using radial grid of 1095 points,  4 beta functions with: 
                l(1) =   0
                l(2) =   0
                l(3) =   1
                l(4) =   1
     Q(r) pseudized with 0 coefficients 


     atomic species   valence    mass     pseudopotential
        Ta            27.00   180.94788     Ta( 1.00)
        C              4.00    12.01070     C ( 1.00)
        O              6.00    15.99940     O ( 1.00)

     No symmetry found



   Cartesian axes

     site n.     atom                  positions (alat units)
         1           C   tau(   1) = (   0.0000000   0.0000000   0.0000000  )
         2           Ta  tau(   2) = (   0.5237441   0.2989654  -0.4007024  )
         3           Ta  tau(   3) = (  -0.0010323   0.6027030   0.4306046  )
         4           O   tau(   4) = (   0.5210222   0.3011869   0.8013113  )

     number of k points=   113

     Number of k-points >= 100: set verbosity='high' to print them.

     Dense  grid:   373437 G-vectors     FFT dimensions: (  45,  45, 432)

     Estimated max dynamical RAM per process >       3.05 GB

     Estimated total dynamical RAM >       6.10 GB

     Atomic positions and unit cell read from directory:
     /scratch/as3359/Mos2_ct_lat/Ta2CH2.save/
     Message from routine qexsd_readschema :
     xml data file /scratch/as3359/Mos2_ct_lat/Ta2CH2.save/data-file-schema.xml not f
     Nothing found: using input atomic positions and unit cell

     Cannot read rho : file not found

     Initial potential from superposition of free atoms

     starting charge   63.99842, renormalised to   64.00000

     negative rho (up, down):  1.031E-04 0.000E+00
     Message from routine qexsd_readschema :
     xml data file /scratch/as3359/Mos2_ct_lat/Ta2CH2.save/data-file-schema.xml not f
     Cannot read wfcs: file not found
     Starting wfcs are   42 randomized atomic wfcs

     total cpu time spent up to now is       37.4 secs

     Self-consistent Calculation

     iteration #  1     ecut=   150.00 Ry     beta= 0.70
     Davidson diagonalization with overlap
     c_bands:  1 eigenvalues not converged
     c_bands:  1 eigenvalues not converged
     c_bands:  1 eigenvalues not converged
     c_bands:  1 eigenvalues not converged
     c_bands:  1 eigenvalues not converged
     c_bands:  1 eigenvalues not converged
     c_bands:  1 eigenvalues not converged
     c_bands:  1 eigenvalues not converged
     c_bands:  1 eigenvalues not converged
     c_bands:  1 eigenvalues not converged
     c_bands:  1 eigenvalues not converged
     c_bands:  1 eigenvalues not converged
     c_bands:  1 eigenvalues not converged
     c_bands:  1 eigenvalues not converged
     c_bands:  1 eigenvalues not converged
     ethr =  1.00E-05,  avg # of iterations = 12.8

     negative rho (up, down):  1.105E-04 0.000E+00

     total cpu time spent up to now is      203.4 secs

     total energy              =   -1405.03412269 Ry
     estimated scf accuracy    <       1.41001658 Ry

     iteration #  2     ecut=   150.00 Ry     beta= 0.70
     Davidson diagonalization with overlap
     ethr =  2.20E-03,  avg # of iterations = 10.0

     negative rho (up, down):  8.181E-05 0.000E+00

     total cpu time spent up to now is      301.9 secs

     total energy              =   -1403.08930095 Ry
     estimated scf accuracy    <      17.96819425 Ry

     iteration #  3     ecut=   150.00 Ry     beta= 0.70
     Davidson diagonalization with overlap
     c_bands:  1 eigenvalues not converged
     c_bands:  1 eigenvalues not converged
     c_bands:  1 eigenvalues not converged
     ethr =  2.20E-03,  avg # of iterations = 12.7

     negative rho (up, down):  6.828E-05 0.000E+00

     total cpu time spent up to now is      408.6 secs

     total energy              =   -1404.22645886 Ry
     estimated scf accuracy    <      30.95529148 Ry

     iteration #  4     ecut=   150.00 Ry     beta= 0.70
     Davidson diagonalization with overlap
     ethr =  2.20E-03,  avg # of iterations =  7.9

     negative rho (up, down):  7.134E-05 0.000E+00

     total cpu time spent up to now is      494.7 secs

     total energy              =   -1405.76195265 Ry
     estimated scf accuracy    <       0.29858414 Ry

     iteration #  5     ecut=   150.00 Ry     beta= 0.70
     Davidson diagonalization with overlap
     ethr =  4.67E-04,  avg # of iterations =  6.0

     negative rho (up, down):  7.217E-05 0.000E+00

     total cpu time spent up to now is      562.7 secs

     total energy              =   -1405.79879433 Ry
     estimated scf accuracy    <       0.05241553 Ry

     iteration #  6     ecut=   150.00 Ry     beta= 0.70
     Davidson diagonalization with overlap
     c_bands:  2 eigenvalues not converged
     ethr =  8.19E-05,  avg # of iterations =  6.1

     negative rho (up, down):  7.692E-05 0.000E+00

     total cpu time spent up to now is      636.7 secs

     total energy              =   -1405.80667954 Ry
     estimated scf accuracy    <       0.02721664 Ry

     iteration #  7     ecut=   150.00 Ry     beta= 0.70
     Davidson diagonalization with overlap
     ethr =  4.25E-05,  avg # of iterations =  2.0

     negative rho (up, down):  8.916E-05 0.000E+00

     total cpu time spent up to now is      694.4 secs

     total energy              =   -1405.80183326 Ry
     estimated scf accuracy    <       0.02110890 Ry

     iteration #  8     ecut=   150.00 Ry     beta= 0.70
     Davidson diagonalization with overlap
     ethr =  3.30E-05,  avg # of iterations =  6.7

     negative rho (up, down):  9.020E-05 0.000E+00

     total cpu time spent up to now is      780.8 secs

     total energy              =   -1405.81220522 Ry
     estimated scf accuracy    <       0.06282952 Ry

     iteration #  9     ecut=   150.00 Ry     beta= 0.70
     Davidson diagonalization with overlap
     ethr =  3.30E-05,  avg # of iterations =  1.1

     negative rho (up, down):  9.057E-05 0.000E+00

     total cpu time spent up to now is      834.9 secs

     total energy              =   -1405.78682358 Ry
     estimated scf accuracy    <       0.05304872 Ry

     iteration # 10     ecut=   150.00 Ry     beta= 0.70
     Davidson diagonalization with overlap
     ethr =  3.30E-05,  avg # of iterations =  7.4

     negative rho (up, down):  1.098E-04 0.000E+00

     total cpu time spent up to now is      927.1 secs

     total energy              =   -1405.80299654 Ry
     estimated scf accuracy    <       0.02832150 Ry

     iteration # 11     ecut=   150.00 Ry     beta= 0.70
     Davidson diagonalization with overlap
     ethr =  3.30E-05,  avg # of iterations =  2.5

     negative rho (up, down):  1.180E-04 0.000E+00

     total cpu time spent up to now is      988.2 secs

     total energy              =   -1405.80250146 Ry
     estimated scf accuracy    <       0.01092874 Ry

     iteration # 12     ecut=   150.00 Ry     beta= 0.70
     Davidson diagonalization with overlap
     ethr =  1.71E-05,  avg # of iterations =  6.1

     negative rho (up, down):  1.109E-04 0.000E+00

     total cpu time spent up to now is     1067.1 secs

     total energy              =   -1405.80502944 Ry
     estimated scf accuracy    <       0.00112870 Ry

     iteration # 13     ecut=   150.00 Ry     beta= 0.70
     Davidson diagonalization with overlap
     ethr =  1.76E-06,  avg # of iterations =  6.3

     negative rho (up, down):  1.160E-04 0.000E+00

     total cpu time spent up to now is     1143.4 secs

     total energy              =   -1405.80531160 Ry
     estimated scf accuracy    <       0.00132733 Ry

     iteration # 14     ecut=   150.00 Ry     beta= 0.70
     Davidson diagonalization with overlap
     c_bands:  1 eigenvalues not converged
     ethr =  1.76E-06,  avg # of iterations =  1.7

     negative rho (up, down):  1.187E-04 0.000E+00

     total cpu time spent up to now is     1199.3 secs

     total energy              =   -1405.80537274 Ry
     estimated scf accuracy    <       0.00118393 Ry

     iteration # 15     ecut=   150.00 Ry     beta= 0.70
     Davidson diagonalization with overlap
     c_bands:  1 eigenvalues not converged
     ethr =  1.76E-06,  avg # of iterations =  2.0

     negative rho (up, down):  1.206E-04 0.000E+00

     total cpu time spent up to now is     1258.6 secs

     total energy              =   -1405.80536644 Ry
     estimated scf accuracy    <       0.00144484 Ry

     iteration # 16     ecut=   150.00 Ry     beta= 0.70
     Davidson diagonalization with overlap
     ethr =  1.76E-06,  avg # of iterations =  1.7

     negative rho (up, down):  1.231E-04 0.000E+00

     total cpu time spent up to now is     1315.8 secs

     total energy              =   -1405.80520819 Ry
     estimated scf accuracy    <       0.00117437 Ry

     iteration # 17     ecut=   150.00 Ry     beta= 0.70
     Davidson diagonalization with overlap
     ethr =  1.76E-06,  avg # of iterations =  2.0

     negative rho (up, down):  1.246E-04 0.000E+00

     total cpu time spent up to now is     1374.1 secs

     total energy              =   -1405.80515794 Ry
     estimated scf accuracy    <       0.00060741 Ry

     iteration # 18     ecut=   150.00 Ry     beta= 0.70
     Davidson diagonalization with overlap
     ethr =  9.49E-07,  avg # of iterations =  3.4

     negative rho (up, down):  1.232E-04 0.000E+00

     total cpu time spent up to now is     1438.0 secs

     total energy              =   -1405.80519899 Ry
     estimated scf accuracy    <       0.00017767 Ry

     iteration # 19     ecut=   150.00 Ry     beta= 0.70
     Davidson diagonalization with overlap
     ethr =  2.78E-07,  avg # of iterations =  6.6

     negative rho (up, down):  1.223E-04 0.000E+00

     total cpu time spent up to now is     1514.9 secs

     total energy              =   -1405.80523877 Ry
     estimated scf accuracy    <       0.00012297 Ry

     iteration # 20     ecut=   150.00 Ry     beta= 0.70
     Davidson diagonalization with overlap
     ethr =  1.92E-07,  avg # of iterations =  1.2

     negative rho (up, down):  1.235E-04 0.000E+00

     total cpu time spent up to now is     1571.2 secs

     total energy              =   -1405.80521825 Ry
     estimated scf accuracy    <       0.00012819 Ry

     iteration # 21     ecut=   150.00 Ry     beta= 0.70
     Davidson diagonalization with overlap
     ethr =  1.92E-07,  avg # of iterations =  6.1

     negative rho (up, down):  1.252E-04 0.000E+00

     total cpu time spent up to now is     1649.4 secs

     total energy              =   -1405.80525062 Ry
     estimated scf accuracy    <       0.00019809 Ry

     iteration # 22     ecut=   150.00 Ry     beta= 0.70
     Davidson diagonalization with overlap
     ethr =  1.92E-07,  avg # of iterations =  1.6

     negative rho (up, down):  1.253E-04 0.000E+00

     total cpu time spent up to now is     1707.0 secs

     total energy              =   -1405.80524721 Ry
     estimated scf accuracy    <       0.00024740 Ry

     iteration # 23     ecut=   150.00 Ry     beta= 0.70
     Davidson diagonalization with overlap
     ethr =  1.92E-07,  avg # of iterations =  1.1

     negative rho (up, down):  1.254E-04 0.000E+00

     total cpu time spent up to now is     1763.3 secs

     total energy              =   -1405.80524430 Ry
     estimated scf accuracy    <       0.00025402 Ry

     iteration # 24     ecut=   150.00 Ry     beta= 0.70
     Davidson diagonalization with overlap
     ethr =  1.92E-07,  avg # of iterations =  1.0

     negative rho (up, down):  1.256E-04 0.000E+00

     total cpu time spent up to now is     1818.8 secs

     total energy              =   -1405.80524618 Ry
     estimated scf accuracy    <       0.00024825 Ry

     iteration # 25     ecut=   150.00 Ry     beta= 0.70
     Davidson diagonalization with overlap
     ethr =  1.92E-07,  avg # of iterations =  1.0

     negative rho (up, down):  1.258E-04 0.000E+00

     total cpu time spent up to now is     1874.8 secs

     total energy              =   -1405.80525012 Ry
     estimated scf accuracy    <       0.00025581 Ry

     iteration # 26     ecut=   150.00 Ry     beta= 0.70
     Davidson diagonalization with overlap
     ethr =  1.92E-07,  avg # of iterations =  1.0

     negative rho (up, down):  1.255E-04 0.000E+00

     total cpu time spent up to now is     1929.8 secs

     total energy              =   -1405.80525477 Ry
     estimated scf accuracy    <       0.00027282 Ry

     iteration # 27     ecut=   150.00 Ry     beta= 0.70
     Davidson diagonalization with overlap
     ethr =  1.92E-07,  avg # of iterations =  1.0

     negative rho (up, down):  1.245E-04 0.000E+00

     total cpu time spent up to now is     1986.4 secs

     total energy              =   -1405.80519292 Ry
     estimated scf accuracy    <       0.00031536 Ry

     iteration # 28     ecut=   150.00 Ry     beta= 0.70
     Davidson diagonalization with overlap
     ethr =  1.92E-07,  avg # of iterations =  6.5

     negative rho (up, down):  1.249E-04 0.000E+00

     total cpu time spent up to now is     2068.0 secs

     total energy              =   -1405.80522859 Ry
     estimated scf accuracy    <       0.00003976 Ry

     iteration # 29     ecut=   150.00 Ry     beta= 0.70
     Davidson diagonalization with overlap
     ethr =  6.21E-08,  avg # of iterations =  2.3

     negative rho (up, down):  1.252E-04 0.000E+00

     total cpu time spent up to now is     2127.0 secs

     total energy              =   -1405.80522623 Ry
     estimated scf accuracy    <       0.00002880 Ry

     iteration # 30     ecut=   150.00 Ry     beta= 0.70
     Davidson diagonalization with overlap
     ethr =  4.50E-08,  avg # of iterations =  2.0

     negative rho (up, down):  1.256E-04 0.000E+00

     total cpu time spent up to now is     2186.4 secs

     total energy              =   -1405.80522262 Ry
     estimated scf accuracy    <       0.00001403 Ry

     iteration # 31     ecut=   150.00 Ry     beta= 0.70
     Davidson diagonalization with overlap
     ethr =  2.19E-08,  avg # of iterations =  6.4

     negative rho (up, down):  1.257E-04 0.000E+00

     total cpu time spent up to now is     2272.5 secs

     total energy              =   -1405.80522758 Ry
     estimated scf accuracy    <       0.00000720 Ry

     iteration # 32     ecut=   150.00 Ry     beta= 0.70
     Davidson diagonalization with overlap
     ethr =  1.13E-08,  avg # of iterations =  1.8

     negative rho (up, down):  1.258E-04 0.000E+00

     total cpu time spent up to now is     2329.4 secs

     total energy              =   -1405.80522650 Ry
     estimated scf accuracy    <       0.00000433 Ry

     iteration # 33     ecut=   150.00 Ry     beta= 0.70
     Davidson diagonalization with overlap
     c_bands:  1 eigenvalues not converged
     ethr =  6.76E-09,  avg # of iterations =  6.8

     negative rho (up, down):  1.258E-04 0.000E+00

     total cpu time spent up to now is     2411.9 secs

     total energy              =   -1405.80522794 Ry
     estimated scf accuracy    <       0.00000190 Ry

     iteration # 34     ecut=   150.00 Ry     beta= 0.70
     Davidson diagonalization with overlap
     c_bands:  1 eigenvalues not converged
     ethr =  2.97E-09,  avg # of iterations =  1.6

     negative rho (up, down):  1.258E-04 0.000E+00

     total cpu time spent up to now is     2468.2 secs

     total energy              =   -1405.80522784 Ry
     estimated scf accuracy    <       0.00000133 Ry

     iteration # 35     ecut=   150.00 Ry     beta= 0.70
     Davidson diagonalization with overlap
     ethr =  2.07E-09,  avg # of iterations =  2.3

     negative rho (up, down):  1.258E-04 0.000E+00

     total cpu time spent up to now is     2529.7 secs

     total energy              =   -1405.80522789 Ry
     estimated scf accuracy    <       0.00000048 Ry

     iteration # 36     ecut=   150.00 Ry     beta= 0.70
     Davidson diagonalization with overlap
     ethr =  7.57E-10,  avg # of iterations =  3.8

     negative rho (up, down):  1.258E-04 0.000E+00

     total cpu time spent up to now is     2592.3 secs

     total energy              =   -1405.80522792 Ry
     estimated scf accuracy    <       0.00000021 Ry

     iteration # 37     ecut=   150.00 Ry     beta= 0.70
     Davidson diagonalization with overlap
     ethr =  3.22E-10,  avg # of iterations =  5.1

     negative rho (up, down):  1.258E-04 0.000E+00

     total cpu time spent up to now is     2659.6 secs

     total energy              =   -1405.80522792 Ry
     estimated scf accuracy    <       0.00000008 Ry

     iteration # 38     ecut=   150.00 Ry     beta= 0.70
     Davidson diagonalization with overlap
     c_bands:  1 eigenvalues not converged
     ethr =  1.21E-10,  avg # of iterations =  5.7

     negative rho (up, down):  1.258E-04 0.000E+00

     total cpu time spent up to now is     2732.6 secs

     total energy              =   -1405.80522794 Ry
     estimated scf accuracy    <       0.00000003 Ry

     iteration # 39     ecut=   150.00 Ry     beta= 0.70
     Davidson diagonalization with overlap
     ethr =  4.37E-11,  avg # of iterations =  2.6

     negative rho (up, down):  1.258E-04 0.000E+00

     total cpu time spent up to now is     2792.6 secs

     total energy              =   -1405.80522794 Ry
     estimated scf accuracy    <       0.00000003 Ry

     iteration # 40     ecut=   150.00 Ry     beta= 0.70
     Davidson diagonalization with overlap
     ethr =  4.37E-11,  avg # of iterations =  1.9

     negative rho (up, down):  1.258E-04 0.000E+00

     total cpu time spent up to now is     2849.2 secs

     total energy              =   -1405.80522794 Ry
     estimated scf accuracy    <       0.00000002 Ry

     iteration # 41     ecut=   150.00 Ry     beta= 0.70
     Davidson diagonalization with overlap
     ethr =  2.76E-11,  avg # of iterations =  2.9

     negative rho (up, down):  1.258E-04 0.000E+00

     total cpu time spent up to now is     2911.0 secs

     total energy              =   -1405.80522794 Ry
     estimated scf accuracy    <       0.00000004 Ry

     iteration # 42     ecut=   150.00 Ry     beta= 0.70
     Davidson diagonalization with overlap
     ethr =  2.76E-11,  avg # of iterations =  2.0

     negative rho (up, down):  1.258E-04 0.000E+00

     total cpu time spent up to now is     2967.9 secs

     total energy              =   -1405.80522794 Ry
     estimated scf accuracy    <       0.00000002 Ry

     iteration # 43     ecut=   150.00 Ry     beta= 0.70
     Davidson diagonalization with overlap
     ethr =  2.76E-11,  avg # of iterations =  6.5

     negative rho (up, down):  1.258E-04 0.000E+00

     total cpu time spent up to now is     3040.9 secs

     total energy              =   -1405.80522797 Ry
     estimated scf accuracy    <       0.00000009 Ry

     iteration # 44     ecut=   150.00 Ry     beta= 0.70
     Davidson diagonalization with overlap
     c_bands:  2 eigenvalues not converged
     ethr =  2.76E-11,  avg # of iterations = 11.2

     negative rho (up, down):  1.258E-04 0.000E+00

     total cpu time spent up to now is     3142.8 secs

     total energy              =   -1405.80522787 Ry
     estimated scf accuracy    <       0.00000085 Ry

     iteration # 45     ecut=   150.00 Ry     beta= 0.70
     Davidson diagonalization with overlap
     c_bands:  2 eigenvalues not converged
     c_bands:  2 eigenvalues not converged
     c_bands:  2 eigenvalues not converged
     c_bands:  1 eigenvalues not converged
     c_bands:  1 eigenvalues not converged
     c_bands:  1 eigenvalues not converged
     ethr =  2.76E-11,  avg # of iterations = 12.2

     negative rho (up, down):  1.258E-04 0.000E+00

     total cpu time spent up to now is     3255.0 secs

     total energy              =   -1405.80522794 Ry
     estimated scf accuracy    <          1.3E-09 Ry

     iteration # 46     ecut=   150.00 Ry     beta= 0.70
     Davidson diagonalization with overlap
     c_bands:  1 eigenvalues not converged
     ethr =  2.09E-12,  avg # of iterations =  7.3

     negative rho (up, down):  1.258E-04 0.000E+00

     total cpu time spent up to now is     3336.5 secs

     total energy              =   -1405.80522794 Ry
     estimated scf accuracy    <          6.0E-10 Ry

     iteration # 47     ecut=   150.00 Ry     beta= 0.70
     Davidson diagonalization with overlap
     ethr =  9.35E-13,  avg # of iterations =  4.0

     negative rho (up, down):  1.258E-04 0.000E+00

     total cpu time spent up to now is     3399.7 secs

     total energy              =   -1405.80522794 Ry
     estimated scf accuracy    <          1.0E-10 Ry

     iteration # 48     ecut=   150.00 Ry     beta= 0.70
     Davidson diagonalization with overlap
     ethr =  1.61E-13,  avg # of iterations =  7.4

     negative rho (up, down):  1.258E-04 0.000E+00

     total cpu time spent up to now is     3484.0 secs

     total energy              =   -1405.80522794 Ry
     estimated scf accuracy    <          1.0E-10 Ry

     iteration # 49     ecut=   150.00 Ry     beta= 0.70
     Davidson diagonalization with overlap
     ethr =  1.61E-13,  avg # of iterations =  1.4

     negative rho (up, down):  1.258E-04 0.000E+00

     total cpu time spent up to now is     3539.8 secs

     total energy              =   -1405.80522794 Ry
     estimated scf accuracy    <          8.7E-11 Ry

     iteration # 50     ecut=   150.00 Ry     beta= 0.70
     Davidson diagonalization with overlap
     ethr =  1.36E-13,  avg # of iterations =  4.1

     negative rho (up, down):  1.258E-04 0.000E+00

     total cpu time spent up to now is     3604.6 secs

     total energy              =   -1405.80522794 Ry
     estimated scf accuracy    <          1.2E-11 Ry

     iteration # 51     ecut=   150.00 Ry     beta= 0.70
     Davidson diagonalization with overlap
     ethr =  1.00E-13,  avg # of iterations =  1.9

     negative rho (up, down):  1.258E-04 0.000E+00

     total cpu time spent up to now is     3661.8 secs

     total energy              =   -1405.80522794 Ry
     estimated scf accuracy    <          3.8E-12 Ry

     iteration # 52     ecut=   150.00 Ry     beta= 0.70
     Davidson diagonalization with overlap
     ethr =  1.00E-13,  avg # of iterations =  1.2

     negative rho (up, down):  1.258E-04 0.000E+00

     total cpu time spent up to now is     3716.0 secs

     total energy              =   -1405.80522794 Ry
     estimated scf accuracy    <          2.1E-12 Ry

     iteration # 53     ecut=   150.00 Ry     beta= 0.70
     Davidson diagonalization with overlap
     ethr =  1.00E-13,  avg # of iterations =  1.4

     negative rho (up, down):  1.258E-04 0.000E+00

     total cpu time spent up to now is     3771.2 secs

     total energy              =   -1405.80522794 Ry
     estimated scf accuracy    <          1.1E-12 Ry

     iteration # 54     ecut=   150.00 Ry     beta= 0.70
     Davidson diagonalization with overlap
     ethr =  1.00E-13,  avg # of iterations =  1.1

     negative rho (up, down):  1.258E-04 0.000E+00

     total cpu time spent up to now is     3825.3 secs

     End of self-consistent calculation

     Number of k-points >= 100: set verbosity='high' to print the bands.

     highest occupied level (ev):     0.6377

!    total energy              =   -1405.80522794 Ry
     estimated scf accuracy    <          2.7E-13 Ry

     The total energy is the sum of the following terms:
     one-electron contribution =  -13003.73088275 Ry
     hartree contribution      =    6532.89897206 Ry
     xc contribution           =    -146.57051520 Ry
     ewald contribution        =    5211.59719795 Ry

     convergence has been achieved in  54 iterations

     negative rho (up, down):  1.258E-04 0.000E+00

     Forces acting on atoms (cartesian axes, Ry/au):

     atom    1 type  2   force =     0.01883177    0.01920236   -0.00712753
     atom    2 type  1   force =    -0.01720002   -0.00567437   -0.05090516
     atom    3 type  1   force =     0.00981476   -0.01621386    0.00790320
     atom    4 type  3   force =    -0.01144651    0.00268588    0.05012948

     Total force =     0.082258     Total SCF correction =     0.000008


     Computing stress (Cartesian axis) and pressure


     negative rho (up, down):  1.258E-04 0.000E+00
          total   stress  (Ry/bohr**3)                   (kbar)     P=       53.49
   0.00042565   0.00000221   0.00000710           62.62        0.32        1.04
   0.00000221   0.00043265  -0.00000933            0.32       63.65       -1.37
   0.00000710  -0.00000933   0.00023261            1.04       -1.37       34.22


     Writing output data file /scratch/as3359/Mos2_ct_lat/Ta2CH2.save/
 
     init_run     :     68.24s CPU     36.98s WALL (       1 calls)
     electrons    :   7459.33s CPU   3788.08s WALL (       1 calls)
     forces       :     18.68s CPU      9.59s WALL (       1 calls)
     stress       :     83.95s CPU     42.98s WALL (       1 calls)

     Called by init_run:
     wfcinit      :     57.16s CPU     29.51s WALL (       1 calls)
     potinit      :      2.91s CPU      1.47s WALL (       1 calls)
     hinit0       :      6.42s CPU      4.74s WALL (       1 calls)

     Called by electrons:
     c_bands      :   6221.71s CPU   3141.18s WALL (      54 calls)
     sum_band     :   1137.32s CPU    585.26s WALL (      54 calls)
     v_of_rho     :     14.07s CPU      7.68s WALL (      55 calls)
     newd         :     80.94s CPU     51.09s WALL (      55 calls)
     mix_rho      :      6.04s CPU      3.28s WALL (      54 calls)

     Called by c_bands:
     init_us_2    :    152.23s CPU     76.18s WALL (   12543 calls)
     cegterg      :   5750.43s CPU   2903.65s WALL (    6102 calls)

     Called by *egterg:
     cdiaghg      :     57.68s CPU     29.54s WALL (   32362 calls)
     h_psi        :   4666.69s CPU   2360.25s WALL (   32475 calls)
     s_psi        :    248.47s CPU    124.35s WALL (   32475 calls)
     g_psi        :     26.91s CPU     13.51s WALL (   26260 calls)

     Called by h_psi:
     h_psi:calbec :    189.94s CPU     95.25s WALL (   32475 calls)
     vloc_psi     :   4183.45s CPU   2117.85s WALL (   32475 calls)
     add_vuspsi   :    263.37s CPU    131.83s WALL (   32475 calls)

     General routines
     calbec       :    250.49s CPU    125.62s WALL (   39142 calls)
     fft          :     13.58s CPU      6.96s WALL (     630 calls)
     ffts         :      0.49s CPU      0.25s WALL (      54 calls)
     fftw         :   4371.40s CPU   2214.87s WALL ( 1190806 calls)
 
     Parallel routines
 
     PWSCF        :      2h 7m CPU      1h 4m WALL

 
   This run was terminated on:  11:49:35  11Apr2022            

=------------------------------------------------------------------------------=
   JOB DONE.
=------------------------------------------------------------------------------=
