
     Program PWSCF v.6.8 starts on 11Apr2022 at 12:55:16 

     This program is part of the open-source Quantum ESPRESSO suite
     for quantum simulation of materials; please cite
         "P. Giannozzi et al., J. Phys.:Condens. Matter 21 395502 (2009);
         "P. Giannozzi et al., J. Phys.:Condens. Matter 29 465901 (2017);
         "P. Giannozzi et al., J. Chem. Phys. 152 154105 (2020);
          URL http://www.quantum-espresso.org", 
     in publications or presentations arising from this work. More details at
     http://www.quantum-espresso.org/quote

     Parallel version (MPI & OpenMP), running on       4 processor cores
     Number of MPI processes:                 2
     Threads/MPI process:                     2

     MPI processes distributed on     1 nodes
     R & G space division:  proc/nbgrp/npool/nimage =       2
     124956 MiB available memory on the printing compute node when the environment starts
 
     Reading input from Ta2CH2.scf.5.600.in
Warning: card  &CELL ignored
Warning: card     CELL_DYNAMICS='BFGS' ignored
Warning: card  / ignored

     Current dimensions of program PWSCF are:
     Max number of different atomic species (ntypx) = 10
     Max number of k-points (npk) =  40000
     Max angular momentum in pseudopotentials (lmaxx) =  4
     Message from routine iosys:
     restart disabled: needed files not found
     file Ta.pbesol-spfn-rrkjus_psl.1.0.0.UPF: wavefunction(s)  5S 5P renormalized

     Subspace diagonalization in iterative solution of the eigenvalue problem:
     a serial algorithm will be used

 
     Parallelization info
     --------------------
     sticks:   dense  smooth     PW     G-vecs:    dense   smooth      PW
     Min         684     684    198               197610   197610   31306
     Max         685     685    199               197619   197619   31315
     Sum        1369    1369    397               395229   395229   62621
 
     Using Slab Decomposition
 


     bravais-lattice index     =            0
     lattice parameter (alat)  =       5.6000  a.u.
     unit-cell volume          =    1591.2884 (a.u.)^3
     number of atoms/cell      =            4
     number of atomic types    =            3
     number of electrons       =        64.00
     number of Kohn-Sham states=           32
     kinetic-energy cutoff     =     150.0000  Ry
     charge density cutoff     =     600.0000  Ry
     scf convergence threshold =      1.0E-12
     mixing beta               =       0.7000
     number of iterations used =            8  plain     mixing
     Exchange-correlation= PBESOL
                           (   1   4  10   8   0   0   0)

     celldm(1)=   5.600000  celldm(2)=   0.000000  celldm(3)=   0.000000
     celldm(4)=   0.000000  celldm(5)=   0.000000  celldm(6)=   0.000000

     crystal axes: (cart. coord. in units of alat)
               a(1) = (   1.023061   0.000071   0.000000 )  
               a(2) = (  -0.511470   0.885658   0.000000 )  
               a(3) = (   0.000000   0.000000  10.000000 )  

     reciprocal axes: (cart. coord. in units 2 pi/alat)
               b(1) = (  0.977420  0.564462  0.000000 )  
               b(2) = ( -0.000078  1.129060  0.000000 )  
               b(3) = (  0.000000  0.000000  0.100000 )  


     PseudoPot. # 1 for Ta read from file:
     /shared/home/as3359/pseudo/Ta.pbesol-spfn-rrkjus_psl.1.0.0.UPF
     MD5 check sum: f099565ffaca9b150a52e9412a28e20b
     Pseudo is Ultrasoft + core correction, Zval = 27.0
     Generated using &quot;atomic&quot; code by A. Dal Corso  v.6.3
     Using radial grid of 1273 points,  8 beta functions with: 
                l(1) =   0
                l(2) =   0
                l(3) =   1
                l(4) =   1
                l(5) =   2
                l(6) =   2
                l(7) =   3
                l(8) =   3
     Q(r) pseudized with 0 coefficients 


     PseudoPot. # 2 for C  read from file:
     /shared/home/as3359/pseudo/C.pbesol-n-rrkjus_psl.1.0.0.UPF
     MD5 check sum: 05995be603a8a7c99da3dc4413f31573
     Pseudo is Ultrasoft + core correction, Zval =  4.0
     Generated using &quot;atomic&quot; code by A. Dal Corso  v.6.3MaX
     Using radial grid of 1073 points,  4 beta functions with: 
                l(1) =   0
                l(2) =   0
                l(3) =   1
                l(4) =   1
     Q(r) pseudized with 0 coefficients 


     PseudoPot. # 3 for O  read from file:
     /shared/home/as3359/pseudo/O.pbesol-n-rrkjus_psl.1.0.0.UPF
     MD5 check sum: dd9bad2534826f832ffc9296591fc5de
     Pseudo is Ultrasoft + core correction, Zval =  6.0
     Generated using &quot;atomic&quot; code by A. Dal Corso  v.6.3MaX
     Using radial grid of 1095 points,  4 beta functions with: 
                l(1) =   0
                l(2) =   0
                l(3) =   1
                l(4) =   1
     Q(r) pseudized with 0 coefficients 


     atomic species   valence    mass     pseudopotential
        Ta            27.00   180.94788     Ta( 1.00)
        C              4.00    12.01070     C ( 1.00)
        O              6.00    15.99940     O ( 1.00)

     No symmetry found



   Cartesian axes

     site n.     atom                  positions (alat units)
         1           C   tau(   1) = (   0.0000000   0.0000000   0.0000000  )
         2           Ta  tau(   2) = (   0.5237441   0.2989654  -0.4007024  )
         3           Ta  tau(   3) = (  -0.0010323   0.6027030   0.4306046  )
         4           O   tau(   4) = (   0.5210222   0.3011869   0.8013113  )

     number of k points=   113

     Number of k-points >= 100: set verbosity='high' to print them.

     Dense  grid:   395229 G-vectors     FFT dimensions: (  45,  45, 450)

     Estimated max dynamical RAM per process >       3.22 GB

     Estimated total dynamical RAM >       6.44 GB
     Cannot read rho : file not found

     Initial potential from superposition of free atoms

     starting charge   63.99842, renormalised to   64.00000

     negative rho (up, down):  1.117E-04 0.000E+00
     Message from routine qexsd_readschema :
     xml data file /scratch/as3359/Mos2_ct_lat/Ta2CH2.save/data-file-schema.xml not f
     Cannot read wfcs: file not found
     Starting wfcs are   42 randomized atomic wfcs

     total cpu time spent up to now is       39.6 secs

     Self-consistent Calculation

     iteration #  1     ecut=   150.00 Ry     beta= 0.70
     Davidson diagonalization with overlap
     c_bands:  1 eigenvalues not converged
     c_bands:  1 eigenvalues not converged
     c_bands:  1 eigenvalues not converged
     c_bands:  1 eigenvalues not converged
     c_bands:  1 eigenvalues not converged
     c_bands:  1 eigenvalues not converged
     c_bands:  1 eigenvalues not converged
     c_bands:  1 eigenvalues not converged
     c_bands:  1 eigenvalues not converged
     c_bands:  1 eigenvalues not converged
     c_bands:  1 eigenvalues not converged
     ethr =  1.00E-05,  avg # of iterations = 11.9

     negative rho (up, down):  1.214E-04 0.000E+00

     total cpu time spent up to now is      213.5 secs

     total energy              =   -1405.08588955 Ry
     estimated scf accuracy    <       1.35427295 Ry

     iteration #  2     ecut=   150.00 Ry     beta= 0.70
     Davidson diagonalization with overlap
     ethr =  2.12E-03,  avg # of iterations = 10.1

     negative rho (up, down):  9.303E-05 0.000E+00

     total cpu time spent up to now is      319.4 secs

     total energy              =   -1403.35384483 Ry
     estimated scf accuracy    <      15.56508374 Ry

     iteration #  3     ecut=   150.00 Ry     beta= 0.70
     Davidson diagonalization with overlap
     ethr =  2.12E-03,  avg # of iterations = 12.9

     negative rho (up, down):  8.387E-05 0.000E+00

     total cpu time spent up to now is      435.6 secs

     total energy              =   -1404.26108348 Ry
     estimated scf accuracy    <      32.94950724 Ry

     iteration #  4     ecut=   150.00 Ry     beta= 0.70
     Davidson diagonalization with overlap
     ethr =  2.12E-03,  avg # of iterations =  8.1

     negative rho (up, down):  8.723E-05 0.000E+00

     total cpu time spent up to now is      529.0 secs

     total energy              =   -1405.77794776 Ry
     estimated scf accuracy    <       0.33732684 Ry

     iteration #  5     ecut=   150.00 Ry     beta= 0.70
     Davidson diagonalization with overlap
     ethr =  5.27E-04,  avg # of iterations =  5.9

     negative rho (up, down):  8.915E-05 0.000E+00

     total cpu time spent up to now is      600.3 secs

     total energy              =   -1405.81790013 Ry
     estimated scf accuracy    <       0.04297373 Ry

     iteration #  6     ecut=   150.00 Ry     beta= 0.70
     Davidson diagonalization with overlap
     c_bands:  1 eigenvalues not converged
     ethr =  6.71E-05,  avg # of iterations =  6.8

     negative rho (up, down):  9.701E-05 0.000E+00

     total cpu time spent up to now is      676.4 secs

     total energy              =   -1405.82346235 Ry
     estimated scf accuracy    <       0.01824887 Ry

     iteration #  7     ecut=   150.00 Ry     beta= 0.70
     Davidson diagonalization with overlap
     ethr =  2.85E-05,  avg # of iterations =  4.5

     negative rho (up, down):  1.036E-04 0.000E+00

     total cpu time spent up to now is      753.4 secs

     total energy              =   -1405.82374516 Ry
     estimated scf accuracy    <       0.01212015 Ry

     iteration #  8     ecut=   150.00 Ry     beta= 0.70
     Davidson diagonalization with overlap
     ethr =  1.89E-05,  avg # of iterations =  3.2

     negative rho (up, down):  1.141E-04 0.000E+00

     total cpu time spent up to now is      825.7 secs

     total energy              =   -1405.82311329 Ry
     estimated scf accuracy    <       0.00740910 Ry

     iteration #  9     ecut=   150.00 Ry     beta= 0.70
     Davidson diagonalization with overlap
     ethr =  1.16E-05,  avg # of iterations =  6.8

     negative rho (up, down):  1.253E-04 0.000E+00

     total cpu time spent up to now is      902.6 secs

     total energy              =   -1405.82444159 Ry
     estimated scf accuracy    <       0.00389323 Ry

     iteration # 10     ecut=   150.00 Ry     beta= 0.70
     Davidson diagonalization with overlap
     ethr =  6.08E-06,  avg # of iterations =  3.0

     negative rho (up, down):  1.266E-04 0.000E+00

     total cpu time spent up to now is      968.8 secs

     total energy              =   -1405.82417881 Ry
     estimated scf accuracy    <       0.00230416 Ry

     iteration # 11     ecut=   150.00 Ry     beta= 0.70
     Davidson diagonalization with overlap
     ethr =  3.60E-06,  avg # of iterations =  6.8

     negative rho (up, down):  1.259E-04 0.000E+00

     total cpu time spent up to now is     1045.8 secs

     total energy              =   -1405.82444182 Ry
     estimated scf accuracy    <       0.00020482 Ry

     iteration # 12     ecut=   150.00 Ry     beta= 0.70
     Davidson diagonalization with overlap
     ethr =  3.20E-07,  avg # of iterations =  6.4

     negative rho (up, down):  1.256E-04 0.000E+00

     total cpu time spent up to now is     1129.0 secs

     total energy              =   -1405.82448756 Ry
     estimated scf accuracy    <       0.00022635 Ry

     iteration # 13     ecut=   150.00 Ry     beta= 0.70
     Davidson diagonalization with overlap
     ethr =  3.20E-07,  avg # of iterations =  2.2

     negative rho (up, down):  1.351E-04 0.000E+00

     total cpu time spent up to now is     1193.2 secs

     total energy              =   -1405.82447079 Ry
     estimated scf accuracy    <       0.00015401 Ry

     iteration # 14     ecut=   150.00 Ry     beta= 0.70
     Davidson diagonalization with overlap
     ethr =  2.41E-07,  avg # of iterations =  6.9

     negative rho (up, down):  1.344E-04 0.000E+00

     total cpu time spent up to now is     1275.1 secs

     total energy              =   -1405.82448757 Ry
     estimated scf accuracy    <       0.00004400 Ry

     iteration # 15     ecut=   150.00 Ry     beta= 0.70
     Davidson diagonalization with overlap
     c_bands:  1 eigenvalues not converged
     ethr =  6.88E-08,  avg # of iterations =  3.3

     negative rho (up, down):  1.349E-04 0.000E+00

     total cpu time spent up to now is     1342.2 secs

     total energy              =   -1405.82448603 Ry
     estimated scf accuracy    <       0.00002152 Ry

     iteration # 16     ecut=   150.00 Ry     beta= 0.70
     Davidson diagonalization with overlap
     c_bands:  1 eigenvalues not converged
     ethr =  3.36E-08,  avg # of iterations =  5.9

     negative rho (up, down):  1.359E-04 0.000E+00

     total cpu time spent up to now is     1425.4 secs

     total energy              =   -1405.82449209 Ry
     estimated scf accuracy    <       0.00000335 Ry

     iteration # 17     ecut=   150.00 Ry     beta= 0.70
     Davidson diagonalization with overlap
     c_bands:  1 eigenvalues not converged
     ethr =  5.23E-09,  avg # of iterations =  3.2

     negative rho (up, down):  1.356E-04 0.000E+00

     total cpu time spent up to now is     1492.1 secs

     total energy              =   -1405.82449186 Ry
     estimated scf accuracy    <       0.00000198 Ry

     iteration # 18     ecut=   150.00 Ry     beta= 0.70
     Davidson diagonalization with overlap
     ethr =  3.10E-09,  avg # of iterations =  6.4

     negative rho (up, down):  1.362E-04 0.000E+00

     total cpu time spent up to now is     1581.3 secs

     total energy              =   -1405.82449253 Ry
     estimated scf accuracy    <       0.00000152 Ry

     iteration # 19     ecut=   150.00 Ry     beta= 0.70
     Davidson diagonalization with overlap
     ethr =  2.37E-09,  avg # of iterations =  1.1

     negative rho (up, down):  1.363E-04 0.000E+00

     total cpu time spent up to now is     1638.9 secs

     total energy              =   -1405.82449228 Ry
     estimated scf accuracy    <       0.00000117 Ry

     iteration # 20     ecut=   150.00 Ry     beta= 0.70
     Davidson diagonalization with overlap
     ethr =  1.83E-09,  avg # of iterations =  2.8

     negative rho (up, down):  1.363E-04 0.000E+00

     total cpu time spent up to now is     1704.6 secs

     total energy              =   -1405.82449228 Ry
     estimated scf accuracy    <       0.00000041 Ry

     iteration # 21     ecut=   150.00 Ry     beta= 0.70
     Davidson diagonalization with overlap
     ethr =  6.48E-10,  avg # of iterations =  6.2

     negative rho (up, down):  1.363E-04 0.000E+00

     total cpu time spent up to now is     1790.9 secs

     total energy              =   -1405.82449243 Ry
     estimated scf accuracy    <       0.00000009 Ry

     iteration # 22     ecut=   150.00 Ry     beta= 0.70
     Davidson diagonalization with overlap
     c_bands:  1 eigenvalues not converged
     ethr =  1.40E-10,  avg # of iterations =  2.2

     negative rho (up, down):  1.362E-04 0.000E+00

     total cpu time spent up to now is     1852.1 secs

     total energy              =   -1405.82449245 Ry
     estimated scf accuracy    <       0.00000009 Ry

     iteration # 23     ecut=   150.00 Ry     beta= 0.70
     Davidson diagonalization with overlap
     c_bands:  1 eigenvalues not converged
     ethr =  1.33E-10,  avg # of iterations =  3.0

     negative rho (up, down):  1.363E-04 0.000E+00

     total cpu time spent up to now is     1917.6 secs

     total energy              =   -1405.82449246 Ry
     estimated scf accuracy    <       0.00000013 Ry

     iteration # 24     ecut=   150.00 Ry     beta= 0.70
     Davidson diagonalization with overlap
     c_bands:  1 eigenvalues not converged
     ethr =  1.33E-10,  avg # of iterations =  3.0

     negative rho (up, down):  1.362E-04 0.000E+00

     total cpu time spent up to now is     1982.1 secs

     total energy              =   -1405.82449245 Ry
     estimated scf accuracy    <       0.00000015 Ry

     iteration # 25     ecut=   150.00 Ry     beta= 0.70
     Davidson diagonalization with overlap
     ethr =  1.33E-10,  avg # of iterations =  1.3

     negative rho (up, down):  1.362E-04 0.000E+00

     total cpu time spent up to now is     2040.1 secs

     total energy              =   -1405.82449245 Ry
     estimated scf accuracy    <       0.00000015 Ry

     iteration # 26     ecut=   150.00 Ry     beta= 0.70
     Davidson diagonalization with overlap
     ethr =  1.33E-10,  avg # of iterations =  1.1

     negative rho (up, down):  1.363E-04 0.000E+00

     total cpu time spent up to now is     2097.5 secs

     total energy              =   -1405.82449245 Ry
     estimated scf accuracy    <       0.00000013 Ry

     iteration # 27     ecut=   150.00 Ry     beta= 0.70
     Davidson diagonalization with overlap
     ethr =  1.33E-10,  avg # of iterations =  1.0

     negative rho (up, down):  1.363E-04 0.000E+00

     total cpu time spent up to now is     2154.5 secs

     total energy              =   -1405.82449245 Ry
     estimated scf accuracy    <       0.00000014 Ry

     iteration # 28     ecut=   150.00 Ry     beta= 0.70
     Davidson diagonalization with overlap
     ethr =  1.33E-10,  avg # of iterations =  1.0

     negative rho (up, down):  1.363E-04 0.000E+00

     total cpu time spent up to now is     2211.7 secs

     total energy              =   -1405.82449245 Ry
     estimated scf accuracy    <       0.00000016 Ry

     iteration # 29     ecut=   150.00 Ry     beta= 0.70
     Davidson diagonalization with overlap
     ethr =  1.33E-10,  avg # of iterations =  1.0

     negative rho (up, down):  1.363E-04 0.000E+00

     total cpu time spent up to now is     2268.6 secs

     total energy              =   -1405.82449238 Ry
     estimated scf accuracy    <       0.00000015 Ry

     iteration # 30     ecut=   150.00 Ry     beta= 0.70
     Davidson diagonalization with overlap
     c_bands:  1 eigenvalues not converged
     ethr =  1.33E-10,  avg # of iterations =  6.6

     negative rho (up, down):  1.363E-04 0.000E+00

     total cpu time spent up to now is     2360.8 secs

     total energy              =   -1405.82449242 Ry
     estimated scf accuracy    <       0.00000004 Ry

     iteration # 31     ecut=   150.00 Ry     beta= 0.70
     Davidson diagonalization with overlap
     c_bands:  1 eigenvalues not converged
     ethr =  5.93E-11,  avg # of iterations =  2.4

     negative rho (up, down):  1.363E-04 0.000E+00

     total cpu time spent up to now is     2426.0 secs

     total energy              =   -1405.82449241 Ry
     estimated scf accuracy    <       0.00000001 Ry

     iteration # 32     ecut=   150.00 Ry     beta= 0.70
     Davidson diagonalization with overlap
     ethr =  1.86E-11,  avg # of iterations =  6.3

     negative rho (up, down):  1.363E-04 0.000E+00

     total cpu time spent up to now is     2516.0 secs

     total energy              =   -1405.82449242 Ry
     estimated scf accuracy    <          9.5E-09 Ry

     iteration # 33     ecut=   150.00 Ry     beta= 0.70
     Davidson diagonalization with overlap
     ethr =  1.49E-11,  avg # of iterations =  1.0

     negative rho (up, down):  1.363E-04 0.000E+00

     total cpu time spent up to now is     2573.0 secs

     total energy              =   -1405.82449242 Ry
     estimated scf accuracy    <          9.4E-09 Ry

     iteration # 34     ecut=   150.00 Ry     beta= 0.70
     Davidson diagonalization with overlap
     ethr =  1.47E-11,  avg # of iterations =  1.0

     negative rho (up, down):  1.362E-04 0.000E+00

     total cpu time spent up to now is     2630.2 secs

     total energy              =   -1405.82449242 Ry
     estimated scf accuracy    <          6.6E-09 Ry

     iteration # 35     ecut=   150.00 Ry     beta= 0.70
     Davidson diagonalization with overlap
     ethr =  1.03E-11,  avg # of iterations =  1.5

     negative rho (up, down):  1.362E-04 0.000E+00

     total cpu time spent up to now is     2688.9 secs

     total energy              =   -1405.82449242 Ry
     estimated scf accuracy    <          4.5E-09 Ry

     iteration # 36     ecut=   150.00 Ry     beta= 0.70
     Davidson diagonalization with overlap
     ethr =  7.05E-12,  avg # of iterations =  2.0

     negative rho (up, down):  1.362E-04 0.000E+00

     total cpu time spent up to now is     2751.3 secs

     total energy              =   -1405.82449242 Ry
     estimated scf accuracy    <          2.4E-09 Ry

     iteration # 37     ecut=   150.00 Ry     beta= 0.70
     Davidson diagonalization with overlap
     ethr =  3.73E-12,  avg # of iterations =  1.6

     negative rho (up, down):  1.363E-04 0.000E+00

     total cpu time spent up to now is     2810.0 secs

     total energy              =   -1405.82449242 Ry
     estimated scf accuracy    <          2.1E-09 Ry

     iteration # 38     ecut=   150.00 Ry     beta= 0.70
     Davidson diagonalization with overlap
     c_bands:  1 eigenvalues not converged
     ethr =  3.27E-12,  avg # of iterations =  6.1

     negative rho (up, down):  1.362E-04 0.000E+00

     total cpu time spent up to now is     2891.1 secs

     total energy              =   -1405.82449242 Ry
     estimated scf accuracy    <          4.8E-11 Ry

     iteration # 39     ecut=   150.00 Ry     beta= 0.70
     Davidson diagonalization with overlap
     c_bands:  1 eigenvalues not converged
     ethr =  1.00E-13,  avg # of iterations =  7.0

     negative rho (up, down):  1.362E-04 0.000E+00

     total cpu time spent up to now is     2975.3 secs

     total energy              =   -1405.82449242 Ry
     estimated scf accuracy    <          4.7E-11 Ry

     iteration # 40     ecut=   150.00 Ry     beta= 0.70
     Davidson diagonalization with overlap
     ethr =  1.00E-13,  avg # of iterations =  3.5

     negative rho (up, down):  1.362E-04 0.000E+00

     total cpu time spent up to now is     3043.2 secs

     total energy              =   -1405.82449242 Ry
     estimated scf accuracy    <          8.1E-12 Ry

     iteration # 41     ecut=   150.00 Ry     beta= 0.70
     Davidson diagonalization with overlap
     ethr =  1.00E-13,  avg # of iterations =  6.1

     negative rho (up, down):  1.362E-04 0.000E+00

     total cpu time spent up to now is     3125.7 secs

     total energy              =   -1405.82449242 Ry
     estimated scf accuracy    <          7.2E-11 Ry

     iteration # 42     ecut=   150.00 Ry     beta= 0.70
     Davidson diagonalization with overlap
     ethr =  1.00E-13,  avg # of iterations =  1.7

     negative rho (up, down):  1.362E-04 0.000E+00

     total cpu time spent up to now is     3185.7 secs

     total energy              =   -1405.82449242 Ry
     estimated scf accuracy    <          3.8E-11 Ry

     iteration # 43     ecut=   150.00 Ry     beta= 0.70
     Davidson diagonalization with overlap
     ethr =  1.00E-13,  avg # of iterations =  2.6

     negative rho (up, down):  1.362E-04 0.000E+00

     total cpu time spent up to now is     3250.7 secs

     total energy              =   -1405.82449242 Ry
     estimated scf accuracy    <          4.2E-12 Ry

     iteration # 44     ecut=   150.00 Ry     beta= 0.70
     Davidson diagonalization with overlap
     ethr =  1.00E-13,  avg # of iterations =  1.9

     negative rho (up, down):  1.362E-04 0.000E+00

     total cpu time spent up to now is     3311.5 secs

     End of self-consistent calculation

     Number of k-points >= 100: set verbosity='high' to print the bands.

     highest occupied level (ev):     0.2542

!    total energy              =   -1405.82449242 Ry
     estimated scf accuracy    <          2.3E-13 Ry

     The total energy is the sum of the following terms:
     one-electron contribution =  -12816.15657468 Ry
     hartree contribution      =    6438.13992577 Ry
     xc contribution           =    -146.34080578 Ry
     ewald contribution        =    5118.53296227 Ry

     convergence has been achieved in  44 iterations

     negative rho (up, down):  1.362E-04 0.000E+00

     Forces acting on atoms (cartesian axes, Ry/au):

     atom    1 type  2   force =     0.01650072    0.01667764   -0.00529768
     atom    2 type  1   force =    -0.01447276   -0.00524160   -0.00312840
     atom    3 type  1   force =     0.00706684   -0.01296924   -0.00149650
     atom    4 type  3   force =    -0.00909480    0.00153320    0.00992258

     Total force =     0.035059     Total SCF correction =     0.000003


     Computing stress (Cartesian axis) and pressure


     negative rho (up, down):  1.362E-04 0.000E+00
          total   stress  (Ry/bohr**3)                   (kbar)     P=       15.66
   0.00014243   0.00000143   0.00000548           20.95        0.21        0.81
   0.00000143   0.00014757  -0.00000794            0.21       21.71       -1.17
   0.00000548  -0.00000794   0.00002940            0.81       -1.17        4.32


     Writing output data file /scratch/as3359/Mos2_ct_lat/Ta2CH2.save/
 
     init_run     :     72.90s CPU     39.37s WALL (       1 calls)
     electrons    :   6443.94s CPU   3271.95s WALL (       1 calls)
     forces       :     19.50s CPU     10.00s WALL (       1 calls)
     stress       :     88.63s CPU     45.25s WALL (       1 calls)

     Called by init_run:
     wfcinit      :     61.24s CPU     31.59s WALL (       1 calls)
     potinit      :      3.08s CPU      1.56s WALL (       1 calls)
     hinit0       :      6.70s CPU      4.90s WALL (       1 calls)

     Called by electrons:
     c_bands      :   5374.00s CPU   2712.94s WALL (      44 calls)
     sum_band     :    983.58s CPU    506.08s WALL (      44 calls)
     v_of_rho     :     12.36s CPU      6.72s WALL (      45 calls)
     newd         :     69.73s CPU     44.05s WALL (      45 calls)
     mix_rho      :      5.39s CPU      2.83s WALL (      44 calls)

     Called by c_bands:
     init_us_2    :    132.14s CPU     66.12s WALL (   10283 calls)
     cegterg      :   4967.79s CPU   2508.54s WALL (    4972 calls)

     Called by *egterg:
     cdiaghg      :     46.14s CPU     23.62s WALL (   26375 calls)
     h_psi        :   4052.89s CPU   2050.03s WALL (   26488 calls)
     s_psi        :    211.63s CPU    105.90s WALL (   26488 calls)
     g_psi        :     23.19s CPU     11.64s WALL (   21403 calls)

     Called by h_psi:
     h_psi:calbec :    165.93s CPU     83.19s WALL (   26488 calls)
     vloc_psi     :   3641.01s CPU   1843.39s WALL (   26488 calls)
     add_vuspsi   :    220.94s CPU    110.58s WALL (   26488 calls)

     General routines
     calbec       :    219.03s CPU    109.82s WALL (   32025 calls)
     fft          :     10.56s CPU      5.40s WALL (     520 calls)
     ffts         :      0.45s CPU      0.23s WALL (      44 calls)
     fftw         :   3826.63s CPU   1938.88s WALL (  976000 calls)
 
     Parallel routines
 
     PWSCF        :      1h50m CPU  56m15.61s WALL

 
   This run was terminated on:  13:51:32  11Apr2022            

=------------------------------------------------------------------------------=
   JOB DONE.
=------------------------------------------------------------------------------=
