
     Program PWSCF v.6.8 starts on 14Apr2022 at 10: 1:21 

     This program is part of the open-source Quantum ESPRESSO suite
     for quantum simulation of materials; please cite
         "P. Giannozzi et al., J. Phys.:Condens. Matter 21 395502 (2009);
         "P. Giannozzi et al., J. Phys.:Condens. Matter 29 465901 (2017);
         "P. Giannozzi et al., J. Chem. Phys. 152 154105 (2020);
          URL http://www.quantum-espresso.org", 
     in publications or presentations arising from this work. More details at
     http://www.quantum-espresso.org/quote

     Parallel version (MPI & OpenMP), running on       4 processor cores
     Number of MPI processes:                 2
     Threads/MPI process:                     2

     MPI processes distributed on     1 nodes
     R & G space division:  proc/nbgrp/npool/nimage =       2
     125152 MiB available memory on the printing compute node when the environment starts
 
     Reading input from Ta2CO.scf.5.800.in
Warning: card  &CELL ignored
Warning: card     CELL_DYNAMICS='BFGS' ignored
Warning: card  / ignored

     Current dimensions of program PWSCF are:
     Max number of different atomic species (ntypx) = 10
     Max number of k-points (npk) =  40000
     Max angular momentum in pseudopotentials (lmaxx) =  4
     Message from routine iosys:
     restart disabled: needed files not found
     file Ta.pbesol-spfn-rrkjus_psl.1.0.0.UPF: wavefunction(s)  5S 5P renormalized

     Subspace diagonalization in iterative solution of the eigenvalue problem:
     a serial algorithm will be used

 
     Parallelization info
     --------------------
     sticks:   dense  smooth     PW     G-vecs:    dense   smooth      PW
     Min         729     729    214               219165   219165   34684
     Max         730     730    219               219186   219186   34689
     Sum        1459    1459    433               438351   438351   69373
 
     Using Slab Decomposition
 


     bravais-lattice index     =            0
     lattice parameter (alat)  =       5.8000  a.u.
     unit-cell volume          =    1767.9452 (a.u.)^3
     number of atoms/cell      =            4
     number of atomic types    =            3
     number of electrons       =        64.00
     number of Kohn-Sham states=           32
     kinetic-energy cutoff     =     150.0000  Ry
     charge density cutoff     =     600.0000  Ry
     scf convergence threshold =      1.0E-12
     mixing beta               =       0.7000
     number of iterations used =            8  plain     mixing
     Exchange-correlation= PBESOL
                           (   1   4  10   8   0   0   0)

     celldm(1)=   5.800000  celldm(2)=   0.000000  celldm(3)=   0.000000
     celldm(4)=   0.000000  celldm(5)=   0.000000  celldm(6)=   0.000000

     crystal axes: (cart. coord. in units of alat)
               a(1) = (   1.023061   0.000071   0.000000 )  
               a(2) = (  -0.511470   0.885658   0.000000 )  
               a(3) = (   0.000000   0.000000  10.000000 )  

     reciprocal axes: (cart. coord. in units 2 pi/alat)
               b(1) = (  0.977420  0.564462  0.000000 )  
               b(2) = ( -0.000078  1.129060  0.000000 )  
               b(3) = (  0.000000  0.000000  0.100000 )  


     PseudoPot. # 1 for Ta read from file:
     /shared/home/as3359/pseudo/Ta.pbesol-spfn-rrkjus_psl.1.0.0.UPF
     MD5 check sum: f099565ffaca9b150a52e9412a28e20b
     Pseudo is Ultrasoft + core correction, Zval = 27.0
     Generated using &quot;atomic&quot; code by A. Dal Corso  v.6.3
     Using radial grid of 1273 points,  8 beta functions with: 
                l(1) =   0
                l(2) =   0
                l(3) =   1
                l(4) =   1
                l(5) =   2
                l(6) =   2
                l(7) =   3
                l(8) =   3
     Q(r) pseudized with 0 coefficients 


     PseudoPot. # 2 for C  read from file:
     /shared/home/as3359/pseudo/C.pbesol-n-rrkjus_psl.1.0.0.UPF
     MD5 check sum: 05995be603a8a7c99da3dc4413f31573
     Pseudo is Ultrasoft + core correction, Zval =  4.0
     Generated using &quot;atomic&quot; code by A. Dal Corso  v.6.3MaX
     Using radial grid of 1073 points,  4 beta functions with: 
                l(1) =   0
                l(2) =   0
                l(3) =   1
                l(4) =   1
     Q(r) pseudized with 0 coefficients 


     PseudoPot. # 3 for O  read from file:
     /shared/home/as3359/pseudo/O.pbesol-n-rrkjus_psl.1.0.0.UPF
     MD5 check sum: dd9bad2534826f832ffc9296591fc5de
     Pseudo is Ultrasoft + core correction, Zval =  6.0
     Generated using &quot;atomic&quot; code by A. Dal Corso  v.6.3MaX
     Using radial grid of 1095 points,  4 beta functions with: 
                l(1) =   0
                l(2) =   0
                l(3) =   1
                l(4) =   1
     Q(r) pseudized with 0 coefficients 


     atomic species   valence    mass     pseudopotential
        Ta            27.00   180.94788     Ta( 1.00)
        C              4.00    12.01070     C ( 1.00)
        O              6.00    15.99940     O ( 1.00)

     No symmetry found



   Cartesian axes

     site n.     atom                  positions (alat units)
         1           C   tau(   1) = (   0.0000000   0.0000000   0.0000000  )
         2           Ta  tau(   2) = (   0.5237441   0.2989654  -0.4007024  )
         3           Ta  tau(   3) = (  -0.0010323   0.6027030   0.4306046  )
         4           O   tau(   4) = (   0.5210222   0.3011869   0.8013113  )

     number of k points=   113

     Number of k-points >= 100: set verbosity='high' to print them.

     Dense  grid:   438351 G-vectors     FFT dimensions: (  48,  48, 480)

     Estimated max dynamical RAM per process >       3.58 GB

     Estimated total dynamical RAM >       7.15 GB
     Cannot read rho : file not found

     Initial potential from superposition of free atoms

     starting charge   63.99842, renormalised to   64.00000

     negative rho (up, down):  1.195E-04 0.000E+00
     Message from routine qexsd_readschema :
     xml data file /scratch/as3359/Mos2_ct_lat/Ta2CO.save/data-file-schema.xml not fo
     Cannot read wfcs: file not found
     Starting wfcs are   42 randomized atomic wfcs

     total cpu time spent up to now is       42.7 secs

     Self-consistent Calculation

     iteration #  1     ecut=   150.00 Ry     beta= 0.70
     Davidson diagonalization with overlap
     c_bands:  1 eigenvalues not converged
     c_bands:  1 eigenvalues not converged
     c_bands:  1 eigenvalues not converged
     c_bands:  1 eigenvalues not converged
     c_bands:  1 eigenvalues not converged
     c_bands:  1 eigenvalues not converged
     c_bands:  1 eigenvalues not converged
     c_bands:  1 eigenvalues not converged
     c_bands:  1 eigenvalues not converged
     c_bands:  1 eigenvalues not converged
     ethr =  1.00E-05,  avg # of iterations = 12.2

     negative rho (up, down):  1.320E-04 0.000E+00

     total cpu time spent up to now is      226.8 secs

     total energy              =   -1405.09935987 Ry
     estimated scf accuracy    <       1.29862460 Ry

     iteration #  2     ecut=   150.00 Ry     beta= 0.70
     Davidson diagonalization with overlap
     ethr =  2.03E-03,  avg # of iterations =  9.9

     negative rho (up, down):  1.150E-04 0.000E+00

     total cpu time spent up to now is      343.8 secs

     total energy              =   -1403.59098764 Ry
     estimated scf accuracy    <      13.30913688 Ry

     iteration #  3     ecut=   150.00 Ry     beta= 0.70
     Davidson diagonalization with overlap
     ethr =  2.03E-03,  avg # of iterations = 12.6

     negative rho (up, down):  1.042E-04 0.000E+00

     total cpu time spent up to now is      471.6 secs

     total energy              =   -1404.18328408 Ry
     estimated scf accuracy    <      37.35477179 Ry

     iteration #  4     ecut=   150.00 Ry     beta= 0.70
     Davidson diagonalization with overlap
     ethr =  2.03E-03,  avg # of iterations =  8.6

     negative rho (up, down):  1.071E-04 0.000E+00

     total cpu time spent up to now is      573.8 secs

     total energy              =   -1405.76952259 Ry
     estimated scf accuracy    <       0.34281557 Ry

     iteration #  5     ecut=   150.00 Ry     beta= 0.70
     Davidson diagonalization with overlap
     ethr =  5.36E-04,  avg # of iterations =  5.7

     negative rho (up, down):  1.095E-04 0.000E+00

     total cpu time spent up to now is      650.0 secs

     total energy              =   -1405.80112239 Ry
     estimated scf accuracy    <       0.05938620 Ry

     iteration #  6     ecut=   150.00 Ry     beta= 0.70
     Davidson diagonalization with overlap
     c_bands:  2 eigenvalues not converged
     ethr =  9.28E-05,  avg # of iterations =  6.5

     negative rho (up, down):  1.203E-04 0.000E+00

     total cpu time spent up to now is      730.5 secs

     total energy              =   -1405.80375293 Ry
     estimated scf accuracy    <       0.02208056 Ry

     iteration #  7     ecut=   150.00 Ry     beta= 0.70
     Davidson diagonalization with overlap
     ethr =  3.45E-05,  avg # of iterations =  6.1

     negative rho (up, down):  1.261E-04 0.000E+00

     total cpu time spent up to now is      820.1 secs

     total energy              =   -1405.80728655 Ry
     estimated scf accuracy    <       0.01508689 Ry

     iteration #  8     ecut=   150.00 Ry     beta= 0.70
     Davidson diagonalization with overlap
     ethr =  2.36E-05,  avg # of iterations =  2.3

     negative rho (up, down):  1.439E-04 0.000E+00

     total cpu time spent up to now is      887.9 secs

     total energy              =   -1405.80606341 Ry
     estimated scf accuracy    <       0.00537751 Ry

     iteration #  9     ecut=   150.00 Ry     beta= 0.70
     Davidson diagonalization with overlap
     ethr =  8.40E-06,  avg # of iterations =  8.2

     negative rho (up, down):  1.426E-04 0.000E+00

     total cpu time spent up to now is      990.6 secs

     total energy              =   -1405.80813633 Ry
     estimated scf accuracy    <       0.00843409 Ry

     iteration # 10     ecut=   150.00 Ry     beta= 0.70
     Davidson diagonalization with overlap
     ethr =  8.40E-06,  avg # of iterations =  2.3

     negative rho (up, down):  1.421E-04 0.000E+00

     total cpu time spent up to now is     1058.7 secs

     total energy              =   -1405.80711386 Ry
     estimated scf accuracy    <       0.00360181 Ry

     iteration # 11     ecut=   150.00 Ry     beta= 0.70
     Davidson diagonalization with overlap
     c_bands:  1 eigenvalues not converged
     ethr =  5.63E-06,  avg # of iterations =  6.8

     negative rho (up, down):  1.417E-04 0.000E+00

     total cpu time spent up to now is     1158.8 secs

     total energy              =   -1405.80818304 Ry
     estimated scf accuracy    <       0.00312988 Ry

     iteration # 12     ecut=   150.00 Ry     beta= 0.70
     Davidson diagonalization with overlap
     ethr =  4.89E-06,  avg # of iterations =  2.0

     negative rho (up, down):  1.416E-04 0.000E+00

     total cpu time spent up to now is     1227.0 secs

     total energy              =   -1405.80829077 Ry
     estimated scf accuracy    <       0.00116419 Ry

     iteration # 13     ecut=   150.00 Ry     beta= 0.70
     Davidson diagonalization with overlap
     c_bands:  1 eigenvalues not converged
     ethr =  1.82E-06,  avg # of iterations =  4.3

     negative rho (up, down):  1.438E-04 0.000E+00

     total cpu time spent up to now is     1303.5 secs

     total energy              =   -1405.80840477 Ry
     estimated scf accuracy    <       0.00040755 Ry

     iteration # 14     ecut=   150.00 Ry     beta= 0.70
     Davidson diagonalization with overlap
     ethr =  6.37E-07,  avg # of iterations =  5.1

     negative rho (up, down):  1.446E-04 0.000E+00

     total cpu time spent up to now is     1383.0 secs

     total energy              =   -1405.80842882 Ry
     estimated scf accuracy    <       0.00010019 Ry

     iteration # 15     ecut=   150.00 Ry     beta= 0.70
     Davidson diagonalization with overlap
     ethr =  1.57E-07,  avg # of iterations =  6.5

     negative rho (up, down):  1.446E-04 0.000E+00

     total cpu time spent up to now is     1474.1 secs

     total energy              =   -1405.80846013 Ry
     estimated scf accuracy    <       0.00001918 Ry

     iteration # 16     ecut=   150.00 Ry     beta= 0.70
     Davidson diagonalization with overlap
     ethr =  3.00E-08,  avg # of iterations =  6.6

     negative rho (up, down):  1.444E-04 0.000E+00

     total cpu time spent up to now is     1566.3 secs

     total energy              =   -1405.80846661 Ry
     estimated scf accuracy    <       0.00005743 Ry

     iteration # 17     ecut=   150.00 Ry     beta= 0.70
     Davidson diagonalization with overlap
     ethr =  3.00E-08,  avg # of iterations =  1.2

     negative rho (up, down):  1.443E-04 0.000E+00

     total cpu time spent up to now is     1630.2 secs

     total energy              =   -1405.80846636 Ry
     estimated scf accuracy    <       0.00005926 Ry

     iteration # 18     ecut=   150.00 Ry     beta= 0.70
     Davidson diagonalization with overlap
     ethr =  3.00E-08,  avg # of iterations =  1.2

     negative rho (up, down):  1.441E-04 0.000E+00

     total cpu time spent up to now is     1694.8 secs

     total energy              =   -1405.80845931 Ry
     estimated scf accuracy    <       0.00005833 Ry

     iteration # 19     ecut=   150.00 Ry     beta= 0.70
     Davidson diagonalization with overlap
     c_bands:  1 eigenvalues not converged
     ethr =  3.00E-08,  avg # of iterations =  4.3

     negative rho (up, down):  1.443E-04 0.000E+00

     total cpu time spent up to now is     1768.7 secs

     total energy              =   -1405.80845827 Ry
     estimated scf accuracy    <       0.00001868 Ry

     iteration # 20     ecut=   150.00 Ry     beta= 0.70
     Davidson diagonalization with overlap
     ethr =  2.92E-08,  avg # of iterations =  3.0

     negative rho (up, down):  1.445E-04 0.000E+00

     total cpu time spent up to now is     1839.8 secs

     total energy              =   -1405.80845912 Ry
     estimated scf accuracy    <       0.00000621 Ry

     iteration # 21     ecut=   150.00 Ry     beta= 0.70
     Davidson diagonalization with overlap
     ethr =  9.71E-09,  avg # of iterations =  5.6

     negative rho (up, down):  1.445E-04 0.000E+00

     total cpu time spent up to now is     1920.3 secs

     total energy              =   -1405.80845976 Ry
     estimated scf accuracy    <       0.00000137 Ry

     iteration # 22     ecut=   150.00 Ry     beta= 0.70
     Davidson diagonalization with overlap
     ethr =  2.14E-09,  avg # of iterations =  5.4

     negative rho (up, down):  1.447E-04 0.000E+00

     total cpu time spent up to now is     2006.7 secs

     total energy              =   -1405.80846001 Ry
     estimated scf accuracy    <       0.00000026 Ry

     iteration # 23     ecut=   150.00 Ry     beta= 0.70
     Davidson diagonalization with overlap
     ethr =  4.10E-10,  avg # of iterations =  5.7

     negative rho (up, down):  1.446E-04 0.000E+00

     total cpu time spent up to now is     2091.4 secs

     total energy              =   -1405.80846009 Ry
     estimated scf accuracy    <       0.00000001 Ry

     iteration # 24     ecut=   150.00 Ry     beta= 0.70
     Davidson diagonalization with overlap
     c_bands:  1 eigenvalues not converged
     ethr =  2.19E-11,  avg # of iterations =  9.8

     negative rho (up, down):  1.446E-04 0.000E+00

     total cpu time spent up to now is     2219.1 secs

     total energy              =   -1405.80846010 Ry
     estimated scf accuracy    <       0.00000013 Ry

     iteration # 25     ecut=   150.00 Ry     beta= 0.70
     Davidson diagonalization with overlap
     c_bands:  1 eigenvalues not converged
     ethr =  2.19E-11,  avg # of iterations =  3.7

     negative rho (up, down):  1.446E-04 0.000E+00

     total cpu time spent up to now is     2295.8 secs

     total energy              =   -1405.80846008 Ry
     estimated scf accuracy    <       0.00000008 Ry

     iteration # 26     ecut=   150.00 Ry     beta= 0.70
     Davidson diagonalization with overlap
     c_bands:  1 eigenvalues not converged
     ethr =  2.19E-11,  avg # of iterations =  6.9

     negative rho (up, down):  1.446E-04 0.000E+00

     total cpu time spent up to now is     2397.6 secs

     total energy              =   -1405.80846009 Ry
     estimated scf accuracy    <          9.0E-09 Ry

     iteration # 27     ecut=   150.00 Ry     beta= 0.70
     Davidson diagonalization with overlap
     ethr =  1.41E-11,  avg # of iterations =  6.8

     negative rho (up, down):  1.446E-04 0.000E+00

     total cpu time spent up to now is     2488.8 secs

     total energy              =   -1405.80846009 Ry
     estimated scf accuracy    <          6.3E-09 Ry

     iteration # 28     ecut=   150.00 Ry     beta= 0.70
     Davidson diagonalization with overlap
     ethr =  9.82E-12,  avg # of iterations =  2.4

     negative rho (up, down):  1.446E-04 0.000E+00

     total cpu time spent up to now is     2558.2 secs

     total energy              =   -1405.80846009 Ry
     estimated scf accuracy    <          2.4E-09 Ry

     iteration # 29     ecut=   150.00 Ry     beta= 0.70
     Davidson diagonalization with overlap
     ethr =  3.75E-12,  avg # of iterations =  5.4

     negative rho (up, down):  1.446E-04 0.000E+00

     total cpu time spent up to now is     2646.9 secs

     total energy              =   -1405.80846009 Ry
     estimated scf accuracy    <          4.8E-10 Ry

     iteration # 30     ecut=   150.00 Ry     beta= 0.70
     Davidson diagonalization with overlap
     ethr =  7.57E-13,  avg # of iterations =  6.2

     negative rho (up, down):  1.446E-04 0.000E+00

     total cpu time spent up to now is     2732.7 secs

     total energy              =   -1405.80846009 Ry
     estimated scf accuracy    <          1.6E-10 Ry

     iteration # 31     ecut=   150.00 Ry     beta= 0.70
     Davidson diagonalization with overlap
     ethr =  2.47E-13,  avg # of iterations =  3.0

     negative rho (up, down):  1.446E-04 0.000E+00

     total cpu time spent up to now is     2804.0 secs

     total energy              =   -1405.80846009 Ry
     estimated scf accuracy    <          8.1E-11 Ry

     iteration # 32     ecut=   150.00 Ry     beta= 0.70
     Davidson diagonalization with overlap
     ethr =  1.26E-13,  avg # of iterations =  7.6

     negative rho (up, down):  1.446E-04 0.000E+00

     total cpu time spent up to now is     2891.3 secs

     total energy              =   -1405.80846009 Ry
     estimated scf accuracy    <          2.9E-11 Ry

     iteration # 33     ecut=   150.00 Ry     beta= 0.70
     Davidson diagonalization with overlap
     ethr =  1.00E-13,  avg # of iterations =  1.3

     negative rho (up, down):  1.446E-04 0.000E+00

     total cpu time spent up to now is     2954.7 secs

     total energy              =   -1405.80846009 Ry
     estimated scf accuracy    <          2.5E-11 Ry

     iteration # 34     ecut=   150.00 Ry     beta= 0.70
     Davidson diagonalization with overlap
     ethr =  1.00E-13,  avg # of iterations =  1.6

     negative rho (up, down):  1.446E-04 0.000E+00

     total cpu time spent up to now is     3019.3 secs

     total energy              =   -1405.80846009 Ry
     estimated scf accuracy    <          1.7E-11 Ry

     iteration # 35     ecut=   150.00 Ry     beta= 0.70
     Davidson diagonalization with overlap
     ethr =  1.00E-13,  avg # of iterations =  1.7

     negative rho (up, down):  1.446E-04 0.000E+00

     total cpu time spent up to now is     3083.9 secs

     total energy              =   -1405.80846009 Ry
     estimated scf accuracy    <          8.0E-12 Ry

     iteration # 36     ecut=   150.00 Ry     beta= 0.70
     Davidson diagonalization with overlap
     ethr =  1.00E-13,  avg # of iterations =  2.9

     negative rho (up, down):  1.446E-04 0.000E+00

     total cpu time spent up to now is     3154.0 secs

     total energy              =   -1405.80846009 Ry
     estimated scf accuracy    <          1.7E-12 Ry

     iteration # 37     ecut=   150.00 Ry     beta= 0.70
     Davidson diagonalization with overlap
     ethr =  1.00E-13,  avg # of iterations =  1.3

     negative rho (up, down):  1.446E-04 0.000E+00

     total cpu time spent up to now is     3216.9 secs

     total energy              =   -1405.80846009 Ry
     estimated scf accuracy    <          2.5E-12 Ry

     iteration # 38     ecut=   150.00 Ry     beta= 0.70
     Davidson diagonalization with overlap
     ethr =  1.00E-13,  avg # of iterations =  1.2

     negative rho (up, down):  1.446E-04 0.000E+00

     total cpu time spent up to now is     3279.8 secs

     total energy              =   -1405.80846009 Ry
     estimated scf accuracy    <          1.6E-12 Ry

     iteration # 39     ecut=   150.00 Ry     beta= 0.70
     Davidson diagonalization with overlap
     ethr =  1.00E-13,  avg # of iterations =  1.1

     negative rho (up, down):  1.446E-04 0.000E+00

     total cpu time spent up to now is     3341.8 secs

     total energy              =   -1405.80846009 Ry
     estimated scf accuracy    <          1.3E-12 Ry

     iteration # 40     ecut=   150.00 Ry     beta= 0.70
     Davidson diagonalization with overlap
     ethr =  1.00E-13,  avg # of iterations =  1.0

     negative rho (up, down):  1.446E-04 0.000E+00

     total cpu time spent up to now is     3403.8 secs

     total energy              =   -1405.80846009 Ry
     estimated scf accuracy    <          1.3E-12 Ry

     iteration # 41     ecut=   150.00 Ry     beta= 0.70
     Davidson diagonalization with overlap
     ethr =  1.00E-13,  avg # of iterations =  1.0

     negative rho (up, down):  1.446E-04 0.000E+00

     total cpu time spent up to now is     3466.5 secs

     End of self-consistent calculation

     Number of k-points >= 100: set verbosity='high' to print the bands.

     highest occupied level (ev):    -0.4203

!    total energy              =   -1405.80846009 Ry
     estimated scf accuracy    <          9.8E-13 Ry

     The total energy is the sum of the following terms:
     one-electron contribution =  -12460.40070199 Ry
     hartree contribution      =    6258.48645008 Ry
     xc contribution           =    -145.92603383 Ry
     ewald contribution        =    4942.03182564 Ry

     convergence has been achieved in  41 iterations

     negative rho (up, down):  1.446E-04 0.000E+00

     Forces acting on atoms (cartesian axes, Ry/au):

     atom    1 type  2   force =     0.01238344    0.01220167   -0.00332136
     atom    2 type  1   force =    -0.00979247   -0.00436642    0.07148390
     atom    3 type  1   force =     0.00261152   -0.00747258   -0.01616944
     atom    4 type  3   force =    -0.00520249   -0.00036267   -0.05199310

     Total force =     0.092697     Total SCF correction =     0.000013


     Computing stress (Cartesian axis) and pressure


     negative rho (up, down):  1.446E-04 0.000E+00
          total   stress  (Ry/bohr**3)                   (kbar)     P=      -37.59
  -0.00025770   0.00000074   0.00000288          -37.91        0.11        0.42
   0.00000074  -0.00025479  -0.00000577            0.11      -37.48       -0.85
   0.00000288  -0.00000577  -0.00025417            0.42       -0.85      -37.39


     Writing output data file /scratch/as3359/Mos2_ct_lat/Ta2CO.save/
 
     init_run     :     78.25s CPU     42.48s WALL (       1 calls)
     electrons    :   6732.68s CPU   3423.99s WALL (       1 calls)
     forces       :     21.86s CPU     11.20s WALL (       1 calls)
     stress       :    101.26s CPU     51.79s WALL (       1 calls)

     Called by init_run:
     wfcinit      :     65.19s CPU     33.74s WALL (       1 calls)
     potinit      :      3.45s CPU      1.75s WALL (       1 calls)
     hinit0       :      7.49s CPU      5.51s WALL (       1 calls)

     Called by electrons:
     c_bands      :   5625.56s CPU   2844.56s WALL (      41 calls)
     sum_band     :   1016.90s CPU    523.92s WALL (      41 calls)
     v_of_rho     :     13.43s CPU      7.30s WALL (      42 calls)
     newd         :     72.22s CPU     45.74s WALL (      42 calls)
     mix_rho      :      5.54s CPU      2.93s WALL (      41 calls)

     Called by c_bands:
     init_us_2    :    135.93s CPU     68.01s WALL (    9605 calls)
     cegterg      :   5224.20s CPU   2642.67s WALL (    4633 calls)

     Called by *egterg:
     cdiaghg      :     47.83s CPU     24.49s WALL (   26901 calls)
     h_psi        :   4195.20s CPU   2126.88s WALL (   27014 calls)
     s_psi        :    237.80s CPU    119.06s WALL (   27014 calls)
     g_psi        :     20.54s CPU     10.31s WALL (   22268 calls)

     Called by h_psi:
     h_psi:calbec :    181.75s CPU     91.23s WALL (   27014 calls)
     vloc_psi     :   3739.44s CPU   1898.05s WALL (   27014 calls)
     add_vuspsi   :    247.26s CPU    123.85s WALL (   27014 calls)

     General routines
     calbec       :    240.53s CPU    120.76s WALL (   32212 calls)
     fft          :      8.39s CPU      4.30s WALL (     487 calls)
     ffts         :      0.48s CPU      0.25s WALL (      41 calls)
     fftw         :   3781.10s CPU   1922.39s WALL (  932768 calls)
 
     Parallel routines
 
     PWSCF        :      1h55m CPU  58m57.02s WALL

 
   This run was terminated on:  11: 0:18  14Apr2022            

=------------------------------------------------------------------------------=
   JOB DONE.
=------------------------------------------------------------------------------=
