
     Program PWSCF v.6.8 starts on 11Apr2022 at 11:49:36 

     This program is part of the open-source Quantum ESPRESSO suite
     for quantum simulation of materials; please cite
         "P. Giannozzi et al., J. Phys.:Condens. Matter 21 395502 (2009);
         "P. Giannozzi et al., J. Phys.:Condens. Matter 29 465901 (2017);
         "P. Giannozzi et al., J. Chem. Phys. 152 154105 (2020);
          URL http://www.quantum-espresso.org", 
     in publications or presentations arising from this work. More details at
     http://www.quantum-espresso.org/quote

     Parallel version (MPI & OpenMP), running on       4 processor cores
     Number of MPI processes:                 2
     Threads/MPI process:                     2

     MPI processes distributed on     1 nodes
     R & G space division:  proc/nbgrp/npool/nimage =       2
     124964 MiB available memory on the printing compute node when the environment starts
 
     Reading input from Ta2CH2.scf.5.550.in
Warning: card  &CELL ignored
Warning: card     CELL_DYNAMICS='BFGS' ignored
Warning: card  / ignored

     Current dimensions of program PWSCF are:
     Max number of different atomic species (ntypx) = 10
     Max number of k-points (npk) =  40000
     Max angular momentum in pseudopotentials (lmaxx) =  4
     Message from routine iosys:
     restart disabled: needed files not found
     file Ta.pbesol-spfn-rrkjus_psl.1.0.0.UPF: wavefunction(s)  5S 5P renormalized

     Subspace diagonalization in iterative solution of the eigenvalue problem:
     a serial algorithm will be used

 
     Parallelization info
     --------------------
     sticks:   dense  smooth     PW     G-vecs:    dense   smooth      PW
     Min         672     672    190               192198   192198   30453
     Max         673     673    191               192203   192203   30494
     Sum        1345    1345    381               384401   384401   60947
 
     Using Slab Decomposition
 


     bravais-lattice index     =            0
     lattice parameter (alat)  =       5.5500  a.u.
     unit-cell volume          =    1549.0441 (a.u.)^3
     number of atoms/cell      =            4
     number of atomic types    =            3
     number of electrons       =        64.00
     number of Kohn-Sham states=           32
     kinetic-energy cutoff     =     150.0000  Ry
     charge density cutoff     =     600.0000  Ry
     scf convergence threshold =      1.0E-12
     mixing beta               =       0.7000
     number of iterations used =            8  plain     mixing
     Exchange-correlation= PBESOL
                           (   1   4  10   8   0   0   0)

     celldm(1)=   5.550000  celldm(2)=   0.000000  celldm(3)=   0.000000
     celldm(4)=   0.000000  celldm(5)=   0.000000  celldm(6)=   0.000000

     crystal axes: (cart. coord. in units of alat)
               a(1) = (   1.023061   0.000071   0.000000 )  
               a(2) = (  -0.511470   0.885658   0.000000 )  
               a(3) = (   0.000000   0.000000  10.000000 )  

     reciprocal axes: (cart. coord. in units 2 pi/alat)
               b(1) = (  0.977420  0.564462  0.000000 )  
               b(2) = ( -0.000078  1.129060  0.000000 )  
               b(3) = (  0.000000  0.000000  0.100000 )  


     PseudoPot. # 1 for Ta read from file:
     /shared/home/as3359/pseudo/Ta.pbesol-spfn-rrkjus_psl.1.0.0.UPF
     MD5 check sum: f099565ffaca9b150a52e9412a28e20b
     Pseudo is Ultrasoft + core correction, Zval = 27.0
     Generated using &quot;atomic&quot; code by A. Dal Corso  v.6.3
     Using radial grid of 1273 points,  8 beta functions with: 
                l(1) =   0
                l(2) =   0
                l(3) =   1
                l(4) =   1
                l(5) =   2
                l(6) =   2
                l(7) =   3
                l(8) =   3
     Q(r) pseudized with 0 coefficients 


     PseudoPot. # 2 for C  read from file:
     /shared/home/as3359/pseudo/C.pbesol-n-rrkjus_psl.1.0.0.UPF
     MD5 check sum: 05995be603a8a7c99da3dc4413f31573
     Pseudo is Ultrasoft + core correction, Zval =  4.0
     Generated using &quot;atomic&quot; code by A. Dal Corso  v.6.3MaX
     Using radial grid of 1073 points,  4 beta functions with: 
                l(1) =   0
                l(2) =   0
                l(3) =   1
                l(4) =   1
     Q(r) pseudized with 0 coefficients 


     PseudoPot. # 3 for O  read from file:
     /shared/home/as3359/pseudo/O.pbesol-n-rrkjus_psl.1.0.0.UPF
     MD5 check sum: dd9bad2534826f832ffc9296591fc5de
     Pseudo is Ultrasoft + core correction, Zval =  6.0
     Generated using &quot;atomic&quot; code by A. Dal Corso  v.6.3MaX
     Using radial grid of 1095 points,  4 beta functions with: 
                l(1) =   0
                l(2) =   0
                l(3) =   1
                l(4) =   1
     Q(r) pseudized with 0 coefficients 


     atomic species   valence    mass     pseudopotential
        Ta            27.00   180.94788     Ta( 1.00)
        C              4.00    12.01070     C ( 1.00)
        O              6.00    15.99940     O ( 1.00)

     No symmetry found



   Cartesian axes

     site n.     atom                  positions (alat units)
         1           C   tau(   1) = (   0.0000000   0.0000000   0.0000000  )
         2           Ta  tau(   2) = (   0.5237441   0.2989654  -0.4007024  )
         3           Ta  tau(   3) = (  -0.0010323   0.6027030   0.4306046  )
         4           O   tau(   4) = (   0.5210222   0.3011869   0.8013113  )

     number of k points=   113

     Number of k-points >= 100: set verbosity='high' to print them.

     Dense  grid:   384401 G-vectors     FFT dimensions: (  45,  45, 450)

     Estimated max dynamical RAM per process >       3.14 GB

     Estimated total dynamical RAM >       6.27 GB
     Cannot read rho : file not found

     Initial potential from superposition of free atoms

     starting charge   63.99842, renormalised to   64.00000

     negative rho (up, down):  1.125E-04 0.000E+00
     Message from routine qexsd_readschema :
     xml data file /scratch/as3359/Mos2_ct_lat/Ta2CH2.save/data-file-schema.xml not f
     Cannot read wfcs: file not found
     Starting wfcs are   42 randomized atomic wfcs

     total cpu time spent up to now is       39.3 secs

     Self-consistent Calculation

     iteration #  1     ecut=   150.00 Ry     beta= 0.70
     Davidson diagonalization with overlap
     c_bands:  1 eigenvalues not converged
     c_bands:  1 eigenvalues not converged
     c_bands:  1 eigenvalues not converged
     c_bands:  1 eigenvalues not converged
     c_bands:  1 eigenvalues not converged
     c_bands:  1 eigenvalues not converged
     c_bands:  1 eigenvalues not converged
     c_bands:  1 eigenvalues not converged
     c_bands:  1 eigenvalues not converged
     c_bands:  1 eigenvalues not converged
     c_bands:  1 eigenvalues not converged
     c_bands:  1 eigenvalues not converged
     c_bands:  1 eigenvalues not converged
     ethr =  1.00E-05,  avg # of iterations = 12.4

     negative rho (up, down):  1.219E-04 0.000E+00

     total cpu time spent up to now is      212.3 secs

     total energy              =   -1405.06448940 Ry
     estimated scf accuracy    <       1.37925344 Ry

     iteration #  2     ecut=   150.00 Ry     beta= 0.70
     Davidson diagonalization with overlap
     ethr =  2.16E-03,  avg # of iterations = 10.2

     negative rho (up, down):  8.994E-05 0.000E+00

     total cpu time spent up to now is      316.3 secs

     total energy              =   -1403.21861226 Ry
     estimated scf accuracy    <      16.80418852 Ry

     iteration #  3     ecut=   150.00 Ry     beta= 0.70
     Davidson diagonalization with overlap
     c_bands:  1 eigenvalues not converged
     c_bands:  1 eigenvalues not converged
     ethr =  2.16E-03,  avg # of iterations = 12.9

     negative rho (up, down):  7.811E-05 0.000E+00

     total cpu time spent up to now is      430.4 secs

     total energy              =   -1404.25024096 Ry
     estimated scf accuracy    <      31.93915041 Ry

     iteration #  4     ecut=   150.00 Ry     beta= 0.70
     Davidson diagonalization with overlap
     ethr =  2.16E-03,  avg # of iterations =  8.1

     negative rho (up, down):  8.178E-05 0.000E+00

     total cpu time spent up to now is      521.7 secs

     total energy              =   -1405.77289238 Ry
     estimated scf accuracy    <       0.30856793 Ry

     iteration #  5     ecut=   150.00 Ry     beta= 0.70
     Davidson diagonalization with overlap
     ethr =  4.82E-04,  avg # of iterations =  6.3

     negative rho (up, down):  8.332E-05 0.000E+00

     total cpu time spent up to now is      593.2 secs

     total energy              =   -1405.81156283 Ry
     estimated scf accuracy    <       0.04591220 Ry

     iteration #  6     ecut=   150.00 Ry     beta= 0.70
     Davidson diagonalization with overlap
     ethr =  7.17E-05,  avg # of iterations =  6.0

     negative rho (up, down):  8.953E-05 0.000E+00

     total cpu time spent up to now is      669.4 secs

     total energy              =   -1405.81799001 Ry
     estimated scf accuracy    <       0.02322223 Ry

     iteration #  7     ecut=   150.00 Ry     beta= 0.70
     Davidson diagonalization with overlap
     ethr =  3.63E-05,  avg # of iterations =  2.6

     negative rho (up, down):  9.931E-05 0.000E+00

     total cpu time spent up to now is      733.1 secs

     total energy              =   -1405.81519483 Ry
     estimated scf accuracy    <       0.01707729 Ry

     iteration #  8     ecut=   150.00 Ry     beta= 0.70
     Davidson diagonalization with overlap
     ethr =  2.67E-05,  avg # of iterations =  6.2

     negative rho (up, down):  1.003E-04 0.000E+00

     total cpu time spent up to now is      821.0 secs

     total energy              =   -1405.82231166 Ry
     estimated scf accuracy    <       0.03958661 Ry

     iteration #  9     ecut=   150.00 Ry     beta= 0.70
     Davidson diagonalization with overlap
     ethr =  2.67E-05,  avg # of iterations =  1.0

     negative rho (up, down):  1.052E-04 0.000E+00

     total cpu time spent up to now is      877.7 secs

     total energy              =   -1405.80442880 Ry
     estimated scf accuracy    <       0.03448895 Ry

     iteration # 10     ecut=   150.00 Ry     beta= 0.70
     Davidson diagonalization with overlap
     ethr =  2.67E-05,  avg # of iterations =  7.4

     negative rho (up, down):  1.156E-04 0.000E+00

     total cpu time spent up to now is      973.8 secs

     total energy              =   -1405.81608629 Ry
     estimated scf accuracy    <       0.02502488 Ry

     iteration # 11     ecut=   150.00 Ry     beta= 0.70
     Davidson diagonalization with overlap
     ethr =  2.67E-05,  avg # of iterations =  2.3

     negative rho (up, down):  1.246E-04 0.000E+00

     total cpu time spent up to now is     1037.1 secs

     total energy              =   -1405.81511752 Ry
     estimated scf accuracy    <       0.01125720 Ry

     iteration # 12     ecut=   150.00 Ry     beta= 0.70
     Davidson diagonalization with overlap
     ethr =  1.76E-05,  avg # of iterations =  6.3

     negative rho (up, down):  1.219E-04 0.000E+00

     total cpu time spent up to now is     1114.9 secs

     total energy              =   -1405.81717758 Ry
     estimated scf accuracy    <       0.00039564 Ry

     iteration # 13     ecut=   150.00 Ry     beta= 0.70
     Davidson diagonalization with overlap
     c_bands:  1 eigenvalues not converged
     ethr =  6.18E-07,  avg # of iterations =  8.8

     negative rho (up, down):  1.274E-04 0.000E+00

     total cpu time spent up to now is     1209.3 secs

     total energy              =   -1405.81743204 Ry
     estimated scf accuracy    <       0.00234184 Ry

     iteration # 14     ecut=   150.00 Ry     beta= 0.70
     Davidson diagonalization with overlap
     c_bands:  1 eigenvalues not converged
     ethr =  6.18E-07,  avg # of iterations =  7.4

     negative rho (up, down):  1.291E-04 0.000E+00

     total cpu time spent up to now is     1284.8 secs

     total energy              =   -1405.81745617 Ry
     estimated scf accuracy    <       0.00051681 Ry

     iteration # 15     ecut=   150.00 Ry     beta= 0.70
     Davidson diagonalization with overlap
     ethr =  6.18E-07,  avg # of iterations =  1.7

     negative rho (up, down):  1.324E-04 0.000E+00

     total cpu time spent up to now is     1343.8 secs

     total energy              =   -1405.81737468 Ry
     estimated scf accuracy    <       0.00031674 Ry

     iteration # 16     ecut=   150.00 Ry     beta= 0.70
     Davidson diagonalization with overlap
     ethr =  4.95E-07,  avg # of iterations =  6.7

     negative rho (up, down):  1.360E-04 0.000E+00

     total cpu time spent up to now is     1427.3 secs

     total energy              =   -1405.81745711 Ry
     estimated scf accuracy    <       0.00021888 Ry

     iteration # 17     ecut=   150.00 Ry     beta= 0.70
     Davidson diagonalization with overlap
     ethr =  3.42E-07,  avg # of iterations =  1.7

     negative rho (up, down):  1.380E-04 0.000E+00

     total cpu time spent up to now is     1485.1 secs

     total energy              =   -1405.81744922 Ry
     estimated scf accuracy    <       0.00013714 Ry

     iteration # 18     ecut=   150.00 Ry     beta= 0.70
     Davidson diagonalization with overlap
     ethr =  2.14E-07,  avg # of iterations =  3.8

     negative rho (up, down):  1.356E-04 0.000E+00

     total cpu time spent up to now is     1549.5 secs

     total energy              =   -1405.81745325 Ry
     estimated scf accuracy    <       0.00003423 Ry

     iteration # 19     ecut=   150.00 Ry     beta= 0.70
     Davidson diagonalization with overlap
     ethr =  5.35E-08,  avg # of iterations =  7.8

     negative rho (up, down):  1.378E-04 0.000E+00

     total cpu time spent up to now is     1629.6 secs

     total energy              =   -1405.81746291 Ry
     estimated scf accuracy    <       0.00002696 Ry

     iteration # 20     ecut=   150.00 Ry     beta= 0.70
     Davidson diagonalization with overlap
     ethr =  4.21E-08,  avg # of iterations =  1.2

     negative rho (up, down):  1.379E-04 0.000E+00

     total cpu time spent up to now is     1685.5 secs

     total energy              =   -1405.81746164 Ry
     estimated scf accuracy    <       0.00002308 Ry

     iteration # 21     ecut=   150.00 Ry     beta= 0.70
     Davidson diagonalization with overlap
     ethr =  3.61E-08,  avg # of iterations =  2.1

     negative rho (up, down):  1.377E-04 0.000E+00

     total cpu time spent up to now is     1746.3 secs

     total energy              =   -1405.81746167 Ry
     estimated scf accuracy    <       0.00000996 Ry

     iteration # 22     ecut=   150.00 Ry     beta= 0.70
     Davidson diagonalization with overlap
     ethr =  1.56E-08,  avg # of iterations =  4.1

     negative rho (up, down):  1.376E-04 0.000E+00

     total cpu time spent up to now is     1809.1 secs

     total energy              =   -1405.81746186 Ry
     estimated scf accuracy    <       0.00000263 Ry

     iteration # 23     ecut=   150.00 Ry     beta= 0.70
     Davidson diagonalization with overlap
     ethr =  4.11E-09,  avg # of iterations =  7.9

     negative rho (up, down):  1.377E-04 0.000E+00

     total cpu time spent up to now is     1888.7 secs

     total energy              =   -1405.81746259 Ry
     estimated scf accuracy    <       0.00000193 Ry

     iteration # 24     ecut=   150.00 Ry     beta= 0.70
     Davidson diagonalization with overlap
     ethr =  3.01E-09,  avg # of iterations =  1.7

     negative rho (up, down):  1.377E-04 0.000E+00

     total cpu time spent up to now is     1946.4 secs

     total energy              =   -1405.81746246 Ry
     estimated scf accuracy    <       0.00000135 Ry

     iteration # 25     ecut=   150.00 Ry     beta= 0.70
     Davidson diagonalization with overlap
     ethr =  2.11E-09,  avg # of iterations =  7.0

     negative rho (up, down):  1.377E-04 0.000E+00

     total cpu time spent up to now is     2016.9 secs

     total energy              =   -1405.81746262 Ry
     estimated scf accuracy    <       0.00000006 Ry

     iteration # 26     ecut=   150.00 Ry     beta= 0.70
     Davidson diagonalization with overlap
     c_bands:  1 eigenvalues not converged
     c_bands:  1 eigenvalues not converged
     c_bands:  1 eigenvalues not converged
     ethr =  9.24E-11,  avg # of iterations = 12.8

     negative rho (up, down):  1.377E-04 0.000E+00

     total cpu time spent up to now is     2125.0 secs

     total energy              =   -1405.81746269 Ry
     estimated scf accuracy    <       0.00000314 Ry

     iteration # 27     ecut=   150.00 Ry     beta= 0.70
     Davidson diagonalization with overlap
     c_bands:  1 eigenvalues not converged
     ethr =  9.24E-11,  avg # of iterations =  8.4

     negative rho (up, down):  1.377E-04 0.000E+00

     total cpu time spent up to now is     2203.6 secs

     total energy              =   -1405.81746258 Ry
     estimated scf accuracy    <       0.00000160 Ry

     iteration # 28     ecut=   150.00 Ry     beta= 0.70
     Davidson diagonalization with overlap
     c_bands:  1 eigenvalues not converged
     ethr =  9.24E-11,  avg # of iterations =  8.3

     negative rho (up, down):  1.377E-04 0.000E+00

     total cpu time spent up to now is     2290.2 secs

     total energy              =   -1405.81746262 Ry
     estimated scf accuracy    <       0.00000014 Ry

     iteration # 29     ecut=   150.00 Ry     beta= 0.70
     Davidson diagonalization with overlap
     ethr =  9.24E-11,  avg # of iterations =  2.1

     negative rho (up, down):  1.377E-04 0.000E+00

     total cpu time spent up to now is     2349.6 secs

     total energy              =   -1405.81746261 Ry
     estimated scf accuracy    <       0.00000009 Ry

     iteration # 30     ecut=   150.00 Ry     beta= 0.70
     Davidson diagonalization with overlap
     ethr =  9.24E-11,  avg # of iterations =  7.5

     negative rho (up, down):  1.377E-04 0.000E+00

     total cpu time spent up to now is     2422.6 secs

     total energy              =   -1405.81746262 Ry
     estimated scf accuracy    <          2.9E-09 Ry

     iteration # 31     ecut=   150.00 Ry     beta= 0.70
     Davidson diagonalization with overlap
     c_bands:  1 eigenvalues not converged
     ethr =  4.52E-12,  avg # of iterations =  9.2

     negative rho (up, down):  1.377E-04 0.000E+00

     total cpu time spent up to now is     2516.3 secs

     total energy              =   -1405.81746262 Ry
     estimated scf accuracy    <       0.00000005 Ry

     iteration # 32     ecut=   150.00 Ry     beta= 0.70
     Davidson diagonalization with overlap
     ethr =  4.52E-12,  avg # of iterations =  2.1

     negative rho (up, down):  1.377E-04 0.000E+00

     total cpu time spent up to now is     2576.7 secs

     total energy              =   -1405.81746262 Ry
     estimated scf accuracy    <       0.00000004 Ry

     iteration # 33     ecut=   150.00 Ry     beta= 0.70
     Davidson diagonalization with overlap
     ethr =  4.52E-12,  avg # of iterations =  7.0

     negative rho (up, down):  1.377E-04 0.000E+00

     total cpu time spent up to now is     2647.7 secs

     total energy              =   -1405.81746262 Ry
     estimated scf accuracy    <       0.00000002 Ry

     iteration # 34     ecut=   150.00 Ry     beta= 0.70
     Davidson diagonalization with overlap
     ethr =  4.52E-12,  avg # of iterations =  3.1

     negative rho (up, down):  1.377E-04 0.000E+00

     total cpu time spent up to now is     2708.9 secs

     total energy              =   -1405.81746262 Ry
     estimated scf accuracy    <       0.00000002 Ry

     iteration # 35     ecut=   150.00 Ry     beta= 0.70
     Davidson diagonalization with overlap
     ethr =  4.52E-12,  avg # of iterations =  2.8

     negative rho (up, down):  1.377E-04 0.000E+00

     total cpu time spent up to now is     2771.8 secs

     total energy              =   -1405.81746262 Ry
     estimated scf accuracy    <       0.00000001 Ry

     iteration # 36     ecut=   150.00 Ry     beta= 0.70
     Davidson diagonalization with overlap
     ethr =  4.52E-12,  avg # of iterations =  4.8

     negative rho (up, down):  1.377E-04 0.000E+00

     total cpu time spent up to now is     2838.8 secs

     total energy              =   -1405.81746262 Ry
     estimated scf accuracy    <          4.1E-09 Ry

     iteration # 37     ecut=   150.00 Ry     beta= 0.70
     Davidson diagonalization with overlap
     ethr =  4.52E-12,  avg # of iterations =  2.5

     negative rho (up, down):  1.377E-04 0.000E+00

     total cpu time spent up to now is     2899.0 secs

     total energy              =   -1405.81746262 Ry
     estimated scf accuracy    <          2.1E-09 Ry

     iteration # 38     ecut=   150.00 Ry     beta= 0.70
     Davidson diagonalization with overlap
     ethr =  3.22E-12,  avg # of iterations =  4.7

     negative rho (up, down):  1.377E-04 0.000E+00

     total cpu time spent up to now is     2964.3 secs

     total energy              =   -1405.81746262 Ry
     estimated scf accuracy    <          1.3E-10 Ry

     iteration # 39     ecut=   150.00 Ry     beta= 0.70
     Davidson diagonalization with overlap
     c_bands:  2 eigenvalues not converged
     ethr =  2.00E-13,  avg # of iterations = 12.5

     negative rho (up, down):  1.377E-04 0.000E+00

     total cpu time spent up to now is     3069.2 secs

     total energy              =   -1405.81746262 Ry
     estimated scf accuracy    <          3.9E-09 Ry

     iteration # 40     ecut=   150.00 Ry     beta= 0.70
     Davidson diagonalization with overlap
     c_bands:  1 eigenvalues not converged
     ethr =  2.00E-13,  avg # of iterations =  8.4

     negative rho (up, down):  1.377E-04 0.000E+00

     total cpu time spent up to now is     3157.9 secs

     total energy              =   -1405.81746262 Ry
     estimated scf accuracy    <          1.4E-10 Ry

     iteration # 41     ecut=   150.00 Ry     beta= 0.70
     Davidson diagonalization with overlap
     ethr =  2.00E-13,  avg # of iterations =  1.3

     negative rho (up, down):  1.377E-04 0.000E+00

     total cpu time spent up to now is     3214.1 secs

     total energy              =   -1405.81746262 Ry
     estimated scf accuracy    <          1.1E-10 Ry

     iteration # 42     ecut=   150.00 Ry     beta= 0.70
     Davidson diagonalization with overlap
     ethr =  1.72E-13,  avg # of iterations =  4.0

     negative rho (up, down):  1.377E-04 0.000E+00

     total cpu time spent up to now is     3277.9 secs

     total energy              =   -1405.81746262 Ry
     estimated scf accuracy    <          8.6E-12 Ry

     iteration # 43     ecut=   150.00 Ry     beta= 0.70
     Davidson diagonalization with overlap
     ethr =  1.00E-13,  avg # of iterations =  2.3

     negative rho (up, down):  1.377E-04 0.000E+00

     total cpu time spent up to now is     3337.5 secs

     total energy              =   -1405.81746262 Ry
     estimated scf accuracy    <          1.9E-12 Ry

     iteration # 44     ecut=   150.00 Ry     beta= 0.70
     Davidson diagonalization with overlap
     ethr =  1.00E-13,  avg # of iterations =  7.8

     negative rho (up, down):  1.377E-04 0.000E+00

     total cpu time spent up to now is     3410.6 secs

     total energy              =   -1405.81746262 Ry
     estimated scf accuracy    <          9.9E-11 Ry

     iteration # 45     ecut=   150.00 Ry     beta= 0.70
     Davidson diagonalization with overlap
     ethr =  1.00E-13,  avg # of iterations =  1.2

     negative rho (up, down):  1.377E-04 0.000E+00

     total cpu time spent up to now is     3466.3 secs

     total energy              =   -1405.81746262 Ry
     estimated scf accuracy    <          8.3E-11 Ry

     iteration # 46     ecut=   150.00 Ry     beta= 0.70
     Davidson diagonalization with overlap
     ethr =  1.00E-13,  avg # of iterations =  2.0

     negative rho (up, down):  1.377E-04 0.000E+00

     total cpu time spent up to now is     3524.6 secs

     total energy              =   -1405.81746262 Ry
     estimated scf accuracy    <          5.2E-11 Ry

     iteration # 47     ecut=   150.00 Ry     beta= 0.70
     Davidson diagonalization with overlap
     ethr =  1.00E-13,  avg # of iterations =  2.0

     negative rho (up, down):  1.377E-04 0.000E+00

     total cpu time spent up to now is     3583.1 secs

     total energy              =   -1405.81746262 Ry
     estimated scf accuracy    <          3.1E-11 Ry

     iteration # 48     ecut=   150.00 Ry     beta= 0.70
     Davidson diagonalization with overlap
     ethr =  1.00E-13,  avg # of iterations =  6.6

     negative rho (up, down):  1.377E-04 0.000E+00

     total cpu time spent up to now is     3652.3 secs

     total energy              =   -1405.81746262 Ry
     estimated scf accuracy    <          9.8E-12 Ry

     iteration # 49     ecut=   150.00 Ry     beta= 0.70
     Davidson diagonalization with overlap
     ethr =  1.00E-13,  avg # of iterations =  1.6

     negative rho (up, down):  1.377E-04 0.000E+00

     total cpu time spent up to now is     3709.3 secs

     total energy              =   -1405.81746262 Ry
     estimated scf accuracy    <          1.2E-11 Ry

     iteration # 50     ecut=   150.00 Ry     beta= 0.70
     Davidson diagonalization with overlap
     ethr =  1.00E-13,  avg # of iterations =  1.2

     negative rho (up, down):  1.377E-04 0.000E+00

     total cpu time spent up to now is     3765.0 secs

     total energy              =   -1405.81746262 Ry
     estimated scf accuracy    <          9.5E-12 Ry

     iteration # 51     ecut=   150.00 Ry     beta= 0.70
     Davidson diagonalization with overlap
     ethr =  1.00E-13,  avg # of iterations =  1.7

     negative rho (up, down):  1.377E-04 0.000E+00

     total cpu time spent up to now is     3822.9 secs

     total energy              =   -1405.81746262 Ry
     estimated scf accuracy    <          2.0E-12 Ry

     iteration # 52     ecut=   150.00 Ry     beta= 0.70
     Davidson diagonalization with overlap
     ethr =  1.00E-13,  avg # of iterations =  1.0

     negative rho (up, down):  1.377E-04 0.000E+00

     total cpu time spent up to now is     3877.9 secs

     End of self-consistent calculation

     Number of k-points >= 100: set verbosity='high' to print the bands.

     highest occupied level (ev):     0.4417

!    total energy              =   -1405.81746262 Ry
     estimated scf accuracy    <          8.4E-13 Ry

     The total energy is the sum of the following terms:
     one-electron contribution =  -12909.09991589 Ry
     hartree contribution      =    6485.09027649 Ry
     xc contribution           =    -146.45369506 Ry
     ewald contribution        =    5164.64587184 Ry

     convergence has been achieved in  52 iterations

     negative rho (up, down):  1.377E-04 0.000E+00

     Forces acting on atoms (cartesian axes, Ry/au):

     atom    1 type  2   force =     0.01764332    0.01791696   -0.00612917
     atom    2 type  1   force =    -0.01580425   -0.00545725   -0.02603925
     atom    3 type  1   force =     0.00839443   -0.01454984    0.00301189
     atom    4 type  3   force =    -0.01023350    0.00209013    0.02915654

     Total force =     0.053646     Total SCF correction =     0.000011


     Computing stress (Cartesian axis) and pressure


     negative rho (up, down):  1.377E-04 0.000E+00
          total   stress  (Ry/bohr**3)                   (kbar)     P=       33.48
   0.00027593   0.00000177   0.00000626           40.59        0.26        0.92
   0.00000177   0.00028191  -0.00000861            0.26       41.47       -1.27
   0.00000626  -0.00000861   0.00012498            0.92       -1.27       18.39


     Writing output data file /scratch/as3359/Mos2_ct_lat/Ta2CH2.save/
 
     init_run     :     72.19s CPU     39.05s WALL (       1 calls)
     electrons    :   7563.65s CPU   3838.69s WALL (       1 calls)
     forces       :     19.05s CPU      9.75s WALL (       1 calls)
     stress       :     86.16s CPU     44.04s WALL (       1 calls)

     Called by init_run:
     wfcinit      :     60.60s CPU     31.26s WALL (       1 calls)
     potinit      :      2.99s CPU      1.52s WALL (       1 calls)
     hinit0       :      6.76s CPU      4.99s WALL (       1 calls)

     Called by electrons:
     c_bands      :   6343.85s CPU   3201.54s WALL (      52 calls)
     sum_band     :   1121.41s CPU    576.76s WALL (      52 calls)
     v_of_rho     :     14.04s CPU      7.63s WALL (      53 calls)
     newd         :     79.28s CPU     50.15s WALL (      53 calls)
     mix_rho      :      5.90s CPU      3.12s WALL (      52 calls)

     Called by c_bands:
     init_us_2    :    150.74s CPU     75.44s WALL (   12091 calls)
     cegterg      :   5881.44s CPU   2968.91s WALL (    5876 calls)

     Called by *egterg:
     cdiaghg      :     63.73s CPU     32.65s WALL (   36669 calls)
     h_psi        :   4725.46s CPU   2389.17s WALL (   36782 calls)
     s_psi        :    262.77s CPU    131.51s WALL (   36782 calls)
     g_psi        :     26.97s CPU     13.54s WALL (   30793 calls)

     Called by h_psi:
     h_psi:calbec :    199.61s CPU    100.04s WALL (   36782 calls)
     vloc_psi     :   4218.26s CPU   2134.81s WALL (   36782 calls)
     add_vuspsi   :    277.77s CPU    139.04s WALL (   36782 calls)

     General routines
     calbec       :    258.08s CPU    129.37s WALL (   43223 calls)
     fft          :      6.91s CPU      3.52s WALL (     608 calls)
     ffts         :      0.52s CPU      0.27s WALL (      52 calls)
     fftw         :   4398.07s CPU   2227.45s WALL ( 1158562 calls)
 
     Parallel routines
 
     PWSCF        :      2h 9m CPU      1h 5m WALL

 
   This run was terminated on:  12:55:15  11Apr2022            

=------------------------------------------------------------------------------=
   JOB DONE.
=------------------------------------------------------------------------------=
