
     Program PWSCF v.6.8 starts on  8Apr2022 at 12:39:14 

     This program is part of the open-source Quantum ESPRESSO suite
     for quantum simulation of materials; please cite
         "P. Giannozzi et al., J. Phys.:Condens. Matter 21 395502 (2009);
         "P. Giannozzi et al., J. Phys.:Condens. Matter 29 465901 (2017);
         "P. Giannozzi et al., J. Chem. Phys. 152 154105 (2020);
          URL http://www.quantum-espresso.org", 
     in publications or presentations arising from this work. More details at
     http://www.quantum-espresso.org/quote

     Parallel version (MPI & OpenMP), running on       4 processor cores
     Number of MPI processes:                 2
     Threads/MPI process:                     2

     MPI processes distributed on     1 nodes
     R & G space division:  proc/nbgrp/npool/nimage =       2
     124658 MiB available memory on the printing compute node when the environment starts
 
     Reading input from MoS2.relax.in
Warning: card  &CELL ignored
Warning: card     CELL_DYNAMICS='BFGS', CELL_DOFREE ='2DXY' ignored
Warning: card  / ignored

     Current dimensions of program PWSCF are:
     Max number of different atomic species (ntypx) = 10
     Max number of k-points (npk) =  40000
     Max angular momentum in pseudopotentials (lmaxx) =  4
     file Mo.pbesol-spn-kjpaw_psl.1.0.0.UPF: wavefunction(s)  4S 4D renormalized
     file S.pbesol-nl-kjpaw_psl.1.0.0.UPF: wavefunction(s)  3S renormalized
     Message from routine setup:
     using ibrav=0 with symmetry is DISCOURAGED, use correct ibrav instead

     Subspace diagonalization in iterative solution of the eigenvalue problem:
     a serial algorithm will be used

 
     Parallelization info
     --------------------
     sticks:   dense  smooth     PW     G-vecs:    dense   smooth      PW
     Min         366     291     93                64994    46545    8519
     Max         367     292     94                65005    46568    8544
     Sum         733     583    187               129999    93113   17063
 
     Using Slab Decomposition
 


     bravais-lattice index     =            0
     lattice parameter (alat)  =       6.0720  a.u.
     unit-cell volume          =    1480.0328 (a.u.)^3
     number of atoms/cell      =            6
     number of atomic types    =            2
     number of electrons       =        52.00
     number of Kohn-Sham states=           26
     kinetic-energy cutoff     =      60.0000  Ry
     charge density cutoff     =     300.0000  Ry
     scf convergence threshold =      1.0E-12
     mixing beta               =       0.7000
     number of iterations used =            8  plain     mixing
     energy convergence thresh.=      1.0E-04
     force convergence thresh. =      1.0E-03
     Exchange-correlation= SLA  PW   PSX  PSC
                           (   1   4  10   8   0   0   0)
     nstep                     =           50


     celldm(1)=   6.072000  celldm(2)=   0.000000  celldm(3)=   0.000000
     celldm(4)=   0.000000  celldm(5)=   0.000000  celldm(6)=   0.000000

     crystal axes: (cart. coord. in units of alat)
               a(1) = (   0.976798  -0.000202   0.000000 )  
               a(2) = (  -0.488299   0.846122   0.000000 )  
               a(3) = (   0.000000   0.000000   8.000000 )  

     reciprocal axes: (cart. coord. in units 2 pi/alat)
               b(1) = (  1.023875  0.590880  0.000000 )  
               b(2) = (  0.000244  1.182003  0.000000 )  
               b(3) = (  0.000000  0.000000  0.125000 )  


     PseudoPot. # 1 for Mo read from file:
     /shared/home/as3359/pseudo/Mo.pbesol-spn-kjpaw_psl.1.0.0.UPF
     MD5 check sum: de57925cfc675213e43241dcc441eda8
     Pseudo is Projector augmented-wave + core cor, Zval = 14.0
     Generated using &quot;atomic&quot; code by A. Dal Corso  v.6.3
     Shape of augmentation charge: PSQ
     Using radial grid of 1229 points,  6 beta functions with: 
                l(1) =   0
                l(2) =   0
                l(3) =   1
                l(4) =   1
                l(5) =   2
                l(6) =   2
     Q(r) pseudized with 0 coefficients 


     PseudoPot. # 2 for S  read from file:
     /shared/home/as3359/pseudo/S.pbesol-nl-kjpaw_psl.1.0.0.UPF
     MD5 check sum: bf3db50ec3f960682bbc396f1aadd1dd
     Pseudo is Projector augmented-wave + core cor, Zval =  6.0
     Generated using &quot;atomic&quot; code by A. Dal Corso  v.6.3
     Shape of augmentation charge: PSQ
     Using radial grid of 1151 points,  4 beta functions with: 
                l(1) =   0
                l(2) =   0
                l(3) =   1
                l(4) =   1
     Q(r) pseudized with 0 coefficients 


     atomic species   valence    mass     pseudopotential
        Mo            14.00    95.94000     Mo( 1.00)
        S              6.00    32.06500     S ( 1.00)

      2 Sym. Ops. (no inversion) found ( 1 have fractional translation)



   Cartesian axes

     site n.     atom                  positions (alat units)
         1           Mo  tau(   1) = (   0.0000000   0.0000000   0.8657911  )
         2           S   tau(   2) = (   0.4884432   0.2819379   1.3514993  )
         3           S   tau(   3) = (   0.4884704   0.2819219   0.3800977  )
         4           Mo  tau(   4) = (   0.0000000   0.0000000   3.1342089  )
         5           S   tau(   5) = (   0.4884704   0.2819219   3.6199023  )
         6           S   tau(   6) = (   0.4884432   0.2819379   2.6485007  )

     number of k points=    74
                       cart. coord. in units 2pi/alat
        k(    1) = (   0.0000000   0.0000000   0.0000000), wk =   0.0138889
        k(    2) = (   0.0000204   0.0985003   0.0000000), wk =   0.0277778
        k(    3) = (   0.0000407   0.1970005   0.0000000), wk =   0.0277778
        k(    4) = (   0.0000611   0.2955008   0.0000000), wk =   0.0277778
        k(    5) = (   0.0000814   0.3940011   0.0000000), wk =   0.0277778
        k(    6) = (   0.0001018   0.4925014   0.0000000), wk =   0.0277778
        k(    7) = (  -0.0001221  -0.5910016   0.0000000), wk =   0.0138889
        k(    8) = (   0.0853229   0.0492400   0.0000000), wk =   0.0277778
        k(    9) = (   0.0853433   0.1477403   0.0000000), wk =   0.0277778
        k(   10) = (   0.0853637   0.2462406   0.0000000), wk =   0.0277778
        k(   11) = (   0.0853840   0.3447408   0.0000000), wk =   0.0277778
        k(   12) = (   0.0854044   0.4432411   0.0000000), wk =   0.0277778
        k(   13) = (   0.0854247   0.5417414   0.0000000), wk =   0.0277778
        k(   14) = (   0.0852008  -0.5417616   0.0000000), wk =   0.0277778
        k(   15) = (   0.0852212  -0.4432613   0.0000000), wk =   0.0277778
        k(   16) = (   0.0852415  -0.3447611   0.0000000), wk =   0.0277778
        k(   17) = (   0.0852619  -0.2462608   0.0000000), wk =   0.0277778
        k(   18) = (   0.0852822  -0.1477605   0.0000000), wk =   0.0277778
        k(   19) = (   0.0853026  -0.0492602   0.0000000), wk =   0.0277778
        k(   20) = (   0.1706459   0.0984800   0.0000000), wk =   0.0277778
        k(   21) = (   0.1706662   0.1969803   0.0000000), wk =   0.0277778
        k(   22) = (   0.1706866   0.2954806   0.0000000), wk =   0.0277778
        k(   23) = (   0.1707069   0.3939809   0.0000000), wk =   0.0277778
        k(   24) = (   0.1707273   0.4924811   0.0000000), wk =   0.0277778
        k(   25) = (   0.1707477   0.5909814   0.0000000), wk =   0.0277778
        k(   26) = (   0.1705237  -0.4925216   0.0000000), wk =   0.0277778
        k(   27) = (   0.1705441  -0.3940213   0.0000000), wk =   0.0277778
        k(   28) = (   0.1705645  -0.2955210   0.0000000), wk =   0.0277778
        k(   29) = (   0.1705848  -0.1970208   0.0000000), wk =   0.0277778
        k(   30) = (   0.1706052  -0.0985205   0.0000000), wk =   0.0277778
        k(   31) = (   0.1706255  -0.0000202   0.0000000), wk =   0.0277778
        k(   32) = (   0.2559688   0.1477201   0.0000000), wk =   0.0277778
        k(   33) = (   0.2559892   0.2462203   0.0000000), wk =   0.0277778
        k(   34) = (   0.2560095   0.3447206   0.0000000), wk =   0.0277778
        k(   35) = (   0.2560299   0.4432209   0.0000000), wk =   0.0277778
        k(   36) = (   0.2560502   0.5417212   0.0000000), wk =   0.0277778
        k(   37) = (   0.2560706   0.6402214   0.0000000), wk =   0.0277778
        k(   38) = (   0.2558467  -0.4432816   0.0000000), wk =   0.0277778
        k(   39) = (   0.2558670  -0.3447813   0.0000000), wk =   0.0277778
        k(   40) = (   0.2558874  -0.2462810   0.0000000), wk =   0.0277778
        k(   41) = (   0.2559078  -0.1477807   0.0000000), wk =   0.0277778
        k(   42) = (   0.2559281  -0.0492805   0.0000000), wk =   0.0277778
        k(   43) = (   0.2559485   0.0492198   0.0000000), wk =   0.0277778
        k(   44) = (   0.3412918   0.1969601   0.0000000), wk =   0.0277778
        k(   45) = (   0.3413121   0.2954604   0.0000000), wk =   0.0277778
        k(   46) = (   0.3413325   0.3939606   0.0000000), wk =   0.0277778
        k(   47) = (   0.3413528   0.4924609   0.0000000), wk =   0.0277778
        k(   48) = (   0.3413732   0.5909612   0.0000000), wk =   0.0277778
        k(   49) = (   0.3413935   0.6894615   0.0000000), wk =   0.0277778
        k(   50) = (   0.3411696  -0.3940415   0.0000000), wk =   0.0277778
        k(   51) = (   0.3411900  -0.2955413   0.0000000), wk =   0.0277778
        k(   52) = (   0.3412103  -0.1970410   0.0000000), wk =   0.0277778
        k(   53) = (   0.3412307  -0.0985407   0.0000000), wk =   0.0277778
        k(   54) = (   0.3412511  -0.0000404   0.0000000), wk =   0.0277778
        k(   55) = (   0.3412714   0.0984598   0.0000000), wk =   0.0277778
        k(   56) = (   0.4266147   0.2462001   0.0000000), wk =   0.0277778
        k(   57) = (   0.4266351   0.3447004   0.0000000), wk =   0.0277778
        k(   58) = (   0.4266554   0.4432007   0.0000000), wk =   0.0277778
        k(   59) = (   0.4266758   0.5417009   0.0000000), wk =   0.0277778
        k(   60) = (   0.4266961   0.6402012   0.0000000), wk =   0.0277778
        k(   61) = (   0.4267165   0.7387015   0.0000000), wk =   0.0277778
        k(   62) = (   0.4264926  -0.3448015   0.0000000), wk =   0.0277778
        k(   63) = (   0.4265129  -0.2463012   0.0000000), wk =   0.0277778
        k(   64) = (   0.4265333  -0.1478010   0.0000000), wk =   0.0277778
        k(   65) = (   0.4265536  -0.0493007   0.0000000), wk =   0.0277778
        k(   66) = (   0.4265740   0.0491996   0.0000000), wk =   0.0277778
        k(   67) = (   0.4265943   0.1476998   0.0000000), wk =   0.0277778
        k(   68) = (  -0.5119376  -0.2954401   0.0000000), wk =   0.0138889
        k(   69) = (  -0.5119173  -0.1969399   0.0000000), wk =   0.0277778
        k(   70) = (  -0.5118969  -0.0984396   0.0000000), wk =   0.0277778
        k(   71) = (  -0.5118766   0.0000607   0.0000000), wk =   0.0277778
        k(   72) = (  -0.5118562   0.0985609   0.0000000), wk =   0.0277778
        k(   73) = (  -0.5118359   0.1970612   0.0000000), wk =   0.0277778
        k(   74) = (  -0.5120598  -0.8864418   0.0000000), wk =   0.0138889

     Dense  grid:   129999 G-vectors     FFT dimensions: (  36,  36, 270)

     Smooth grid:    93113 G-vectors     FFT dimensions: (  30,  30, 240)

     Estimated max dynamical RAM per process >     421.84 MB

     Estimated total dynamical RAM >     843.68 MB

     Initial potential from superposition of free atoms

     starting charge   51.99828, renormalised to   52.00000

     negative rho (up, down):  2.689E-04 0.000E+00
     Starting wfcs are   36 randomized atomic wfcs
     Checking if some PAW data can be deallocated... 

     total cpu time spent up to now is        5.8 secs

     Self-consistent Calculation

     iteration #  1     ecut=    60.00 Ry     beta= 0.70
     Davidson diagonalization with overlap
     ethr =  1.00E-02,  avg # of iterations =  2.0

     Threshold (ethr) on eigenvalues was too large:
     Diagonalizing with lowered threshold

     Davidson diagonalization with overlap
     ethr =  3.44E-04,  avg # of iterations =  3.9

     negative rho (up, down):  3.228E-04 0.000E+00

     total cpu time spent up to now is       23.1 secs

     total energy              =    -979.38702456 Ry
     estimated scf accuracy    <       0.28137761 Ry

     iteration #  2     ecut=    60.00 Ry     beta= 0.70
     Davidson diagonalization with overlap
     ethr =  5.41E-04,  avg # of iterations =  5.2

     negative rho (up, down):  3.267E-04 0.000E+00

     total cpu time spent up to now is       34.6 secs

     total energy              =    -979.30424263 Ry
     estimated scf accuracy    <       1.06540757 Ry

     iteration #  3     ecut=    60.00 Ry     beta= 0.70
     Davidson diagonalization with overlap
     ethr =  5.41E-04,  avg # of iterations =  5.3

     negative rho (up, down):  3.238E-04 0.000E+00

     total cpu time spent up to now is       45.6 secs

     total energy              =    -979.50173666 Ry
     estimated scf accuracy    <       0.06914691 Ry

     iteration #  4     ecut=    60.00 Ry     beta= 0.70
     Davidson diagonalization with overlap
     ethr =  1.33E-04,  avg # of iterations =  2.8

     negative rho (up, down):  3.347E-04 0.000E+00

     total cpu time spent up to now is       53.6 secs

     total energy              =    -979.50751028 Ry
     estimated scf accuracy    <       0.00970229 Ry

     iteration #  5     ecut=    60.00 Ry     beta= 0.70
     Davidson diagonalization with overlap
     ethr =  1.87E-05,  avg # of iterations =  5.4

     negative rho (up, down):  3.430E-04 0.000E+00

     total cpu time spent up to now is       64.7 secs

     total energy              =    -979.50935877 Ry
     estimated scf accuracy    <       0.03535200 Ry

     iteration #  6     ecut=    60.00 Ry     beta= 0.70
     Davidson diagonalization with overlap
     ethr =  1.87E-05,  avg # of iterations =  4.3

     negative rho (up, down):  3.474E-04 0.000E+00

     total cpu time spent up to now is       74.2 secs

     total energy              =    -979.51108803 Ry
     estimated scf accuracy    <       0.00591183 Ry

     iteration #  7     ecut=    60.00 Ry     beta= 0.70
     Davidson diagonalization with overlap
     ethr =  1.14E-05,  avg # of iterations =  2.7

     negative rho (up, down):  3.543E-04 0.000E+00

     total cpu time spent up to now is       82.4 secs

     total energy              =    -979.51146114 Ry
     estimated scf accuracy    <       0.00089059 Ry

     iteration #  8     ecut=    60.00 Ry     beta= 0.70
     Davidson diagonalization with overlap
     ethr =  1.71E-06,  avg # of iterations =  5.7

     negative rho (up, down):  3.547E-04 0.000E+00

     total cpu time spent up to now is       93.9 secs

     total energy              =    -979.51186950 Ry
     estimated scf accuracy    <       0.00153643 Ry

     iteration #  9     ecut=    60.00 Ry     beta= 0.70
     Davidson diagonalization with overlap
     ethr =  1.71E-06,  avg # of iterations =  2.2

     negative rho (up, down):  3.547E-04 0.000E+00

     total cpu time spent up to now is      101.3 secs

     total energy              =    -979.51177201 Ry
     estimated scf accuracy    <       0.00047375 Ry

     iteration # 10     ecut=    60.00 Ry     beta= 0.70
     Davidson diagonalization with overlap
     ethr =  9.11E-07,  avg # of iterations =  4.7

     negative rho (up, down):  3.552E-04 0.000E+00

     total cpu time spent up to now is      111.0 secs

     total energy              =    -979.51193887 Ry
     estimated scf accuracy    <       0.00015014 Ry

     iteration # 11     ecut=    60.00 Ry     beta= 0.70
     Davidson diagonalization with overlap
     ethr =  2.89E-07,  avg # of iterations =  1.4

     negative rho (up, down):  3.555E-04 0.000E+00

     total cpu time spent up to now is      117.7 secs

     total energy              =    -979.51191832 Ry
     estimated scf accuracy    <       0.00009040 Ry

     iteration # 12     ecut=    60.00 Ry     beta= 0.70
     Davidson diagonalization with overlap
     ethr =  1.74E-07,  avg # of iterations =  3.5

     negative rho (up, down):  3.555E-04 0.000E+00

     total cpu time spent up to now is      126.2 secs

     total energy              =    -979.51193341 Ry
     estimated scf accuracy    <       0.00000192 Ry

     iteration # 13     ecut=    60.00 Ry     beta= 0.70
     Davidson diagonalization with overlap
     ethr =  3.70E-09,  avg # of iterations =  6.0

     negative rho (up, down):  3.555E-04 0.000E+00

     total cpu time spent up to now is      138.8 secs

     total energy              =    -979.51193456 Ry
     estimated scf accuracy    <       0.00000540 Ry

     iteration # 14     ecut=    60.00 Ry     beta= 0.70
     Davidson diagonalization with overlap
     ethr =  3.70E-09,  avg # of iterations =  2.5

     negative rho (up, down):  3.555E-04 0.000E+00

     total cpu time spent up to now is      146.9 secs

     total energy              =    -979.51193450 Ry
     estimated scf accuracy    <       0.00000113 Ry

     iteration # 15     ecut=    60.00 Ry     beta= 0.70
     Davidson diagonalization with overlap
     ethr =  2.18E-09,  avg # of iterations =  4.7

     negative rho (up, down):  3.556E-04 0.000E+00

     total cpu time spent up to now is      156.8 secs

     total energy              =    -979.51193487 Ry
     estimated scf accuracy    <       0.00000027 Ry

     iteration # 16     ecut=    60.00 Ry     beta= 0.70
     Davidson diagonalization with overlap
     ethr =  5.26E-10,  avg # of iterations =  1.5

     negative rho (up, down):  3.556E-04 0.000E+00

     total cpu time spent up to now is      163.5 secs

     total energy              =    -979.51193485 Ry
     estimated scf accuracy    <       0.00000025 Ry

     iteration # 17     ecut=    60.00 Ry     beta= 0.70
     Davidson diagonalization with overlap
     ethr =  4.89E-10,  avg # of iterations =  1.2

     negative rho (up, down):  3.556E-04 0.000E+00

     total cpu time spent up to now is      170.1 secs

     total energy              =    -979.51193482 Ry
     estimated scf accuracy    <       0.00000014 Ry

     iteration # 18     ecut=    60.00 Ry     beta= 0.70
     Davidson diagonalization with overlap
     ethr =  2.67E-10,  avg # of iterations =  2.9

     negative rho (up, down):  3.556E-04 0.000E+00

     total cpu time spent up to now is      178.1 secs

     total energy              =    -979.51193484 Ry
     estimated scf accuracy    <          8.2E-09 Ry

     iteration # 19     ecut=    60.00 Ry     beta= 0.70
     Davidson diagonalization with overlap
     ethr =  1.59E-11,  avg # of iterations =  6.4

     negative rho (up, down):  3.556E-04 0.000E+00

     total cpu time spent up to now is      191.4 secs

     total energy              =    -979.51193483 Ry
     estimated scf accuracy    <       0.00000007 Ry

     iteration # 20     ecut=    60.00 Ry     beta= 0.70
     Davidson diagonalization with overlap
     ethr =  1.59E-11,  avg # of iterations =  5.6

     negative rho (up, down):  3.556E-04 0.000E+00

     total cpu time spent up to now is      203.5 secs

     total energy              =    -979.51193484 Ry
     estimated scf accuracy    <          1.8E-09 Ry

     iteration # 21     ecut=    60.00 Ry     beta= 0.70
     Davidson diagonalization with overlap
     ethr =  3.47E-12,  avg # of iterations =  3.0

     negative rho (up, down):  3.556E-04 0.000E+00

     total cpu time spent up to now is      210.9 secs

     total energy              =    -979.51193484 Ry
     estimated scf accuracy    <          2.8E-09 Ry

     iteration # 22     ecut=    60.00 Ry     beta= 0.70
     Davidson diagonalization with overlap
     ethr =  3.47E-12,  avg # of iterations =  1.9

     negative rho (up, down):  3.556E-04 0.000E+00

     total cpu time spent up to now is      218.0 secs

     total energy              =    -979.51193484 Ry
     estimated scf accuracy    <          1.0E-09 Ry

     iteration # 23     ecut=    60.00 Ry     beta= 0.70
     Davidson diagonalization with overlap
     ethr =  1.95E-12,  avg # of iterations =  4.4

     negative rho (up, down):  3.556E-04 0.000E+00

     total cpu time spent up to now is      227.5 secs

     total energy              =    -979.51193484 Ry
     estimated scf accuracy    <          1.5E-10 Ry

     iteration # 24     ecut=    60.00 Ry     beta= 0.70
     Davidson diagonalization with overlap
     ethr =  2.97E-13,  avg # of iterations =  2.5

     negative rho (up, down):  3.556E-04 0.000E+00

     total cpu time spent up to now is      235.1 secs

     total energy              =    -979.51193484 Ry
     estimated scf accuracy    <          2.4E-10 Ry

     iteration # 25     ecut=    60.00 Ry     beta= 0.70
     Davidson diagonalization with overlap
     ethr =  2.97E-13,  avg # of iterations =  1.8

     negative rho (up, down):  3.556E-04 0.000E+00

     total cpu time spent up to now is      242.1 secs

     total energy              =    -979.51193484 Ry
     estimated scf accuracy    <          1.0E-10 Ry

     iteration # 26     ecut=    60.00 Ry     beta= 0.70
     Davidson diagonalization with overlap
     ethr =  1.97E-13,  avg # of iterations =  3.2

     negative rho (up, down):  3.556E-04 0.000E+00

     total cpu time spent up to now is      250.1 secs

     total energy              =    -979.51193484 Ry
     estimated scf accuracy    <          9.5E-12 Ry

     iteration # 27     ecut=    60.00 Ry     beta= 0.70
     Davidson diagonalization with overlap
     ethr =  1.00E-13,  avg # of iterations =  1.3

     negative rho (up, down):  3.556E-04 0.000E+00

     total cpu time spent up to now is      256.8 secs

     total energy              =    -979.51193484 Ry
     estimated scf accuracy    <          4.5E-12 Ry

     iteration # 28     ecut=    60.00 Ry     beta= 0.70
     Davidson diagonalization with overlap
     ethr =  1.00E-13,  avg # of iterations =  1.0

     negative rho (up, down):  3.556E-04 0.000E+00

     total cpu time spent up to now is      263.4 secs

     total energy              =    -979.51193484 Ry
     estimated scf accuracy    <          9.9E-12 Ry

     iteration # 29     ecut=    60.00 Ry     beta= 0.70
     Davidson diagonalization with overlap
     ethr =  1.00E-13,  avg # of iterations =  1.0

     negative rho (up, down):  3.556E-04 0.000E+00

     total cpu time spent up to now is      269.9 secs

     total energy              =    -979.51193484 Ry
     estimated scf accuracy    <          1.2E-11 Ry

     iteration # 30     ecut=    60.00 Ry     beta= 0.70
     Davidson diagonalization with overlap
     ethr =  1.00E-13,  avg # of iterations =  1.0

     negative rho (up, down):  3.556E-04 0.000E+00

     total cpu time spent up to now is      276.4 secs

     total energy              =    -979.51193484 Ry
     estimated scf accuracy    <          1.3E-11 Ry

     iteration # 31     ecut=    60.00 Ry     beta= 0.70
     Davidson diagonalization with overlap
     ethr =  1.00E-13,  avg # of iterations =  1.0

     negative rho (up, down):  3.556E-04 0.000E+00

     total cpu time spent up to now is      282.9 secs

     total energy              =    -979.51193484 Ry
     estimated scf accuracy    <          1.7E-11 Ry

     iteration # 32     ecut=    60.00 Ry     beta= 0.70
     Davidson diagonalization with overlap
     ethr =  1.00E-13,  avg # of iterations =  1.0

     negative rho (up, down):  3.556E-04 0.000E+00

     total cpu time spent up to now is      289.5 secs

     total energy              =    -979.51193484 Ry
     estimated scf accuracy    <          2.2E-11 Ry

     iteration # 33     ecut=    60.00 Ry     beta= 0.70
     Davidson diagonalization with overlap
     ethr =  1.00E-13,  avg # of iterations =  2.0

     negative rho (up, down):  3.556E-04 0.000E+00

     total cpu time spent up to now is      297.2 secs

     End of self-consistent calculation

          k = 0.0000 0.0000 0.0000 ( 11705 PWs)   bands (ev):

   -58.7696 -58.7695 -32.9793 -32.9792 -32.7113 -32.7113 -32.7110 -32.7110
   -12.2850 -12.2713 -10.9394 -10.9143  -3.8919  -3.7885  -0.6556  -0.6548
    -0.6542  -0.6534  -0.0992   0.2501   0.5037   0.5052   0.5053   0.5069
     1.7467   1.9981

          k = 0.0000 0.0985 0.0000 ( 11681 PWs)   bands (ev):

   -58.7665 -58.7665 -32.9733 -32.9733 -32.7412 -32.7412 -32.7178 -32.7178
   -12.1751 -12.1615 -10.8936 -10.8692  -3.7680  -3.6648  -0.8969  -0.8950
    -0.5394  -0.5385  -0.4840  -0.2941   0.3313   0.3332   0.7234   0.8751
     1.7199   1.9381

          k = 0.0000 0.1970 0.0000 ( 11653 PWs)   bands (ev):

   -58.7581 -58.7581 -32.9571 -32.9570 -32.8225 -32.8225 -32.7363 -32.7363
   -11.8623 -11.8487 -10.7634 -10.7411  -3.4555  -3.3561  -1.4495  -1.4411
    -1.1083  -0.9933  -0.2193  -0.2178  -0.0757  -0.0736   0.7743   0.9605
     1.5432   1.6739

          k = 0.0001 0.2955 0.0000 ( 11653 PWs)   bands (ev):

   -58.7467 -58.7467 -32.9348 -32.9348 -32.9319 -32.9319 -32.7614 -32.7613
   -11.3974 -11.3842 -10.5716 -10.5523  -3.2210  -3.1501  -1.9293  -1.8905
    -1.7654  -1.6969  -0.5298  -0.5274   0.2285   0.2311   0.5073   0.6830
     1.1401   1.2023

          k = 0.0001 0.3940 0.0000 ( 11564 PWs)   bands (ev):

   -58.7351 -58.7351 -33.0395 -33.0395 -32.9124 -32.9124 -32.7863 -32.7863
   -10.8718 -10.8594 -10.3596 -10.3437  -3.4556  -3.4258  -2.3928  -2.3485
    -2.0456  -1.9764  -0.9107  -0.9081   0.1927   0.3531   0.6725   0.6772
     0.8891   0.9431

          k = 0.0001 0.4925 0.0000 ( 11582 PWs)   bands (ev):

   -58.7268 -58.7267 -33.1172 -33.1172 -32.8959 -32.8959 -32.8045 -32.8045
   -10.4295 -10.4182 -10.1881 -10.1749  -3.8469  -3.8277  -2.8524  -2.8195
    -2.1699  -2.1051  -1.1575  -1.1548  -0.0041   0.1447   0.9744   0.9816
     1.0709   1.1416

          k =-0.0001-0.5910 0.0000 ( 11612 PWs)   bands (ev):

   -58.7238 -58.7237 -33.1455 -33.1455 -32.8899 -32.8899 -32.8111 -32.8111
   -10.2504 -10.2396 -10.1210 -10.1090  -4.0183  -4.0004  -3.0239  -2.9939
    -2.2575  -2.1971  -1.2425  -1.2397  -0.0665   0.0778   1.0749   1.0832
     1.2459   1.3239

          k = 0.0853 0.0492 0.0000 ( 11677 PWs)   bands (ev):

   -58.7665 -58.7664 -32.9733 -32.9733 -32.7410 -32.7410 -32.7180 -32.7180
   -12.1751 -12.1615 -10.8936 -10.8692  -3.7679  -3.6647  -0.8959  -0.8940
    -0.5406  -0.5397  -0.4835  -0.2935   0.3300   0.3318   0.7242   0.8758
     1.7200   1.9383

          k = 0.0853 0.1477 0.0000 ( 11651 PWs)   bands (ev):

   -58.7608 -58.7607 -32.9622 -32.9622 -32.7952 -32.7952 -32.7321 -32.7321
   -11.9636 -11.9500 -10.8054 -10.7825  -3.5460  -3.4443  -1.2858  -1.2806
    -0.8974  -0.7583  -0.3313  -0.3298  -0.0776  -0.0719   0.9010   1.0755
     1.6196   1.7764

          k = 0.0854 0.2462 0.0000 ( 11626 PWs)   bands (ev):

   -58.7508 -58.7508 -32.9429 -32.9429 -32.8867 -32.8867 -32.7577 -32.7577
   -11.5737 -11.5603 -10.6433 -10.6228  -3.2409  -3.1529  -1.7831  -1.7619
    -1.4310  -1.3436  -0.6670  -0.6467  -0.0017   0.0010   0.8689   1.0301
     1.3215   1.3990

          k = 0.0854 0.3447 0.0000 ( 11619 PWs)   bands (ev):

   -58.7394 -58.7394 -32.9905 -32.9905 -32.9206 -32.9206 -32.7874 -32.7874
   -11.0745 -11.0617 -10.4378 -10.4205  -3.2460  -3.2022  -2.0895  -2.0424
    -1.9807  -1.9193  -1.0608  -1.0268   0.2290   0.2383   0.5659   0.7071
     1.0563   1.0938

          k = 0.0854 0.4432 0.0000 ( 11614 PWs)   bands (ev):

   -58.7295 -58.7295 -33.0791 -33.0791 -32.9012 -32.9012 -32.8130 -32.8130
   -10.5811 -10.5693 -10.2397 -10.2256  -3.5955  -3.5737  -2.6935  -2.6640
    -2.0432  -1.9731  -1.2289  -1.2013   0.2084   0.3226   0.3279   0.3730
     1.1982   1.2303

          k = 0.0854 0.5417 0.0000 ( 11609 PWs)   bands (ev):

   -58.7237 -58.7237 -33.1297 -33.1297 -32.8899 -32.8899 -32.8278 -32.8277
   -10.2586 -10.2477 -10.1145 -10.1023  -3.8732  -3.8553  -3.0527  -3.0278
    -2.1909  -2.1290  -1.2749  -1.2575  -0.0100   0.1245   0.4638   0.4957
     1.4412   1.4844

          k = 0.0852-0.5418 0.0000 ( 11609 PWs)   bands (ev):

   -58.7237 -58.7237 -33.1297 -33.1297 -32.8899 -32.8899 -32.8278 -32.8277
   -10.2586 -10.2477 -10.1146 -10.1024  -3.8731  -3.8553  -3.0526  -3.0278
    -2.1910  -2.1290  -1.2749  -1.2575  -0.0101   0.1245   0.4637   0.4956
     1.4414   1.4845

          k = 0.0852-0.4433 0.0000 ( 11614 PWs)   bands (ev):

   -58.7295 -58.7295 -33.0791 -33.0791 -32.9012 -32.9012 -32.8130 -32.8130
   -10.5812 -10.5693 -10.2398 -10.2257  -3.5953  -3.5735  -2.6934  -2.6639
    -2.0432  -1.9731  -1.2289  -1.2013   0.2082   0.3226   0.3277   0.3727
     1.1985   1.2306

          k = 0.0852-0.3448 0.0000 ( 11621 PWs)   bands (ev):

   -58.7394 -58.7394 -32.9905 -32.9905 -32.9206 -32.9206 -32.7874 -32.7874
   -11.0746 -11.0618 -10.4379 -10.4207  -3.2459  -3.2022  -2.0893  -2.0422
    -1.9806  -1.9192  -1.0609  -1.0269   0.2286   0.2380   0.5659   0.7071
     1.0565   1.0941

          k = 0.0853-0.2463 0.0000 ( 11626 PWs)   bands (ev):

   -58.7508 -58.7508 -32.9429 -32.9429 -32.8867 -32.8867 -32.7576 -32.7576
   -11.5738 -11.5604 -10.6434 -10.6229  -3.2409  -3.1530  -1.7831  -1.7619
    -1.4309  -1.3435  -0.6669  -0.6466  -0.0017   0.0010   0.8688   1.0300
     1.3214   1.3990

          k = 0.0853-0.1478 0.0000 ( 11651 PWs)   bands (ev):

   -58.7608 -58.7607 -32.9622 -32.9622 -32.7953 -32.7953 -32.7320 -32.7320
   -11.9637 -11.9501 -10.8055 -10.7825  -3.5460  -3.4444  -1.2861  -1.2810
    -0.8977  -0.7587  -0.3307  -0.3292  -0.0770  -0.0712   0.9008   1.0753
     1.6194   1.7762

          k = 0.0853-0.0493 0.0000 ( 11679 PWs)   bands (ev):

   -58.7665 -58.7664 -32.9733 -32.9733 -32.7412 -32.7412 -32.7179 -32.7179
   -12.1751 -12.1615 -10.8936 -10.8692  -3.7680  -3.6647  -0.8966  -0.8947
    -0.5399  -0.5389  -0.4838  -0.2940   0.3309   0.3328   0.7237   0.8753
     1.7200   1.9382

          k = 0.1706 0.0985 0.0000 ( 11653 PWs)   bands (ev):

   -58.7581 -58.7581 -32.9570 -32.9570 -32.8223 -32.8223 -32.7365 -32.7365
   -11.8622 -11.8486 -10.7633 -10.7410  -3.4555  -3.3561  -1.4487  -1.4403
    -1.1077  -0.9926  -0.2204  -0.2190  -0.0772  -0.0751   0.7747   0.9609
     1.5436   1.6744

          k = 0.1707 0.1970 0.0000 ( 11626 PWs)   bands (ev):

   -58.7508 -58.7508 -32.9429 -32.9429 -32.8866 -32.8866 -32.7578 -32.7578
   -11.5736 -11.5602 -10.6432 -10.6227  -3.2409  -3.1529  -1.7827  -1.7615
    -1.4304  -1.3430  -0.6679  -0.6477  -0.0023   0.0004   0.8689   1.0301
     1.3219   1.3994

          k = 0.1707 0.2955 0.0000 ( 11609 PWs)   bands (ev):

   -58.7409 -58.7409 -32.9654 -32.9654 -32.9236 -32.9236 -32.7952 -32.7951
   -11.1465 -11.1336 -10.4646 -10.4469  -3.1417  -3.0888  -1.9439  -1.8867
    -1.8276  -1.7939  -1.3471  -1.2860  -0.0053   0.0014   0.8513   0.9827
     1.1277   1.1614

          k = 0.1707 0.3940 0.0000 ( 11597 PWs)   bands (ev):

   -58.7310 -58.7309 -33.0392 -33.0392 -32.9042 -32.9042 -32.8364 -32.8363
   -10.6689 -10.6568 -10.2650 -10.2502  -3.3263  -3.3003  -2.5466  -2.5306
    -1.8557  -1.7773  -1.4631  -1.4004  -0.3292  -0.3162   0.5416   0.6567
     1.2024   1.2187

          k = 0.1707 0.4925 0.0000 ( 11616 PWs)   bands (ev):

   -58.7238 -58.7237 -33.0914 -33.0914 -32.8900 -32.8900 -32.8678 -32.8678
   -10.2746 -10.2636 -10.1014 -10.0889  -3.5343  -3.5159  -3.1052  -3.0905
    -1.9861  -1.9199  -1.3617  -1.3157  -0.4538  -0.4247   0.1463   0.2612
     1.4547   1.4764

          k = 0.1707 0.5910 0.0000 ( 11612 PWs)   bands (ev):

   -58.7211 -58.7211 -33.1101 -33.1101 -32.8847 -32.8847 -32.8795 -32.8795
   -10.1180 -10.1074 -10.0369 -10.0253  -3.6125  -3.5956  -3.3090  -3.2943
    -2.1241  -2.0646  -1.2742  -1.2401  -0.4435  -0.4085  -0.0485   0.0728
     1.6337   1.6624

          k = 0.1705-0.4925 0.0000 ( 11614 PWs)   bands (ev):

   -58.7238 -58.7237 -33.0913 -33.0913 -32.8900 -32.8900 -32.8678 -32.8678
   -10.2748 -10.2637 -10.1016 -10.0891  -3.5340  -3.5156  -3.1050  -3.0903
    -1.9862  -1.9199  -1.3616  -1.3156  -0.4541  -0.4249   0.1462   0.2611
     1.4551   1.4768

          k = 0.1705-0.3940 0.0000 ( 11595 PWs)   bands (ev):

   -58.7310 -58.7310 -33.0392 -33.0392 -32.9042 -32.9042 -32.8363 -32.8363
   -10.6690 -10.6570 -10.2652 -10.2504  -3.3261  -3.3001  -2.5462  -2.5302
    -1.8556  -1.7772  -1.4631  -1.4004  -0.3297  -0.3167   0.5415   0.6566
     1.2029   1.2191

          k = 0.1706-0.2955 0.0000 ( 11609 PWs)   bands (ev):

   -58.7409 -58.7409 -32.9654 -32.9654 -32.9236 -32.9236 -32.7951 -32.7951
   -11.1467 -11.1337 -10.4648 -10.4471  -3.1416  -3.0887  -1.9438  -1.8866
    -1.8274  -1.7936  -1.3469  -1.2859  -0.0056   0.0012   0.8513   0.9826
     1.1278   1.1616

          k = 0.1706-0.1970 0.0000 ( 11626 PWs)   bands (ev):

   -58.7508 -58.7508 -32.9429 -32.9429 -32.8867 -32.8867 -32.7577 -32.7577
   -11.5737 -11.5604 -10.6433 -10.6229  -3.2409  -3.1530  -1.7829  -1.7617
    -1.4307  -1.3433  -0.6672  -0.6469  -0.0019   0.0008   0.8689   1.0300
     1.3215   1.3991

          k = 0.1706-0.0985 0.0000 ( 11653 PWs)   bands (ev):

   -58.7581 -58.7581 -32.9571 -32.9570 -32.8225 -32.8225 -32.7364 -32.7364
   -11.8622 -11.8487 -10.7634 -10.7411  -3.4555  -3.3561  -1.4492  -1.4408
    -1.1082  -0.9931  -0.2197  -0.2182  -0.0762  -0.0740   0.7745   0.9607
     1.5433   1.6741

          k = 0.1706-0.0000 0.0000 ( 11651 PWs)   bands (ev):

   -58.7607 -58.7607 -32.9622 -32.9622 -32.7952 -32.7952 -32.7322 -32.7321
   -11.9636 -11.9500 -10.8054 -10.7824  -3.5460  -3.4443  -1.2856  -1.2804
    -0.8973  -0.7582  -0.3316  -0.3301  -0.0779  -0.0721   0.9010   1.0755
     1.6196   1.7765

          k = 0.2560 0.1477 0.0000 ( 11651 PWs)   bands (ev):

   -58.7467 -58.7466 -32.9347 -32.9347 -32.9318 -32.9318 -32.7616 -32.7616
   -11.3972 -11.3840 -10.5713 -10.5520  -3.2210  -3.1501  -1.9286  -1.8898
    -1.7649  -1.6963  -0.5315  -0.5291   0.2274   0.2300   0.5075   0.6833
     1.1409   1.2030

          k = 0.2560 0.2462 0.0000 ( 11621 PWs)   bands (ev):

   -58.7394 -58.7394 -32.9904 -32.9904 -32.9206 -32.9206 -32.7876 -32.7876
   -11.0743 -11.0615 -10.4375 -10.4202  -3.2459  -3.2022  -2.0890  -2.0420
    -1.9801  -1.9187  -1.0621  -1.0281   0.2282   0.2375   0.5659   0.7072
     1.0567   1.0943

          k = 0.2560 0.3447 0.0000 ( 11595 PWs)   bands (ev):

   -58.7310 -58.7309 -33.0392 -33.0392 -32.9042 -32.9042 -32.8365 -32.8365
   -10.6688 -10.6567 -10.2648 -10.2500  -3.3263  -3.3003  -2.5465  -2.5305
    -1.8554  -1.7770  -1.4636  -1.4008  -0.3296  -0.3166   0.5416   0.6567
     1.2026   1.2188

          k = 0.2560 0.4432 0.0000 ( 11589 PWs)   bands (ev):

   -58.7237 -58.7237 -33.0657 -33.0657 -32.8944 -32.8944 -32.8900 -32.8900
   -10.2825 -10.2713 -10.0947 -10.0821  -3.3304  -3.3108  -3.1293  -3.1197
    -1.7293  -1.6511  -1.4112  -1.3522  -1.0505  -1.0336   0.2394   0.3447
     1.4310   1.4422

          k = 0.2561 0.5417 0.0000 ( 11592 PWs)   bands (ev):

   -58.7196 -58.7195 -33.0711 -33.0711 -32.9377 -32.9377 -32.8818 -32.8817
   -10.0416 -10.0311  -9.9850  -9.9738  -3.4952  -3.4858  -3.2027  -3.1862
    -1.9807  -1.9343  -1.3394  -1.2901  -1.1939  -1.1511  -0.1185  -0.0055
     1.7473   1.7627

          k = 0.2561 0.6402 0.0000 ( 11594 PWs)   bands (ev):

   -58.7196 -58.7195 -33.0711 -33.0711 -32.9377 -32.9377 -32.8818 -32.8817
   -10.0416 -10.0312  -9.9851  -9.9739  -3.4950  -3.4857  -3.2025  -3.1859
    -1.9808  -1.9344  -1.3396  -1.2902  -1.1938  -1.1510  -0.1186  -0.0057
     1.7475   1.7629

          k = 0.2558-0.4433 0.0000 ( 11587 PWs)   bands (ev):

   -58.7237 -58.7237 -33.0657 -33.0657 -32.8943 -32.8943 -32.8900 -32.8900
   -10.2827 -10.2715 -10.0950 -10.0823  -3.3301  -3.3105  -3.1289  -3.1193
    -1.7293  -1.6510  -1.4110  -1.3520  -1.0508  -1.0339   0.2392   0.3446
     1.4314   1.4427

          k = 0.2559-0.3448 0.0000 ( 11595 PWs)   bands (ev):

   -58.7310 -58.7309 -33.0392 -33.0392 -32.9042 -32.9042 -32.8364 -32.8363
   -10.6690 -10.6569 -10.2652 -10.2503  -3.3260  -3.3000  -2.5462  -2.5302
    -1.8555  -1.7770  -1.4633  -1.4005  -0.3299  -0.3168   0.5415   0.6566
     1.2029   1.2192

          k = 0.2559-0.2463 0.0000 ( 11619 PWs)   bands (ev):

   -58.7394 -58.7394 -32.9905 -32.9905 -32.9206 -32.9206 -32.7874 -32.7874
   -11.0745 -11.0617 -10.4378 -10.4206  -3.2459  -3.2021  -2.0892  -2.0420
    -1.9803  -1.9190  -1.0613  -1.0273   0.2283   0.2377   0.5659   0.7071
     1.0566   1.0942

          k = 0.2559-0.1478 0.0000 ( 11653 PWs)   bands (ev):

   -58.7467 -58.7467 -32.9348 -32.9348 -32.9319 -32.9319 -32.7615 -32.7614
   -11.3973 -11.3841 -10.5715 -10.5522  -3.2210  -3.1501  -1.9290  -1.8903
    -1.7652  -1.6967  -0.5303  -0.5279   0.2281   0.2307   0.5074   0.6831
     1.1403   1.2025

          k = 0.2559-0.0493 0.0000 ( 11626 PWs)   bands (ev):

   -58.7508 -58.7508 -32.9429 -32.9429 -32.8867 -32.8867 -32.7578 -32.7578
   -11.5736 -11.5602 -10.6432 -10.6227  -3.2409  -3.1529  -1.7830  -1.7618
    -1.4308  -1.3434  -0.6673  -0.6470  -0.0020   0.0007   0.8689   1.0301
     1.3216   1.3992

          k = 0.2559 0.0492 0.0000 ( 11626 PWs)   bands (ev):

   -58.7508 -58.7508 -32.9429 -32.9429 -32.8866 -32.8866 -32.7579 -32.7579
   -11.5736 -11.5602 -10.6431 -10.6227  -3.2409  -3.1529  -1.7827  -1.7615
    -1.4304  -1.3430  -0.6680  -0.6477  -0.0024   0.0003   0.8689   1.0301
     1.3219   1.3994

          k = 0.3413 0.1970 0.0000 ( 11564 PWs)   bands (ev):

   -58.7351 -58.7350 -33.0394 -33.0394 -32.9124 -32.9123 -32.7866 -32.7866
   -10.8715 -10.8591 -10.3591 -10.3431  -3.4556  -3.4257  -2.3926  -2.3483
    -2.0450  -1.9758  -0.9125  -0.9099   0.1932   0.3535   0.6713   0.6760
     0.8899   0.9439

          k = 0.3413 0.2955 0.0000 ( 11614 PWs)   bands (ev):

   -58.7295 -58.7294 -33.0790 -33.0790 -32.9011 -32.9011 -32.8133 -32.8133
   -10.5808 -10.5690 -10.2392 -10.2250  -3.5953  -3.5734  -2.6936  -2.6641
    -2.0428  -1.9728  -1.2302  -1.2026   0.2086   0.3224   0.3272   0.3727
     1.1984   1.2305

          k = 0.3413 0.3940 0.0000 ( 11614 PWs)   bands (ev):

   -58.7237 -58.7237 -33.0913 -33.0913 -32.8899 -32.8899 -32.8680 -32.8680
   -10.2744 -10.2634 -10.1010 -10.0885  -3.5340  -3.5156  -3.1055  -3.0908
    -1.9859  -1.9197  -1.3624  -1.3164  -0.4545  -0.4254   0.1465   0.2615
     1.4550   1.4767

          k = 0.3414 0.4925 0.0000 ( 11594 PWs)   bands (ev):

   -58.7196 -58.7195 -33.0710 -33.0710 -32.9378 -32.9378 -32.8818 -32.8817
   -10.0414 -10.0310  -9.9848  -9.9736  -3.4954  -3.4861  -3.2026  -3.1861
    -1.9806  -1.9342  -1.3399  -1.2905  -1.1942  -1.1514  -0.1182  -0.0053
     1.7474   1.7629

          k = 0.3414 0.5910 0.0000 ( 11595 PWs)   bands (ev):

   -58.7180 -58.7179 -33.0385 -33.0385 -32.9885 -32.9885 -32.8788 -32.8787
    -9.9558  -9.9453  -9.9374  -9.9269  -3.6503  -3.6421  -2.7910  -2.7759
    -2.2647  -2.2499  -1.6781  -1.5959  -1.0259  -0.9962  -0.3192  -0.1960
     1.9444   1.9583

          k = 0.3414 0.6895 0.0000 ( 11594 PWs)   bands (ev):

   -58.7196 -58.7195 -33.0710 -33.0710 -32.9377 -32.9377 -32.8818 -32.8817
   -10.0416 -10.0311  -9.9850  -9.9738  -3.4951  -3.4858  -3.2024  -3.1859
    -1.9807  -1.9343  -1.3397  -1.2903  -1.1939  -1.1511  -0.1185  -0.0056
     1.7476   1.7630

          k = 0.3412-0.3940 0.0000 ( 11614 PWs)   bands (ev):

   -58.7238 -58.7237 -33.0913 -33.0913 -32.8900 -32.8900 -32.8679 -32.8679
   -10.2747 -10.2636 -10.1014 -10.0889  -3.5339  -3.5155  -3.1051  -3.0904
    -1.9861  -1.9199  -1.3618  -1.3158  -0.4543  -0.4252   0.1462   0.2612
     1.4552   1.4769

          k = 0.3412-0.2955 0.0000 ( 11614 PWs)   bands (ev):

   -58.7295 -58.7295 -33.0791 -33.0790 -32.9012 -32.9012 -32.8131 -32.8131
   -10.5810 -10.5692 -10.2397 -10.2255  -3.5953  -3.5734  -2.6934  -2.6639
    -2.0431  -1.9730  -1.2293  -1.2017   0.2084   0.3223   0.3273   0.3727
     1.1985   1.2307

          k = 0.3412-0.1970 0.0000 ( 11564 PWs)   bands (ev):

   -58.7351 -58.7351 -33.0395 -33.0395 -32.9124 -32.9124 -32.7864 -32.7864
   -10.8717 -10.8593 -10.3594 -10.3435  -3.4556  -3.4258  -2.3927  -2.3484
    -2.0454  -1.9761  -0.9113  -0.9087   0.1929   0.3532   0.6721   0.6768
     0.8893   0.9434

          k = 0.3412-0.0985 0.0000 ( 11621 PWs)   bands (ev):

   -58.7394 -58.7394 -32.9905 -32.9905 -32.9206 -32.9206 -32.7875 -32.7875
   -11.0744 -11.0616 -10.4377 -10.4204  -3.2460  -3.2023  -2.0895  -2.0424
    -1.9805  -1.9192  -1.0612  -1.0272   0.2289   0.2382   0.5660   0.7071
     1.0562   1.0939

          k = 0.3413-0.0000 0.0000 ( 11609 PWs)   bands (ev):

   -58.7409 -58.7409 -32.9654 -32.9654 -32.9236 -32.9236 -32.7952 -32.7952
   -11.1464 -11.1335 -10.4645 -10.4468  -3.1417  -3.0888  -1.9439  -1.8867
    -1.8277  -1.7940  -1.3472  -1.2861  -0.0052   0.0015   0.8514   0.9827
     1.1275   1.1613

          k = 0.3413 0.0985 0.0000 ( 11621 PWs)   bands (ev):

   -58.7394 -58.7394 -32.9904 -32.9904 -32.9206 -32.9206 -32.7876 -32.7876
   -11.0743 -11.0615 -10.4375 -10.4202  -3.2460  -3.2023  -2.0891  -2.0421
    -1.9802  -1.9188  -1.0621  -1.0281   0.2283   0.2377   0.5660   0.7072
     1.0565   1.0941

          k = 0.4266 0.2462 0.0000 ( 11590 PWs)   bands (ev):

   -58.7268 -58.7267 -33.1172 -33.1172 -32.8959 -32.8959 -32.8048 -32.8048
   -10.4291 -10.4178 -10.1873 -10.1742  -3.8466  -3.8275  -2.8526  -2.8197
    -2.1697  -2.1049  -1.1594  -1.1567  -0.0034   0.1453   0.9729   0.9801
     1.0719   1.1426

          k = 0.4266 0.3447 0.0000 ( 11609 PWs)   bands (ev):

   -58.7237 -58.7237 -33.1296 -33.1296 -32.8899 -32.8899 -32.8280 -32.8280
   -10.2582 -10.2473 -10.1138 -10.1016  -3.8729  -3.8550  -3.0531  -3.0282
    -2.1909  -2.1289  -1.2764  -1.2590  -0.0094   0.1251   0.4629   0.4948
     1.4416   1.4848

          k = 0.4267 0.4432 0.0000 ( 11616 PWs)   bands (ev):

   -58.7211 -58.7210 -33.1101 -33.1101 -32.8847 -32.8847 -32.8798 -32.8798
   -10.1177 -10.1071 -10.0363 -10.0248  -3.6123  -3.5954  -3.3095  -3.2948
    -2.1240  -2.0646  -1.2752  -1.2410  -0.4442  -0.4092  -0.0480   0.0733
     1.6339   1.6626

          k = 0.4267 0.5417 0.0000 ( 11594 PWs)   bands (ev):

   -58.7196 -58.7195 -33.0710 -33.0710 -32.9378 -32.9378 -32.8818 -32.8817
   -10.0414 -10.0309  -9.9847  -9.9735  -3.4955  -3.4861  -3.2027  -3.1862
    -1.9805  -1.9341  -1.3398  -1.2904  -1.1943  -1.1515  -0.1182  -0.0053
     1.7473   1.7627

          k = 0.4267 0.6402 0.0000 ( 11592 PWs)   bands (ev):

   -58.7196 -58.7195 -33.0711 -33.0711 -32.9378 -32.9378 -32.8818 -32.8817
   -10.0415 -10.0310  -9.9849  -9.9737  -3.4953  -3.4860  -3.2028  -3.1863
    -1.9806  -1.9342  -1.3395  -1.2901  -1.1940  -1.1513  -0.1183  -0.0054
     1.7472   1.7626

          k = 0.4267 0.7387 0.0000 ( 11614 PWs)   bands (ev):

   -58.7211 -58.7211 -33.1101 -33.1101 -32.8847 -32.8847 -32.8796 -32.8796
   -10.1179 -10.1073 -10.0367 -10.0252  -3.6124  -3.5955  -3.3091  -3.2945
    -2.1240  -2.0646  -1.2745  -1.2404  -0.4438  -0.4088  -0.0483   0.0729
     1.6337   1.6624

          k = 0.4265-0.3448 0.0000 ( 11609 PWs)   bands (ev):

   -58.7237 -58.7237 -33.1297 -33.1297 -32.8899 -32.8899 -32.8279 -32.8278
   -10.2585 -10.2476 -10.1143 -10.1021  -3.8730  -3.8552  -3.0527  -3.0279
    -2.1909  -2.1290  -1.2754  -1.2580  -0.0099   0.1246   0.4633   0.4953
     1.4415   1.4847

          k = 0.4265-0.2463 0.0000 ( 11586 PWs)   bands (ev):

   -58.7268 -58.7267 -33.1172 -33.1172 -32.8959 -32.8959 -32.8046 -32.8046
   -10.4294 -10.4180 -10.1878 -10.1747  -3.8468  -3.8277  -2.8524  -2.8195
    -2.1698  -2.1050  -1.1581  -1.1554  -0.0038   0.1448   0.9738   0.9810
     1.0712   1.1419

          k = 0.4265-0.1478 0.0000 ( 11614 PWs)   bands (ev):

   -58.7295 -58.7294 -33.0791 -33.0791 -32.9012 -32.9012 -32.8131 -32.8131
   -10.5809 -10.5691 -10.2395 -10.2254  -3.5955  -3.5737  -2.6936  -2.6641
    -2.0431  -1.9730  -1.2294  -1.2017   0.2085   0.3226   0.3278   0.3730
     1.1980   1.2302

          k = 0.4266-0.0493 0.0000 ( 11599 PWs)   bands (ev):

   -58.7310 -58.7309 -33.0392 -33.0392 -32.9042 -32.9042 -32.8364 -32.8364
   -10.6687 -10.6567 -10.2649 -10.2500  -3.3264  -3.3005  -2.5467  -2.5307
    -1.8557  -1.7772  -1.4633  -1.4006  -0.3291  -0.3161   0.5417   0.6567
     1.2022   1.2185

          k = 0.4266 0.0492 0.0000 ( 11597 PWs)   bands (ev):

   -58.7310 -58.7309 -33.0392 -33.0392 -32.9042 -32.9042 -32.8365 -32.8365
   -10.6687 -10.6566 -10.2647 -10.2499  -3.3264  -3.3004  -2.5467  -2.5307
    -1.8555  -1.7770  -1.4636  -1.4009  -0.3293  -0.3163   0.5417   0.6568
     1.2023   1.2186

          k = 0.4266 0.1477 0.0000 ( 11614 PWs)   bands (ev):

   -58.7295 -58.7294 -33.0790 -33.0790 -32.9011 -32.9011 -32.8133 -32.8133
   -10.5807 -10.5689 -10.2392 -10.2250  -3.5954  -3.5735  -2.6936  -2.6642
    -2.0429  -1.9728  -1.2303  -1.2027   0.2086   0.3227   0.3275   0.3727
     1.1982   1.2303

          k =-0.5119-0.2954 0.0000 ( 11612 PWs)   bands (ev):

   -58.7237 -58.7237 -33.1454 -33.1454 -32.8899 -32.8899 -32.8115 -32.8114
   -10.2500 -10.2392 -10.1202 -10.1082  -4.0179  -4.0001  -3.0243  -2.9943
    -2.2575  -2.1970  -1.2444  -1.2416  -0.0657   0.0786   1.0732   1.0816
     1.2469   1.3250

          k =-0.5119-0.1969 0.0000 ( 11611 PWs)   bands (ev):

   -58.7237 -58.7237 -33.1296 -33.1296 -32.8899 -32.8899 -32.8280 -32.8280
   -10.2582 -10.2473 -10.1138 -10.1016  -3.8729  -3.8551  -3.0531  -3.0283
    -2.1909  -2.1289  -1.2764  -1.2590  -0.0094   0.1252   0.4630   0.4949
     1.4415   1.4847

          k =-0.5119-0.0984 0.0000 ( 11614 PWs)   bands (ev):

   -58.7237 -58.7237 -33.0913 -33.0913 -32.8899 -32.8899 -32.8680 -32.8680
   -10.2744 -10.2633 -10.1010 -10.0885  -3.5342  -3.5158  -3.1056  -3.0909
    -1.9859  -1.9197  -1.3624  -1.3164  -0.4543  -0.4252   0.1466   0.2616
     1.4548   1.4765

          k =-0.5119 0.0001 0.0000 ( 11589 PWs)   bands (ev):

   -58.7237 -58.7237 -33.0657 -33.0657 -32.8944 -32.8944 -32.8900 -32.8899
   -10.2824 -10.2712 -10.0946 -10.0819  -3.3306  -3.3110  -3.1295  -3.1198
    -1.7294  -1.6511  -1.4113  -1.3523  -1.0503  -1.0334   0.2395   0.3448
     1.4307   1.4420

          k =-0.5119 0.0986 0.0000 ( 11614 PWs)   bands (ev):

   -58.7237 -58.7237 -33.0914 -33.0914 -32.8900 -32.8899 -32.8679 -32.8679
   -10.2745 -10.2634 -10.1012 -10.0888  -3.5343  -3.5159  -3.1054  -3.0907
    -1.9860  -1.9198  -1.3619  -1.3159  -0.4539  -0.4248   0.1464   0.2614
     1.4546   1.4762

          k =-0.5118 0.1971 0.0000 ( 11611 PWs)   bands (ev):

   -58.7237 -58.7237 -33.1297 -33.1297 -32.8899 -32.8899 -32.8279 -32.8278
   -10.2584 -10.2475 -10.1143 -10.1021  -3.8731  -3.8553  -3.0528  -3.0280
    -2.1909  -2.1289  -1.2754  -1.2580  -0.0098   0.1247   0.4635   0.4955
     1.4412   1.4844

          k =-0.5121-0.8864 0.0000 ( 11612 PWs)   bands (ev):

   -58.7237 -58.7237 -33.1455 -33.1454 -32.8899 -32.8899 -32.8112 -32.8112
   -10.2503 -10.2395 -10.1208 -10.1087  -4.0182  -4.0003  -3.0240  -2.9940
    -2.2575  -2.1970  -1.2431  -1.2404  -0.0662   0.0780   1.0743   1.0826
     1.2462   1.3243

     highest occupied level (ev):     1.9981

!    total energy              =    -979.51193484 Ry

     total all-electron energy =    -19376.427625 Ry
     estimated scf accuracy    <          2.6E-13 Ry

     The total energy is the sum of the following terms:
     one-electron contribution =   -2375.07752287 Ry
     hartree contribution      =    1198.19311205 Ry
     xc contribution           =     -59.04876589 Ry
     ewald contribution        =     882.20395850 Ry
     one-center paw contrib.   =    -625.78271663 Ry

     convergence has been achieved in  33 iterations

     negative rho (up, down):  3.556E-04 0.000E+00

     Forces acting on atoms (cartesian axes, Ry/au):

     atom    1 type  1   force =     0.00004082    0.00003427   -0.00009414
     atom    2 type  2   force =    -0.00000403   -0.00002674   -0.00033907
     atom    3 type  2   force =    -0.00003678   -0.00000753    0.00038101
     atom    4 type  1   force =     0.00004082    0.00003427    0.00009414
     atom    5 type  2   force =    -0.00003678   -0.00000753   -0.00038101
     atom    6 type  2   force =    -0.00000403   -0.00002674    0.00033907

     Total force =     0.000740     Total SCF correction =     0.000002


     Computing stress (Cartesian axis) and pressure


     negative rho (up, down):  3.556E-04 0.000E+00
          total   stress  (Ry/bohr**3)                   (kbar)     P=       -0.68
  -0.00000041   0.00000022   0.00000000           -0.06        0.03        0.00
   0.00000022  -0.00000097   0.00000000            0.03       -0.14        0.00
   0.00000000   0.00000000  -0.00001256            0.00        0.00       -1.85


     BFGS Geometry Optimization
     Energy error            =      0.0E+00 Ry
     Gradient error          =      3.8E-04 Ry/Bohr

     bfgs converged in   1 scf cycles and   0 bfgs steps
     (criteria: energy <  1.0E-04 Ry, force <  1.0E-03 Ry/Bohr)

     End of BFGS Geometry Optimization

     Final energy             =    -979.5119348417 Ry
Begin final coordinates

ATOMIC_POSITIONS (alat)
Mo            0.0000000000        0.0000000000        0.8657911000
S             0.4884432000        0.2819379000        1.3514993000
S             0.4884704000        0.2819219000        0.3800977000
Mo            0.0000000000        0.0000000000        3.1342089000
S             0.4884704000        0.2819219000        3.6199023000
S             0.4884432000        0.2819379000        2.6485007000
End final coordinates



     Writing output data file /scratch/as3359/MoS2_loop/Ta.save/
 
     init_run     :     10.49s CPU      5.63s WALL (       1 calls)
     electrons    :    570.29s CPU    291.42s WALL (       1 calls)
     forces       :      2.98s CPU      1.53s WALL (       1 calls)
     stress       :      9.22s CPU      4.71s WALL (       1 calls)

     Called by init_run:
     wfcinit      :      7.26s CPU      3.73s WALL (       1 calls)
     potinit      :      0.96s CPU      0.49s WALL (       1 calls)
     hinit0       :      1.96s CPU      1.22s WALL (       1 calls)

     Called by electrons:
     c_bands      :    471.82s CPU    239.29s WALL (      34 calls)
     sum_band     :     81.26s CPU     42.35s WALL (      34 calls)
     v_of_rho     :      3.19s CPU      1.74s WALL (      34 calls)
     newd         :      5.62s CPU      3.71s WALL (      34 calls)
     PAW_pot      :      7.51s CPU      3.86s WALL (      34 calls)
     mix_rho      :      0.91s CPU      0.47s WALL (      34 calls)

     Called by c_bands:
     init_us_2    :     10.32s CPU      5.19s WALL (    5254 calls)
     cegterg      :    447.20s CPU    226.77s WALL (    2516 calls)

     Called by *egterg:
     cdiaghg      :     12.08s CPU      6.20s WALL (   10191 calls)
     h_psi        :    370.06s CPU    187.94s WALL (   10339 calls)
     s_psi        :     13.81s CPU      6.94s WALL (   10339 calls)
     g_psi        :      2.05s CPU      1.03s WALL (    7749 calls)

     Called by h_psi:
     h_psi:calbec :     13.07s CPU      6.59s WALL (   10339 calls)
     vloc_psi     :    337.22s CPU    171.42s WALL (   10339 calls)
     add_vuspsi   :     17.02s CPU      8.55s WALL (   10339 calls)

     General routines
     calbec       :     17.26s CPU      8.72s WALL (   13225 calls)
     fft          :      1.36s CPU      0.69s WALL (     466 calls)
     ffts         :      0.15s CPU      0.09s WALL (      68 calls)
     fftw         :    350.20s CPU    177.98s WALL (  419856 calls)
     interpolate  :      0.29s CPU      0.17s WALL (      34 calls)
 
     Parallel routines
 
     PWSCF        :   9m54.64s CPU   5m 5.36s WALL

 
   This run was terminated on:  12:44:20   8Apr2022            

=------------------------------------------------------------------------------=
   JOB DONE.
=------------------------------------------------------------------------------=
