
     Program PWSCF v.6.8 starts on  9Apr2022 at 17:39:24 

     This program is part of the open-source Quantum ESPRESSO suite
     for quantum simulation of materials; please cite
         "P. Giannozzi et al., J. Phys.:Condens. Matter 21 395502 (2009);
         "P. Giannozzi et al., J. Phys.:Condens. Matter 29 465901 (2017);
         "P. Giannozzi et al., J. Chem. Phys. 152 154105 (2020);
          URL http://www.quantum-espresso.org", 
     in publications or presentations arising from this work. More details at
     http://www.quantum-espresso.org/quote

     Parallel version (MPI & OpenMP), running on       4 processor cores
     Number of MPI processes:                 2
     Threads/MPI process:                     2

     MPI processes distributed on     1 nodes
     R & G space division:  proc/nbgrp/npool/nimage =       2
     124967 MiB available memory on the printing compute node when the environment starts
 
     Reading input from Ta2CH2.scf.5.525.in
Warning: card  &CELL ignored
Warning: card     CELL_DYNAMICS='BFGS' ignored
Warning: card  / ignored

     Current dimensions of program PWSCF are:
     Max number of different atomic species (ntypx) = 10
     Max number of k-points (npk) =  40000
     Max angular momentum in pseudopotentials (lmaxx) =  4
     Message from routine iosys:
     restart disabled: needed files not found
     file Ta.pbesol-spfn-rrkjus_psl.1.0.0.UPF: wavefunction(s)  5S 5P renormalized
     Message from routine setup:
     using ibrav=0 with symmetry is DISCOURAGED, use correct ibrav instead

     Subspace diagonalization in iterative solution of the eigenvalue problem:
     a serial algorithm will be used

 
     Parallelization info
     --------------------
     sticks:   dense  smooth     PW     G-vecs:    dense   smooth      PW
     Min         684     684    189               196358   196358   29139
     Max         685     685    190               196389   196389   29164
     Sum        1369    1369    379               392747   392747   58303
 
     Using Slab Decomposition
 


     bravais-lattice index     =            0
     lattice parameter (alat)  =       5.5250  a.u.
     unit-cell volume          =    1581.6490 (a.u.)^3
     number of atoms/cell      =            3
     number of atomic types    =            2
     number of electrons       =        58.00
     number of Kohn-Sham states=           29
     kinetic-energy cutoff     =     150.0000  Ry
     charge density cutoff     =     600.0000  Ry
     scf convergence threshold =      1.0E-12
     mixing beta               =       0.7000
     number of iterations used =            8  plain     mixing
     Exchange-correlation= PBESOL
                           (   1   4  10   8   0   0   0)

     celldm(1)=   5.525000  celldm(2)=   0.000000  celldm(3)=   0.000000
     celldm(4)=   0.000000  celldm(5)=   0.000000  celldm(6)=   0.000000

     crystal axes: (cart. coord. in units of alat)
               a(1) = (   1.040618   0.000000   0.000000 )  
               a(2) = (  -0.520309   0.901202   0.000000 )  
               a(3) = (   0.000000   0.000000  10.000000 )  

     reciprocal axes: (cart. coord. in units 2 pi/alat)
               b(1) = (  0.960967  0.554815  0.000000 )  
               b(2) = (  0.000000  1.109630  0.000000 )  
               b(3) = (  0.000000  0.000000  0.100000 )  


     PseudoPot. # 1 for Ta read from file:
     /shared/home/as3359/pseudo/Ta.pbesol-spfn-rrkjus_psl.1.0.0.UPF
     MD5 check sum: f099565ffaca9b150a52e9412a28e20b
     Pseudo is Ultrasoft + core correction, Zval = 27.0
     Generated using &quot;atomic&quot; code by A. Dal Corso  v.6.3
     Using radial grid of 1273 points,  8 beta functions with: 
                l(1) =   0
                l(2) =   0
                l(3) =   1
                l(4) =   1
                l(5) =   2
                l(6) =   2
                l(7) =   3
                l(8) =   3
     Q(r) pseudized with 0 coefficients 


     PseudoPot. # 2 for C  read from file:
     /shared/home/as3359/pseudo/C.pbesol-n-rrkjus_psl.1.0.0.UPF
     MD5 check sum: 05995be603a8a7c99da3dc4413f31573
     Pseudo is Ultrasoft + core correction, Zval =  4.0
     Generated using &quot;atomic&quot; code by A. Dal Corso  v.6.3MaX
     Using radial grid of 1073 points,  4 beta functions with: 
                l(1) =   0
                l(2) =   0
                l(3) =   1
                l(4) =   1
     Q(r) pseudized with 0 coefficients 


     atomic species   valence    mass     pseudopotential
        Ta            27.00   180.94788     Ta( 1.00)
        C              4.00    12.01070     C ( 1.00)

     12 Sym. Ops., with inversion, found



   Cartesian axes

     site n.     atom                  positions (alat units)
         1           C   tau(   1) = (   0.0000000   0.0000000   0.0000000  )
         2           Ta  tau(   2) = (   0.5203090   0.3004005  -0.4101496  )
         3           Ta  tau(   3) = (  -0.0000000   0.6008011   0.4101496  )

     number of k points=    27
                       cart. coord. in units 2pi/alat
        k(    1) = (   0.0000000   0.0000000   0.0000000), wk =   0.0088889
        k(    2) = (   0.0000000   0.0739753   0.0000000), wk =   0.0533333
        k(    3) = (   0.0000000   0.1479506   0.0000000), wk =   0.0533333
        k(    4) = (   0.0000000   0.2219259   0.0000000), wk =   0.0533333
        k(    5) = (   0.0000000   0.2959012   0.0000000), wk =   0.0533333
        k(    6) = (   0.0000000   0.3698766   0.0000000), wk =   0.0533333
        k(    7) = (   0.0000000   0.4438519   0.0000000), wk =   0.0533333
        k(    8) = (   0.0000000   0.5178272   0.0000000), wk =   0.0533333
        k(    9) = (   0.0640645   0.1109630   0.0000000), wk =   0.0533333
        k(   10) = (   0.0640645   0.1849383   0.0000000), wk =   0.1066667
        k(   11) = (   0.0640645   0.2589136   0.0000000), wk =   0.1066667
        k(   12) = (   0.0640645   0.3328889   0.0000000), wk =   0.1066667
        k(   13) = (   0.0640645   0.4068642   0.0000000), wk =   0.1066667
        k(   14) = (   0.0640645   0.4808395   0.0000000), wk =   0.1066667
        k(   15) = (   0.0640645   0.5548148   0.0000000), wk =   0.0533333
        k(   16) = (   0.1281290   0.2219259   0.0000000), wk =   0.0533333
        k(   17) = (   0.1281290   0.2959012   0.0000000), wk =   0.1066667
        k(   18) = (   0.1281290   0.3698766   0.0000000), wk =   0.1066667
        k(   19) = (   0.1281290   0.4438519   0.0000000), wk =   0.1066667
        k(   20) = (   0.1281290   0.5178272   0.0000000), wk =   0.1066667
        k(   21) = (   0.1921935   0.3328889   0.0000000), wk =   0.0533333
        k(   22) = (   0.1921935   0.4068642   0.0000000), wk =   0.1066667
        k(   23) = (   0.1921935   0.4808395   0.0000000), wk =   0.1066667
        k(   24) = (   0.1921935   0.5548148   0.0000000), wk =   0.0533333
        k(   25) = (   0.2562580   0.4438519   0.0000000), wk =   0.0533333
        k(   26) = (   0.2562580   0.5178272   0.0000000), wk =   0.1066667
        k(   27) = (   0.3203225   0.5548148   0.0000000), wk =   0.0177778

     Dense  grid:   392747 G-vectors     FFT dimensions: (  45,  45, 432)

     Estimated max dynamical RAM per process >       2.15 GB

     Estimated total dynamical RAM >       4.30 GB
     Cannot read rho : file not found

     Initial potential from superposition of free atoms

     starting charge   57.99842, renormalised to   58.00000

     negative rho (up, down):  9.766E-05 0.000E+00
     Message from routine qexsd_readschema :
     xml data file /scratch/as3359/Mos2_ct_lat/Ta2CH2.save/data-file-schema.xml not f
     Cannot read wfcs: file not found
     Starting wfcs are   38 randomized atomic wfcs

     total cpu time spent up to now is       12.4 secs

     Self-consistent Calculation

     iteration #  1     ecut=   150.00 Ry     beta= 0.70
     Davidson diagonalization with overlap
     c_bands:  1 eigenvalues not converged
     ethr =  1.00E-05,  avg # of iterations = 12.1

     negative rho (up, down):  9.235E-05 0.000E+00

     total cpu time spent up to now is       48.2 secs

     total energy              =   -1372.44542463 Ry
     estimated scf accuracy    <       1.33384812 Ry

     iteration #  2     ecut=   150.00 Ry     beta= 0.70
     Davidson diagonalization with overlap
     ethr =  2.30E-03,  avg # of iterations =  8.3

     total cpu time spent up to now is       71.5 secs

     total energy              =   -1371.55537145 Ry
     estimated scf accuracy    <      10.43905620 Ry

     iteration #  3     ecut=   150.00 Ry     beta= 0.70
     Davidson diagonalization with overlap
     ethr =  2.30E-03,  avg # of iterations =  6.6

     total cpu time spent up to now is       93.0 secs

     total energy              =   -1373.20121637 Ry
     estimated scf accuracy    <       0.16595898 Ry

     iteration #  4     ecut=   150.00 Ry     beta= 0.70
     Davidson diagonalization with overlap
     ethr =  2.86E-04,  avg # of iterations =  4.7

     total cpu time spent up to now is      111.0 secs

     total energy              =   -1373.25064921 Ry
     estimated scf accuracy    <       0.03095227 Ry

     iteration #  5     ecut=   150.00 Ry     beta= 0.70
     Davidson diagonalization with overlap
     ethr =  5.34E-05,  avg # of iterations =  4.5

     total cpu time spent up to now is      128.7 secs

     total energy              =   -1373.25080174 Ry
     estimated scf accuracy    <       0.01367005 Ry

     iteration #  6     ecut=   150.00 Ry     beta= 0.70
     Davidson diagonalization with overlap
     ethr =  2.36E-05,  avg # of iterations =  3.3

     total cpu time spent up to now is      145.1 secs

     total energy              =   -1373.25108518 Ry
     estimated scf accuracy    <       0.00279472 Ry

     iteration #  7     ecut=   150.00 Ry     beta= 0.70
     Davidson diagonalization with overlap
     ethr =  4.82E-06,  avg # of iterations =  4.2

     negative rho (up, down):  2.739E-04 0.000E+00

     total cpu time spent up to now is      162.8 secs

     total energy              =   -1373.25144910 Ry
     estimated scf accuracy    <       0.00039294 Ry

     iteration #  8     ecut=   150.00 Ry     beta= 0.70
     Davidson diagonalization with overlap
     ethr =  6.77E-07,  avg # of iterations =  7.3

     negative rho (up, down):  1.030E-03 0.000E+00

     total cpu time spent up to now is      182.7 secs

     total energy              =   -1373.25153437 Ry
     estimated scf accuracy    <       0.00025610 Ry

     iteration #  9     ecut=   150.00 Ry     beta= 0.70
     Davidson diagonalization with overlap
     ethr =  4.42E-07,  avg # of iterations =  2.2

     negative rho (up, down):  2.201E-04 0.000E+00

     total cpu time spent up to now is      199.0 secs

     total energy              =   -1373.25153667 Ry
     estimated scf accuracy    <       0.00005323 Ry

     iteration # 10     ecut=   150.00 Ry     beta= 0.70
     Davidson diagonalization with overlap
     ethr =  9.18E-08,  avg # of iterations =  6.5

     negative rho (up, down):  7.325E-05 0.000E+00

     total cpu time spent up to now is      218.6 secs

     total energy              =   -1373.25155066 Ry
     estimated scf accuracy    <       0.00000112 Ry

     iteration # 11     ecut=   150.00 Ry     beta= 0.70
     Davidson diagonalization with overlap
     ethr =  1.93E-09,  avg # of iterations =  7.6

     negative rho (up, down):  1.011E-04 0.000E+00

     total cpu time spent up to now is      242.4 secs

     total energy              =   -1373.25155144 Ry
     estimated scf accuracy    <       0.00000004 Ry

     iteration # 12     ecut=   150.00 Ry     beta= 0.70
     Davidson diagonalization with overlap
     ethr =  6.56E-11,  avg # of iterations =  8.7

     negative rho (up, down):  1.015E-04 0.000E+00

     total cpu time spent up to now is      267.7 secs

     total energy              =   -1373.25155144 Ry
     estimated scf accuracy    <       0.00000012 Ry

     iteration # 13     ecut=   150.00 Ry     beta= 0.70
     Davidson diagonalization with overlap
     ethr =  6.56E-11,  avg # of iterations =  6.0

     negative rho (up, down):  1.015E-04 0.000E+00

     total cpu time spent up to now is      286.5 secs

     total energy              =   -1373.25155145 Ry
     estimated scf accuracy    <          5.1E-09 Ry

     iteration # 14     ecut=   150.00 Ry     beta= 0.70
     Davidson diagonalization with overlap
     ethr =  8.73E-12,  avg # of iterations =  6.9

     negative rho (up, down):  1.016E-04 0.000E+00

     total cpu time spent up to now is      308.2 secs

     total energy              =   -1373.25155146 Ry
     estimated scf accuracy    <          2.6E-09 Ry

     iteration # 15     ecut=   150.00 Ry     beta= 0.70
     Davidson diagonalization with overlap
     ethr =  4.48E-12,  avg # of iterations =  2.1

     negative rho (up, down):  1.017E-04 0.000E+00

     total cpu time spent up to now is      324.0 secs

     total energy              =   -1373.25155145 Ry
     estimated scf accuracy    <          1.0E-09 Ry

     iteration # 16     ecut=   150.00 Ry     beta= 0.70
     Davidson diagonalization with overlap
     ethr =  1.78E-12,  avg # of iterations =  3.4

     negative rho (up, down):  1.017E-04 0.000E+00

     total cpu time spent up to now is      341.3 secs

     total energy              =   -1373.25155146 Ry
     estimated scf accuracy    <          2.0E-11 Ry

     iteration # 17     ecut=   150.00 Ry     beta= 0.70
     Davidson diagonalization with overlap
     ethr =  1.00E-13,  avg # of iterations =  7.1

     negative rho (up, down):  1.017E-04 0.000E+00

     total cpu time spent up to now is      360.9 secs

     End of self-consistent calculation

          k = 0.0000 0.0000 0.0000 ( 49139 PWs)   bands (ev):

   -68.1897 -68.1375 -35.2448 -34.6078 -34.3059 -34.3059 -34.2340 -34.2340
   -19.8431 -19.8290 -19.8030 -19.8030 -19.7971 -19.7971 -19.7683 -19.7683
   -19.7604 -19.7604 -19.7521 -19.7464 -19.6849 -19.6832 -13.2180  -7.6199
    -4.3932  -4.3932  -1.7697  -0.8567  -0.6591

          k = 0.0000 0.0740 0.0000 ( 49101 PWs)   bands (ev):

   -68.1872 -68.1360 -35.2364 -34.6117 -34.3366 -34.3169 -34.2627 -34.2377
   -19.8420 -19.8284 -19.8040 -19.8033 -19.7972 -19.7963 -19.7693 -19.7681
   -19.7607 -19.7600 -19.7501 -19.7447 -19.6867 -19.6851 -13.1437  -7.4769
    -4.6064  -4.3686  -1.7038  -0.9821  -0.5323

          k = 0.0000 0.1480 0.0000 ( 49055 PWs)   bands (ev):

   -68.1799 -68.1317 -35.2128 -34.6284 -34.4172 -34.3462 -34.3422 -34.2496
   -19.8393 -19.8267 -19.8066 -19.8040 -19.7977 -19.7944 -19.7721 -19.7674
   -19.7613 -19.7587 -19.7449 -19.7398 -19.6918 -19.6904 -12.9384  -7.0779
    -5.0959  -4.3136  -1.6263  -1.2830  -0.7130

          k = 0.0000 0.2219 0.0000 ( 49005 PWs)   bands (ev):

   -68.1690 -68.1255 -35.1791 -34.6805 -34.5084 -34.4538 -34.3870 -34.2694
   -19.8355 -19.8243 -19.8100 -19.8049 -19.7986 -19.7922 -19.7755 -19.7662
   -19.7622 -19.7567 -19.7372 -19.7325 -19.6990 -19.6979 -12.6511  -6.5575
    -5.5887  -4.2715  -1.9403  -1.4634  -0.9775

          k = 0.0000 0.2959 0.0000 ( 49041 PWs)   bands (ev):

   -68.1561 -68.1188 -35.1441 -34.7914 -34.5829 -34.5508 -34.4315 -34.2939
   -19.8322 -19.8213 -19.8132 -19.8061 -19.8000 -19.7905 -19.7786 -19.7645
   -19.7630 -19.7542 -19.7282 -19.7241 -19.7072 -19.7059 -12.3480  -6.4748
    -5.5471  -4.2756  -2.5268  -1.4386  -0.8958

          k = 0.0000 0.3699 0.0000 ( 49048 PWs)   bands (ev):

   -68.1431 -68.1129 -35.1209 -34.9200 -34.6753 -34.5836 -34.4726 -34.3185
   -19.8307 -19.8178 -19.8154 -19.8073 -19.8020 -19.7898 -19.7805 -19.7636
   -19.7625 -19.7515 -19.7194 -19.7161 -19.7150 -19.7127 -12.0908  -6.8032
    -5.1441  -4.3229  -3.0299  -1.1265  -0.5968

          k = 0.0000 0.4439 0.0000 ( 49042 PWs)   bands (ev):

   -68.1323 -68.1091 -35.1193 -35.0230 -34.7273 -34.6061 -34.5039 -34.3381
   -19.8307 -19.8164 -19.8147 -19.8084 -19.8040 -19.7898 -19.7811 -19.7641
   -19.7606 -19.7493 -19.7209 -19.7177 -19.7123 -19.7098 -11.9160  -7.0653
    -4.9349  -4.3826  -3.3757  -0.5114  -0.1906

          k = 0.0000 0.5178 0.0000 ( 49066 PWs)   bands (ev):

   -68.1257 -68.1076 -35.1301 -35.0775 -34.7419 -34.6212 -34.5208 -34.3490
   -19.8310 -19.8162 -19.8138 -19.8090 -19.8049 -19.7900 -19.7811 -19.7643
   -19.7595 -19.7479 -19.7241 -19.7202 -19.7083 -19.7065 -11.8312  -7.1992
    -4.8806  -4.4217  -3.5491   0.0476   0.1300

          k = 0.0641 0.1110 0.0000 ( 49077 PWs)   bands (ev):

   -68.1823 -68.1331 -35.2204 -34.6217 -34.3864 -34.3552 -34.2997 -34.2505
   -19.8401 -19.8272 -19.8056 -19.8041 -19.7974 -19.7951 -19.7712 -19.7677
   -19.7610 -19.7593 -19.7466 -19.7414 -19.6901 -19.6887 -13.0038  -7.2038
    -4.9432  -4.3471  -1.6246  -1.1559  -0.6084

          k = 0.0641 0.1849 0.0000 ( 49026 PWs)   bands (ev):

   -68.1732 -68.1278 -35.1916 -34.6529 -34.4702 -34.4368 -34.3486 -34.2719
   -19.8367 -19.8252 -19.8084 -19.8054 -19.7977 -19.7932 -19.7742 -19.7669
   -19.7614 -19.7578 -19.7401 -19.7352 -19.6963 -19.6952 -12.7572  -6.7169
    -5.4245  -4.3507  -1.6427  -1.3864  -0.9838

          k = 0.0641 0.2589 0.0000 ( 49019 PWs)   bands (ev):

   -68.1613 -68.1214 -35.1568 -34.7330 -34.5571 -34.5235 -34.4039 -34.2968
   -19.8329 -19.8228 -19.8116 -19.8067 -19.7986 -19.7913 -19.7775 -19.7659
   -19.7617 -19.7557 -19.7318 -19.7274 -19.7040 -19.7030 -12.4617  -6.3031
    -5.7176  -4.3967  -2.1504  -1.3288  -1.0746

          k = 0.0641 0.3329 0.0000 ( 49037 PWs)   bands (ev):

   -68.1483 -68.1151 -35.1265 -34.8542 -34.6462 -34.5719 -34.4550 -34.3233
   -19.8303 -19.8196 -19.8143 -19.8078 -19.8002 -19.7903 -19.7800 -19.7648
   -19.7616 -19.7532 -19.7229 -19.7192 -19.7121 -19.7105 -12.1819  -6.5585
    -5.3159  -4.4685  -2.6806  -1.1500  -0.8972

          k = 0.0641 0.4069 0.0000 ( 49074 PWs)   bands (ev):

   -68.1363 -68.1104 -35.1131 -34.9698 -34.7103 -34.6032 -34.4952 -34.3471
   -19.8295 -19.8162 -19.8157 -19.8086 -19.8024 -19.7900 -19.7812 -19.7642
   -19.7608 -19.7508 -19.7191 -19.7167 -19.7148 -19.7120 -11.9676  -6.8720
    -4.9797  -4.5342  -3.0669  -0.7505  -0.5101

          k = 0.0641 0.4808 0.0000 ( 49099 PWs)   bands (ev):

   -68.1274 -68.1079 -35.1174 -35.0488 -34.7350 -34.6282 -34.5204 -34.3636
   -19.8298 -19.8161 -19.8140 -19.8089 -19.8043 -19.7903 -19.7815 -19.7640
   -19.7599 -19.7490 -19.7237 -19.7203 -19.7093 -19.7073 -11.8400  -7.0701
    -4.8627  -4.5863  -3.2906  -0.2033  -0.0823

          k = 0.0641 0.5548 0.0000 ( 49098 PWs)   bands (ev):

   -68.1239 -68.1073 -35.1228 -35.0764 -34.7380 -34.6392 -34.5290 -34.3695
   -19.8301 -19.8161 -19.8134 -19.8090 -19.8049 -19.7904 -19.7815 -19.7640
   -19.7596 -19.7483 -19.7253 -19.7216 -19.7072 -19.7056 -11.7986  -7.1366
    -4.8396  -4.6120  -3.3632   0.0940   0.0966

          k = 0.1281 0.2219 0.0000 ( 49009 PWs)   bands (ev):

   -68.1631 -68.1223 -35.1614 -34.7073 -34.5521 -34.5166 -34.3784 -34.3115
   -19.8330 -19.8234 -19.8102 -19.8078 -19.7977 -19.7919 -19.7770 -19.7664
   -19.7608 -19.7567 -19.7331 -19.7286 -19.7029 -19.7021 -12.5020  -6.1819
    -5.8049  -4.5151  -1.7731  -1.5429  -0.9170

          k = 0.1281 0.2959 0.0000 ( 49042 PWs)   bands (ev):

   -68.1511 -68.1164 -35.1300 -34.7972 -34.6506 -34.5566 -34.4320 -34.3495
   -19.8291 -19.8213 -19.8124 -19.8097 -19.7984 -19.7910 -19.7796 -19.7659
   -19.7597 -19.7552 -19.7249 -19.7210 -19.7104 -19.7097 -12.2297  -6.2093
    -5.5526  -4.7103  -2.2075  -1.3935  -0.7123

          k = 0.1281 0.3699 0.0000 ( 49073 PWs)   bands (ev):

   -68.1390 -68.1113 -35.1073 -34.9027 -34.7137 -34.5950 -34.4870 -34.3814
   -19.8269 -19.8184 -19.8143 -19.8102 -19.8001 -19.7908 -19.7814 -19.7651
   -19.7591 -19.7532 -19.7182 -19.7172 -19.7157 -19.7134 -11.9949  -6.5396
    -5.0555  -4.8591  -2.5562  -1.0490  -0.6624

          k = 0.1281 0.4439 0.0000 ( 49073 PWs)   bands (ev):

   -68.1287 -68.1082 -35.0985 -34.9926 -34.7364 -34.6392 -34.5235 -34.4061
   -19.8268 -19.8161 -19.8146 -19.8096 -19.8025 -19.7911 -19.7822 -19.7641
   -19.7593 -19.7512 -19.7236 -19.7214 -19.7101 -19.7079 -11.8316  -6.7799
    -4.9480  -4.8001  -2.7721  -0.5739  -0.4228

          k = 0.1281 0.5178 0.0000 ( 49099 PWs)   bands (ev):

   -68.1223 -68.1071 -35.0959 -35.0461 -34.7287 -34.6793 -34.5398 -34.4199
   -19.8272 -19.8161 -19.8130 -19.8088 -19.8043 -19.7914 -19.7825 -19.7632
   -19.7599 -19.7499 -19.7268 -19.7239 -19.7065 -19.7050 -11.7506  -6.9047
    -4.9809  -4.7372  -2.8785  -0.1880  -0.1154

          k = 0.1922 0.3329 0.0000 ( 49057 PWs)   bands (ev):

   -68.1399 -68.1117 -35.1052 -34.8627 -34.7333 -34.5834 -34.4771 -34.4077
   -19.8249 -19.8202 -19.8123 -19.8123 -19.7991 -19.7912 -19.7815 -19.7655
   -19.7573 -19.7553 -19.7184 -19.7174 -19.7160 -19.7138 -12.0030  -6.3128
    -5.2371  -4.9413  -2.1508  -1.4776  -0.3808

          k = 0.1922 0.4069 0.0000 ( 49088 PWs)   bands (ev):

   -68.1293 -68.1083 -35.0861 -34.9291 -34.7750 -34.6201 -34.5258 -34.4524
   -19.8228 -19.8186 -19.8134 -19.8110 -19.8007 -19.7919 -19.7829 -19.7645
   -19.7572 -19.7542 -19.7235 -19.7227 -19.7106 -19.7083 -11.8213  -6.4580
    -5.2938  -4.7601  -2.1468  -1.2013  -0.5467

          k = 0.1922 0.4808 0.0000 ( 49106 PWs)   bands (ev):

   -68.1212 -68.1070 -35.0682 -34.9882 -34.7762 -34.6715 -34.5503 -34.4815
   -19.8232 -19.8166 -19.8129 -19.8091 -19.8029 -19.7927 -19.7837 -19.7630
   -19.7589 -19.7525 -19.7278 -19.7263 -19.7060 -19.7045 -11.7074  -6.5796
    -5.3693  -4.6165  -2.2203  -0.6982  -0.4541

          k = 0.1922 0.5548 0.0000 ( 49080 PWs)   bands (ev):

   -68.1178 -68.1071 -35.0517 -35.0209 -34.7637 -34.7039 -34.5552 -34.4926
   -19.8236 -19.8161 -19.8121 -19.8079 -19.8043 -19.7930 -19.7839 -19.7616
   -19.7604 -19.7519 -19.7294 -19.7275 -19.7043 -19.7032 -11.6691  -6.6266
    -5.3897  -4.5799  -2.2611  -0.4273  -0.3549

          k = 0.2563 0.4439 0.0000 ( 49075 PWs)   bands (ev):

   -68.1208 -68.1070 -35.0571 -34.9409 -34.8271 -34.6464 -34.5629 -34.5114
   -19.8204 -19.8181 -19.8125 -19.8096 -19.8020 -19.7934 -19.7842 -19.7632
   -19.7572 -19.7546 -19.7280 -19.7275 -19.7058 -19.7044 -11.6900  -6.3734
    -5.5906  -4.5589  -1.5889  -1.2951  -0.6120

          k = 0.2563 0.5178 0.0000 ( 49128 PWs)   bands (ev):

   -68.1148 -68.1076 -35.0163 -34.9678 -34.8501 -34.6777 -34.5717 -34.5485
   -19.8210 -19.8156 -19.8123 -19.8072 -19.8037 -19.7944 -19.7852 -19.7613
   -19.7592 -19.7541 -19.7307 -19.7300 -19.7031 -19.7023 -11.6200  -6.3289
    -5.7405  -4.4513  -1.5421  -0.8749  -0.6153

          k = 0.3203 0.5548 0.0000 ( 49101 PWs)   bands (ev):

   -68.1102 -68.1102 -34.9582 -34.9582 -34.9159 -34.6774 -34.5782 -34.5782
   -19.8206 -19.8133 -19.8133 -19.8051 -19.8051 -19.7952 -19.7858 -19.7599
   -19.7599 -19.7550 -19.7316 -19.7316 -19.7018 -19.7018 -11.5884  -6.0534
    -6.0534  -4.3811  -1.0455  -0.9029  -0.9029

     highest occupied level (ev):     0.1300

!    total energy              =   -1373.25155146 Ry
     estimated scf accuracy    <          4.7E-13 Ry

     The total energy is the sum of the following terms:
     one-electron contribution =  -10860.63724776 Ry
     hartree contribution      =    5458.86545916 Ry
     xc contribution           =    -138.81090422 Ry
     ewald contribution        =    4167.33114136 Ry

     convergence has been achieved in  17 iterations

     negative rho (up, down):  1.017E-04 0.000E+00

     Forces acting on atoms (cartesian axes, Ry/au):

     atom    1 type  2   force =     0.00000000   -0.00000000    0.00000000
     atom    2 type  1   force =    -0.00000000   -0.00000000   -0.01241771
     atom    3 type  1   force =     0.00000000    0.00000000    0.01241771

     Total force =     0.017561     Total SCF correction =     0.000001


     Computing stress (Cartesian axis) and pressure


     negative rho (up, down):  1.017E-04 0.000E+00
          total   stress  (Ry/bohr**3)                   (kbar)     P=        9.14
   0.00007578  -0.00000000   0.00000000           11.15       -0.00        0.00
  -0.00000000   0.00007578   0.00000000           -0.00       11.15        0.00
  -0.00000000  -0.00000000   0.00003491           -0.00       -0.00        5.14


     Writing output data file /scratch/as3359/Mos2_ct_lat/Ta2CH2.save/
 
     init_run     :     21.34s CPU     12.22s WALL (       1 calls)
     electrons    :    676.22s CPU    348.56s WALL (       1 calls)
     forces       :      8.47s CPU      4.45s WALL (       1 calls)
     stress       :     31.62s CPU     16.51s WALL (       1 calls)

     Called by init_run:
     wfcinit      :     13.18s CPU      6.83s WALL (       1 calls)
     potinit      :      1.98s CPU      1.01s WALL (       1 calls)
     hinit0       :      4.42s CPU      3.19s WALL (       1 calls)

     Called by electrons:
     c_bands      :    532.27s CPU    268.80s WALL (      17 calls)
     sum_band     :    109.47s CPU     58.81s WALL (      17 calls)
     v_of_rho     :      5.12s CPU      2.80s WALL (      18 calls)
     newd         :     28.87s CPU     17.91s WALL (      18 calls)
     mix_rho      :      2.05s CPU      1.20s WALL (      17 calls)

     Called by c_bands:
     init_us_2    :     12.06s CPU      6.04s WALL (     999 calls)
     cegterg      :    496.67s CPU    250.89s WALL (     459 calls)

     Called by *egterg:
     cdiaghg      :      4.91s CPU      2.51s WALL (    3199 calls)
     h_psi        :    391.31s CPU    198.01s WALL (    3226 calls)
     s_psi        :     24.24s CPU     12.14s WALL (    3226 calls)
     g_psi        :      2.07s CPU      1.04s WALL (    2740 calls)

     Called by h_psi:
     h_psi:calbec :     18.50s CPU      9.30s WALL (    3226 calls)
     vloc_psi     :    343.38s CPU    173.87s WALL (    3226 calls)
     add_vuspsi   :     26.25s CPU     13.15s WALL (    3226 calls)

     General routines
     calbec       :     24.52s CPU     12.34s WALL (    3820 calls)
     fft          :      2.52s CPU      1.29s WALL (     223 calls)
     ffts         :      0.18s CPU      0.09s WALL (      17 calls)
     fftw         :    344.66s CPU    174.67s WALL (   92597 calls)
 
     Parallel routines
 
     PWSCF        :  12m19.60s CPU   6m23.41s WALL

 
   This run was terminated on:  17:45:48   9Apr2022            

=------------------------------------------------------------------------------=
   JOB DONE.
=------------------------------------------------------------------------------=
