
     Program PWSCF v.6.8 starts on  9Apr2022 at 18:29: 8 

     This program is part of the open-source Quantum ESPRESSO suite
     for quantum simulation of materials; please cite
         "P. Giannozzi et al., J. Phys.:Condens. Matter 21 395502 (2009);
         "P. Giannozzi et al., J. Phys.:Condens. Matter 29 465901 (2017);
         "P. Giannozzi et al., J. Chem. Phys. 152 154105 (2020);
          URL http://www.quantum-espresso.org", 
     in publications or presentations arising from this work. More details at
     http://www.quantum-espresso.org/quote

     Parallel version (MPI & OpenMP), running on       4 processor cores
     Number of MPI processes:                 2
     Threads/MPI process:                     2

     MPI processes distributed on     1 nodes
     R & G space division:  proc/nbgrp/npool/nimage =       2
     124969 MiB available memory on the printing compute node when the environment starts
 
     Reading input from Ta2CH2.scf.5.700.in
Warning: card  &CELL ignored
Warning: card     CELL_DYNAMICS='BFGS' ignored
Warning: card  / ignored

     Current dimensions of program PWSCF are:
     Max number of different atomic species (ntypx) = 10
     Max number of k-points (npk) =  40000
     Max angular momentum in pseudopotentials (lmaxx) =  4
     Message from routine iosys:
     restart disabled: needed files not found
     file Ta.pbesol-spfn-rrkjus_psl.1.0.0.UPF: wavefunction(s)  5S 5P renormalized
     Message from routine setup:
     using ibrav=0 with symmetry is DISCOURAGED, use correct ibrav instead

     Subspace diagonalization in iterative solution of the eigenvalue problem:
     a serial algorithm will be used

 
     Parallelization info
     --------------------
     sticks:   dense  smooth     PW     G-vecs:    dense   smooth      PW
     Min         729     729    210               215321   215321   31868
     Max         730     730    211               215342   215342   31871
     Sum        1459    1459    421               430663   430663   63739
 
     Using Slab Decomposition
 


     bravais-lattice index     =            0
     lattice parameter (alat)  =       5.7000  a.u.
     unit-cell volume          =    1736.7521 (a.u.)^3
     number of atoms/cell      =            3
     number of atomic types    =            2
     number of electrons       =        58.00
     number of Kohn-Sham states=           29
     kinetic-energy cutoff     =     150.0000  Ry
     charge density cutoff     =     600.0000  Ry
     scf convergence threshold =      1.0E-12
     mixing beta               =       0.7000
     number of iterations used =            8  plain     mixing
     Exchange-correlation= PBESOL
                           (   1   4  10   8   0   0   0)

     celldm(1)=   5.700000  celldm(2)=   0.000000  celldm(3)=   0.000000
     celldm(4)=   0.000000  celldm(5)=   0.000000  celldm(6)=   0.000000

     crystal axes: (cart. coord. in units of alat)
               a(1) = (   1.040618   0.000000   0.000000 )  
               a(2) = (  -0.520309   0.901202   0.000000 )  
               a(3) = (   0.000000   0.000000  10.000000 )  

     reciprocal axes: (cart. coord. in units 2 pi/alat)
               b(1) = (  0.960967  0.554815  0.000000 )  
               b(2) = (  0.000000  1.109630  0.000000 )  
               b(3) = (  0.000000  0.000000  0.100000 )  


     PseudoPot. # 1 for Ta read from file:
     /shared/home/as3359/pseudo/Ta.pbesol-spfn-rrkjus_psl.1.0.0.UPF
     MD5 check sum: f099565ffaca9b150a52e9412a28e20b
     Pseudo is Ultrasoft + core correction, Zval = 27.0
     Generated using &quot;atomic&quot; code by A. Dal Corso  v.6.3
     Using radial grid of 1273 points,  8 beta functions with: 
                l(1) =   0
                l(2) =   0
                l(3) =   1
                l(4) =   1
                l(5) =   2
                l(6) =   2
                l(7) =   3
                l(8) =   3
     Q(r) pseudized with 0 coefficients 


     PseudoPot. # 2 for C  read from file:
     /shared/home/as3359/pseudo/C.pbesol-n-rrkjus_psl.1.0.0.UPF
     MD5 check sum: 05995be603a8a7c99da3dc4413f31573
     Pseudo is Ultrasoft + core correction, Zval =  4.0
     Generated using &quot;atomic&quot; code by A. Dal Corso  v.6.3MaX
     Using radial grid of 1073 points,  4 beta functions with: 
                l(1) =   0
                l(2) =   0
                l(3) =   1
                l(4) =   1
     Q(r) pseudized with 0 coefficients 


     atomic species   valence    mass     pseudopotential
        Ta            27.00   180.94788     Ta( 1.00)
        C              4.00    12.01070     C ( 1.00)

     12 Sym. Ops., with inversion, found



   Cartesian axes

     site n.     atom                  positions (alat units)
         1           C   tau(   1) = (   0.0000000   0.0000000   0.0000000  )
         2           Ta  tau(   2) = (   0.5203090   0.3004005  -0.4101496  )
         3           Ta  tau(   3) = (  -0.0000000   0.6008011   0.4101496  )

     number of k points=    27
                       cart. coord. in units 2pi/alat
        k(    1) = (   0.0000000   0.0000000   0.0000000), wk =   0.0088889
        k(    2) = (   0.0000000   0.0739753   0.0000000), wk =   0.0533333
        k(    3) = (   0.0000000   0.1479506   0.0000000), wk =   0.0533333
        k(    4) = (   0.0000000   0.2219259   0.0000000), wk =   0.0533333
        k(    5) = (   0.0000000   0.2959012   0.0000000), wk =   0.0533333
        k(    6) = (   0.0000000   0.3698766   0.0000000), wk =   0.0533333
        k(    7) = (   0.0000000   0.4438519   0.0000000), wk =   0.0533333
        k(    8) = (   0.0000000   0.5178272   0.0000000), wk =   0.0533333
        k(    9) = (   0.0640645   0.1109630   0.0000000), wk =   0.0533333
        k(   10) = (   0.0640645   0.1849383   0.0000000), wk =   0.1066667
        k(   11) = (   0.0640645   0.2589136   0.0000000), wk =   0.1066667
        k(   12) = (   0.0640645   0.3328889   0.0000000), wk =   0.1066667
        k(   13) = (   0.0640645   0.4068642   0.0000000), wk =   0.1066667
        k(   14) = (   0.0640645   0.4808395   0.0000000), wk =   0.1066667
        k(   15) = (   0.0640645   0.5548148   0.0000000), wk =   0.0533333
        k(   16) = (   0.1281290   0.2219259   0.0000000), wk =   0.0533333
        k(   17) = (   0.1281290   0.2959012   0.0000000), wk =   0.1066667
        k(   18) = (   0.1281290   0.3698766   0.0000000), wk =   0.1066667
        k(   19) = (   0.1281290   0.4438519   0.0000000), wk =   0.1066667
        k(   20) = (   0.1281290   0.5178272   0.0000000), wk =   0.1066667
        k(   21) = (   0.1921935   0.3328889   0.0000000), wk =   0.0533333
        k(   22) = (   0.1921935   0.4068642   0.0000000), wk =   0.1066667
        k(   23) = (   0.1921935   0.4808395   0.0000000), wk =   0.1066667
        k(   24) = (   0.1921935   0.5548148   0.0000000), wk =   0.0533333
        k(   25) = (   0.2562580   0.4438519   0.0000000), wk =   0.0533333
        k(   26) = (   0.2562580   0.5178272   0.0000000), wk =   0.1066667
        k(   27) = (   0.3203225   0.5548148   0.0000000), wk =   0.0177778

     Dense  grid:   430663 G-vectors     FFT dimensions: (  48,  48, 450)

     Estimated max dynamical RAM per process >       2.36 GB

     Estimated total dynamical RAM >       4.72 GB
     Cannot read rho : file not found

     Initial potential from superposition of free atoms

     starting charge   57.99842, renormalised to   58.00000

     negative rho (up, down):  1.043E-04 0.000E+00
     Message from routine qexsd_readschema :
     xml data file /scratch/as3359/Mos2_ct_lat/Ta2CH2.save/data-file-schema.xml not f
     Cannot read wfcs: file not found
     Starting wfcs are   38 randomized atomic wfcs

     total cpu time spent up to now is       13.3 secs

     Self-consistent Calculation

     iteration #  1     ecut=   150.00 Ry     beta= 0.70
     Davidson diagonalization with overlap
     ethr =  1.00E-05,  avg # of iterations = 12.4

     negative rho (up, down):  1.014E-04 0.000E+00

     total cpu time spent up to now is       49.9 secs

     total energy              =   -1372.52925332 Ry
     estimated scf accuracy    <       1.18565707 Ry

     iteration #  2     ecut=   150.00 Ry     beta= 0.70
     Davidson diagonalization with overlap
     ethr =  2.04E-03,  avg # of iterations =  6.6

     negative rho (up, down):  4.897E-05 0.000E+00

     total cpu time spent up to now is       73.0 secs

     total energy              =   -1372.13880029 Ry
     estimated scf accuracy    <       6.97874431 Ry

     iteration #  3     ecut=   150.00 Ry     beta= 0.70
     Davidson diagonalization with overlap
     ethr =  2.04E-03,  avg # of iterations =  5.3

     negative rho (up, down):  5.626E-05 0.000E+00

     total cpu time spent up to now is       95.0 secs

     total energy              =   -1373.21344617 Ry
     estimated scf accuracy    <       0.06816359 Ry

     iteration #  4     ecut=   150.00 Ry     beta= 0.70
     Davidson diagonalization with overlap
     ethr =  1.18E-04,  avg # of iterations =  6.3

     negative rho (up, down):  5.680E-05 0.000E+00

     total cpu time spent up to now is      115.6 secs

     total energy              =   -1373.23732886 Ry
     estimated scf accuracy    <       0.01243929 Ry

     iteration #  5     ecut=   150.00 Ry     beta= 0.70
     Davidson diagonalization with overlap
     ethr =  2.14E-05,  avg # of iterations =  4.5

     negative rho (up, down):  7.831E-05 0.000E+00

     total cpu time spent up to now is      136.5 secs

     total energy              =   -1373.23901559 Ry
     estimated scf accuracy    <       0.00283262 Ry

     iteration #  6     ecut=   150.00 Ry     beta= 0.70
     Davidson diagonalization with overlap
     ethr =  4.88E-06,  avg # of iterations =  5.5

     negative rho (up, down):  8.392E-05 0.000E+00

     total cpu time spent up to now is      158.3 secs

     total energy              =   -1373.23950599 Ry
     estimated scf accuracy    <       0.00093591 Ry

     iteration #  7     ecut=   150.00 Ry     beta= 0.70
     Davidson diagonalization with overlap
     ethr =  1.61E-06,  avg # of iterations =  5.0

     negative rho (up, down):  1.033E-04 0.000E+00

     total cpu time spent up to now is      176.7 secs

     total energy              =   -1373.23971847 Ry
     estimated scf accuracy    <       0.00002918 Ry

     iteration #  8     ecut=   150.00 Ry     beta= 0.70
     Davidson diagonalization with overlap
     ethr =  5.03E-08,  avg # of iterations =  8.1

     negative rho (up, down):  1.041E-04 0.000E+00

     total cpu time spent up to now is      200.5 secs

     total energy              =   -1373.23972307 Ry
     estimated scf accuracy    <       0.00002987 Ry

     iteration #  9     ecut=   150.00 Ry     beta= 0.70
     Davidson diagonalization with overlap
     ethr =  5.03E-08,  avg # of iterations =  3.7

     negative rho (up, down):  1.087E-04 0.000E+00

     total cpu time spent up to now is      218.0 secs

     total energy              =   -1373.23972537 Ry
     estimated scf accuracy    <       0.00000187 Ry

     iteration # 10     ecut=   150.00 Ry     beta= 0.70
     Davidson diagonalization with overlap
     ethr =  3.23E-09,  avg # of iterations = 10.6

     negative rho (up, down):  1.099E-04 0.000E+00

     total cpu time spent up to now is      243.1 secs

     total energy              =   -1373.23972674 Ry
     estimated scf accuracy    <       0.00000485 Ry

     iteration # 11     ecut=   150.00 Ry     beta= 0.70
     Davidson diagonalization with overlap
     ethr =  3.23E-09,  avg # of iterations =  4.9

     negative rho (up, down):  1.091E-04 0.000E+00

     total cpu time spent up to now is      261.8 secs

     total energy              =   -1373.23972685 Ry
     estimated scf accuracy    <       0.00000060 Ry

     iteration # 12     ecut=   150.00 Ry     beta= 0.70
     Davidson diagonalization with overlap
     ethr =  1.04E-09,  avg # of iterations =  7.0

     negative rho (up, down):  1.091E-04 0.000E+00

     total cpu time spent up to now is      283.3 secs

     total energy              =   -1373.23972704 Ry
     estimated scf accuracy    <       0.00000008 Ry

     iteration # 13     ecut=   150.00 Ry     beta= 0.70
     Davidson diagonalization with overlap
     ethr =  1.32E-10,  avg # of iterations =  5.7

     negative rho (up, down):  1.090E-04 0.000E+00

     total cpu time spent up to now is      302.0 secs

     total energy              =   -1373.23972705 Ry
     estimated scf accuracy    <          6.5E-09 Ry

     iteration # 14     ecut=   150.00 Ry     beta= 0.70
     Davidson diagonalization with overlap
     ethr =  1.12E-11,  avg # of iterations =  6.3

     negative rho (up, down):  1.090E-04 0.000E+00

     total cpu time spent up to now is      323.4 secs

     total energy              =   -1373.23972705 Ry
     estimated scf accuracy    <          5.1E-11 Ry

     iteration # 15     ecut=   150.00 Ry     beta= 0.70
     Davidson diagonalization with overlap
     ethr =  1.00E-13,  avg # of iterations = 11.1

     negative rho (up, down):  1.090E-04 0.000E+00

     total cpu time spent up to now is      357.4 secs

     total energy              =   -1373.23972705 Ry
     estimated scf accuracy    <          1.1E-11 Ry

     iteration # 16     ecut=   150.00 Ry     beta= 0.70
     Davidson diagonalization with overlap
     ethr =  1.00E-13,  avg # of iterations =  2.0

     negative rho (up, down):  1.090E-04 0.000E+00

     total cpu time spent up to now is      373.8 secs

     total energy              =   -1373.23972705 Ry
     estimated scf accuracy    <          2.5E-12 Ry

     iteration # 17     ecut=   150.00 Ry     beta= 0.70
     Davidson diagonalization with overlap
     ethr =  1.00E-13,  avg # of iterations =  1.0

     negative rho (up, down):  1.090E-04 0.000E+00

     total cpu time spent up to now is      388.8 secs

     total energy              =   -1373.23972705 Ry
     estimated scf accuracy    <          1.9E-12 Ry

     iteration # 18     ecut=   150.00 Ry     beta= 0.70
     Davidson diagonalization with overlap
     ethr =  1.00E-13,  avg # of iterations =  1.0

     negative rho (up, down):  1.090E-04 0.000E+00

     total cpu time spent up to now is      403.6 secs

     End of self-consistent calculation

          k = 0.0000 0.0000 0.0000 ( 53953 PWs)   bands (ev):

   -68.8150 -68.7817 -35.7011 -35.2475 -34.9554 -34.9554 -34.9018 -34.9018
   -20.5132 -20.5018 -20.4798 -20.4798 -20.4709 -20.4709 -20.4477 -20.4477
   -20.4387 -20.4387 -20.4200 -20.4150 -20.3716 -20.3704 -13.2461  -7.5192
    -4.3903  -4.3903  -2.1763  -1.1385  -0.9453

          k = 0.0000 0.0740 0.0000 ( 53976 PWs)   bands (ev):

   -68.8134 -68.7807 -35.6949 -35.2499 -34.9774 -34.9630 -34.9224 -34.9047
   -20.5124 -20.5013 -20.4805 -20.4800 -20.4713 -20.4706 -20.4482 -20.4473
   -20.4388 -20.4383 -20.4186 -20.4138 -20.3729 -20.3717 -13.1803  -7.3916
    -4.6032  -4.3726  -2.0939  -1.2512  -0.8314

          k = 0.0000 0.1480 0.0000 ( 53972 PWs)   bands (ev):

   -68.8087 -68.7780 -35.6773 -35.2590 -35.0371 -34.9837 -34.9799 -34.9137
   -20.5105 -20.5000 -20.4823 -20.4806 -20.4726 -20.4700 -20.4496 -20.4462
   -20.4391 -20.4373 -20.4148 -20.4104 -20.3766 -20.3756 -12.9963  -7.0325
    -5.0872  -4.3351  -1.9740  -1.5163  -1.0173

          k = 0.0000 0.2219 0.0000 ( 53974 PWs)   bands (ev):

   -68.8018 -68.7740 -35.6514 -35.2827 -35.1151 -35.0618 -35.0125 -34.9284
   -20.5076 -20.4982 -20.4848 -20.4814 -20.4746 -20.4695 -20.4513 -20.4444
   -20.4395 -20.4358 -20.4092 -20.4053 -20.3819 -20.3811 -12.7318  -6.5456
    -5.5925  -4.3127  -2.1309  -1.7417  -1.2954

          k = 0.0000 0.2959 0.0000 ( 53956 PWs)   bands (ev):

   -68.7935 -68.7698 -35.6224 -35.3369 -35.1799 -35.1495 -35.0442 -34.9465
   -20.5047 -20.4961 -20.4873 -20.4823 -20.4771 -20.4692 -20.4529 -20.4422
   -20.4400 -20.4339 -20.4027 -20.3994 -20.3879 -20.3871 -12.4398  -6.4220
    -5.6348  -4.3309  -2.6312  -1.7280  -1.2397

          k = 0.0000 0.3699 0.0000 ( 53926 PWs)   bands (ev):

   -68.7853 -68.7660 -35.5969 -35.4168 -35.2334 -35.2081 -35.0736 -34.9645
   -20.5024 -20.4940 -20.4893 -20.4832 -20.4797 -20.4693 -20.4539 -20.4403
   -20.4399 -20.4319 -20.3964 -20.3938 -20.3936 -20.3924 -12.1755  -6.7552
    -5.2424  -4.3839  -3.0817  -1.4685  -0.9787

          k = 0.0000 0.4439 0.0000 ( 53826 PWs)   bands (ev):

   -68.7783 -68.7636 -35.5802 -35.4912 -35.2801 -35.2316 -35.0961 -34.9789
   -20.5011 -20.4922 -20.4903 -20.4840 -20.4819 -20.4696 -20.4545 -20.4406
   -20.4382 -20.4303 -20.3980 -20.3963 -20.3914 -20.3895 -11.9812  -7.0319
    -5.0110  -4.4439  -3.3926  -0.9271  -0.6307

          k = 0.0000 0.5178 0.0000 ( 53788 PWs)   bands (ev):

   -68.7742 -68.7626 -35.5672 -35.5417 -35.2991 -35.2444 -35.1083 -34.9868
   -20.5007 -20.4912 -20.4907 -20.4845 -20.4831 -20.4698 -20.4547 -20.4407
   -20.4372 -20.4294 -20.4004 -20.3983 -20.3885 -20.3872 -11.8802  -7.1764
    -4.9389  -4.4820  -3.5483  -0.4117  -0.3595

          k = 0.0641 0.1110 0.0000 ( 53977 PWs)   bands (ev):

   -68.8102 -68.7789 -35.6830 -35.2556 -35.0143 -34.9891 -34.9503 -34.9139
   -20.5111 -20.5004 -20.4817 -20.4805 -20.4721 -20.4703 -20.4492 -20.4466
   -20.4389 -20.4377 -20.4161 -20.4115 -20.3754 -20.3744 -13.0554  -7.1467
    -4.9361  -4.3623  -1.9909  -1.4012  -0.9101

          k = 0.0641 0.1849 0.0000 ( 53968 PWs)   bands (ev):

   -68.8044 -68.7755 -35.6612 -35.2710 -35.0800 -35.0483 -34.9859 -34.9297
   -20.5087 -20.4989 -20.4836 -20.4814 -20.4735 -20.4698 -20.4507 -20.4452
   -20.4391 -20.4366 -20.4114 -20.4072 -20.3799 -20.3790 -12.8309  -6.7043
    -5.4138  -4.3805  -1.9347  -1.6175  -1.2836

          k = 0.0641 0.2589 0.0000 ( 53950 PWs)   bands (ev):

   -68.7968 -68.7714 -35.6335 -35.3074 -35.1541 -35.1218 -35.0253 -34.9482
   -20.5057 -20.4969 -20.4860 -20.4825 -20.4756 -20.4695 -20.4523 -20.4434
   -20.4392 -20.4350 -20.4053 -20.4018 -20.3855 -20.3848 -12.5524  -6.2850
    -5.7611  -4.4369  -2.3007  -1.6265  -1.3834

          k = 0.0641 0.3329 0.0000 ( 53955 PWs)   bands (ev):

   -68.7886 -68.7674 -35.6058 -35.3747 -35.2135 -35.1870 -35.0622 -34.9678
   -20.5029 -20.4949 -20.4882 -20.4836 -20.4779 -20.4695 -20.4535 -20.4417
   -20.4391 -20.4331 -20.3989 -20.3960 -20.3914 -20.3905 -12.2742  -6.5183
    -5.4167  -4.5143  -2.7709  -1.4710  -1.2371

          k = 0.0641 0.4069 0.0000 ( 53885 PWs)   bands (ev):

   -68.7809 -68.7644 -35.5842 -35.4521 -35.2633 -35.2232 -35.0922 -34.9852
   -20.5010 -20.4929 -20.4898 -20.4844 -20.4803 -20.4697 -20.4543 -20.4408
   -20.4384 -20.4314 -20.3965 -20.3952 -20.3932 -20.3910 -12.0455  -6.8430
    -5.0708  -4.5848  -3.1173  -1.1298  -0.9023

          k = 0.0641 0.4808 0.0000 ( 53814 PWs)   bands (ev):

   -68.7752 -68.7628 -35.5697 -35.5140 -35.2903 -35.2443 -35.1115 -34.9973
   -20.5002 -20.4915 -20.4905 -20.4847 -20.4822 -20.4700 -20.4546 -20.4405
   -20.4375 -20.4301 -20.3999 -20.3982 -20.3892 -20.3877 -11.8989  -7.0534
    -4.9310  -4.6373  -3.3181  -0.6364  -0.5396

          k = 0.0641 0.5548 0.0000 ( 53784 PWs)   bands (ev):

   -68.7730 -68.7625 -35.5518 -35.5507 -35.2967 -35.2527 -35.1182 -35.0016
   -20.5000 -20.4909 -20.4907 -20.4845 -20.4831 -20.4702 -20.4547 -20.4405
   -20.4372 -20.4296 -20.4011 -20.3992 -20.3878 -20.3866 -11.8489  -7.1251
    -4.9002  -4.6604  -3.3833  -0.3834  -0.3661

          k = 0.1281 0.2219 0.0000 ( 53923 PWs)   bands (ev):

   -68.7980 -68.7720 -35.6374 -35.2966 -35.1313 -35.1274 -35.0080 -34.9581
   -20.5060 -20.4973 -20.4851 -20.4832 -20.4747 -20.4698 -20.4520 -20.4440
   -20.4386 -20.4357 -20.4062 -20.4026 -20.3847 -20.3841 -12.5922  -6.2149
    -5.7946  -4.5450  -1.9386  -1.8443  -1.2287

          k = 0.1281 0.2959 0.0000 ( 53942 PWs)   bands (ev):

   -68.7903 -68.7682 -35.6105 -35.3432 -35.2087 -35.1709 -35.0468 -34.9862
   -20.5030 -20.4955 -20.4869 -20.4849 -20.4763 -20.4700 -20.4532 -20.4428
   -20.4378 -20.4345 -20.4003 -20.3973 -20.3902 -20.3897 -12.3271  -6.2014
    -5.6312  -4.7376  -2.3500  -1.6775  -1.0495

          k = 0.1281 0.3699 0.0000 ( 53910 PWs)   bands (ev):

   -68.7826 -68.7650 -35.5856 -35.4077 -35.2628 -35.2070 -35.0888 -35.0101
   -20.5004 -20.4936 -20.4887 -20.4856 -20.4783 -20.4704 -20.4541 -20.4417
   -20.4372 -20.4331 -20.3958 -20.3952 -20.3941 -20.3920 -12.0852  -6.5373
    -5.1563  -4.8878  -2.6658  -1.3628  -1.0174

          k = 0.1281 0.4439 0.0000 ( 53837 PWs)   bands (ev):

   -68.7761 -68.7630 -35.5661 -35.4713 -35.2880 -35.2392 -35.1204 -35.0284
   -20.4989 -20.4920 -20.4900 -20.4855 -20.4805 -20.4708 -20.4546 -20.4407
   -20.4372 -20.4316 -20.3998 -20.3986 -20.3898 -20.3882 -11.9058  -6.7859
    -4.9802  -4.8933  -2.8553  -0.9485  -0.8187

          k = 0.1281 0.5178 0.0000 ( 53811 PWs)   bands (ev):

   -68.7720 -68.7623 -35.5474 -35.5185 -35.2880 -35.2669 -35.1364 -35.0385
   -20.4984 -20.4910 -20.4906 -20.4847 -20.4824 -20.4711 -20.4548 -20.4399
   -20.4376 -20.4307 -20.4021 -20.4006 -20.3872 -20.3861 -11.8118  -6.9167
    -5.0178  -4.8153  -2.9468  -0.6158  -0.5500

          k = 0.1922 0.3329 0.0000 ( 53911 PWs)   bands (ev):

   -68.7832 -68.7652 -35.5860 -35.3844 -35.2709 -35.1970 -35.0807 -35.0297
   -20.5000 -20.4940 -20.4874 -20.4870 -20.4774 -20.4708 -20.4541 -20.4422
   -20.4359 -20.4345 -20.3958 -20.3952 -20.3942 -20.3923 -12.0984  -6.3366
    -5.2941  -4.9937  -2.3118  -1.7304  -0.7270

          k = 0.1922 0.4069 0.0000 ( 53853 PWs)   bands (ev):

   -68.7765 -68.7631 -35.5627 -35.4290 -35.3091 -35.2205 -35.1211 -35.0643
   -20.4975 -20.4928 -20.4893 -20.4865 -20.4789 -20.4717 -20.4546 -20.4412
   -20.4357 -20.4336 -20.3997 -20.3992 -20.3901 -20.3884 -11.9067  -6.4948
    -5.3111  -4.8654  -2.3103  -1.4754  -0.8951

          k = 0.1922 0.4808 0.0000 ( 53786 PWs)   bands (ev):

   -68.7713 -68.7623 -35.5393 -35.4732 -35.3174 -35.2472 -35.1503 -35.0859
   -20.4962 -20.4917 -20.4902 -20.4852 -20.4809 -20.4724 -20.4549 -20.4399
   -20.4368 -20.4324 -20.4028 -20.4020 -20.3869 -20.3858 -11.7813  -6.6183
    -5.3981  -4.7199  -2.3622  -1.0417  -0.8300

          k = 0.1922 0.5548 0.0000 ( 53786 PWs)   bands (ev):

   -68.7692 -68.7623 -35.5149 -35.5062 -35.3130 -35.2637 -35.1594 -35.0935
   -20.4960 -20.4912 -20.4905 -20.4841 -20.4822 -20.4726 -20.4549 -20.4387
   -20.4380 -20.4319 -20.4039 -20.4029 -20.3856 -20.3849 -11.7379  -6.6650
    -5.4245  -4.6805  -2.3931  -0.8121  -0.7451

          k = 0.2563 0.4439 0.0000 ( 53808 PWs)   bands (ev):

   -68.7710 -68.7623 -35.5355 -35.4431 -35.3446 -35.2294 -35.1526 -35.1145
   -20.4948 -20.4926 -20.4900 -20.4855 -20.4800 -20.4730 -20.4549 -20.4402
   -20.4357 -20.4338 -20.4030 -20.4027 -20.3867 -20.3856 -11.7694  -6.4295
    -5.6106  -4.6757  -1.8271  -1.5299  -0.9595

          k = 0.2563 0.5178 0.0000 ( 53725 PWs)   bands (ev):

   -68.7672 -68.7626 -35.5032 -35.4660 -35.3595 -35.2364 -35.1719 -35.1446
   -20.4937 -20.4920 -20.4905 -20.4839 -20.4815 -20.4739 -20.4550 -20.4388
   -20.4371 -20.4334 -20.4049 -20.4045 -20.3848 -20.3842 -11.6952  -6.3821
    -5.7761  -4.5764  -1.7587  -1.1832  -0.9636

          k = 0.3203 0.5548 0.0000 ( 53604 PWs)   bands (ev):

   -68.7643 -68.7643 -35.4705 -35.4705 -35.3864 -35.2191 -35.1797 -35.1797
   -20.4925 -20.4915 -20.4915 -20.4825 -20.4825 -20.4746 -20.4550 -20.4377
   -20.4377 -20.4339 -20.4055 -20.4055 -20.3839 -20.3839 -11.6644  -6.1015
    -6.1015  -4.5178  -1.3150  -1.2098  -1.2098

     highest occupied level (ev):    -0.3595

!    total energy              =   -1373.23972705 Ry
     estimated scf accuracy    <          4.6E-13 Ry

     The total energy is the sum of the following terms:
     one-electron contribution =  -10602.69069866 Ry
     hartree contribution      =    5328.58180341 Ry
     xc contribution           =    -138.51759601 Ry
     ewald contribution        =    4039.38676421 Ry

     convergence has been achieved in  18 iterations

     negative rho (up, down):  1.090E-04 0.000E+00

     Forces acting on atoms (cartesian axes, Ry/au):

     atom    1 type  2   force =     0.00000000    0.00000000    0.00000000
     atom    2 type  1   force =     0.00000000    0.00000000    0.05615019
     atom    3 type  1   force =     0.00000000    0.00000000   -0.05615019

     Total force =     0.079408     Total SCF correction =     0.000013


     Computing stress (Cartesian axis) and pressure


     negative rho (up, down):  1.090E-04 0.000E+00
          total   stress  (Ry/bohr**3)                   (kbar)     P=      -28.67
  -0.00021646   0.00000000   0.00000000          -31.84        0.00        0.00
   0.00000000  -0.00021646   0.00000000            0.00      -31.84        0.00
   0.00000000   0.00000000  -0.00015180            0.00        0.00      -22.33


     Writing output data file /scratch/as3359/Mos2_ct_lat/Ta2CH2.save/
 
     init_run     :     22.85s CPU     13.13s WALL (       1 calls)
     electrons    :    756.91s CPU    390.39s WALL (       1 calls)
     forces       :      9.45s CPU      4.96s WALL (       1 calls)
     stress       :     35.27s CPU     18.38s WALL (       1 calls)

     Called by init_run:
     wfcinit      :     13.76s CPU      7.13s WALL (       1 calls)
     potinit      :      2.25s CPU      1.14s WALL (       1 calls)
     hinit0       :      4.88s CPU      3.53s WALL (       1 calls)

     Called by electrons:
     c_bands      :    594.50s CPU    300.44s WALL (      18 calls)
     sum_band     :    121.90s CPU     65.48s WALL (      18 calls)
     v_of_rho     :      6.36s CPU      3.45s WALL (      19 calls)
     newd         :     33.64s CPU     20.89s WALL (      19 calls)
     mix_rho      :      2.28s CPU      1.23s WALL (      18 calls)

     Called by c_bands:
     init_us_2    :     14.83s CPU      7.43s WALL (    1053 calls)
     cegterg      :    550.92s CPU    278.53s WALL (     486 calls)

     Called by *egterg:
     cdiaghg      :      5.30s CPU      2.72s WALL (    3375 calls)
     h_psi        :    423.94s CPU    214.86s WALL (    3402 calls)
     s_psi        :     29.55s CPU     14.79s WALL (    3402 calls)
     g_psi        :      3.05s CPU      1.53s WALL (    2889 calls)

     Called by h_psi:
     h_psi:calbec :     21.74s CPU     10.90s WALL (    3402 calls)
     vloc_psi     :    366.35s CPU    185.92s WALL (    3402 calls)
     add_vuspsi   :     32.02s CPU     16.03s WALL (    3402 calls)

     General routines
     calbec       :     27.82s CPU     13.95s WALL (    4023 calls)
     fft          :      3.29s CPU      1.68s WALL (     234 calls)
     ffts         :      0.22s CPU      0.11s WALL (      18 calls)
     fftw         :    351.52s CPU    178.73s WALL (   98864 calls)
 
     Parallel routines
 
     PWSCF        :  13m46.58s CPU   7m 8.66s WALL

 
   This run was terminated on:  18:36:17   9Apr2022            

=------------------------------------------------------------------------------=
   JOB DONE.
=------------------------------------------------------------------------------=
