
     Program PWSCF v.6.8 starts on  9Apr2022 at 17:45:49 

     This program is part of the open-source Quantum ESPRESSO suite
     for quantum simulation of materials; please cite
         "P. Giannozzi et al., J. Phys.:Condens. Matter 21 395502 (2009);
         "P. Giannozzi et al., J. Phys.:Condens. Matter 29 465901 (2017);
         "P. Giannozzi et al., J. Chem. Phys. 152 154105 (2020);
          URL http://www.quantum-espresso.org", 
     in publications or presentations arising from this work. More details at
     http://www.quantum-espresso.org/quote

     Parallel version (MPI & OpenMP), running on       4 processor cores
     Number of MPI processes:                 2
     Threads/MPI process:                     2

     MPI processes distributed on     1 nodes
     R & G space division:  proc/nbgrp/npool/nimage =       2
     124968 MiB available memory on the printing compute node when the environment starts
 
     Reading input from Ta2CH2.scf.5.550.in
Warning: card  &CELL ignored
Warning: card     CELL_DYNAMICS='BFGS' ignored
Warning: card  / ignored

     Current dimensions of program PWSCF are:
     Max number of different atomic species (ntypx) = 10
     Max number of k-points (npk) =  40000
     Max angular momentum in pseudopotentials (lmaxx) =  4
     Message from routine iosys:
     restart disabled: needed files not found
     file Ta.pbesol-spfn-rrkjus_psl.1.0.0.UPF: wavefunction(s)  5S 5P renormalized
     Message from routine setup:
     using ibrav=0 with symmetry is DISCOURAGED, use correct ibrav instead

     Subspace diagonalization in iterative solution of the eigenvalue problem:
     a serial algorithm will be used

 
     Parallelization info
     --------------------
     sticks:   dense  smooth     PW     G-vecs:    dense   smooth      PW
     Min         690     690    189               198924   198924   29465
     Max         691     691    190               198925   198925   29498
     Sum        1381    1381    379               397849   397849   58963
 
     Using Slab Decomposition
 


     bravais-lattice index     =            0
     lattice parameter (alat)  =       5.5500  a.u.
     unit-cell volume          =    1603.2166 (a.u.)^3
     number of atoms/cell      =            3
     number of atomic types    =            2
     number of electrons       =        58.00
     number of Kohn-Sham states=           29
     kinetic-energy cutoff     =     150.0000  Ry
     charge density cutoff     =     600.0000  Ry
     scf convergence threshold =      1.0E-12
     mixing beta               =       0.7000
     number of iterations used =            8  plain     mixing
     Exchange-correlation= PBESOL
                           (   1   4  10   8   0   0   0)

     celldm(1)=   5.550000  celldm(2)=   0.000000  celldm(3)=   0.000000
     celldm(4)=   0.000000  celldm(5)=   0.000000  celldm(6)=   0.000000

     crystal axes: (cart. coord. in units of alat)
               a(1) = (   1.040618   0.000000   0.000000 )  
               a(2) = (  -0.520309   0.901202   0.000000 )  
               a(3) = (   0.000000   0.000000  10.000000 )  

     reciprocal axes: (cart. coord. in units 2 pi/alat)
               b(1) = (  0.960967  0.554815  0.000000 )  
               b(2) = (  0.000000  1.109630  0.000000 )  
               b(3) = (  0.000000  0.000000  0.100000 )  


     PseudoPot. # 1 for Ta read from file:
     /shared/home/as3359/pseudo/Ta.pbesol-spfn-rrkjus_psl.1.0.0.UPF
     MD5 check sum: f099565ffaca9b150a52e9412a28e20b
     Pseudo is Ultrasoft + core correction, Zval = 27.0
     Generated using &quot;atomic&quot; code by A. Dal Corso  v.6.3
     Using radial grid of 1273 points,  8 beta functions with: 
                l(1) =   0
                l(2) =   0
                l(3) =   1
                l(4) =   1
                l(5) =   2
                l(6) =   2
                l(7) =   3
                l(8) =   3
     Q(r) pseudized with 0 coefficients 


     PseudoPot. # 2 for C  read from file:
     /shared/home/as3359/pseudo/C.pbesol-n-rrkjus_psl.1.0.0.UPF
     MD5 check sum: 05995be603a8a7c99da3dc4413f31573
     Pseudo is Ultrasoft + core correction, Zval =  4.0
     Generated using &quot;atomic&quot; code by A. Dal Corso  v.6.3MaX
     Using radial grid of 1073 points,  4 beta functions with: 
                l(1) =   0
                l(2) =   0
                l(3) =   1
                l(4) =   1
     Q(r) pseudized with 0 coefficients 


     atomic species   valence    mass     pseudopotential
        Ta            27.00   180.94788     Ta( 1.00)
        C              4.00    12.01070     C ( 1.00)

     12 Sym. Ops., with inversion, found



   Cartesian axes

     site n.     atom                  positions (alat units)
         1           C   tau(   1) = (   0.0000000   0.0000000   0.0000000  )
         2           Ta  tau(   2) = (   0.5203090   0.3004005  -0.4101496  )
         3           Ta  tau(   3) = (  -0.0000000   0.6008011   0.4101496  )

     number of k points=    27
                       cart. coord. in units 2pi/alat
        k(    1) = (   0.0000000   0.0000000   0.0000000), wk =   0.0088889
        k(    2) = (   0.0000000   0.0739753   0.0000000), wk =   0.0533333
        k(    3) = (   0.0000000   0.1479506   0.0000000), wk =   0.0533333
        k(    4) = (   0.0000000   0.2219259   0.0000000), wk =   0.0533333
        k(    5) = (   0.0000000   0.2959012   0.0000000), wk =   0.0533333
        k(    6) = (   0.0000000   0.3698766   0.0000000), wk =   0.0533333
        k(    7) = (   0.0000000   0.4438519   0.0000000), wk =   0.0533333
        k(    8) = (   0.0000000   0.5178272   0.0000000), wk =   0.0533333
        k(    9) = (   0.0640645   0.1109630   0.0000000), wk =   0.0533333
        k(   10) = (   0.0640645   0.1849383   0.0000000), wk =   0.1066667
        k(   11) = (   0.0640645   0.2589136   0.0000000), wk =   0.1066667
        k(   12) = (   0.0640645   0.3328889   0.0000000), wk =   0.1066667
        k(   13) = (   0.0640645   0.4068642   0.0000000), wk =   0.1066667
        k(   14) = (   0.0640645   0.4808395   0.0000000), wk =   0.1066667
        k(   15) = (   0.0640645   0.5548148   0.0000000), wk =   0.0533333
        k(   16) = (   0.1281290   0.2219259   0.0000000), wk =   0.0533333
        k(   17) = (   0.1281290   0.2959012   0.0000000), wk =   0.1066667
        k(   18) = (   0.1281290   0.3698766   0.0000000), wk =   0.1066667
        k(   19) = (   0.1281290   0.4438519   0.0000000), wk =   0.1066667
        k(   20) = (   0.1281290   0.5178272   0.0000000), wk =   0.1066667
        k(   21) = (   0.1921935   0.3328889   0.0000000), wk =   0.0533333
        k(   22) = (   0.1921935   0.4068642   0.0000000), wk =   0.1066667
        k(   23) = (   0.1921935   0.4808395   0.0000000), wk =   0.1066667
        k(   24) = (   0.1921935   0.5548148   0.0000000), wk =   0.0533333
        k(   25) = (   0.2562580   0.4438519   0.0000000), wk =   0.0533333
        k(   26) = (   0.2562580   0.5178272   0.0000000), wk =   0.1066667
        k(   27) = (   0.3203225   0.5548148   0.0000000), wk =   0.0177778

     Dense  grid:   397849 G-vectors     FFT dimensions: (  45,  45, 450)

     Estimated max dynamical RAM per process >       2.18 GB

     Estimated total dynamical RAM >       4.36 GB
     Cannot read rho : file not found

     Initial potential from superposition of free atoms

     starting charge   57.99842, renormalised to   58.00000

     negative rho (up, down):  9.897E-05 0.000E+00
     Message from routine qexsd_readschema :
     xml data file /scratch/as3359/Mos2_ct_lat/Ta2CH2.save/data-file-schema.xml not f
     Cannot read wfcs: file not found
     Starting wfcs are   38 randomized atomic wfcs

     total cpu time spent up to now is       12.8 secs

     Self-consistent Calculation

     iteration #  1     ecut=   150.00 Ry     beta= 0.70
     Davidson diagonalization with overlap
     c_bands:  1 eigenvalues not converged
     ethr =  1.00E-05,  avg # of iterations = 12.3

     negative rho (up, down):  9.322E-05 0.000E+00

     total cpu time spent up to now is       50.1 secs

     total energy              =   -1372.46173828 Ry
     estimated scf accuracy    <       1.30975089 Ry

     iteration #  2     ecut=   150.00 Ry     beta= 0.70
     Davidson diagonalization with overlap
     ethr =  2.26E-03,  avg # of iterations =  8.7

     total cpu time spent up to now is       74.2 secs

     total energy              =   -1371.58812562 Ry
     estimated scf accuracy    <      10.21724389 Ry

     iteration #  3     ecut=   150.00 Ry     beta= 0.70
     Davidson diagonalization with overlap
     ethr =  2.26E-03,  avg # of iterations =  6.9

     total cpu time spent up to now is       96.7 secs

     total energy              =   -1373.20270113 Ry
     estimated scf accuracy    <       0.16582903 Ry

     iteration #  4     ecut=   150.00 Ry     beta= 0.70
     Davidson diagonalization with overlap
     ethr =  2.86E-04,  avg # of iterations =  4.5

     total cpu time spent up to now is      115.1 secs

     total energy              =   -1373.25083664 Ry
     estimated scf accuracy    <       0.03106441 Ry

     iteration #  5     ecut=   150.00 Ry     beta= 0.70
     Davidson diagonalization with overlap
     ethr =  5.36E-05,  avg # of iterations =  4.5

     total cpu time spent up to now is      133.5 secs

     total energy              =   -1373.25117619 Ry
     estimated scf accuracy    <       0.01380882 Ry

     iteration #  6     ecut=   150.00 Ry     beta= 0.70
     Davidson diagonalization with overlap
     ethr =  2.38E-05,  avg # of iterations =  3.4

     total cpu time spent up to now is      150.5 secs

     total energy              =   -1373.25154369 Ry
     estimated scf accuracy    <       0.00280641 Ry

     iteration #  7     ecut=   150.00 Ry     beta= 0.70
     Davidson diagonalization with overlap
     ethr =  4.84E-06,  avg # of iterations =  4.1

     negative rho (up, down):  3.751E-05 0.000E+00

     total cpu time spent up to now is      168.7 secs

     total energy              =   -1373.25182166 Ry
     estimated scf accuracy    <       0.00057419 Ry

     iteration #  8     ecut=   150.00 Ry     beta= 0.70
     Davidson diagonalization with overlap
     c_bands:  1 eigenvalues not converged
     ethr =  9.90E-07,  avg # of iterations =  7.3

     negative rho (up, down):  1.324E-03 0.000E+00

     total cpu time spent up to now is      188.8 secs

     total energy              =   -1373.25241384 Ry
     estimated scf accuracy    <       0.00039455 Ry

     iteration #  9     ecut=   150.00 Ry     beta= 0.70
     Davidson diagonalization with overlap
     ethr =  6.80E-07,  avg # of iterations =  2.0

     negative rho (up, down):  2.717E-04 0.000E+00

     total cpu time spent up to now is      205.4 secs

     total energy              =   -1373.25240859 Ry
     estimated scf accuracy    <       0.00010296 Ry

     iteration # 10     ecut=   150.00 Ry     beta= 0.70
     Davidson diagonalization with overlap
     ethr =  1.78E-07,  avg # of iterations =  5.9

     negative rho (up, down):  1.133E-04 0.000E+00

     total cpu time spent up to now is      224.6 secs

     total energy              =   -1373.25242732 Ry
     estimated scf accuracy    <       0.00000271 Ry

     iteration # 11     ecut=   150.00 Ry     beta= 0.70
     Davidson diagonalization with overlap
     ethr =  4.67E-09,  avg # of iterations =  8.0

     negative rho (up, down):  1.008E-04 0.000E+00

     total cpu time spent up to now is      248.5 secs

     total energy              =   -1373.25242874 Ry
     estimated scf accuracy    <       0.00000100 Ry

     iteration # 12     ecut=   150.00 Ry     beta= 0.70
     Davidson diagonalization with overlap
     ethr =  1.72E-09,  avg # of iterations =  6.0

     negative rho (up, down):  1.025E-04 0.000E+00

     total cpu time spent up to now is      267.8 secs

     total energy              =   -1373.25242897 Ry
     estimated scf accuracy    <       0.00000005 Ry

     iteration # 13     ecut=   150.00 Ry     beta= 0.70
     Davidson diagonalization with overlap
     ethr =  8.72E-11,  avg # of iterations =  6.4

     negative rho (up, down):  1.026E-04 0.000E+00

     total cpu time spent up to now is      290.1 secs

     total energy              =   -1373.25242899 Ry
     estimated scf accuracy    <          3.6E-09 Ry

     iteration # 14     ecut=   150.00 Ry     beta= 0.70
     Davidson diagonalization with overlap
     ethr =  6.18E-12,  avg # of iterations =  7.0

     negative rho (up, down):  1.025E-04 0.000E+00

     total cpu time spent up to now is      313.9 secs

     total energy              =   -1373.25242899 Ry
     estimated scf accuracy    <          5.1E-09 Ry

     iteration # 15     ecut=   150.00 Ry     beta= 0.70
     Davidson diagonalization with overlap
     ethr =  6.18E-12,  avg # of iterations =  5.1

     negative rho (up, down):  1.025E-04 0.000E+00

     total cpu time spent up to now is      332.7 secs

     total energy              =   -1373.25242900 Ry
     estimated scf accuracy    <          7.3E-11 Ry

     iteration # 16     ecut=   150.00 Ry     beta= 0.70
     Davidson diagonalization with overlap
     ethr =  1.26E-13,  avg # of iterations =  8.7

     negative rho (up, down):  1.025E-04 0.000E+00

     total cpu time spent up to now is      360.0 secs

     total energy              =   -1373.25242900 Ry
     estimated scf accuracy    <          6.8E-11 Ry

     iteration # 17     ecut=   150.00 Ry     beta= 0.70
     Davidson diagonalization with overlap
     ethr =  1.18E-13,  avg # of iterations =  3.0

     negative rho (up, down):  1.025E-04 0.000E+00

     total cpu time spent up to now is      377.7 secs

     total energy              =   -1373.25242900 Ry
     estimated scf accuracy    <          4.0E-12 Ry

     iteration # 18     ecut=   150.00 Ry     beta= 0.70
     Davidson diagonalization with overlap
     ethr =  1.00E-13,  avg # of iterations =  1.8

     negative rho (up, down):  1.025E-04 0.000E+00

     total cpu time spent up to now is      393.4 secs

     End of self-consistent calculation

          k = 0.0000 0.0000 0.0000 ( 49825 PWs)   bands (ev):

   -68.2823 -68.2333 -35.3103 -34.7034 -34.4030 -34.4030 -34.3341 -34.3341
   -19.9430 -19.9293 -19.9041 -19.9041 -19.8973 -19.8973 -19.8700 -19.8700
   -19.8618 -19.8618 -19.8517 -19.8460 -19.7875 -19.7859 -13.2280  -7.6067
    -4.3935  -4.3935  -1.8324  -0.8993  -0.7014

          k = 0.0000 0.0740 0.0000 ( 49821 PWs)   bands (ev):

   -68.2799 -68.2319 -35.3023 -34.7071 -34.4322 -34.4134 -34.3614 -34.3376
   -19.9421 -19.9287 -19.9050 -19.9043 -19.8976 -19.8967 -19.8710 -19.8698
   -19.8620 -19.8614 -19.8499 -19.8444 -19.7892 -19.7877 -13.1550  -7.4661
    -4.6067  -4.3700  -1.7639  -1.0226  -0.5766

          k = 0.0000 0.1480 0.0000 ( 49773 PWs)   bands (ev):

   -68.2731 -68.2279 -35.2797 -34.7223 -34.5096 -34.4413 -34.4373 -34.3491
   -19.9394 -19.9270 -19.9075 -19.9050 -19.8983 -19.8950 -19.8735 -19.8690
   -19.8626 -19.8601 -19.8448 -19.8397 -19.7941 -19.7928 -12.9530  -7.0733
    -5.0956  -4.3179  -1.6795  -1.3182  -0.7591

          k = 0.0000 0.2219 0.0000 ( 49757 PWs)   bands (ev):

   -68.2628 -68.2221 -35.2472 -34.7687 -34.5996 -34.5441 -34.4801 -34.3680
   -19.9358 -19.9247 -19.9107 -19.9059 -19.8994 -19.8931 -19.8766 -19.8677
   -19.8633 -19.8582 -19.8374 -19.8328 -19.8010 -19.8000 -12.6691  -6.5576
    -5.5912  -4.2790  -1.9678  -1.5068  -1.0263

          k = 0.0000 0.2959 0.0000 ( 49696 PWs)   bands (ev):

   -68.2507 -68.2158 -35.2130 -34.8701 -34.6697 -34.6429 -34.5225 -34.3915
   -19.9324 -19.9219 -19.9138 -19.9071 -19.9011 -19.8917 -19.8794 -19.8659
   -19.8641 -19.8557 -19.8289 -19.8249 -19.8089 -19.8076 -12.3672  -6.4685
    -5.5631  -4.2854  -2.5424  -1.4828  -0.9487

          k = 0.0000 0.3699 0.0000 ( 49702 PWs)   bands (ev):

   -68.2386 -68.2103 -35.1890 -34.9915 -34.7576 -34.6777 -34.5617 -34.4150
   -19.9307 -19.9187 -19.9160 -19.9082 -19.9032 -19.8912 -19.8811 -19.8647
   -19.8637 -19.8532 -19.8205 -19.8172 -19.8163 -19.8142 -12.1081  -6.7981
    -5.1612  -4.3337  -3.0378  -1.1790  -0.6556

          k = 0.0000 0.4439 0.0000 ( 49684 PWs)   bands (ev):

   -68.2284 -68.2067 -35.1843 -35.0904 -34.8093 -34.7000 -34.5915 -34.4338
   -19.9305 -19.9170 -19.9158 -19.9092 -19.9053 -19.8913 -19.8817 -19.8651
   -19.8618 -19.8510 -19.8220 -19.8190 -19.8137 -19.8113 -11.9295  -7.0628
    -4.9483  -4.3935  -3.3785  -0.5753  -0.2587

          k = 0.0000 0.5178 0.0000 ( 49716 PWs)   bands (ev):

   -68.2223 -68.2053 -35.1909 -35.1445 -34.8248 -34.7146 -34.6077 -34.4442
   -19.9307 -19.9169 -19.9148 -19.9098 -19.9063 -19.8915 -19.8818 -19.8653
   -19.8607 -19.8497 -19.8251 -19.8215 -19.8098 -19.8081 -11.8417  -7.1986
    -4.8912  -4.4325  -3.5492  -0.0231   0.0541

          k = 0.0641 0.1110 0.0000 ( 49779 PWs)   bands (ev):

   -68.2753 -68.2292 -35.2870 -34.7162 -34.4800 -34.4497 -34.3970 -34.3498
   -19.9402 -19.9276 -19.9065 -19.9050 -19.8979 -19.8956 -19.8727 -19.8693
   -19.8623 -19.8606 -19.8464 -19.8412 -19.7925 -19.7912 -13.0174  -7.1974
    -4.9430  -4.3504  -1.6812  -1.1925  -0.6539

          k = 0.0641 0.1849 0.0000 ( 49759 PWs)   bands (ev):

   -68.2668 -68.2242 -35.2593 -34.7443 -34.5613 -34.5277 -34.4437 -34.3703
   -19.9370 -19.9256 -19.9091 -19.9063 -19.8985 -19.8940 -19.8755 -19.8684
   -19.8627 -19.8592 -19.8402 -19.8354 -19.7984 -19.7973 -12.7742  -6.7173
    -5.4242  -4.3564  -1.6852  -1.4233  -1.0294

          k = 0.0641 0.2589 0.0000 ( 49710 PWs)   bands (ev):

   -68.2556 -68.2182 -35.2255 -34.8163 -34.6454 -34.6140 -34.4964 -34.3941
   -19.9333 -19.9232 -19.9122 -19.9076 -19.8996 -19.8925 -19.8784 -19.8672
   -19.8629 -19.8572 -19.8323 -19.8280 -19.8058 -19.8049 -12.4810  -6.3018
    -5.7269  -4.4042  -2.1726  -1.3746  -1.1218

          k = 0.0641 0.3329 0.0000 ( 49717 PWs)   bands (ev):

   -68.2434 -68.2123 -35.1954 -34.9292 -34.7294 -34.6651 -34.5452 -34.4196
   -19.9305 -19.9203 -19.9149 -19.9087 -19.9014 -19.8916 -19.8806 -19.8659
   -19.8628 -19.8548 -19.8238 -19.8202 -19.8135 -19.8121 -12.2008  -6.5545
    -5.3337  -4.4769  -2.6942  -1.1991  -0.9494

          k = 0.0641 0.4069 0.0000 ( 49722 PWs)   bands (ev):

   -68.2322 -68.2079 -35.1801 -35.0391 -34.7921 -34.6961 -34.5839 -34.4423
   -19.9295 -19.9172 -19.9164 -19.9095 -19.9037 -19.8915 -19.8818 -19.8652
   -19.8620 -19.8525 -19.8202 -19.8180 -19.8160 -19.8134 -11.9835  -6.8701
    -4.9956  -4.5435  -3.0745  -0.8088  -0.5706

          k = 0.0641 0.4808 0.0000 ( 49738 PWs)   bands (ev):

   -68.2238 -68.2056 -35.1807 -35.1160 -34.8175 -34.7201 -34.6083 -34.4581
   -19.9296 -19.9168 -19.9151 -19.9098 -19.9056 -19.8918 -19.8821 -19.8650
   -19.8611 -19.8507 -19.8246 -19.8215 -19.8108 -19.8089 -11.8523  -7.0704
    -4.8748  -4.5958  -3.2949  -0.2698  -0.1532

          k = 0.0641 0.5548 0.0000 ( 49778 PWs)   bands (ev):

   -68.2206 -68.2050 -35.1833 -35.1439 -34.8212 -34.7305 -34.6166 -34.4637
   -19.9298 -19.9168 -19.9145 -19.9098 -19.9063 -19.8919 -19.8821 -19.8650
   -19.8608 -19.8501 -19.8261 -19.8228 -19.8089 -19.8073 -11.8093  -7.1378
    -4.8505  -4.6211  -3.3664   0.0201   0.0253

          k = 0.1281 0.2219 0.0000 ( 49721 PWs)   bands (ev):

   -68.2573 -68.2191 -35.2300 -34.7933 -34.6376 -34.6087 -34.4723 -34.4081
   -19.9334 -19.9238 -19.9110 -19.9086 -19.8987 -19.8930 -19.8780 -19.8678
   -19.8620 -19.8581 -19.8335 -19.8291 -19.8047 -19.8040 -12.5213  -6.1892
    -5.8050  -4.5210  -1.7977  -1.5892  -0.9645

          k = 0.1281 0.2959 0.0000 ( 49686 PWs)   bands (ev):

   -68.2460 -68.2135 -35.1991 -34.8760 -34.7327 -34.6493 -34.5235 -34.4445
   -19.9296 -19.9217 -19.9131 -19.9105 -19.8996 -19.8923 -19.8803 -19.8670
   -19.8610 -19.8567 -19.8256 -19.8219 -19.8119 -19.8113 -12.2497  -6.2103
    -5.5669  -4.7160  -2.2288  -1.4369  -0.7637

          k = 0.1281 0.3699 0.0000 ( 49721 PWs)   bands (ev):

   -68.2347 -68.2088 -35.1758 -34.9754 -34.7945 -34.6868 -34.5766 -34.4752
   -19.9273 -19.9191 -19.9150 -19.9111 -19.9015 -19.8922 -19.8819 -19.8661
   -19.8604 -19.8548 -19.8194 -19.8184 -19.8170 -19.8147 -12.0130  -6.5419
    -5.0729  -4.8653  -2.5727  -1.0969  -0.7167

          k = 0.1281 0.4439 0.0000 ( 49748 PWs)   bands (ev):

   -68.2250 -68.2058 -35.1647 -35.0614 -34.8179 -34.7284 -34.6128 -34.4988
   -19.9268 -19.9169 -19.9155 -19.9106 -19.9038 -19.8926 -19.8827 -19.8651
   -19.8606 -19.8529 -19.8245 -19.8225 -19.8116 -19.8095 -11.8466  -6.7838
    -4.9547  -4.8163  -2.7846  -0.6314  -0.4836

          k = 0.1281 0.5178 0.0000 ( 49791 PWs)   bands (ev):

   -68.2191 -68.2048 -35.1588 -35.1145 -34.8117 -34.7660 -34.6293 -34.5120
   -19.9271 -19.9169 -19.9141 -19.9097 -19.9057 -19.8929 -19.8829 -19.8642
   -19.8611 -19.8516 -19.8275 -19.8249 -19.8081 -19.8067 -11.7632  -6.9097
    -4.9884  -4.7509  -2.8888  -0.2539  -0.1824

          k = 0.1922 0.3329 0.0000 ( 49693 PWs)   bands (ev):

   -68.2355 -68.2091 -35.1742 -34.9378 -34.8124 -34.6756 -34.5668 -34.5005
   -19.9256 -19.9205 -19.9131 -19.9131 -19.9004 -19.8927 -19.8820 -19.8666
   -19.8586 -19.8568 -19.8195 -19.8185 -19.8172 -19.8151 -12.0221  -6.3193
    -5.2466  -4.9522  -2.1752  -1.5158  -0.4331

          k = 0.1922 0.4069 0.0000 ( 49718 PWs)   bands (ev):

   -68.2257 -68.2059 -35.1540 -35.0009 -34.8536 -34.7096 -34.6145 -34.5437
   -19.9233 -19.9192 -19.9144 -19.9119 -19.9021 -19.8935 -19.8832 -19.8655
   -19.8585 -19.8557 -19.8244 -19.8237 -19.8121 -19.8098 -11.8383  -6.4668
    -5.2983  -4.7783  -2.1716  -1.2428  -0.5997

          k = 0.1922 0.4808 0.0000 ( 49758 PWs)   bands (ev):

   -68.2180 -68.2047 -35.1348 -35.0581 -34.8556 -34.7568 -34.6403 -34.5715
   -19.9234 -19.9174 -19.9140 -19.9101 -19.9043 -19.8942 -19.8839 -19.8641
   -19.8601 -19.8541 -19.8286 -19.8271 -19.8077 -19.8062 -11.7222  -6.5889
    -5.3758  -4.6343  -2.2417  -0.7508  -0.5117

          k = 0.1922 0.5548 0.0000 ( 49750 PWs)   bands (ev):

   -68.2149 -68.2048 -35.1161 -35.0917 -34.8439 -34.7869 -34.6461 -34.5820
   -19.9237 -19.9170 -19.9134 -19.9089 -19.9056 -19.8945 -19.8841 -19.8627
   -19.8616 -19.8535 -19.8300 -19.8283 -19.8060 -19.8050 -11.6829  -6.6359
    -5.3973  -4.5972  -2.2809  -0.4864  -0.4148

          k = 0.2563 0.4439 0.0000 ( 49725 PWs)   bands (ev):

   -68.2177 -68.2047 -35.1251 -35.0129 -34.9031 -34.7326 -34.6507 -34.6018
   -19.9205 -19.9191 -19.9137 -19.9106 -19.9033 -19.8949 -19.8844 -19.8643
   -19.8585 -19.8560 -19.8287 -19.8282 -19.8075 -19.8061 -11.7058  -6.3854
    -5.5959  -4.5788  -1.6253  -1.3303  -0.6649

          k = 0.2563 0.5178 0.0000 ( 49741 PWs)   bands (ev):

   -68.2121 -68.2053 -35.0852 -35.0396 -34.9245 -34.7598 -34.6613 -34.6380
   -19.9212 -19.9166 -19.9135 -19.9083 -19.9050 -19.8959 -19.8851 -19.8625
   -19.8604 -19.8556 -19.8313 -19.8306 -19.8049 -19.8042 -11.6349  -6.3403
    -5.7485  -4.4726  -1.5748  -0.9219  -0.6684

          k = 0.3203 0.5548 0.0000 ( 49815 PWs)   bands (ev):

   -68.2077 -68.2077 -35.0321 -35.0321 -34.9835 -34.7567 -34.6683 -34.6683
   -19.9209 -19.9145 -19.9145 -19.9063 -19.9063 -19.8967 -19.8856 -19.8612
   -19.8612 -19.8564 -19.8321 -19.8321 -19.8037 -19.8037 -11.6034  -6.0637
    -6.0637  -4.4043  -1.0862  -0.9497  -0.9497

     highest occupied level (ev):     0.0541

!    total energy              =   -1373.25242900 Ry
     estimated scf accuracy    <          3.5E-13 Ry

     The total energy is the sum of the following terms:
     one-electron contribution =  -10822.79089631 Ry
     hartree contribution      =    5439.74586620 Ry
     xc contribution           =    -138.76677835 Ry
     ewald contribution        =    4148.55937946 Ry

     convergence has been achieved in  18 iterations

     negative rho (up, down):  1.025E-04 0.000E+00

     Forces acting on atoms (cartesian axes, Ry/au):

     atom    1 type  2   force =     0.00000000   -0.00000000    0.00000000
     atom    2 type  1   force =     0.00000000    0.00000000   -0.00130656
     atom    3 type  1   force =     0.00000000    0.00000000    0.00130656

     Total force =     0.001848     Total SCF correction =     0.000004


     Computing stress (Cartesian axis) and pressure


     negative rho (up, down):  1.025E-04 0.000E+00
          total   stress  (Ry/bohr**3)                   (kbar)     P=        2.70
   0.00002605  -0.00000000   0.00000000            3.83       -0.00        0.00
  -0.00000000   0.00002605   0.00000000           -0.00        3.83        0.00
   0.00000000   0.00000000   0.00000302            0.00        0.00        0.44


     Writing output data file /scratch/as3359/Mos2_ct_lat/Ta2CH2.save/
 
     init_run     :     21.81s CPU     12.47s WALL (       1 calls)
     electrons    :    738.33s CPU    380.55s WALL (       1 calls)
     forces       :      8.64s CPU      4.54s WALL (       1 calls)
     stress       :     32.10s CPU     16.75s WALL (       1 calls)

     Called by init_run:
     wfcinit      :     13.53s CPU      6.99s WALL (       1 calls)
     potinit      :      2.02s CPU      1.04s WALL (       1 calls)
     hinit0       :      4.48s CPU      3.24s WALL (       1 calls)

     Called by electrons:
     c_bands      :    581.98s CPU    293.94s WALL (      18 calls)
     sum_band     :    119.31s CPU     64.00s WALL (      18 calls)
     v_of_rho     :      5.65s CPU      3.08s WALL (      19 calls)
     newd         :     30.72s CPU     19.17s WALL (      19 calls)
     mix_rho      :      2.23s CPU      1.32s WALL (      18 calls)

     Called by c_bands:
     init_us_2    :     13.49s CPU      6.77s WALL (    1053 calls)
     cegterg      :    542.88s CPU    274.27s WALL (     486 calls)

     Called by *egterg:
     cdiaghg      :      5.08s CPU      2.61s WALL (    3335 calls)
     h_psi        :    430.35s CPU    217.77s WALL (    3362 calls)
     s_psi        :     26.11s CPU     13.07s WALL (    3362 calls)
     g_psi        :      2.57s CPU      1.29s WALL (    2849 calls)

     Called by h_psi:
     h_psi:calbec :     19.35s CPU      9.72s WALL (    3362 calls)
     vloc_psi     :    378.88s CPU    191.88s WALL (    3362 calls)
     add_vuspsi   :     28.73s CPU     14.38s WALL (    3362 calls)

     General routines
     calbec       :     24.86s CPU     12.49s WALL (    3983 calls)
     fft          :      2.93s CPU      1.50s WALL (     234 calls)
     ffts         :      0.20s CPU      0.10s WALL (      18 calls)
     fftw         :    380.59s CPU    192.92s WALL (   97672 calls)
 
     Parallel routines
 
     PWSCF        :  13m22.85s CPU   6m56.20s WALL

 
   This run was terminated on:  17:52:45   9Apr2022            

=------------------------------------------------------------------------------=
   JOB DONE.
=------------------------------------------------------------------------------=
