
     Program PWSCF v.6.8 starts on  8Apr2022 at 18:33:57 

     This program is part of the open-source Quantum ESPRESSO suite
     for quantum simulation of materials; please cite
         "P. Giannozzi et al., J. Phys.:Condens. Matter 21 395502 (2009);
         "P. Giannozzi et al., J. Phys.:Condens. Matter 29 465901 (2017);
         "P. Giannozzi et al., J. Chem. Phys. 152 154105 (2020);
          URL http://www.quantum-espresso.org", 
     in publications or presentations arising from this work. More details at
     http://www.quantum-espresso.org/quote

     Parallel version (MPI & OpenMP), running on       4 processor cores
     Number of MPI processes:                 2
     Threads/MPI process:                     2

     MPI processes distributed on     1 nodes
     R & G space division:  proc/nbgrp/npool/nimage =       2
     125202 MiB available memory on the printing compute node when the environment starts
 
     Reading input from Ta2CH2.scf.6.100.in
Warning: card  &CELL ignored
Warning: card     CELL_DYNAMICS='BFGS' ignored
Warning: card  / ignored

     Current dimensions of program PWSCF are:
     Max number of different atomic species (ntypx) = 10
     Max number of k-points (npk) =  40000
     Max angular momentum in pseudopotentials (lmaxx) =  4
     Message from routine iosys:
     restart disabled: needed files not found
     file Ta.pbesol-spfn-rrkjus_psl.1.0.0.UPF: wavefunction(s)  5S 5P renormalized
     Message from routine setup:
     using ibrav=0 with symmetry is DISCOURAGED, use correct ibrav instead

     Subspace diagonalization in iterative solution of the eigenvalue problem:
     a serial algorithm will be used

 
     Parallelization info
     --------------------
     sticks:   dense  smooth     PW     G-vecs:    dense   smooth      PW
     Min         831     831    231               264241   264241   38605
     Max         832     832    232               264264   264264   38608
     Sum        1663    1663    463               528505   528505   77213
 
     Using Slab Decomposition
 


     bravais-lattice index     =            0
     lattice parameter (alat)  =       6.1000  a.u.
     unit-cell volume          =    2128.6427 (a.u.)^3
     number of atoms/cell      =            3
     number of atomic types    =            2
     number of electrons       =        58.00
     number of Kohn-Sham states=           29
     kinetic-energy cutoff     =     150.0000  Ry
     charge density cutoff     =     600.0000  Ry
     scf convergence threshold =      1.0E-12
     mixing beta               =       0.7000
     number of iterations used =            8  plain     mixing
     Exchange-correlation= PBESOL
                           (   1   4  10   8   0   0   0)

     celldm(1)=   6.100000  celldm(2)=   0.000000  celldm(3)=   0.000000
     celldm(4)=   0.000000  celldm(5)=   0.000000  celldm(6)=   0.000000

     crystal axes: (cart. coord. in units of alat)
               a(1) = (   1.040618   0.000000   0.000000 )  
               a(2) = (  -0.520309   0.901202   0.000000 )  
               a(3) = (   0.000000   0.000000  10.000000 )  

     reciprocal axes: (cart. coord. in units 2 pi/alat)
               b(1) = (  0.960967  0.554815  0.000000 )  
               b(2) = (  0.000000  1.109630  0.000000 )  
               b(3) = (  0.000000  0.000000  0.100000 )  


     PseudoPot. # 1 for Ta read from file:
     /shared/home/as3359/pseudo/Ta.pbesol-spfn-rrkjus_psl.1.0.0.UPF
     MD5 check sum: f099565ffaca9b150a52e9412a28e20b
     Pseudo is Ultrasoft + core correction, Zval = 27.0
     Generated using &quot;atomic&quot; code by A. Dal Corso  v.6.3
     Using radial grid of 1273 points,  8 beta functions with: 
                l(1) =   0
                l(2) =   0
                l(3) =   1
                l(4) =   1
                l(5) =   2
                l(6) =   2
                l(7) =   3
                l(8) =   3
     Q(r) pseudized with 0 coefficients 


     PseudoPot. # 2 for C  read from file:
     /shared/home/as3359/pseudo/C.pbesol-n-rrkjus_psl.1.0.0.UPF
     MD5 check sum: 05995be603a8a7c99da3dc4413f31573
     Pseudo is Ultrasoft + core correction, Zval =  4.0
     Generated using &quot;atomic&quot; code by A. Dal Corso  v.6.3MaX
     Using radial grid of 1073 points,  4 beta functions with: 
                l(1) =   0
                l(2) =   0
                l(3) =   1
                l(4) =   1
     Q(r) pseudized with 0 coefficients 


     atomic species   valence    mass     pseudopotential
        Ta            27.00   180.94788     Ta( 1.00)
        C              4.00    12.01070     C ( 1.00)

     12 Sym. Ops., with inversion, found



   Cartesian axes

     site n.     atom                  positions (alat units)
         1           C   tau(   1) = (   0.0000000   0.0000000   0.0000000  )
         2           Ta  tau(   2) = (   0.5203090   0.3004005  -0.4101496  )
         3           Ta  tau(   3) = (  -0.0000000   0.6008011   0.4101496  )

     number of k points=    27
                       cart. coord. in units 2pi/alat
        k(    1) = (   0.0000000   0.0000000   0.0000000), wk =   0.0088889
        k(    2) = (   0.0000000   0.0739753   0.0000000), wk =   0.0533333
        k(    3) = (   0.0000000   0.1479506   0.0000000), wk =   0.0533333
        k(    4) = (   0.0000000   0.2219259   0.0000000), wk =   0.0533333
        k(    5) = (   0.0000000   0.2959012   0.0000000), wk =   0.0533333
        k(    6) = (   0.0000000   0.3698766   0.0000000), wk =   0.0533333
        k(    7) = (   0.0000000   0.4438519   0.0000000), wk =   0.0533333
        k(    8) = (   0.0000000   0.5178272   0.0000000), wk =   0.0533333
        k(    9) = (   0.0640645   0.1109630   0.0000000), wk =   0.0533333
        k(   10) = (   0.0640645   0.1849383   0.0000000), wk =   0.1066667
        k(   11) = (   0.0640645   0.2589136   0.0000000), wk =   0.1066667
        k(   12) = (   0.0640645   0.3328889   0.0000000), wk =   0.1066667
        k(   13) = (   0.0640645   0.4068642   0.0000000), wk =   0.1066667
        k(   14) = (   0.0640645   0.4808395   0.0000000), wk =   0.1066667
        k(   15) = (   0.0640645   0.5548148   0.0000000), wk =   0.0533333
        k(   16) = (   0.1281290   0.2219259   0.0000000), wk =   0.0533333
        k(   17) = (   0.1281290   0.2959012   0.0000000), wk =   0.1066667
        k(   18) = (   0.1281290   0.3698766   0.0000000), wk =   0.1066667
        k(   19) = (   0.1281290   0.4438519   0.0000000), wk =   0.1066667
        k(   20) = (   0.1281290   0.5178272   0.0000000), wk =   0.1066667
        k(   21) = (   0.1921935   0.3328889   0.0000000), wk =   0.0533333
        k(   22) = (   0.1921935   0.4068642   0.0000000), wk =   0.1066667
        k(   23) = (   0.1921935   0.4808395   0.0000000), wk =   0.1066667
        k(   24) = (   0.1921935   0.5548148   0.0000000), wk =   0.0533333
        k(   25) = (   0.2562580   0.4438519   0.0000000), wk =   0.0533333
        k(   26) = (   0.2562580   0.5178272   0.0000000), wk =   0.1066667
        k(   27) = (   0.3203225   0.5548148   0.0000000), wk =   0.0177778

     Dense  grid:   528505 G-vectors     FFT dimensions: (  50,  50, 480)

     Estimated max dynamical RAM per process >       2.89 GB

     Estimated total dynamical RAM >       5.78 GB
     Cannot read rho : file not found

     Initial potential from superposition of free atoms

     starting charge   57.99842, renormalised to   58.00000

     negative rho (up, down):  1.201E-04 0.000E+00
     Message from routine qexsd_readschema :
     xml data file /scratch/as3359/Mos2_ct_lat/Ta2CH2.save/data-file-schema.xml not f
     Cannot read wfcs: file not found
     Starting wfcs are   38 randomized atomic wfcs

     total cpu time spent up to now is       15.2 secs

     Self-consistent Calculation

     iteration #  1     ecut=   150.00 Ry     beta= 0.70
     Davidson diagonalization with overlap
     c_bands:  1 eigenvalues not converged
     ethr =  1.00E-05,  avg # of iterations = 14.0

     negative rho (up, down):  1.204E-04 0.000E+00

     total cpu time spent up to now is       51.5 secs

     total energy              =   -1372.51234039 Ry
     estimated scf accuracy    <       0.99551126 Ry

     iteration #  2     ecut=   150.00 Ry     beta= 0.70
     Davidson diagonalization with overlap
     ethr =  1.72E-03,  avg # of iterations =  6.5

     negative rho (up, down):  1.017E-04 0.000E+00

     total cpu time spent up to now is       74.6 secs

     total energy              =   -1372.28147770 Ry
     estimated scf accuracy    <       5.20333101 Ry

     iteration #  3     ecut=   150.00 Ry     beta= 0.70
     Davidson diagonalization with overlap
     ethr =  1.72E-03,  avg # of iterations =  5.4

     negative rho (up, down):  1.092E-04 0.000E+00

     total cpu time spent up to now is       95.8 secs

     total energy              =   -1373.07999942 Ry
     estimated scf accuracy    <       0.05809800 Ry

     iteration #  4     ecut=   150.00 Ry     beta= 0.70
     Davidson diagonalization with overlap
     ethr =  1.00E-04,  avg # of iterations =  6.0

     negative rho (up, down):  1.127E-04 0.000E+00

     total cpu time spent up to now is      115.9 secs

     total energy              =   -1373.09531263 Ry
     estimated scf accuracy    <       0.00468002 Ry

     iteration #  5     ecut=   150.00 Ry     beta= 0.70
     Davidson diagonalization with overlap
     ethr =  8.07E-06,  avg # of iterations =  5.4

     negative rho (up, down):  1.249E-04 0.000E+00

     total cpu time spent up to now is      138.3 secs

     total energy              =   -1373.09654338 Ry
     estimated scf accuracy    <       0.00206785 Ry

     iteration #  6     ecut=   150.00 Ry     beta= 0.70
     Davidson diagonalization with overlap
     ethr =  3.57E-06,  avg # of iterations =  2.3

     negative rho (up, down):  1.263E-04 0.000E+00

     total cpu time spent up to now is      157.3 secs

     total energy              =   -1373.09688379 Ry
     estimated scf accuracy    <       0.00019008 Ry

     iteration #  7     ecut=   150.00 Ry     beta= 0.70
     Davidson diagonalization with overlap
     ethr =  3.28E-07,  avg # of iterations =  6.6

     negative rho (up, down):  1.277E-04 0.000E+00

     total cpu time spent up to now is      178.8 secs

     total energy              =   -1373.09696456 Ry
     estimated scf accuracy    <       0.00003019 Ry

     iteration #  8     ecut=   150.00 Ry     beta= 0.70
     Davidson diagonalization with overlap
     ethr =  5.21E-08,  avg # of iterations =  7.3

     negative rho (up, down):  1.282E-04 0.000E+00

     total cpu time spent up to now is      199.3 secs

     total energy              =   -1373.09697323 Ry
     estimated scf accuracy    <       0.00000634 Ry

     iteration #  9     ecut=   150.00 Ry     beta= 0.70
     Davidson diagonalization with overlap
     ethr =  1.09E-08,  avg # of iterations =  5.0

     negative rho (up, down):  1.281E-04 0.000E+00

     total cpu time spent up to now is      218.1 secs

     total energy              =   -1373.09697318 Ry
     estimated scf accuracy    <       0.00000255 Ry

     iteration # 10     ecut=   150.00 Ry     beta= 0.70
     Davidson diagonalization with overlap
     ethr =  4.39E-09,  avg # of iterations =  6.6

     negative rho (up, down):  1.280E-04 0.000E+00

     total cpu time spent up to now is      238.4 secs

     total energy              =   -1373.09697381 Ry
     estimated scf accuracy    <       0.00000040 Ry

     iteration # 11     ecut=   150.00 Ry     beta= 0.70
     Davidson diagonalization with overlap
     ethr =  6.82E-10,  avg # of iterations =  5.4

     negative rho (up, down):  1.280E-04 0.000E+00

     total cpu time spent up to now is      257.5 secs

     total energy              =   -1373.09697389 Ry
     estimated scf accuracy    <       0.00000002 Ry

     iteration # 12     ecut=   150.00 Ry     beta= 0.70
     Davidson diagonalization with overlap
     ethr =  3.48E-11,  avg # of iterations =  8.3

     negative rho (up, down):  1.280E-04 0.000E+00

     total cpu time spent up to now is      282.0 secs

     total energy              =   -1373.09697390 Ry
     estimated scf accuracy    <          4.2E-09 Ry

     iteration # 13     ecut=   150.00 Ry     beta= 0.70
     Davidson diagonalization with overlap
     ethr =  7.16E-12,  avg # of iterations =  5.1

     negative rho (up, down):  1.280E-04 0.000E+00

     total cpu time spent up to now is      300.8 secs

     total energy              =   -1373.09697390 Ry
     estimated scf accuracy    <          1.9E-09 Ry

     iteration # 14     ecut=   150.00 Ry     beta= 0.70
     Davidson diagonalization with overlap
     ethr =  3.35E-12,  avg # of iterations =  5.8

     negative rho (up, down):  1.280E-04 0.000E+00

     total cpu time spent up to now is      320.8 secs

     total energy              =   -1373.09697390 Ry
     estimated scf accuracy    <          2.7E-10 Ry

     iteration # 15     ecut=   150.00 Ry     beta= 0.70
     Davidson diagonalization with overlap
     ethr =  4.74E-13,  avg # of iterations =  5.9

     negative rho (up, down):  1.280E-04 0.000E+00

     total cpu time spent up to now is      339.9 secs

     total energy              =   -1373.09697390 Ry
     estimated scf accuracy    <          2.4E-10 Ry

     iteration # 16     ecut=   150.00 Ry     beta= 0.70
     Davidson diagonalization with overlap
     ethr =  4.17E-13,  avg # of iterations =  2.0

     negative rho (up, down):  1.280E-04 0.000E+00

     total cpu time spent up to now is      356.3 secs

     total energy              =   -1373.09697390 Ry
     estimated scf accuracy    <          1.3E-10 Ry

     iteration # 17     ecut=   150.00 Ry     beta= 0.70
     Davidson diagonalization with overlap
     ethr =  2.19E-13,  avg # of iterations =  3.4

     negative rho (up, down):  1.280E-04 0.000E+00

     total cpu time spent up to now is      374.5 secs

     total energy              =   -1373.09697390 Ry
     estimated scf accuracy    <          5.6E-12 Ry

     iteration # 18     ecut=   150.00 Ry     beta= 0.70
     Davidson diagonalization with overlap
     ethr =  1.00E-13,  avg # of iterations =  3.6

     negative rho (up, down):  1.280E-04 0.000E+00

     total cpu time spent up to now is      392.5 secs

     total energy              =   -1373.09697390 Ry
     estimated scf accuracy    <          6.5E-12 Ry

     iteration # 19     ecut=   150.00 Ry     beta= 0.70
     Davidson diagonalization with overlap
     ethr =  1.00E-13,  avg # of iterations =  1.1

     negative rho (up, down):  1.280E-04 0.000E+00

     total cpu time spent up to now is      407.9 secs

     total energy              =   -1373.09697390 Ry
     estimated scf accuracy    <          3.0E-12 Ry

     iteration # 20     ecut=   150.00 Ry     beta= 0.70
     Davidson diagonalization with overlap
     ethr =  1.00E-13,  avg # of iterations =  1.0

     negative rho (up, down):  1.280E-04 0.000E+00

     total cpu time spent up to now is      423.1 secs

     End of self-consistent calculation

          k = 0.0000 0.0000 0.0000 ( 66225 PWs)   bands (ev):

   -70.0351 -70.0232 -36.6729 -36.4651 -36.1939 -36.1939 -36.1667 -36.1667
   -21.7920 -21.7861 -21.7679 -21.7679 -21.7617 -21.7617 -21.7332 -21.7332
   -21.7282 -21.7282 -21.6982 -21.6956 -21.6761 -21.6755 -13.0521  -7.2392
    -4.3466  -4.3466  -2.8877  -1.6647  -1.5187

          k = 0.0000 0.0740 0.0000 ( 66247 PWs)   bands (ev):

   -70.0345 -70.0228 -36.6698 -36.4660 -36.2040 -36.1972 -36.1764 -36.1683
   -21.7917 -21.7858 -21.7682 -21.7680 -21.7621 -21.7617 -21.7333 -21.7329
   -21.7282 -21.7280 -21.6976 -21.6951 -21.6768 -21.6762 -13.0007  -7.1373
    -4.5627  -4.3387  -2.7682  -1.7584  -1.4295

          k = 0.0000 0.1480 0.0000 ( 66155 PWs)   bands (ev):

   -70.0329 -70.0218 -36.6611 -36.4690 -36.2323 -36.2065 -36.2037 -36.1730
   -21.7908 -21.7853 -21.7690 -21.7683 -21.7630 -21.7618 -21.7337 -21.7322
   -21.7283 -21.7275 -21.6959 -21.6935 -21.6785 -21.6780 -12.8544  -6.8466
    -5.0277  -4.3258  -2.5797  -1.9625  -1.5761

          k = 0.0000 0.2219 0.0000 ( 66113 PWs)   bands (ev):

   -70.0304 -70.0204 -36.6478 -36.4749 -36.2732 -36.2432 -36.2197 -36.1803
   -21.7895 -21.7844 -21.7702 -21.7687 -21.7645 -21.7619 -21.7342 -21.7310
   -21.7284 -21.7267 -21.6933 -21.6913 -21.6811 -21.6807 -12.6366  -6.4311
    -5.5203  -4.3302  -2.5398  -2.1953  -1.8537

          k = 0.0000 0.2959 0.0000 ( 66073 PWs)   bands (ev):

   -70.0274 -70.0189 -36.6316 -36.4850 -36.3180 -36.2876 -36.2343 -36.1892
   -21.7879 -21.7835 -21.7714 -21.7692 -21.7662 -21.7621 -21.7347 -21.7297
   -21.7284 -21.7257 -21.6903 -21.6887 -21.6840 -21.6837 -12.3826  -6.2499
    -5.6752  -4.3656  -2.8361  -2.2428  -1.8368

          k = 0.0000 0.3699 0.0000 ( 65980 PWs)   bands (ev):

   -70.0245 -70.0176 -36.6144 -36.5002 -36.3575 -36.3287 -36.2480 -36.1980
   -21.7865 -21.7826 -21.7725 -21.7697 -21.7679 -21.7623 -21.7351 -21.7285
   -21.7284 -21.7248 -21.6875 -21.6868 -21.6865 -21.6862 -12.1355  -6.5670
    -5.3145  -4.4236  -3.1765  -2.0707  -1.6389

          k = 0.0000 0.4439 0.0000 ( 65922 PWs)   bands (ev):

   -70.0220 -70.0167 -36.5983 -36.5188 -36.3848 -36.3596 -36.2585 -36.2051
   -21.7853 -21.7820 -21.7732 -21.7701 -21.7693 -21.7626 -21.7354 -21.7286
   -21.7275 -21.7240 -21.6890 -21.6886 -21.6852 -21.6843 -11.9391  -6.8481
    -5.0566  -4.4813  -3.4175  -1.6557  -1.3822

          k = 0.0000 0.5178 0.0000 ( 65996 PWs)   bands (ev):

   -70.0205 -70.0163 -36.5866 -36.5339 -36.3982 -36.3760 -36.2642 -36.2089
   -21.7847 -21.7816 -21.7736 -21.7703 -21.7701 -21.7627 -21.7356 -21.7286
   -21.7270 -21.7236 -21.6902 -21.6897 -21.6839 -21.6833 -11.8301  -6.9995
    -4.9580  -4.5163  -3.5385  -1.2139  -1.1894

          k = 0.0641 0.1110 0.0000 ( 66203 PWs)   bands (ev):

   -70.0334 -70.0221 -36.6640 -36.4680 -36.2216 -36.2082 -36.1906 -36.1727
   -21.7911 -21.7854 -21.7687 -21.7682 -21.7627 -21.7618 -21.7336 -21.7324
   -21.7282 -21.7277 -21.6964 -21.6940 -21.6780 -21.6774 -12.9018  -6.9401
    -4.8850  -4.3433  -2.6193  -1.8747  -1.4760

          k = 0.0641 0.1849 0.0000 ( 66115 PWs)   bands (ev):

   -70.0313 -70.0209 -36.6530 -36.4724 -36.2543 -36.2357 -36.2081 -36.1804
   -21.7900 -21.7847 -21.7697 -21.7687 -21.7638 -21.7620 -21.7340 -21.7315
   -21.7282 -21.7271 -21.6943 -21.6921 -21.6801 -21.6797 -12.7196  -6.5765
    -5.3380  -4.3791  -2.4828  -2.0237  -1.8245

          k = 0.0641 0.2589 0.0000 ( 66077 PWs)   bands (ev):

   -70.0286 -70.0195 -36.6381 -36.4802 -36.2966 -36.2731 -36.2262 -36.1896
   -21.7885 -21.7838 -21.7708 -21.7692 -21.7653 -21.7622 -21.7344 -21.7304
   -21.7281 -21.7263 -21.6915 -21.6897 -21.6829 -21.6826 -12.4834  -6.1789
    -5.7267  -4.4462  -2.6051  -2.1380  -1.9334

          k = 0.0641 0.3329 0.0000 ( 66045 PWs)   bands (ev):

   -70.0256 -70.0181 -36.6213 -36.4926 -36.3388 -36.3122 -36.2433 -36.1993
   -21.7870 -21.7829 -21.7719 -21.7698 -21.7669 -21.7624 -21.7349 -21.7294
   -21.7280 -21.7254 -21.6886 -21.6872 -21.6857 -21.6855 -12.2325  -6.3518
    -5.4862  -4.5276  -2.9434  -2.0413  -1.8311

          k = 0.0641 0.4069 0.0000 ( 66001 PWs)   bands (ev):

   -70.0229 -70.0170 -36.6045 -36.5095 -36.3723 -36.3456 -36.2574 -36.2079
   -21.7857 -21.7822 -21.7729 -21.7703 -21.7684 -21.7627 -21.7352 -21.7287
   -21.7276 -21.7245 -21.6882 -21.6879 -21.6860 -21.6850 -12.0101  -6.6732
    -5.1383  -4.6001  -3.2090  -1.7969  -1.5796

          k = 0.0641 0.4808 0.0000 ( 65978 PWs)   bands (ev):

   -70.0209 -70.0164 -36.5898 -36.5271 -36.3926 -36.3677 -36.2668 -36.2138
   -21.7848 -21.7817 -21.7734 -21.7705 -21.7695 -21.7628 -21.7354 -21.7285
   -21.7272 -21.7239 -21.6899 -21.6895 -21.6842 -21.6835 -11.8569  -6.8886
    -4.9673  -4.6504  -3.3637  -1.3969  -1.3172

          k = 0.0641 0.5548 0.0000 ( 65970 PWs)   bands (ev):

   -70.0201 -70.0163 -36.5828 -36.5358 -36.3992 -36.3753 -36.2700 -36.2159
   -21.7844 -21.7816 -21.7736 -21.7703 -21.7701 -21.7629 -21.7355 -21.7285
   -21.7270 -21.7237 -21.6905 -21.6901 -21.6835 -21.6830 -11.8022  -6.9636
    -4.9238  -4.6699  -3.4140  -1.1999  -1.1664

          k = 0.1281 0.2219 0.0000 ( 66059 PWs)   bands (ev):

   -70.0290 -70.0197 -36.6404 -36.4786 -36.2824 -36.2749 -36.2189 -36.1937
   -21.7887 -21.7840 -21.7704 -21.7695 -21.7649 -21.7623 -21.7343 -21.7307
   -21.7279 -21.7266 -21.6919 -21.6901 -21.6825 -21.6822 -12.5189  -6.1682
    -5.7017  -4.5341  -2.3696  -2.2633  -1.7944

          k = 0.1281 0.2959 0.0000 ( 66019 PWs)   bands (ev):

   -70.0263 -70.0183 -36.6249 -36.4885 -36.3200 -36.3082 -36.2372 -36.2075
   -21.7873 -21.7831 -21.7713 -21.7703 -21.7660 -21.7627 -21.7346 -21.7300
   -21.7274 -21.7260 -21.6892 -21.6877 -21.6852 -21.6849 -12.2850  -6.0903
    -5.6674  -4.7131  -2.6227  -2.1793  -1.6607

          k = 0.1281 0.3699 0.0000 ( 66035 PWs)   bands (ev):

   -70.0235 -70.0172 -36.6081 -36.5022 -36.3566 -36.3347 -36.2574 -36.2194
   -21.7858 -21.7824 -21.7723 -21.7708 -21.7673 -21.7630 -21.7349 -21.7293
   -21.7271 -21.7253 -21.6878 -21.6876 -21.6865 -21.6854 -12.0579  -6.4140
    -5.2377  -4.8576  -2.8709  -1.9199  -1.6536

          k = 0.1281 0.4439 0.0000 ( 65979 PWs)   bands (ev):

   -70.0212 -70.0165 -36.5919 -36.5186 -36.3827 -36.3548 -36.2737 -36.2285
   -21.7847 -21.7818 -21.7731 -21.7709 -21.7686 -21.7633 -21.7351 -21.7287
   -21.7271 -21.7245 -21.6898 -21.6895 -21.6845 -21.6837 -11.8778  -6.6595
    -4.9749  -4.9445  -3.0109  -1.6043  -1.5153

          k = 0.1281 0.5178 0.0000 ( 66002 PWs)   bands (ev):

   -70.0197 -70.0162 -36.5795 -36.5323 -36.3955 -36.3659 -36.2827 -36.2335
   -21.7840 -21.7816 -21.7736 -21.7705 -21.7696 -21.7635 -21.7352 -21.7282
   -21.7272 -21.7241 -21.6909 -21.6906 -21.6833 -21.6828 -11.7781  -6.7912
    -4.9951  -4.8670  -3.0750  -1.3561  -1.3040

          k = 0.1922 0.3329 0.0000 ( 66032 PWs)   bands (ev):

   -70.0237 -70.0173 -36.6094 -36.4995 -36.3461 -36.3342 -36.2543 -36.2285
   -21.7859 -21.7824 -21.7716 -21.7715 -21.7668 -21.7633 -21.7347 -21.7296
   -21.7265 -21.7259 -21.6876 -21.6875 -21.6867 -21.6856 -12.0747  -6.2533
    -5.3346  -4.9701  -2.6050  -2.1941  -1.3709

          k = 0.1922 0.4069 0.0000 ( 66016 PWs)   bands (ev):

   -70.0213 -70.0165 -36.5929 -36.5130 -36.3720 -36.3472 -36.2755 -36.2459
   -21.7846 -21.7819 -21.7727 -21.7714 -21.7677 -21.7639 -21.7348 -21.7290
   -21.7264 -21.7254 -21.6897 -21.6896 -21.6846 -21.6838 -11.8892  -6.4180
    -5.2573  -4.9507  -2.6083  -1.9768  -1.5270

          k = 0.1922 0.4808 0.0000 ( 66026 PWs)   bands (ev):

   -70.0195 -70.0162 -36.5774 -36.5270 -36.3883 -36.3531 -36.2942 -36.2569
   -21.7836 -21.7816 -21.7735 -21.7708 -21.7688 -21.7643 -21.7348 -21.7283
   -21.7269 -21.7248 -21.6912 -21.6910 -21.6831 -21.6826 -11.7620  -6.5369
    -5.3495  -4.8091  -2.6282  -1.6517  -1.4974

          k = 0.1922 0.5548 0.0000 ( 66012 PWs)   bands (ev):

   -70.0187 -70.0162 -36.5692 -36.5350 -36.3936 -36.3544 -36.3018 -36.2606
   -21.7833 -21.7815 -21.7737 -21.7703 -21.7695 -21.7644 -21.7348 -21.7276
   -21.7275 -21.7246 -21.6917 -21.6915 -21.6826 -21.6822 -11.7167  -6.5806
    -5.3820  -4.7660  -2.6431  -1.4856  -1.4331

          k = 0.2563 0.4439 0.0000 ( 65998 PWs)   bands (ev):

   -70.0194 -70.0162 -36.5767 -36.5246 -36.3835 -36.3480 -36.2946 -36.2721
   -21.7835 -21.7816 -21.7734 -21.7710 -21.7683 -21.7647 -21.7346 -21.7285
   -21.7264 -21.7254 -21.6913 -21.6912 -21.6831 -21.6825 -11.7563  -6.3769
    -5.5429  -4.7836  -2.2481  -1.9775  -1.5854

          k = 0.2563 0.5178 0.0000 ( 66022 PWs)   bands (ev):

   -70.0180 -70.0163 -36.5621 -36.5362 -36.3892 -36.3403 -36.3126 -36.2881
   -21.7827 -21.7816 -21.7738 -21.7702 -21.7691 -21.7652 -21.7344 -21.7278
   -21.7270 -21.7252 -21.6922 -21.6921 -21.6822 -21.6819 -11.6832  -6.3269
    -5.7212  -4.6960  -2.1612  -1.7377  -1.5879

          k = 0.3203 0.5548 0.0000 ( 66042 PWs)   bands (ev):

   -70.0169 -70.0169 -36.5479 -36.5479 -36.3885 -36.3206 -36.3206 -36.3144
   -21.7820 -21.7820 -21.7740 -21.7696 -21.7696 -21.7656 -21.7343 -21.7274
   -21.7274 -21.7253 -21.6925 -21.6925 -21.6818 -21.6818 -11.6553  -6.0505
    -6.0505  -4.6529  -1.8162  -1.7617  -1.7617

     highest occupied level (ev):    -1.1664

!    total energy              =   -1373.09697390 Ry
     estimated scf accuracy    <          1.5E-13 Ry

     The total energy is the sum of the following terms:
     one-electron contribution =  -10068.81270487 Ry
     hartree contribution      =    5059.17571752 Ry
     xc contribution           =    -137.96893016 Ry
     ewald contribution        =    3774.50894361 Ry

     convergence has been achieved in  20 iterations

     negative rho (up, down):  1.280E-04 0.000E+00

     Forces acting on atoms (cartesian axes, Ry/au):

     atom    1 type  2   force =     0.00000000    0.00000000    0.00000000
     atom    2 type  1   force =     0.00000000    0.00000000    0.14970477
     atom    3 type  1   force =     0.00000000    0.00000000   -0.14970477

     Total force =     0.211715     Total SCF correction =     0.000002


     Computing stress (Cartesian axis) and pressure


     negative rho (up, down):  1.280E-04 0.000E+00
          total   stress  (Ry/bohr**3)                   (kbar)     P=      -69.60
  -0.00053345   0.00000000   0.00000000          -78.47        0.00        0.00
   0.00000000  -0.00053345   0.00000000            0.00      -78.47        0.00
   0.00000000   0.00000000  -0.00035242            0.00        0.00      -51.84


     Writing output data file /scratch/as3359/Mos2_ct_lat/Ta2CH2.save/
 
     init_run     :     25.91s CPU     15.06s WALL (       1 calls)
     electrons    :    795.40s CPU    407.90s WALL (       1 calls)
     forces       :     10.17s CPU      5.25s WALL (       1 calls)
     stress       :     37.47s CPU     19.33s WALL (       1 calls)

     Called by init_run:
     wfcinit      :     14.73s CPU      7.58s WALL (       1 calls)
     potinit      :      2.64s CPU      1.34s WALL (       1 calls)
     hinit0       :      6.55s CPU      4.86s WALL (       1 calls)

     Called by electrons:
     c_bands      :    622.41s CPU    314.04s WALL (      20 calls)
     sum_band     :    130.21s CPU     69.18s WALL (      20 calls)
     v_of_rho     :      5.95s CPU      3.22s WALL (      21 calls)
     newd         :     36.08s CPU     21.17s WALL (      21 calls)
     mix_rho      :      2.48s CPU      1.29s WALL (      20 calls)

     Called by c_bands:
     init_us_2    :     15.02s CPU      7.52s WALL (    1161 calls)
     cegterg      :    569.44s CPU    287.46s WALL (     540 calls)

     Called by *egterg:
     cdiaghg      :      5.01s CPU      2.56s WALL (    3425 calls)
     h_psi        :    456.89s CPU    230.98s WALL (    3452 calls)
     s_psi        :     24.92s CPU     12.47s WALL (    3452 calls)
     g_psi        :      3.32s CPU      1.66s WALL (    2885 calls)

     Called by h_psi:
     h_psi:calbec :     19.94s CPU      9.99s WALL (    3452 calls)
     vloc_psi     :    407.13s CPU    205.97s WALL (    3452 calls)
     add_vuspsi   :     25.97s CPU     13.01s WALL (    3452 calls)

     General routines
     calbec       :     27.01s CPU     13.53s WALL (    4127 calls)
     fft          :      3.25s CPU      2.00s WALL (     256 calls)
     ffts         :      0.17s CPU      0.09s WALL (      20 calls)
     fftw         :    420.15s CPU    212.73s WALL (  103188 calls)
 
     Parallel routines
 
     PWSCF        :  14m30.97s CPU   7m29.34s WALL

 
   This run was terminated on:  18:41:26   8Apr2022            

=------------------------------------------------------------------------------=
   JOB DONE.
=------------------------------------------------------------------------------=
