
     Program PWSCF v.6.8 starts on  9Apr2022 at 17: 8:49 

     This program is part of the open-source Quantum ESPRESSO suite
     for quantum simulation of materials; please cite
         "P. Giannozzi et al., J. Phys.:Condens. Matter 21 395502 (2009);
         "P. Giannozzi et al., J. Phys.:Condens. Matter 29 465901 (2017);
         "P. Giannozzi et al., J. Chem. Phys. 152 154105 (2020);
          URL http://www.quantum-espresso.org", 
     in publications or presentations arising from this work. More details at
     http://www.quantum-espresso.org/quote

     Parallel version (MPI & OpenMP), running on       4 processor cores
     Number of MPI processes:                 2
     Threads/MPI process:                     2

     MPI processes distributed on     1 nodes
     R & G space division:  proc/nbgrp/npool/nimage =       2
     125176 MiB available memory on the printing compute node when the environment starts
 
     Reading input from Ta2CH2.scf.5.425.in
Warning: card  &CELL ignored
Warning: card     CELL_DYNAMICS='BFGS' ignored
Warning: card  / ignored

     Current dimensions of program PWSCF are:
     Max number of different atomic species (ntypx) = 10
     Max number of k-points (npk) =  40000
     Max angular momentum in pseudopotentials (lmaxx) =  4
     Message from routine iosys:
     restart disabled: needed files not found
     file Ta.pbesol-spfn-rrkjus_psl.1.0.0.UPF: wavefunction(s)  5S 5P renormalized
     Message from routine setup:
     using ibrav=0 with symmetry is DISCOURAGED, use correct ibrav instead

     Subspace diagonalization in iterative solution of the eigenvalue problem:
     a serial algorithm will be used

 
     Parallelization info
     --------------------
     sticks:   dense  smooth     PW     G-vecs:    dense   smooth      PW
     Min         654     654    183               185487   185487   27715
     Max         655     655    184               185496   185496   27740
     Sum        1309    1309    367               370983   370983   55455
 
     Using Slab Decomposition
 


     bravais-lattice index     =            0
     lattice parameter (alat)  =       5.4250  a.u.
     unit-cell volume          =    1497.3126 (a.u.)^3
     number of atoms/cell      =            3
     number of atomic types    =            2
     number of electrons       =        58.00
     number of Kohn-Sham states=           29
     kinetic-energy cutoff     =     150.0000  Ry
     charge density cutoff     =     600.0000  Ry
     scf convergence threshold =      1.0E-12
     mixing beta               =       0.7000
     number of iterations used =            8  plain     mixing
     Exchange-correlation= PBESOL
                           (   1   4  10   8   0   0   0)

     celldm(1)=   5.425000  celldm(2)=   0.000000  celldm(3)=   0.000000
     celldm(4)=   0.000000  celldm(5)=   0.000000  celldm(6)=   0.000000

     crystal axes: (cart. coord. in units of alat)
               a(1) = (   1.040618   0.000000   0.000000 )  
               a(2) = (  -0.520309   0.901202   0.000000 )  
               a(3) = (   0.000000   0.000000  10.000000 )  

     reciprocal axes: (cart. coord. in units 2 pi/alat)
               b(1) = (  0.960967  0.554815  0.000000 )  
               b(2) = (  0.000000  1.109630  0.000000 )  
               b(3) = (  0.000000  0.000000  0.100000 )  


     PseudoPot. # 1 for Ta read from file:
     /shared/home/as3359/pseudo/Ta.pbesol-spfn-rrkjus_psl.1.0.0.UPF
     MD5 check sum: f099565ffaca9b150a52e9412a28e20b
     Pseudo is Ultrasoft + core correction, Zval = 27.0
     Generated using &quot;atomic&quot; code by A. Dal Corso  v.6.3
     Using radial grid of 1273 points,  8 beta functions with: 
                l(1) =   0
                l(2) =   0
                l(3) =   1
                l(4) =   1
                l(5) =   2
                l(6) =   2
                l(7) =   3
                l(8) =   3
     Q(r) pseudized with 0 coefficients 


     PseudoPot. # 2 for C  read from file:
     /shared/home/as3359/pseudo/C.pbesol-n-rrkjus_psl.1.0.0.UPF
     MD5 check sum: 05995be603a8a7c99da3dc4413f31573
     Pseudo is Ultrasoft + core correction, Zval =  4.0
     Generated using &quot;atomic&quot; code by A. Dal Corso  v.6.3MaX
     Using radial grid of 1073 points,  4 beta functions with: 
                l(1) =   0
                l(2) =   0
                l(3) =   1
                l(4) =   1
     Q(r) pseudized with 0 coefficients 


     atomic species   valence    mass     pseudopotential
        Ta            27.00   180.94788     Ta( 1.00)
        C              4.00    12.01070     C ( 1.00)

     12 Sym. Ops., with inversion, found



   Cartesian axes

     site n.     atom                  positions (alat units)
         1           C   tau(   1) = (   0.0000000   0.0000000   0.0000000  )
         2           Ta  tau(   2) = (   0.5203090   0.3004005  -0.4101496  )
         3           Ta  tau(   3) = (  -0.0000000   0.6008011   0.4101496  )

     number of k points=    27
                       cart. coord. in units 2pi/alat
        k(    1) = (   0.0000000   0.0000000   0.0000000), wk =   0.0088889
        k(    2) = (   0.0000000   0.0739753   0.0000000), wk =   0.0533333
        k(    3) = (   0.0000000   0.1479506   0.0000000), wk =   0.0533333
        k(    4) = (   0.0000000   0.2219259   0.0000000), wk =   0.0533333
        k(    5) = (   0.0000000   0.2959012   0.0000000), wk =   0.0533333
        k(    6) = (   0.0000000   0.3698766   0.0000000), wk =   0.0533333
        k(    7) = (   0.0000000   0.4438519   0.0000000), wk =   0.0533333
        k(    8) = (   0.0000000   0.5178272   0.0000000), wk =   0.0533333
        k(    9) = (   0.0640645   0.1109630   0.0000000), wk =   0.0533333
        k(   10) = (   0.0640645   0.1849383   0.0000000), wk =   0.1066667
        k(   11) = (   0.0640645   0.2589136   0.0000000), wk =   0.1066667
        k(   12) = (   0.0640645   0.3328889   0.0000000), wk =   0.1066667
        k(   13) = (   0.0640645   0.4068642   0.0000000), wk =   0.1066667
        k(   14) = (   0.0640645   0.4808395   0.0000000), wk =   0.1066667
        k(   15) = (   0.0640645   0.5548148   0.0000000), wk =   0.0533333
        k(   16) = (   0.1281290   0.2219259   0.0000000), wk =   0.0533333
        k(   17) = (   0.1281290   0.2959012   0.0000000), wk =   0.1066667
        k(   18) = (   0.1281290   0.3698766   0.0000000), wk =   0.1066667
        k(   19) = (   0.1281290   0.4438519   0.0000000), wk =   0.1066667
        k(   20) = (   0.1281290   0.5178272   0.0000000), wk =   0.1066667
        k(   21) = (   0.1921935   0.3328889   0.0000000), wk =   0.0533333
        k(   22) = (   0.1921935   0.4068642   0.0000000), wk =   0.1066667
        k(   23) = (   0.1921935   0.4808395   0.0000000), wk =   0.1066667
        k(   24) = (   0.1921935   0.5548148   0.0000000), wk =   0.0533333
        k(   25) = (   0.2562580   0.4438519   0.0000000), wk =   0.0533333
        k(   26) = (   0.2562580   0.5178272   0.0000000), wk =   0.1066667
        k(   27) = (   0.3203225   0.5548148   0.0000000), wk =   0.0177778

     Dense  grid:   370983 G-vectors     FFT dimensions: (  45,  45, 432)

     Estimated max dynamical RAM per process >       2.03 GB

     Estimated total dynamical RAM >       4.07 GB
     Cannot read rho : file not found

     Initial potential from superposition of free atoms

     starting charge   57.99842, renormalised to   58.00000

     negative rho (up, down):  9.292E-05 0.000E+00
     Message from routine qexsd_readschema :
     xml data file /scratch/as3359/Mos2_ct_lat/Ta2CH2.save/data-file-schema.xml not f
     Cannot read wfcs: file not found
     Starting wfcs are   38 randomized atomic wfcs

     total cpu time spent up to now is       12.0 secs

     Self-consistent Calculation

     iteration #  1     ecut=   150.00 Ry     beta= 0.70
     Davidson diagonalization with overlap
     ethr =  1.00E-05,  avg # of iterations = 12.1

     negative rho (up, down):  8.660E-05 0.000E+00

     total cpu time spent up to now is       48.6 secs

     total energy              =   -1372.36141815 Ry
     estimated scf accuracy    <       1.44373147 Ry

     iteration #  2     ecut=   150.00 Ry     beta= 0.70
     Davidson diagonalization with overlap
     c_bands:  1 eigenvalues not converged
     c_bands:  1 eigenvalues not converged
     c_bands:  1 eigenvalues not converged
     ethr =  2.49E-03,  avg # of iterations =  9.3

     total cpu time spent up to now is       73.4 secs

     total energy              =   -1370.88051908 Ry
     estimated scf accuracy    <      14.84608652 Ry

     iteration #  3     ecut=   150.00 Ry     beta= 0.70
     Davidson diagonalization with overlap
     ethr =  2.49E-03,  avg # of iterations =  7.2

     total cpu time spent up to now is       95.5 secs

     total energy              =   -1373.17827572 Ry
     estimated scf accuracy    <       0.26007313 Ry

     iteration #  4     ecut=   150.00 Ry     beta= 0.70
     Davidson diagonalization with overlap
     ethr =  4.48E-04,  avg # of iterations =  4.0

     total cpu time spent up to now is      113.6 secs

     total energy              =   -1373.24269964 Ry
     estimated scf accuracy    <       0.05366440 Ry

     iteration #  5     ecut=   150.00 Ry     beta= 0.70
     Davidson diagonalization with overlap
     ethr =  9.25E-05,  avg # of iterations =  3.2

     total cpu time spent up to now is      130.4 secs

     total energy              =   -1373.24129542 Ry
     estimated scf accuracy    <       0.02983917 Ry

     iteration #  6     ecut=   150.00 Ry     beta= 0.70
     Davidson diagonalization with overlap
     ethr =  5.14E-05,  avg # of iterations =  2.3

     total cpu time spent up to now is      146.1 secs

     total energy              =   -1373.23680984 Ry
     estimated scf accuracy    <       0.01416694 Ry

     iteration #  7     ecut=   150.00 Ry     beta= 0.70
     Davidson diagonalization with overlap
     ethr =  2.44E-05,  avg # of iterations =  3.3

     total cpu time spent up to now is      163.0 secs

     total energy              =   -1373.23749118 Ry
     estimated scf accuracy    <       0.00186194 Ry

     iteration #  8     ecut=   150.00 Ry     beta= 0.70
     Davidson diagonalization with overlap
     ethr =  3.21E-06,  avg # of iterations =  6.5

     negative rho (up, down):  8.454E-03 0.000E+00

     total cpu time spent up to now is      182.0 secs

     total energy              =   -1373.23828829 Ry
     estimated scf accuracy    <       0.00075598 Ry

     iteration #  9     ecut=   150.00 Ry     beta= 0.70
     Davidson diagonalization with overlap
     ethr =  1.30E-06,  avg # of iterations =  2.7

     negative rho (up, down):  1.112E-08 0.000E+00

     total cpu time spent up to now is      198.5 secs

     total energy              =   -1373.23803579 Ry
     estimated scf accuracy    <       0.00032289 Ry

     iteration # 10     ecut=   150.00 Ry     beta= 0.70
     Davidson diagonalization with overlap
     ethr =  5.57E-07,  avg # of iterations =  2.6

     negative rho (up, down):  4.388E-04 0.000E+00

     total cpu time spent up to now is      214.9 secs

     total energy              =   -1373.23804921 Ry
     estimated scf accuracy    <       0.00010548 Ry

     iteration # 11     ecut=   150.00 Ry     beta= 0.70
     Davidson diagonalization with overlap
     ethr =  1.82E-07,  avg # of iterations =  5.8

     negative rho (up, down):  9.557E-05 0.000E+00

     total cpu time spent up to now is      233.5 secs

     total energy              =   -1373.23806982 Ry
     estimated scf accuracy    <       0.00000202 Ry

     iteration # 12     ecut=   150.00 Ry     beta= 0.70
     Davidson diagonalization with overlap
     ethr =  3.48E-09,  avg # of iterations =  8.0

     negative rho (up, down):  9.374E-05 0.000E+00

     total cpu time spent up to now is      258.9 secs

     total energy              =   -1373.23807133 Ry
     estimated scf accuracy    <       0.00000187 Ry

     iteration # 13     ecut=   150.00 Ry     beta= 0.70
     Davidson diagonalization with overlap
     ethr =  3.23E-09,  avg # of iterations =  2.0

     negative rho (up, down):  9.534E-05 0.000E+00

     total cpu time spent up to now is      274.9 secs

     total energy              =   -1373.23807133 Ry
     estimated scf accuracy    <       0.00000028 Ry

     iteration # 14     ecut=   150.00 Ry     beta= 0.70
     Davidson diagonalization with overlap
     ethr =  4.90E-10,  avg # of iterations =  7.8

     negative rho (up, down):  9.701E-05 0.000E+00

     total cpu time spent up to now is      297.7 secs

     total energy              =   -1373.23807146 Ry
     estimated scf accuracy    <       0.00000035 Ry

     iteration # 15     ecut=   150.00 Ry     beta= 0.70
     Davidson diagonalization with overlap
     ethr =  4.90E-10,  avg # of iterations =  2.6

     negative rho (up, down):  9.716E-05 0.000E+00

     total cpu time spent up to now is      314.1 secs

     total energy              =   -1373.23807146 Ry
     estimated scf accuracy    <       0.00000007 Ry

     iteration # 16     ecut=   150.00 Ry     beta= 0.70
     Davidson diagonalization with overlap
     ethr =  1.27E-10,  avg # of iterations =  5.3

     negative rho (up, down):  9.701E-05 0.000E+00

     total cpu time spent up to now is      332.9 secs

     total energy              =   -1373.23807148 Ry
     estimated scf accuracy    <          2.4E-09 Ry

     iteration # 17     ecut=   150.00 Ry     beta= 0.70
     Davidson diagonalization with overlap
     ethr =  4.11E-12,  avg # of iterations =  7.7

     negative rho (up, down):  9.688E-05 0.000E+00

     total cpu time spent up to now is      357.1 secs

     total energy              =   -1373.23807148 Ry
     estimated scf accuracy    <       0.00000001 Ry

     iteration # 18     ecut=   150.00 Ry     beta= 0.70
     Davidson diagonalization with overlap
     ethr =  4.11E-12,  avg # of iterations =  6.3

     negative rho (up, down):  9.689E-05 0.000E+00

     total cpu time spent up to now is      378.8 secs

     total energy              =   -1373.23807148 Ry
     estimated scf accuracy    <          2.0E-10 Ry

     iteration # 19     ecut=   150.00 Ry     beta= 0.70
     Davidson diagonalization with overlap
     ethr =  3.39E-13,  avg # of iterations =  6.7

     negative rho (up, down):  9.691E-05 0.000E+00

     total cpu time spent up to now is      398.0 secs

     total energy              =   -1373.23807148 Ry
     estimated scf accuracy    <          1.8E-10 Ry

     iteration # 20     ecut=   150.00 Ry     beta= 0.70
     Davidson diagonalization with overlap
     ethr =  3.17E-13,  avg # of iterations =  3.3

     negative rho (up, down):  9.691E-05 0.000E+00

     total cpu time spent up to now is      415.2 secs

     total energy              =   -1373.23807148 Ry
     estimated scf accuracy    <          9.5E-12 Ry

     iteration # 21     ecut=   150.00 Ry     beta= 0.70
     Davidson diagonalization with overlap
     ethr =  1.00E-13,  avg # of iterations =  5.8

     negative rho (up, down):  9.691E-05 0.000E+00

     total cpu time spent up to now is      434.4 secs

     total energy              =   -1373.23807148 Ry
     estimated scf accuracy    <          2.3E-11 Ry

     iteration # 22     ecut=   150.00 Ry     beta= 0.70
     Davidson diagonalization with overlap
     ethr =  1.00E-13,  avg # of iterations =  1.8

     negative rho (up, down):  9.691E-05 0.000E+00

     total cpu time spent up to now is      449.9 secs

     total energy              =   -1373.23807148 Ry
     estimated scf accuracy    <          8.3E-12 Ry

     iteration # 23     ecut=   150.00 Ry     beta= 0.70
     Davidson diagonalization with overlap
     ethr =  1.00E-13,  avg # of iterations =  1.5

     negative rho (up, down):  9.691E-05 0.000E+00

     total cpu time spent up to now is      464.7 secs

     End of self-consistent calculation

          k = 0.0000 0.0000 0.0000 ( 45955 PWs)   bands (ev):

   -67.8092 -67.7418 -34.9831 -34.2109 -33.9027 -33.9027 -33.8179 -33.8179
   -19.4291 -19.4140 -19.3842 -19.3842 -19.3825 -19.3825 -19.3453 -19.3453
   -19.3400 -19.3400 -19.3392 -19.3342 -19.2590 -19.2570 -13.1545  -7.6678
    -4.3891  -4.3891  -1.5022  -0.6780  -0.4845

          k = 0.0000 0.0740 0.0000 ( 46183 PWs)   bands (ev):

   -67.8060 -67.7398 -34.9731 -34.2162 -33.9397 -33.9162 -33.8524 -33.8221
   -19.4279 -19.4133 -19.3856 -19.3847 -19.3821 -19.3812 -19.3469 -19.3452
   -19.3404 -19.3396 -19.3368 -19.3320 -19.2612 -19.2593 -13.0743  -7.5145
    -4.6025  -4.3595  -1.4465  -0.8126  -0.3494

          k = 0.0000 0.1480 0.0000 ( 46275 PWs)   bands (ev):

   -67.7966 -67.7342 -34.9455 -34.2406 -34.0340 -33.9522 -33.9480 -33.8360
   -19.4245 -19.4115 -19.3888 -19.3854 -19.3817 -19.3782 -19.3506 -19.3450
   -19.3414 -19.3382 -19.3307 -19.3259 -19.2673 -19.2657 -12.8547  -7.0891
    -5.0934  -4.2920  -1.4028  -1.1334  -0.5180

          k = 0.0000 0.2219 0.0000 ( 46387 PWs)   bands (ev):

   -67.7825 -67.7262 -34.9065 -34.3224 -34.1273 -34.0801 -34.0018 -33.8593
   -19.4202 -19.4089 -19.3927 -19.3864 -19.3811 -19.3747 -19.3554 -19.3446
   -19.3426 -19.3359 -19.3218 -19.3170 -19.2761 -19.2747 -12.5537  -6.5504
    -5.5705  -4.2354  -1.8286  -1.2767  -0.7693

          k = 0.0000 0.2959 0.0000 ( 46443 PWs)   bands (ev):

   -67.7658 -67.7175 -34.8685 -34.4743 -34.2300 -34.1622 -34.0559 -33.8885
   -19.4176 -19.4048 -19.3963 -19.3875 -19.3808 -19.3715 -19.3599 -19.3438
   -19.3437 -19.3329 -19.3111 -19.3067 -19.2859 -19.2840 -12.2473  -6.4951
    -5.4706  -4.2291  -2.4617  -1.2508  -0.6701

          k = 0.0000 0.3699 0.0000 ( 46461 PWs)   bands (ev):

   -67.7491 -67.7100 -34.8501 -34.6335 -34.3373 -34.1912 -34.1056 -33.9178
   -19.4175 -19.3999 -19.3982 -19.3889 -19.3817 -19.3697 -19.3626 -19.3446
   -19.3426 -19.3297 -19.3006 -19.2968 -19.2951 -19.2918 -12.0013  -6.8164
    -5.0638  -4.2718  -2.9962  -0.9022  -0.3453

          k = 0.0000 0.4439 0.0000 ( 46443 PWs)   bands (ev):

   -67.7350 -67.7050 -34.8646 -34.7533 -34.3894 -34.2158 -34.1434 -33.9413
   -19.4186 -19.3993 -19.3956 -19.3901 -19.3834 -19.3693 -19.3631 -19.3452
   -19.3411 -19.3270 -19.3021 -19.2973 -19.2920 -19.2891 -11.8458  -7.0660
    -4.8717  -4.3308  -3.3635  -0.2390   0.1024

          k = 0.0000 0.5178 0.0000 ( 46495 PWs)   bands (ev):

   -67.7265 -67.7030 -34.8922 -34.8115 -34.3995 -34.2332 -34.1638 -33.9543
   -19.4194 -19.3988 -19.3950 -19.3908 -19.3839 -19.3694 -19.3629 -19.3455
   -19.3401 -19.3253 -19.3058 -19.3001 -19.2871 -19.2849 -11.7755  -7.1917
    -4.8296  -4.3705  -3.5479   0.3494   0.4560

          k = 0.0641 0.1110 0.0000 ( 46247 PWs)   bands (ev):

   -67.7996 -67.7360 -34.9543 -34.2304 -33.9982 -33.9641 -33.8958 -33.8375
   -19.4255 -19.4121 -19.3874 -19.3861 -19.3812 -19.3794 -19.3494 -19.3452
   -19.3409 -19.3388 -19.3326 -19.3279 -19.2654 -19.2637 -12.9243  -7.2226
    -4.9408  -4.3297  -1.3828  -1.0040  -0.4175

          k = 0.0641 0.1849 0.0000 ( 46366 PWs)   bands (ev):

   -67.7879 -67.7292 -34.9208 -34.2787 -34.0916 -34.0607 -33.9545 -33.8628
   -19.4215 -19.4101 -19.3907 -19.3874 -19.3804 -19.3762 -19.3535 -19.3452
   -19.3415 -19.3372 -19.3252 -19.3204 -19.2728 -19.2715 -12.6636  -6.7068
    -5.4210  -4.3223  -1.4753  -1.2190  -0.7911

          k = 0.0641 0.2589 0.0000 ( 46421 PWs)   bands (ev):

   -67.7725 -67.7209 -34.8816 -34.3966 -34.1973 -34.1413 -34.0215 -33.8923
   -19.4174 -19.4072 -19.3944 -19.3884 -19.3799 -19.3729 -19.3582 -19.3452
   -19.3419 -19.3347 -19.3154 -19.3107 -19.2821 -19.2808 -12.3595  -6.3030
    -5.6684  -4.3603  -2.0589  -1.1338  -0.8740

          k = 0.0641 0.3329 0.0000 ( 46465 PWs)   bands (ev):

   -67.7557 -67.7128 -34.8517 -34.5529 -34.3056 -34.1830 -34.0824 -33.9238
   -19.4159 -19.4026 -19.3972 -19.3895 -19.3802 -19.3705 -19.3619 -19.3453
   -19.3416 -19.3318 -19.3048 -19.3007 -19.2916 -19.2894 -12.0840  -6.5677
    -5.2323  -4.4274  -2.6238  -0.9410  -0.6749

          k = 0.0641 0.4069 0.0000 ( 46478 PWs)   bands (ev):

   -67.7402 -67.7066 -34.8483 -34.6920 -34.3743 -34.2185 -34.1281 -33.9521
   -19.4166 -19.3988 -19.3975 -19.3902 -19.3820 -19.3696 -19.3635 -19.3452
   -19.3410 -19.3289 -19.2999 -19.2965 -19.2949 -19.2918 -11.8858  -6.8702
    -4.9060  -4.4883  -3.0342  -0.5022  -0.2510

          k = 0.0641 0.4808 0.0000 ( 46507 PWs)   bands (ev):

   -67.7287 -67.7034 -34.8702 -34.7804 -34.3947 -34.2501 -34.1556 -33.9718
   -19.4177 -19.3988 -19.3952 -19.3904 -19.3835 -19.3696 -19.3637 -19.3452
   -19.3404 -19.3266 -19.3053 -19.3005 -19.2883 -19.2860 -11.7759  -7.0582
    -4.8054  -4.5400  -3.2720   0.0803   0.2224

          k = 0.0641 0.5548 0.0000 ( 46517 PWs)   bands (ev):

   -67.7242 -67.7027 -34.8854 -34.8085 -34.3946 -34.2641 -34.1649 -33.9788
   -19.4182 -19.3986 -19.3947 -19.3908 -19.3838 -19.3698 -19.3635 -19.3452
   -19.3401 -19.3258 -19.3073 -19.3018 -19.2859 -19.2839 -11.7420  -7.1207
    -4.7871  -4.5679  -3.3492   0.4017   0.4109

          k = 0.1281 0.2219 0.0000 ( 46419 PWs)   bands (ev):

   -67.7748 -67.7221 -34.8865 -34.3590 -34.2008 -34.1311 -33.9899 -33.9107
   -19.4169 -19.4085 -19.3927 -19.3901 -19.3790 -19.3737 -19.3574 -19.3457
   -19.3406 -19.3360 -19.3169 -19.3122 -19.2807 -19.2798 -12.3993  -6.1424
    -5.7978  -4.4847  -1.6714  -1.3465  -0.7163

          k = 0.1281 0.2959 0.0000 ( 46449 PWs)   bands (ev):

   -67.7593 -67.7144 -34.8534 -34.4798 -34.3143 -34.1692 -34.0540 -33.9555
   -19.4129 -19.4061 -19.3951 -19.3916 -19.3786 -19.3715 -19.3614 -19.3461
   -19.3395 -19.3343 -19.3071 -19.3028 -19.2896 -19.2888 -12.1263  -6.1966
    -5.4843  -4.6801  -2.1188  -1.2100  -0.4947

          k = 0.1281 0.3699 0.0000 ( 46483 PWs)   bands (ev):

   -67.7437 -67.7079 -34.8353 -34.6114 -34.3827 -34.2150 -34.1154 -33.9930
   -19.4123 -19.4014 -19.3970 -19.3918 -19.3797 -19.3704 -19.3641 -19.3458
   -19.3390 -19.3319 -19.2991 -19.2978 -19.2959 -19.2935 -11.9017  -6.5197
    -4.9749  -4.8260  -2.4871  -0.8459  -0.4321

          k = 0.1281 0.4439 0.0000 ( 46507 PWs)   bands (ev):

   -67.7303 -67.7038 -34.8383 -34.7168 -34.4020 -34.2740 -34.1507 -34.0223
   -19.4134 -19.3982 -19.3968 -19.3907 -19.3820 -19.3704 -19.3652 -19.3451
   -19.3395 -19.3295 -19.3055 -19.3023 -19.2894 -19.2868 -11.7545  -6.7521
    -4.9132  -4.7246  -2.7196  -0.3286  -0.1635

          k = 0.1281 0.5178 0.0000 ( 46494 PWs)   bands (ev):

   -67.7221 -67.7024 -34.8492 -34.7732 -34.3871 -34.3260 -34.1654 -34.0389
   -19.4143 -19.3985 -19.3943 -19.3901 -19.3834 -19.3706 -19.3655 -19.3443
   -19.3403 -19.3279 -19.3092 -19.3050 -19.2849 -19.2831 -11.6853  -6.8719
    -4.9420  -4.6729  -2.8356   0.0942   0.1712

          k = 0.1922 0.3329 0.0000 ( 46495 PWs)   bands (ev):

   -67.7449 -67.7083 -34.8307 -34.5613 -34.4094 -34.2003 -34.1070 -34.0232
   -19.4074 -19.4060 -19.3947 -19.3941 -19.3786 -19.3708 -19.3643 -19.3461
   -19.3367 -19.3346 -19.2993 -19.2980 -19.2963 -19.2940 -11.9051  -6.2741
    -5.1939  -4.8842  -2.0480  -1.3174  -0.1607

          k = 0.1922 0.4069 0.0000 ( 46477 PWs)   bands (ev):

   -67.7312 -67.7040 -34.8173 -34.6416 -34.4534 -34.2518 -34.1580 -34.0735
   -19.4077 -19.4016 -19.3954 -19.3925 -19.3802 -19.3710 -19.3664 -19.3453
   -19.3369 -19.3332 -19.3053 -19.3042 -19.2899 -19.2873 -11.7346  -6.4084
    -5.2681  -4.6757  -2.0425  -1.0266  -0.3223

          k = 0.1922 0.4808 0.0000 ( 46512 PWs)   bands (ev):

   -67.7207 -67.7023 -34.8065 -34.7082 -34.4525 -34.3221 -34.1755 -34.1083
   -19.4091 -19.3986 -19.3945 -19.3898 -19.3825 -19.3717 -19.3678 -19.3438
   -19.3390 -19.3312 -19.3106 -19.3083 -19.2844 -19.2826 -11.6317  -6.5283
    -5.3337  -4.5343  -2.1312  -0.4750  -0.2092

          k = 0.1922 0.5548 0.0000 ( 46519 PWs)   bands (ev):

   -67.7163 -67.7024 -34.7976 -34.7385 -34.4383 -34.3621 -34.1760 -34.1232
   -19.4096 -19.3982 -19.3929 -19.3891 -19.3833 -19.3720 -19.3683 -19.3424
   -19.3407 -19.3304 -19.3125 -19.3097 -19.2823 -19.2811 -11.5980  -6.5753
    -5.3496  -4.4999  -2.1785  -0.1747  -0.0998

          k = 0.2563 0.4439 0.0000 ( 46495 PWs)   bands (ev):

   -67.7202 -67.7023 -34.7885 -34.6528 -34.5174 -34.2934 -34.1994 -34.1341
   -19.4058 -19.3998 -19.3938 -19.3906 -19.3816 -19.3722 -19.3688 -19.3438
   -19.3370 -19.3339 -19.3107 -19.3101 -19.2842 -19.2824 -11.6098  -6.3098
    -5.5604  -4.4667  -1.4340  -1.1485  -0.3875

          k = 0.2563 0.5178 0.0000 ( 46500 PWs)   bands (ev):

   -67.7124 -67.7030 -34.7447 -34.6793 -34.5483 -34.3423 -34.2007 -34.1744
   -19.4062 -19.3970 -19.3930 -19.3876 -19.3832 -19.3732 -19.3709 -19.3418
   -19.3394 -19.3333 -19.3141 -19.3130 -19.2809 -19.2800 -11.5438  -6.2684
    -5.6976  -4.3530  -1.4051  -0.6754  -0.3897

          k = 0.3203 0.5548 0.0000 ( 46581 PWs)   bands (ev):

   -67.7064 -67.7064 -34.6618 -34.6618 -34.6461 -34.3545 -34.2035 -34.2035
   -19.4056 -19.3942 -19.3942 -19.3848 -19.3848 -19.3740 -19.3727 -19.3401
   -19.3401 -19.3345 -19.3150 -19.3150 -19.2794 -19.2794 -11.5118  -5.9989
    -5.9989  -4.2740  -0.8744  -0.7047  -0.7047

     highest occupied level (ev):     0.4560

!    total energy              =   -1373.23807148 Ry
     estimated scf accuracy    <          6.7E-13 Ry

     The total energy is the sum of the following terms:
     one-electron contribution =  -11015.51010909 Ry
     hartree contribution      =    5537.11896764 Ry
     xc contribution           =    -138.99523529 Ry
     ewald contribution        =    4244.14830525 Ry

     convergence has been achieved in  23 iterations

     negative rho (up, down):  9.691E-05 0.000E+00

     Forces acting on atoms (cartesian axes, Ry/au):

     atom    1 type  2   force =     0.00000000    0.00000000    0.00000000
     atom    2 type  1   force =    -0.00000000   -0.00000000   -0.06184773
     atom    3 type  1   force =     0.00000000    0.00000000    0.06184773

     Total force =     0.087466     Total SCF correction =     0.000011


     Computing stress (Cartesian axis) and pressure


     negative rho (up, down):  9.691E-05 0.000E+00
          total   stress  (Ry/bohr**3)                   (kbar)     P=       39.00
   0.00030612  -0.00000000   0.00000000           45.03       -0.00        0.00
  -0.00000000   0.00030612   0.00000000           -0.00       45.03        0.00
  -0.00000000  -0.00000000   0.00018308           -0.00       -0.00       26.93


     Writing output data file /scratch/as3359/Mos2_ct_lat/Ta2CH2.save/
 
     init_run     :     20.69s CPU     11.78s WALL (       1 calls)
     electrons    :    879.18s CPU    452.81s WALL (       1 calls)
     forces       :      8.01s CPU      4.22s WALL (       1 calls)
     stress       :     29.28s CPU     15.31s WALL (       1 calls)

     Called by init_run:
     wfcinit      :     12.92s CPU      6.67s WALL (       1 calls)
     potinit      :      1.87s CPU      0.95s WALL (       1 calls)
     hinit0       :      4.22s CPU      3.04s WALL (       1 calls)

     Called by electrons:
     c_bands      :    685.79s CPU    346.43s WALL (      23 calls)
     sum_band     :    149.14s CPU     79.72s WALL (      23 calls)
     v_of_rho     :      6.80s CPU      3.68s WALL (      24 calls)
     newd         :     36.16s CPU     22.45s WALL (      24 calls)
     mix_rho      :      2.70s CPU      1.41s WALL (      23 calls)

     Called by c_bands:
     init_us_2    :     15.49s CPU      7.76s WALL (    1323 calls)
     cegterg      :    640.52s CPU    323.66s WALL (     621 calls)

     Called by *egterg:
     cdiaghg      :      5.67s CPU      2.91s WALL (    3796 calls)
     h_psi        :    517.57s CPU    261.89s WALL (    3823 calls)
     s_psi        :     28.27s CPU     14.15s WALL (    3823 calls)
     g_psi        :      2.44s CPU      1.23s WALL (    3175 calls)

     Called by h_psi:
     h_psi:calbec :     21.38s CPU     10.74s WALL (    3823 calls)
     vloc_psi     :    461.63s CPU    233.74s WALL (    3823 calls)
     add_vuspsi   :     30.94s CPU     15.50s WALL (    3823 calls)

     General routines
     calbec       :     27.82s CPU     13.98s WALL (    4579 calls)
     fft          :      3.43s CPU      1.75s WALL (     289 calls)
     ffts         :      0.24s CPU      0.12s WALL (      23 calls)
     fftw         :    466.52s CPU    236.40s WALL (  118941 calls)
 
     Parallel routines
 
     PWSCF        :  15m38.96s CPU   8m 5.70s WALL

 
   This run was terminated on:  17:16:54   9Apr2022            

=------------------------------------------------------------------------------=
   JOB DONE.
=------------------------------------------------------------------------------=
