
     Program PWSCF v.6.8 starts on  9Apr2022 at 17:16:55 

     This program is part of the open-source Quantum ESPRESSO suite
     for quantum simulation of materials; please cite
         "P. Giannozzi et al., J. Phys.:Condens. Matter 21 395502 (2009);
         "P. Giannozzi et al., J. Phys.:Condens. Matter 29 465901 (2017);
         "P. Giannozzi et al., J. Chem. Phys. 152 154105 (2020);
          URL http://www.quantum-espresso.org", 
     in publications or presentations arising from this work. More details at
     http://www.quantum-espresso.org/quote

     Parallel version (MPI & OpenMP), running on       4 processor cores
     Number of MPI processes:                 2
     Threads/MPI process:                     2

     MPI processes distributed on     1 nodes
     R & G space division:  proc/nbgrp/npool/nimage =       2
     124983 MiB available memory on the printing compute node when the environment starts
 
     Reading input from Ta2CH2.scf.5.450.in
Warning: card  &CELL ignored
Warning: card     CELL_DYNAMICS='BFGS' ignored
Warning: card  / ignored

     Current dimensions of program PWSCF are:
     Max number of different atomic species (ntypx) = 10
     Max number of k-points (npk) =  40000
     Max angular momentum in pseudopotentials (lmaxx) =  4
     Message from routine iosys:
     restart disabled: needed files not found
     file Ta.pbesol-spfn-rrkjus_psl.1.0.0.UPF: wavefunction(s)  5S 5P renormalized
     Message from routine setup:
     using ibrav=0 with symmetry is DISCOURAGED, use correct ibrav instead

     Subspace diagonalization in iterative solution of the eigenvalue problem:
     a serial algorithm will be used

 
     Parallelization info
     --------------------
     sticks:   dense  smooth     PW     G-vecs:    dense   smooth      PW
     Min         666     666    187               188276   188276   28068
     Max         667     667    192               188301   188301   28071
     Sum        1333    1333    379               376577   376577   56139
 
     Using Slab Decomposition
 


     bravais-lattice index     =            0
     lattice parameter (alat)  =       5.4500  a.u.
     unit-cell volume          =    1518.1083 (a.u.)^3
     number of atoms/cell      =            3
     number of atomic types    =            2
     number of electrons       =        58.00
     number of Kohn-Sham states=           29
     kinetic-energy cutoff     =     150.0000  Ry
     charge density cutoff     =     600.0000  Ry
     scf convergence threshold =      1.0E-12
     mixing beta               =       0.7000
     number of iterations used =            8  plain     mixing
     Exchange-correlation= PBESOL
                           (   1   4  10   8   0   0   0)

     celldm(1)=   5.450000  celldm(2)=   0.000000  celldm(3)=   0.000000
     celldm(4)=   0.000000  celldm(5)=   0.000000  celldm(6)=   0.000000

     crystal axes: (cart. coord. in units of alat)
               a(1) = (   1.040618   0.000000   0.000000 )  
               a(2) = (  -0.520309   0.901202   0.000000 )  
               a(3) = (   0.000000   0.000000  10.000000 )  

     reciprocal axes: (cart. coord. in units 2 pi/alat)
               b(1) = (  0.960967  0.554815  0.000000 )  
               b(2) = (  0.000000  1.109630  0.000000 )  
               b(3) = (  0.000000  0.000000  0.100000 )  


     PseudoPot. # 1 for Ta read from file:
     /shared/home/as3359/pseudo/Ta.pbesol-spfn-rrkjus_psl.1.0.0.UPF
     MD5 check sum: f099565ffaca9b150a52e9412a28e20b
     Pseudo is Ultrasoft + core correction, Zval = 27.0
     Generated using &quot;atomic&quot; code by A. Dal Corso  v.6.3
     Using radial grid of 1273 points,  8 beta functions with: 
                l(1) =   0
                l(2) =   0
                l(3) =   1
                l(4) =   1
                l(5) =   2
                l(6) =   2
                l(7) =   3
                l(8) =   3
     Q(r) pseudized with 0 coefficients 


     PseudoPot. # 2 for C  read from file:
     /shared/home/as3359/pseudo/C.pbesol-n-rrkjus_psl.1.0.0.UPF
     MD5 check sum: 05995be603a8a7c99da3dc4413f31573
     Pseudo is Ultrasoft + core correction, Zval =  4.0
     Generated using &quot;atomic&quot; code by A. Dal Corso  v.6.3MaX
     Using radial grid of 1073 points,  4 beta functions with: 
                l(1) =   0
                l(2) =   0
                l(3) =   1
                l(4) =   1
     Q(r) pseudized with 0 coefficients 


     atomic species   valence    mass     pseudopotential
        Ta            27.00   180.94788     Ta( 1.00)
        C              4.00    12.01070     C ( 1.00)

     12 Sym. Ops., with inversion, found



   Cartesian axes

     site n.     atom                  positions (alat units)
         1           C   tau(   1) = (   0.0000000   0.0000000   0.0000000  )
         2           Ta  tau(   2) = (   0.5203090   0.3004005  -0.4101496  )
         3           Ta  tau(   3) = (  -0.0000000   0.6008011   0.4101496  )

     number of k points=    27
                       cart. coord. in units 2pi/alat
        k(    1) = (   0.0000000   0.0000000   0.0000000), wk =   0.0088889
        k(    2) = (   0.0000000   0.0739753   0.0000000), wk =   0.0533333
        k(    3) = (   0.0000000   0.1479506   0.0000000), wk =   0.0533333
        k(    4) = (   0.0000000   0.2219259   0.0000000), wk =   0.0533333
        k(    5) = (   0.0000000   0.2959012   0.0000000), wk =   0.0533333
        k(    6) = (   0.0000000   0.3698766   0.0000000), wk =   0.0533333
        k(    7) = (   0.0000000   0.4438519   0.0000000), wk =   0.0533333
        k(    8) = (   0.0000000   0.5178272   0.0000000), wk =   0.0533333
        k(    9) = (   0.0640645   0.1109630   0.0000000), wk =   0.0533333
        k(   10) = (   0.0640645   0.1849383   0.0000000), wk =   0.1066667
        k(   11) = (   0.0640645   0.2589136   0.0000000), wk =   0.1066667
        k(   12) = (   0.0640645   0.3328889   0.0000000), wk =   0.1066667
        k(   13) = (   0.0640645   0.4068642   0.0000000), wk =   0.1066667
        k(   14) = (   0.0640645   0.4808395   0.0000000), wk =   0.1066667
        k(   15) = (   0.0640645   0.5548148   0.0000000), wk =   0.0533333
        k(   16) = (   0.1281290   0.2219259   0.0000000), wk =   0.0533333
        k(   17) = (   0.1281290   0.2959012   0.0000000), wk =   0.1066667
        k(   18) = (   0.1281290   0.3698766   0.0000000), wk =   0.1066667
        k(   19) = (   0.1281290   0.4438519   0.0000000), wk =   0.1066667
        k(   20) = (   0.1281290   0.5178272   0.0000000), wk =   0.1066667
        k(   21) = (   0.1921935   0.3328889   0.0000000), wk =   0.0533333
        k(   22) = (   0.1921935   0.4068642   0.0000000), wk =   0.1066667
        k(   23) = (   0.1921935   0.4808395   0.0000000), wk =   0.1066667
        k(   24) = (   0.1921935   0.5548148   0.0000000), wk =   0.0533333
        k(   25) = (   0.2562580   0.4438519   0.0000000), wk =   0.0533333
        k(   26) = (   0.2562580   0.5178272   0.0000000), wk =   0.1066667
        k(   27) = (   0.3203225   0.5548148   0.0000000), wk =   0.0177778

     Dense  grid:   376577 G-vectors     FFT dimensions: (  45,  45, 432)

     Estimated max dynamical RAM per process >       2.06 GB

     Estimated total dynamical RAM >       4.13 GB
     Cannot read rho : file not found

     Initial potential from superposition of free atoms

     starting charge   57.99842, renormalised to   58.00000

     negative rho (up, down):  9.482E-05 0.000E+00
     Message from routine qexsd_readschema :
     xml data file /scratch/as3359/Mos2_ct_lat/Ta2CH2.save/data-file-schema.xml not f
     Cannot read wfcs: file not found
     Starting wfcs are   38 randomized atomic wfcs

     total cpu time spent up to now is       12.0 secs

     Self-consistent Calculation

     iteration #  1     ecut=   150.00 Ry     beta= 0.70
     Davidson diagonalization with overlap
     ethr =  1.00E-05,  avg # of iterations = 12.2

     negative rho (up, down):  8.872E-05 0.000E+00

     total cpu time spent up to now is       47.9 secs

     total energy              =   -1372.38563093 Ry
     estimated scf accuracy    <       1.41382943 Ry

     iteration #  2     ecut=   150.00 Ry     beta= 0.70
     Davidson diagonalization with overlap
     c_bands:  1 eigenvalues not converged
     ethr =  2.44E-03,  avg # of iterations =  9.4

     total cpu time spent up to now is       71.9 secs

     total energy              =   -1371.01260285 Ry
     estimated scf accuracy    <      13.94524210 Ry

     iteration #  3     ecut=   150.00 Ry     beta= 0.70
     Davidson diagonalization with overlap
     ethr =  2.44E-03,  avg # of iterations =  7.4

     total cpu time spent up to now is       93.9 secs

     total energy              =   -1373.20661063 Ry
     estimated scf accuracy    <       0.24731483 Ry

     iteration #  4     ecut=   150.00 Ry     beta= 0.70
     Davidson diagonalization with overlap
     ethr =  4.26E-04,  avg # of iterations =  4.0

     total cpu time spent up to now is      111.3 secs

     total energy              =   -1373.24658632 Ry
     estimated scf accuracy    <       0.04741272 Ry

     iteration #  5     ecut=   150.00 Ry     beta= 0.70
     Davidson diagonalization with overlap
     ethr =  8.17E-05,  avg # of iterations =  3.7

     total cpu time spent up to now is      128.2 secs

     total energy              =   -1373.24598139 Ry
     estimated scf accuracy    <       0.02648752 Ry

     iteration #  6     ecut=   150.00 Ry     beta= 0.70
     Davidson diagonalization with overlap
     ethr =  4.57E-05,  avg # of iterations =  2.4

     total cpu time spent up to now is      143.5 secs

     total energy              =   -1373.24191924 Ry
     estimated scf accuracy    <       0.01286973 Ry

     iteration #  7     ecut=   150.00 Ry     beta= 0.70
     Davidson diagonalization with overlap
     ethr =  2.22E-05,  avg # of iterations =  3.1

     total cpu time spent up to now is      160.1 secs

     total energy              =   -1373.24258687 Ry
     estimated scf accuracy    <       0.00168925 Ry

     iteration #  8     ecut=   150.00 Ry     beta= 0.70
     Davidson diagonalization with overlap
     ethr =  2.91E-06,  avg # of iterations =  6.3

     negative rho (up, down):  6.318E-03 0.000E+00

     total cpu time spent up to now is      178.4 secs

     total energy              =   -1373.24314297 Ry
     estimated scf accuracy    <       0.00054954 Ry

     iteration #  9     ecut=   150.00 Ry     beta= 0.70
     Davidson diagonalization with overlap
     ethr =  9.47E-07,  avg # of iterations =  3.9

     negative rho (up, down):  1.475E-07 0.000E+00

     total cpu time spent up to now is      195.4 secs

     total energy              =   -1373.24299990 Ry
     estimated scf accuracy    <       0.00018966 Ry

     iteration # 10     ecut=   150.00 Ry     beta= 0.70
     Davidson diagonalization with overlap
     ethr =  3.27E-07,  avg # of iterations =  2.4

     negative rho (up, down):  4.561E-04 0.000E+00

     total cpu time spent up to now is      211.4 secs

     total energy              =   -1373.24300814 Ry
     estimated scf accuracy    <       0.00005703 Ry

     iteration # 11     ecut=   150.00 Ry     beta= 0.70
     Davidson diagonalization with overlap
     ethr =  9.83E-08,  avg # of iterations =  5.7

     negative rho (up, down):  9.879E-05 0.000E+00

     total cpu time spent up to now is      230.0 secs

     total energy              =   -1373.24301801 Ry
     estimated scf accuracy    <       0.00000364 Ry

     iteration # 12     ecut=   150.00 Ry     beta= 0.70
     Davidson diagonalization with overlap
     ethr =  6.28E-09,  avg # of iterations =  7.1

     negative rho (up, down):  9.791E-05 0.000E+00

     total cpu time spent up to now is      251.0 secs

     total energy              =   -1373.24301950 Ry
     estimated scf accuracy    <       0.00000037 Ry

     iteration # 13     ecut=   150.00 Ry     beta= 0.70
     Davidson diagonalization with overlap
     ethr =  6.45E-10,  avg # of iterations =  5.1

     negative rho (up, down):  9.941E-05 0.000E+00

     total cpu time spent up to now is      270.3 secs

     total energy              =   -1373.24301958 Ry
     estimated scf accuracy    <       0.00000003 Ry

     iteration # 14     ecut=   150.00 Ry     beta= 0.70
     Davidson diagonalization with overlap
     ethr =  6.01E-11,  avg # of iterations =  6.6

     negative rho (up, down):  9.996E-05 0.000E+00

     total cpu time spent up to now is      293.8 secs

     total energy              =   -1373.24301960 Ry
     estimated scf accuracy    <       0.00000003 Ry

     iteration # 15     ecut=   150.00 Ry     beta= 0.70
     Davidson diagonalization with overlap
     ethr =  5.46E-11,  avg # of iterations =  3.4

     negative rho (up, down):  9.970E-05 0.000E+00

     total cpu time spent up to now is      310.8 secs

     total energy              =   -1373.24301960 Ry
     estimated scf accuracy    <          2.5E-10 Ry

     iteration # 16     ecut=   150.00 Ry     beta= 0.70
     Davidson diagonalization with overlap
     c_bands:  1 eigenvalues not converged
     ethr =  4.27E-13,  avg # of iterations = 11.6

     negative rho (up, down):  9.955E-05 0.000E+00

     total cpu time spent up to now is      342.6 secs

     total energy              =   -1373.24301960 Ry
     estimated scf accuracy    <          2.5E-09 Ry

     iteration # 17     ecut=   150.00 Ry     beta= 0.70
     Davidson diagonalization with overlap
     ethr =  4.27E-13,  avg # of iterations =  6.7

     negative rho (up, down):  9.952E-05 0.000E+00

     total cpu time spent up to now is      364.0 secs

     total energy              =   -1373.24301960 Ry
     estimated scf accuracy    <          9.3E-11 Ry

     iteration # 18     ecut=   150.00 Ry     beta= 0.70
     Davidson diagonalization with overlap
     ethr =  1.60E-13,  avg # of iterations =  5.9

     negative rho (up, down):  9.953E-05 0.000E+00

     total cpu time spent up to now is      383.5 secs

     total energy              =   -1373.24301960 Ry
     estimated scf accuracy    <          1.8E-12 Ry

     iteration # 19     ecut=   150.00 Ry     beta= 0.70
     Davidson diagonalization with overlap
     ethr =  1.00E-13,  avg # of iterations =  1.1

     negative rho (up, down):  9.953E-05 0.000E+00

     total cpu time spent up to now is      397.8 secs

     total energy              =   -1373.24301960 Ry
     estimated scf accuracy    <          1.1E-12 Ry

     iteration # 20     ecut=   150.00 Ry     beta= 0.70
     Davidson diagonalization with overlap
     ethr =  1.00E-13,  avg # of iterations =  1.0

     negative rho (up, down):  9.953E-05 0.000E+00

     total cpu time spent up to now is      411.9 secs

     End of self-consistent calculation

          k = 0.0000 0.0000 0.0000 ( 46917 PWs)   bands (ev):

   -67.9058 -67.8426 -35.0483 -34.3123 -34.0058 -34.0058 -33.9244 -33.9244
   -19.5347 -19.5198 -19.4911 -19.4911 -19.4882 -19.4882 -19.4534 -19.4534
   -19.4474 -19.4474 -19.4446 -19.4393 -19.3678 -19.3659 -13.1742  -7.6566
    -4.3905  -4.3905  -1.5717  -0.7240  -0.5289

          k = 0.0000 0.0740 0.0000 ( 46865 PWs)   bands (ev):

   -67.9028 -67.8407 -35.0388 -34.3172 -34.0411 -34.0185 -33.9573 -33.9284
   -19.5335 -19.5191 -19.4924 -19.4915 -19.4880 -19.4870 -19.4549 -19.4533
   -19.4477 -19.4469 -19.4424 -19.4372 -19.3699 -19.3681 -13.0955  -7.5060
    -4.6039  -4.3623  -1.5134  -0.8561  -0.3960

          k = 0.0000 0.1480 0.0000 ( 46981 PWs)   bands (ev):

   -67.8940 -67.8355 -35.0122 -34.3394 -34.1319 -34.0528 -34.0486 -33.9418
   -19.5303 -19.5173 -19.4954 -19.4922 -19.4878 -19.4843 -19.4583 -19.4530
   -19.4486 -19.4456 -19.4364 -19.4315 -19.3757 -19.3742 -12.8796  -7.0875
    -5.0946  -4.2981  -1.4602  -1.1723  -0.5683

          k = 0.0000 0.2219 0.0000 ( 47061 PWs)   bands (ev):

   -67.8808 -67.8280 -34.9746 -34.4126 -34.2250 -34.1754 -34.1000 -33.9642
   -19.5261 -19.5148 -19.4992 -19.4932 -19.4876 -19.4811 -19.4628 -19.4524
   -19.4497 -19.4433 -19.4278 -19.4230 -19.3840 -19.3827 -12.5821  -6.5532
    -5.5764  -4.2454  -1.8568  -1.3254  -0.8233

          k = 0.0000 0.2959 0.0000 ( 47059 PWs)   bands (ev):

   -67.8651 -67.8198 -34.9373 -34.5539 -34.3193 -34.2622 -34.1515 -33.9922
   -19.5232 -19.5110 -19.5027 -19.4944 -19.4878 -19.4783 -19.4669 -19.4513
   -19.4508 -19.4405 -19.4176 -19.4132 -19.3934 -19.3917 -12.2762  -6.4908
    -5.4917  -4.2419  -2.4784  -1.2994  -0.7287

          k = 0.0000 0.3699 0.0000 ( 47087 PWs)   bands (ev):

   -67.8494 -67.8127 -34.9174 -34.7051 -34.4231 -34.2917 -34.1989 -34.0202
   -19.5227 -19.5065 -19.5047 -19.4957 -19.4891 -19.4768 -19.4693 -19.4516
   -19.4498 -19.4374 -19.4075 -19.4038 -19.4023 -19.3993 -12.0268  -6.8142
    -5.0857  -4.2859  -3.0049  -0.9605  -0.4107

          k = 0.0000 0.4439 0.0000 ( 47111 PWs)   bands (ev):

   -67.8362 -67.8081 -34.9273 -34.8206 -34.4753 -34.3156 -34.2350 -34.0426
   -19.5235 -19.5057 -19.5026 -19.4969 -19.4908 -19.4766 -19.4699 -19.4521
   -19.4482 -19.4348 -19.4090 -19.4047 -19.3993 -19.3965 -11.8659  -7.0672
    -4.8889  -4.3450  -3.3668  -0.3097   0.0260

          k = 0.0000 0.5178 0.0000 ( 47142 PWs)   bands (ev):

   -67.8282 -67.8062 -34.9507 -34.8776 -34.4867 -34.3324 -34.2545 -34.0551
   -19.5243 -19.5053 -19.5019 -19.4976 -19.4914 -19.4768 -19.4698 -19.4524
   -19.4471 -19.4332 -19.4126 -19.4074 -19.3946 -19.3925 -11.7915  -7.1951
    -4.8437  -4.3846  -3.5483   0.2710   0.3709

          k = 0.0641 0.1110 0.0000 ( 46917 PWs)   bands (ev):

   -67.8968 -67.8371 -35.0207 -34.3302 -34.0973 -34.0639 -33.9991 -33.9431
   -19.5313 -19.5179 -19.4941 -19.4926 -19.4874 -19.4853 -19.4572 -19.4532
   -19.4482 -19.4462 -19.4383 -19.4333 -19.3739 -19.3722 -12.9481  -7.2190
    -4.9419  -4.3347  -1.4457  -1.0428  -0.4666

          k = 0.0641 0.1849 0.0000 ( 46993 PWs)   bands (ev):

   -67.8858 -67.8308 -34.9884 -34.3735 -34.1884 -34.1566 -34.0551 -33.9674
   -19.5274 -19.5159 -19.4973 -19.4940 -19.4869 -19.4825 -19.4611 -19.4530
   -19.4488 -19.4446 -19.4311 -19.4262 -19.3809 -19.3797 -12.6911  -6.7107
    -5.4227  -4.3302  -1.5164  -1.2642  -0.8409

          k = 0.0641 0.2589 0.0000 ( 47046 PWs)   bands (ev):

   -67.8714 -67.8230 -34.9503 -34.4811 -34.2882 -34.2398 -34.1190 -33.9957
   -19.5234 -19.5131 -19.5008 -19.4952 -19.4867 -19.4796 -19.4653 -19.4527
   -19.4491 -19.4422 -19.4217 -19.4170 -19.3898 -19.3886 -12.3890  -6.3038
    -5.6826  -4.3704  -2.0821  -1.1843  -0.9260

          k = 0.0641 0.3329 0.0000 ( 47087 PWs)   bands (ev):

   -67.8557 -67.8154 -34.9202 -34.6284 -34.3919 -34.2825 -34.1773 -34.0259
   -19.5215 -19.5090 -19.5036 -19.4963 -19.4875 -19.4776 -19.4687 -19.4524
   -19.4489 -19.4394 -19.4115 -19.4075 -19.3989 -19.3969 -12.1120  -6.5665
    -5.2552  -4.4388  -2.6384  -0.9952  -0.7326

          k = 0.0641 0.4069 0.0000 ( 47137 PWs)   bands (ev):

   -67.8411 -67.8096 -34.9138 -34.7614 -34.4597 -34.3165 -34.2219 -34.0530
   -19.5218 -19.5052 -19.5044 -19.4970 -19.4893 -19.4769 -19.4702 -19.4522
   -19.4482 -19.4366 -19.4069 -19.4038 -19.4021 -19.3991 -11.9091  -6.8721
    -4.9260  -4.5011  -3.0427  -0.5667  -0.3184

          k = 0.0641 0.4808 0.0000 ( 47128 PWs)   bands (ev):

   -67.8303 -67.8066 -34.9311 -34.8473 -34.4813 -34.3460 -34.2490 -34.0718
   -19.5227 -19.5053 -19.5021 -19.4973 -19.4910 -19.4770 -19.4704 -19.4521
   -19.4475 -19.4345 -19.4121 -19.4076 -19.3958 -19.3935 -11.7943  -7.0628
    -4.8210  -4.5529  -3.2769   0.0067   0.1429

          k = 0.0641 0.5548 0.0000 ( 47135 PWs)   bands (ev):

   -67.8261 -67.8059 -34.9439 -34.8750 -34.4820 -34.3592 -34.2581 -34.0785
   -19.5231 -19.5051 -19.5016 -19.4976 -19.4913 -19.4771 -19.4703 -19.4521
   -19.4472 -19.4337 -19.4140 -19.4090 -19.3934 -19.3916 -11.7583  -7.1264
    -4.8016  -4.5802  -3.3529   0.3223   0.3283

          k = 0.1281 0.2219 0.0000 ( 47055 PWs)   bands (ev):

   -67.8736 -67.8241 -34.9552 -34.4467 -34.2899 -34.2301 -34.0890 -34.0131
   -19.5231 -19.5142 -19.4993 -19.4967 -19.4859 -19.4803 -19.4647 -19.4532
   -19.4480 -19.4434 -19.4231 -19.4184 -19.3884 -19.3876 -12.4290  -6.1538
    -5.8006  -4.4933  -1.6973  -1.3974  -0.7681

          k = 0.1281 0.2959 0.0000 ( 47102 PWs)   bands (ev):

   -67.8590 -67.8169 -34.9224 -34.5594 -34.3995 -34.2684 -34.1503 -34.0561
   -19.5190 -19.5119 -19.5016 -19.4984 -19.4858 -19.4785 -19.4682 -19.4533
   -19.4468 -19.4418 -19.4137 -19.4095 -19.3970 -19.3962 -12.1559  -6.2012
    -5.5032  -4.6888  -2.1415  -1.2574  -0.5510

          k = 0.1281 0.3699 0.0000 ( 47145 PWs)   bands (ev):

   -67.8443 -67.8108 -34.9029 -34.6843 -34.4666 -34.3118 -34.2104 -34.0922
   -19.5179 -19.5078 -19.5035 -19.4986 -19.4871 -19.4777 -19.4707 -19.4529
   -19.4463 -19.4395 -19.4061 -19.4049 -19.4031 -19.4006 -11.9282  -6.5263
    -4.9967  -4.8356  -2.5049  -0.8984  -0.4918

          k = 0.1281 0.4439 0.0000 ( 47142 PWs)   bands (ev):

   -67.8318 -67.8069 -34.9025 -34.7857 -34.4868 -34.3664 -34.2463 -34.1202
   -19.5187 -19.5049 -19.5034 -19.4976 -19.4894 -19.4777 -19.4717 -19.4520
   -19.4467 -19.4372 -19.4122 -19.4092 -19.3968 -19.3943 -11.7765  -6.7609
    -4.9232  -4.7451  -2.7331  -0.3923  -0.2309

          k = 0.1281 0.5178 0.0000 ( 47144 PWs)   bands (ev):

   -67.8241 -67.8057 -34.9100 -34.8411 -34.4740 -34.4152 -34.2615 -34.1360
   -19.5195 -19.5050 -19.5011 -19.4970 -19.4910 -19.4780 -19.4720 -19.4512
   -19.4474 -19.4357 -19.4157 -19.4120 -19.3925 -19.3908 -11.7040  -6.8821
    -4.9531  -4.6904  -2.8466   0.0208   0.0966

          k = 0.1922 0.3329 0.0000 ( 47117 PWs)   bands (ev):

   -67.8454 -67.8112 -34.8990 -34.6367 -34.4914 -34.2982 -34.2013 -34.1214
   -19.5139 -19.5115 -19.5013 -19.5008 -19.4860 -19.4781 -19.4709 -19.4532
   -19.4441 -19.4420 -19.4063 -19.4051 -19.4034 -19.4011 -11.9329  -6.2858
    -5.2054  -4.9006  -2.0745  -1.3586  -0.2174

          k = 0.1922 0.4069 0.0000 ( 47153 PWs)   bands (ev):

   -67.8327 -67.8071 -34.8839 -34.7134 -34.5348 -34.3453 -34.2519 -34.1704
   -19.5134 -19.5081 -19.5020 -19.4994 -19.4876 -19.4785 -19.4728 -19.4523
   -19.4442 -19.4407 -19.4120 -19.4110 -19.3973 -19.3947 -11.7592  -6.4230
    -5.2757  -4.6986  -2.0693  -1.0716  -0.3803

          k = 0.1922 0.4808 0.0000 ( 47135 PWs)   bands (ev):

   -67.8228 -67.8056 -34.8712 -34.7782 -34.5343 -34.4107 -34.2713 -34.2036
   -19.5146 -19.5053 -19.5012 -19.4969 -19.4898 -19.4792 -19.4740 -19.4508
   -19.4462 -19.4388 -19.4170 -19.4150 -19.3920 -19.3903 -11.6533  -6.5434
    -5.3440  -4.5566  -2.1540  -0.5328  -0.2727

          k = 0.1922 0.5548 0.0000 ( 47153 PWs)   bands (ev):

   -67.8187 -67.8056 -34.8605 -34.8088 -34.5202 -34.4489 -34.2732 -34.2173
   -19.5151 -19.5048 -19.4999 -19.4960 -19.4909 -19.4795 -19.4745 -19.4494
   -19.4479 -19.4380 -19.4188 -19.4164 -19.3900 -19.3888 -11.6182  -6.5904
    -5.3612  -4.5216  -2.1997  -0.2403  -0.1660

          k = 0.2563 0.4439 0.0000 ( 47133 PWs)   bands (ev):

   -67.8223 -67.8055 -34.8550 -34.7247 -34.5956 -34.3827 -34.2921 -34.2308
   -19.5115 -19.5065 -19.5006 -19.4976 -19.4890 -19.4798 -19.4749 -19.4509
   -19.4442 -19.4413 -19.4172 -19.4166 -19.3918 -19.3901 -11.6326  -6.3281
    -5.5694  -4.4917  -1.4741  -1.1860  -0.4456

          k = 0.2563 0.5178 0.0000 ( 47153 PWs)   bands (ev):

   -67.8150 -67.8062 -34.8119 -34.7514 -34.6242 -34.4270 -34.2952 -34.2704
   -19.5120 -19.5038 -19.5000 -19.4948 -19.4906 -19.4808 -19.4766 -19.4489
   -19.4465 -19.4408 -19.4204 -19.4194 -19.3887 -19.3878 -11.5655  -6.2858
    -5.7100  -4.3796  -1.4403  -0.7270  -0.4481

          k = 0.3203 0.5548 0.0000 ( 47139 PWs)   bands (ev):

   -67.8094 -67.8094 -34.7359 -34.7359 -34.7133 -34.4359 -34.2993 -34.2993
   -19.5115 -19.5011 -19.5011 -19.4921 -19.4921 -19.4816 -19.4781 -19.4473
   -19.4473 -19.4419 -19.4213 -19.4213 -19.3872 -19.3872 -11.5336  -6.0146
    -6.0146  -4.3029  -0.9185  -0.7559  -0.7559

     highest occupied level (ev):     0.3709

!    total energy              =   -1373.24301960 Ry
     estimated scf accuracy    <          4.3E-14 Ry

     The total energy is the sum of the following terms:
     one-electron contribution =  -10976.25934910 Ry
     hartree contribution      =    5517.28454556 Ry
     xc contribution           =    -138.94795111 Ry
     ewald contribution        =    4224.67973504 Ry

     convergence has been achieved in  20 iterations

     negative rho (up, down):  9.953E-05 0.000E+00

     Forces acting on atoms (cartesian axes, Ry/au):

     atom    1 type  2   force =     0.00000000   -0.00000000    0.00000000
     atom    2 type  1   force =    -0.00000000   -0.00000000   -0.04870612
     atom    3 type  1   force =    -0.00000000   -0.00000000    0.04870612

     Total force =     0.068881     Total SCF correction =     0.000000


     Computing stress (Cartesian axis) and pressure


     negative rho (up, down):  9.953E-05 0.000E+00
          total   stress  (Ry/bohr**3)                   (kbar)     P=       30.88
   0.00024348  -0.00000000   0.00000000           35.82       -0.00        0.00
  -0.00000000   0.00024348   0.00000000           -0.00       35.82        0.00
   0.00000000   0.00000000   0.00014270            0.00        0.00       20.99


     Writing output data file /scratch/as3359/Mos2_ct_lat/Ta2CH2.save/
 
     init_run     :     20.73s CPU     11.85s WALL (       1 calls)
     electrons    :    776.49s CPU    399.96s WALL (       1 calls)
     forces       :      8.18s CPU      4.30s WALL (       1 calls)
     stress       :     29.96s CPU     15.66s WALL (       1 calls)

     Called by init_run:
     wfcinit      :     12.82s CPU      6.64s WALL (       1 calls)
     potinit      :      1.91s CPU      0.98s WALL (       1 calls)
     hinit0       :      4.29s CPU      3.09s WALL (       1 calls)

     Called by electrons:
     c_bands      :    610.75s CPU    308.34s WALL (      20 calls)
     sum_band     :    126.73s CPU     67.86s WALL (      20 calls)
     v_of_rho     :      5.86s CPU      3.19s WALL (      21 calls)
     newd         :     32.19s CPU     20.04s WALL (      21 calls)
     mix_rho      :      2.43s CPU      1.44s WALL (      20 calls)

     Called by c_bands:
     init_us_2    :     14.20s CPU      7.11s WALL (    1161 calls)
     cegterg      :    568.62s CPU    287.15s WALL (     540 calls)

     Called by *egterg:
     cdiaghg      :      5.36s CPU      2.74s WALL (    3484 calls)
     h_psi        :    453.29s CPU    229.27s WALL (    3511 calls)
     s_psi        :     26.72s CPU     13.38s WALL (    3511 calls)
     g_psi        :      2.84s CPU      1.43s WALL (    2944 calls)

     Called by h_psi:
     h_psi:calbec :     19.90s CPU      9.98s WALL (    3511 calls)
     vloc_psi     :    400.36s CPU    202.65s WALL (    3511 calls)
     add_vuspsi   :     29.51s CPU     14.78s WALL (    3511 calls)

     General routines
     calbec       :     25.68s CPU     12.88s WALL (    4186 calls)
     fft          :      2.83s CPU      1.45s WALL (     256 calls)
     ffts         :      0.20s CPU      0.10s WALL (      20 calls)
     fftw         :    405.98s CPU    205.63s WALL (  107794 calls)
 
     Parallel routines
 
     PWSCF        :  13m57.20s CPU   7m13.40s WALL

 
   This run was terminated on:  17:24: 9   9Apr2022            

=------------------------------------------------------------------------------=
   JOB DONE.
=------------------------------------------------------------------------------=
