
     Program PWSCF v.6.8 starts on  9Apr2022 at 18:52: 5 

     This program is part of the open-source Quantum ESPRESSO suite
     for quantum simulation of materials; please cite
         "P. Giannozzi et al., J. Phys.:Condens. Matter 21 395502 (2009);
         "P. Giannozzi et al., J. Phys.:Condens. Matter 29 465901 (2017);
         "P. Giannozzi et al., J. Chem. Phys. 152 154105 (2020);
          URL http://www.quantum-espresso.org", 
     in publications or presentations arising from this work. More details at
     http://www.quantum-espresso.org/quote

     Parallel version (MPI & OpenMP), running on       4 processor cores
     Number of MPI processes:                 2
     Threads/MPI process:                     2

     MPI processes distributed on     1 nodes
     R & G space division:  proc/nbgrp/npool/nimage =       2
     124958 MiB available memory on the printing compute node when the environment starts
 
     Reading input from Ta2CH2.scf.5.775.in
Warning: card  &CELL ignored
Warning: card     CELL_DYNAMICS='BFGS' ignored
Warning: card  / ignored

     Current dimensions of program PWSCF are:
     Max number of different atomic species (ntypx) = 10
     Max number of k-points (npk) =  40000
     Max angular momentum in pseudopotentials (lmaxx) =  4
     Message from routine iosys:
     restart disabled: needed files not found
     file Ta.pbesol-spfn-rrkjus_psl.1.0.0.UPF: wavefunction(s)  5S 5P renormalized
     Message from routine setup:
     using ibrav=0 with symmetry is DISCOURAGED, use correct ibrav instead

     Subspace diagonalization in iterative solution of the eigenvalue problem:
     a serial algorithm will be used

 
     Parallelization info
     --------------------
     sticks:   dense  smooth     PW     G-vecs:    dense   smooth      PW
     Min         747     747    210               224239   224239   33192
     Max         748     748    211               224250   224250   33225
     Sum        1495    1495    421               448489   448489   66417
 
     Using Slab Decomposition
 


     bravais-lattice index     =            0
     lattice parameter (alat)  =       5.7750  a.u.
     unit-cell volume          =    1806.2141 (a.u.)^3
     number of atoms/cell      =            3
     number of atomic types    =            2
     number of electrons       =        58.00
     number of Kohn-Sham states=           29
     kinetic-energy cutoff     =     150.0000  Ry
     charge density cutoff     =     600.0000  Ry
     scf convergence threshold =      1.0E-12
     mixing beta               =       0.7000
     number of iterations used =            8  plain     mixing
     Exchange-correlation= PBESOL
                           (   1   4  10   8   0   0   0)

     celldm(1)=   5.775000  celldm(2)=   0.000000  celldm(3)=   0.000000
     celldm(4)=   0.000000  celldm(5)=   0.000000  celldm(6)=   0.000000

     crystal axes: (cart. coord. in units of alat)
               a(1) = (   1.040618   0.000000   0.000000 )  
               a(2) = (  -0.520309   0.901202   0.000000 )  
               a(3) = (   0.000000   0.000000  10.000000 )  

     reciprocal axes: (cart. coord. in units 2 pi/alat)
               b(1) = (  0.960967  0.554815  0.000000 )  
               b(2) = (  0.000000  1.109630  0.000000 )  
               b(3) = (  0.000000  0.000000  0.100000 )  


     PseudoPot. # 1 for Ta read from file:
     /shared/home/as3359/pseudo/Ta.pbesol-spfn-rrkjus_psl.1.0.0.UPF
     MD5 check sum: f099565ffaca9b150a52e9412a28e20b
     Pseudo is Ultrasoft + core correction, Zval = 27.0
     Generated using &quot;atomic&quot; code by A. Dal Corso  v.6.3
     Using radial grid of 1273 points,  8 beta functions with: 
                l(1) =   0
                l(2) =   0
                l(3) =   1
                l(4) =   1
                l(5) =   2
                l(6) =   2
                l(7) =   3
                l(8) =   3
     Q(r) pseudized with 0 coefficients 


     PseudoPot. # 2 for C  read from file:
     /shared/home/as3359/pseudo/C.pbesol-n-rrkjus_psl.1.0.0.UPF
     MD5 check sum: 05995be603a8a7c99da3dc4413f31573
     Pseudo is Ultrasoft + core correction, Zval =  4.0
     Generated using &quot;atomic&quot; code by A. Dal Corso  v.6.3MaX
     Using radial grid of 1073 points,  4 beta functions with: 
                l(1) =   0
                l(2) =   0
                l(3) =   1
                l(4) =   1
     Q(r) pseudized with 0 coefficients 


     atomic species   valence    mass     pseudopotential
        Ta            27.00   180.94788     Ta( 1.00)
        C              4.00    12.01070     C ( 1.00)

     12 Sym. Ops., with inversion, found



   Cartesian axes

     site n.     atom                  positions (alat units)
         1           C   tau(   1) = (   0.0000000   0.0000000   0.0000000  )
         2           Ta  tau(   2) = (   0.5203090   0.3004005  -0.4101496  )
         3           Ta  tau(   3) = (  -0.0000000   0.6008011   0.4101496  )

     number of k points=    27
                       cart. coord. in units 2pi/alat
        k(    1) = (   0.0000000   0.0000000   0.0000000), wk =   0.0088889
        k(    2) = (   0.0000000   0.0739753   0.0000000), wk =   0.0533333
        k(    3) = (   0.0000000   0.1479506   0.0000000), wk =   0.0533333
        k(    4) = (   0.0000000   0.2219259   0.0000000), wk =   0.0533333
        k(    5) = (   0.0000000   0.2959012   0.0000000), wk =   0.0533333
        k(    6) = (   0.0000000   0.3698766   0.0000000), wk =   0.0533333
        k(    7) = (   0.0000000   0.4438519   0.0000000), wk =   0.0533333
        k(    8) = (   0.0000000   0.5178272   0.0000000), wk =   0.0533333
        k(    9) = (   0.0640645   0.1109630   0.0000000), wk =   0.0533333
        k(   10) = (   0.0640645   0.1849383   0.0000000), wk =   0.1066667
        k(   11) = (   0.0640645   0.2589136   0.0000000), wk =   0.1066667
        k(   12) = (   0.0640645   0.3328889   0.0000000), wk =   0.1066667
        k(   13) = (   0.0640645   0.4068642   0.0000000), wk =   0.1066667
        k(   14) = (   0.0640645   0.4808395   0.0000000), wk =   0.1066667
        k(   15) = (   0.0640645   0.5548148   0.0000000), wk =   0.0533333
        k(   16) = (   0.1281290   0.2219259   0.0000000), wk =   0.0533333
        k(   17) = (   0.1281290   0.2959012   0.0000000), wk =   0.1066667
        k(   18) = (   0.1281290   0.3698766   0.0000000), wk =   0.1066667
        k(   19) = (   0.1281290   0.4438519   0.0000000), wk =   0.1066667
        k(   20) = (   0.1281290   0.5178272   0.0000000), wk =   0.1066667
        k(   21) = (   0.1921935   0.3328889   0.0000000), wk =   0.0533333
        k(   22) = (   0.1921935   0.4068642   0.0000000), wk =   0.1066667
        k(   23) = (   0.1921935   0.4808395   0.0000000), wk =   0.1066667
        k(   24) = (   0.1921935   0.5548148   0.0000000), wk =   0.0533333
        k(   25) = (   0.2562580   0.4438519   0.0000000), wk =   0.0533333
        k(   26) = (   0.2562580   0.5178272   0.0000000), wk =   0.1066667
        k(   27) = (   0.3203225   0.5548148   0.0000000), wk =   0.0177778

     Dense  grid:   448489 G-vectors     FFT dimensions: (  48,  48, 480)

     Estimated max dynamical RAM per process >       2.46 GB

     Estimated total dynamical RAM >       4.92 GB
     Cannot read rho : file not found

     Initial potential from superposition of free atoms

     starting charge   57.99842, renormalised to   58.00000

     negative rho (up, down):  1.072E-04 0.000E+00
     Message from routine qexsd_readschema :
     xml data file /scratch/as3359/Mos2_ct_lat/Ta2CH2.save/data-file-schema.xml not f
     Cannot read wfcs: file not found
     Starting wfcs are   38 randomized atomic wfcs

     total cpu time spent up to now is       13.8 secs

     Self-consistent Calculation

     iteration #  1     ecut=   150.00 Ry     beta= 0.70
     Davidson diagonalization with overlap
     c_bands:  1 eigenvalues not converged
     c_bands:  1 eigenvalues not converged
     ethr =  1.00E-05,  avg # of iterations = 13.6

     negative rho (up, down):  1.058E-04 0.000E+00

     total cpu time spent up to now is       52.4 secs

     total energy              =   -1372.54459344 Ry
     estimated scf accuracy    <       1.13659419 Ry

     iteration #  2     ecut=   150.00 Ry     beta= 0.70
     Davidson diagonalization with overlap
     ethr =  1.96E-03,  avg # of iterations =  6.7

     negative rho (up, down):  5.184E-05 0.000E+00

     total cpu time spent up to now is       77.0 secs

     total energy              =   -1372.20085698 Ry
     estimated scf accuracy    <       6.50522199 Ry

     iteration #  3     ecut=   150.00 Ry     beta= 0.70
     Davidson diagonalization with overlap
     ethr =  1.96E-03,  avg # of iterations =  5.1

     negative rho (up, down):  5.967E-05 0.000E+00

     total cpu time spent up to now is       99.6 secs

     total energy              =   -1373.19839109 Ry
     estimated scf accuracy    <       0.06066027 Ry

     iteration #  4     ecut=   150.00 Ry     beta= 0.70
     Davidson diagonalization with overlap
     ethr =  1.05E-04,  avg # of iterations =  6.5

     negative rho (up, down):  6.296E-05 0.000E+00

     total cpu time spent up to now is      121.7 secs

     total energy              =   -1373.22106506 Ry
     estimated scf accuracy    <       0.01104152 Ry

     iteration #  5     ecut=   150.00 Ry     beta= 0.70
     Davidson diagonalization with overlap
     ethr =  1.90E-05,  avg # of iterations =  4.6

     negative rho (up, down):  9.240E-05 0.000E+00

     total cpu time spent up to now is      143.5 secs

     total energy              =   -1373.22278993 Ry
     estimated scf accuracy    <       0.00250437 Ry

     iteration #  6     ecut=   150.00 Ry     beta= 0.70
     Davidson diagonalization with overlap
     ethr =  4.32E-06,  avg # of iterations =  5.0

     negative rho (up, down):  9.792E-05 0.000E+00

     total cpu time spent up to now is      166.1 secs

     total energy              =   -1373.22318903 Ry
     estimated scf accuracy    <       0.00073486 Ry

     iteration #  7     ecut=   150.00 Ry     beta= 0.70
     Davidson diagonalization with overlap
     ethr =  1.27E-06,  avg # of iterations =  4.8

     negative rho (up, down):  1.100E-04 0.000E+00

     total cpu time spent up to now is      185.9 secs

     total energy              =   -1373.22335246 Ry
     estimated scf accuracy    <       0.00001467 Ry

     iteration #  8     ecut=   150.00 Ry     beta= 0.70
     Davidson diagonalization with overlap
     ethr =  2.53E-08,  avg # of iterations =  8.7

     negative rho (up, down):  1.108E-04 0.000E+00

     total cpu time spent up to now is      213.9 secs

     total energy              =   -1373.22335616 Ry
     estimated scf accuracy    <       0.00003436 Ry

     iteration #  9     ecut=   150.00 Ry     beta= 0.70
     Davidson diagonalization with overlap
     ethr =  2.53E-08,  avg # of iterations =  6.2

     negative rho (up, down):  1.143E-04 0.000E+00

     total cpu time spent up to now is      235.0 secs

     total energy              =   -1373.22336001 Ry
     estimated scf accuracy    <       0.00000093 Ry

     iteration # 10     ecut=   150.00 Ry     beta= 0.70
     Davidson diagonalization with overlap
     ethr =  1.61E-09,  avg # of iterations =  8.4

     negative rho (up, down):  1.138E-04 0.000E+00

     total cpu time spent up to now is      260.6 secs

     total energy              =   -1373.22336058 Ry
     estimated scf accuracy    <       0.00000024 Ry

     iteration # 11     ecut=   150.00 Ry     beta= 0.70
     Davidson diagonalization with overlap
     ethr =  4.18E-10,  avg # of iterations =  2.9

     negative rho (up, down):  1.136E-04 0.000E+00

     total cpu time spent up to now is      278.5 secs

     total energy              =   -1373.22336054 Ry
     estimated scf accuracy    <       0.00000010 Ry

     iteration # 12     ecut=   150.00 Ry     beta= 0.70
     Davidson diagonalization with overlap
     ethr =  1.64E-10,  avg # of iterations =  6.8

     negative rho (up, down):  1.136E-04 0.000E+00

     total cpu time spent up to now is      301.6 secs

     total energy              =   -1373.22336058 Ry
     estimated scf accuracy    <       0.00000003 Ry

     iteration # 13     ecut=   150.00 Ry     beta= 0.70
     Davidson diagonalization with overlap
     ethr =  4.39E-11,  avg # of iterations =  2.6

     negative rho (up, down):  1.136E-04 0.000E+00

     total cpu time spent up to now is      319.1 secs

     total energy              =   -1373.22336058 Ry
     estimated scf accuracy    <       0.00000001 Ry

     iteration # 14     ecut=   150.00 Ry     beta= 0.70
     Davidson diagonalization with overlap
     ethr =  2.23E-11,  avg # of iterations =  6.3

     negative rho (up, down):  1.136E-04 0.000E+00

     total cpu time spent up to now is      341.2 secs

     total energy              =   -1373.22336058 Ry
     estimated scf accuracy    <          3.6E-10 Ry

     iteration # 15     ecut=   150.00 Ry     beta= 0.70
     Davidson diagonalization with overlap
     ethr =  6.27E-13,  avg # of iterations =  8.6

     negative rho (up, down):  1.136E-04 0.000E+00

     total cpu time spent up to now is      367.5 secs

     total energy              =   -1373.22336058 Ry
     estimated scf accuracy    <          8.6E-11 Ry

     iteration # 16     ecut=   150.00 Ry     beta= 0.70
     Davidson diagonalization with overlap
     ethr =  1.49E-13,  avg # of iterations =  5.0

     negative rho (up, down):  1.136E-04 0.000E+00

     total cpu time spent up to now is      387.2 secs

     total energy              =   -1373.22336058 Ry
     estimated scf accuracy    <          1.6E-10 Ry

     iteration # 17     ecut=   150.00 Ry     beta= 0.70
     Davidson diagonalization with overlap
     ethr =  1.49E-13,  avg # of iterations =  2.7

     negative rho (up, down):  1.136E-04 0.000E+00

     total cpu time spent up to now is      405.5 secs

     total energy              =   -1373.22336058 Ry
     estimated scf accuracy    <          4.2E-11 Ry

     iteration # 18     ecut=   150.00 Ry     beta= 0.70
     Davidson diagonalization with overlap
     ethr =  1.00E-13,  avg # of iterations =  4.6

     negative rho (up, down):  1.136E-04 0.000E+00

     total cpu time spent up to now is      425.2 secs

     total energy              =   -1373.22336058 Ry
     estimated scf accuracy    <          2.8E-12 Ry

     iteration # 19     ecut=   150.00 Ry     beta= 0.70
     Davidson diagonalization with overlap
     ethr =  1.00E-13,  avg # of iterations =  1.6

     negative rho (up, down):  1.136E-04 0.000E+00

     total cpu time spent up to now is      441.7 secs

     End of self-consistent calculation

          k = 0.0000 0.0000 0.0000 ( 55995 PWs)   bands (ev):

   -69.0662 -69.0388 -35.8929 -35.5010 -35.2129 -35.2129 -35.1656 -35.1656
   -20.7793 -20.7692 -20.7483 -20.7483 -20.7393 -20.7393 -20.7160 -20.7160
   -20.7075 -20.7075 -20.6855 -20.6810 -20.6436 -20.6426 -13.2323  -7.4709
    -4.3856  -4.3856  -2.3300  -1.2486  -1.0610

          k = 0.0000 0.0740 0.0000 ( 56087 PWs)   bands (ev):

   -69.0649 -69.0380 -35.8875 -35.5030 -35.2319 -35.2194 -35.1835 -35.1682
   -20.7787 -20.7688 -20.7489 -20.7485 -20.7398 -20.7392 -20.7164 -20.7156
   -20.7076 -20.7072 -20.6844 -20.6800 -20.6448 -20.6438 -13.1696  -7.3490
    -4.5986  -4.3703  -2.2408  -1.3569  -0.9522

          k = 0.0000 0.1480 0.0000 ( 56115 PWs)   bands (ev):

   -69.0611 -69.0357 -35.8720 -35.5102 -35.2840 -35.2371 -35.2335 -35.1762
   -20.7770 -20.7676 -20.7504 -20.7489 -20.7412 -20.7389 -20.7174 -20.7144
   -20.7078 -20.7063 -20.6811 -20.6770 -20.6480 -20.6471 -12.9937  -7.0049
    -5.0795  -4.3388  -2.1062  -1.6082  -1.1353

          k = 0.0000 0.2219 0.0000 ( 56078 PWs)   bands (ev):

   -69.0553 -69.0325 -35.8490 -35.5276 -35.3546 -35.3051 -35.2620 -35.1892
   -20.7745 -20.7660 -20.7525 -20.7497 -20.7432 -20.7387 -20.7187 -20.7127
   -20.7081 -20.7049 -20.6762 -20.6727 -20.6526 -20.6519 -12.7385  -6.5323
    -5.5859  -4.3232  -2.2111  -1.8438  -1.4160

          k = 0.0000 0.2959 0.0000 ( 56030 PWs)   bands (ev):

   -69.0485 -69.0289 -35.8226 -35.5657 -35.4189 -35.3830 -35.2895 -35.2050
   -20.7719 -20.7642 -20.7548 -20.7505 -20.7457 -20.7386 -20.7199 -20.7105
   -20.7084 -20.7032 -20.6706 -20.6677 -20.6578 -20.6572 -12.4527  -6.3942
    -5.6571  -4.3459  -2.6729  -1.8387  -1.3698

          k = 0.0000 0.3699 0.0000 ( 55980 PWs)   bands (ev):

   -69.0417 -69.0259 -35.7979 -35.6268 -35.4630 -35.4474 -35.3149 -35.2207
   -20.7696 -20.7624 -20.7566 -20.7513 -20.7483 -20.7388 -20.7208 -20.7087
   -20.7085 -20.7015 -20.6651 -20.6629 -20.6628 -20.6619 -12.1888  -6.7268
    -5.2703  -4.4007  -3.1017  -1.5983  -1.1227

          k = 0.0000 0.4439 0.0000 ( 56060 PWs)   bands (ev):

   -69.0360 -69.0238 -35.7788 -35.6887 -35.5021 -35.4768 -35.3344 -35.2333
   -20.7682 -20.7609 -20.7577 -20.7520 -20.7503 -20.7391 -20.7213 -20.7089
   -20.7068 -20.7001 -20.6667 -20.6654 -20.6608 -20.6592 -11.9905  -7.0071
    -5.0317  -4.4605  -3.3985  -1.0847  -0.7956

          k = 0.0000 0.5178 0.0000 ( 56088 PWs)   bands (ev):

   -69.0326 -69.0230 -35.7630 -35.7329 -35.5213 -35.4897 -35.3450 -35.2403
   -20.7676 -20.7601 -20.7581 -20.7524 -20.7516 -20.7394 -20.7215 -20.7090
   -20.7059 -20.6993 -20.6688 -20.6672 -20.6583 -20.6572 -11.8854  -7.1548
    -4.9533  -4.4981  -3.5471  -0.5854  -0.5424

          k = 0.0641 0.1110 0.0000 ( 56097 PWs)   bands (ev):

   -69.0623 -69.0364 -35.8770 -35.5075 -35.2641 -35.2415 -35.2081 -35.1763
   -20.7776 -20.7680 -20.7498 -20.7489 -20.7406 -20.7390 -20.7171 -20.7149
   -20.7077 -20.7066 -20.6821 -20.6780 -20.6470 -20.6460 -13.0503  -7.1146
    -4.9296  -4.3638  -2.1286  -1.4987  -1.0283

          k = 0.0641 0.1849 0.0000 ( 56071 PWs)   bands (ev):

   -69.0575 -69.0337 -35.8577 -35.5192 -35.3224 -35.2929 -35.2393 -35.1900
   -20.7754 -20.7666 -20.7516 -20.7497 -20.7422 -20.7389 -20.7182 -20.7135
   -20.7078 -20.7056 -20.6781 -20.6743 -20.6509 -20.6501 -12.8346  -6.6892
    -5.4040  -4.3868  -2.0518  -1.7027  -1.3991

          k = 0.0641 0.2589 0.0000 ( 56043 PWs)   bands (ev):

   -69.0512 -69.0303 -35.8329 -35.5452 -35.3913 -35.3584 -35.2733 -35.2063
   -20.7728 -20.7649 -20.7536 -20.7507 -20.7443 -20.7388 -20.7194 -20.7117
   -20.7078 -20.7042 -20.6728 -20.6697 -20.6558 -20.6552 -12.5637  -6.2712
    -5.7665  -4.4463  -2.3617  -1.7389  -1.5014

          k = 0.0641 0.3329 0.0000 ( 56012 PWs)   bands (ev):

   -69.0444 -69.0270 -35.8069 -35.5941 -35.4471 -35.4219 -35.3054 -35.2235
   -20.7702 -20.7631 -20.7556 -20.7516 -20.7466 -20.7390 -20.7204 -20.7101
   -20.7077 -20.7026 -20.6673 -20.6648 -20.6609 -20.6602 -12.2887  -6.4937
    -5.4446  -4.5253  -2.8065  -1.5936  -1.3661

          k = 0.0641 0.4069 0.0000 ( 56005 PWs)   bands (ev):

   -69.0381 -69.0245 -35.7847 -35.6560 -35.4877 -35.4649 -35.3315 -35.2388
   -20.7683 -20.7615 -20.7571 -20.7524 -20.7489 -20.7393 -20.7211 -20.7091
   -20.7070 -20.7010 -20.6654 -20.6644 -20.6623 -20.6605 -12.0580  -6.8205
    -5.0968  -4.5970  -3.1368  -1.2738  -1.0501

          k = 0.0641 0.4808 0.0000 ( 56045 PWs)   bands (ev):

   -69.0334 -69.0232 -35.7673 -35.7089 -35.5126 -35.4875 -35.3485 -35.2494
   -20.7673 -20.7604 -20.7579 -20.7526 -20.7507 -20.7396 -20.7214 -20.7089
   -20.7063 -20.6999 -20.6684 -20.6671 -20.6589 -20.6577 -11.9069  -7.0341
    -4.9493  -4.6493  -3.3283  -0.8008  -0.7106

          k = 0.0641 0.5548 0.0000 ( 56066 PWs)   bands (ev):

   -69.0316 -69.0229 -35.7528 -35.7377 -35.5193 -35.4959 -35.3544 -35.2531
   -20.7670 -20.7599 -20.7581 -20.7525 -20.7516 -20.7397 -20.7215 -20.7088
   -20.7060 -20.6995 -20.6695 -20.6680 -20.6577 -20.6567 -11.8546  -7.1073
    -4.9155  -4.6716  -3.3905  -0.5623  -0.5406

          k = 0.1281 0.2219 0.0000 ( 56037 PWs)   bands (ev):

   -69.0522 -69.0308 -35.8365 -35.5380 -35.3670 -35.3651 -35.2586 -35.2147
   -20.7731 -20.7652 -20.7529 -20.7511 -20.7435 -20.7391 -20.7192 -20.7123
   -20.7073 -20.7048 -20.6736 -20.6704 -20.6551 -20.6545 -12.6029  -6.2173
    -5.7833  -4.5504  -2.0050  -1.9587  -1.3489

          k = 0.1281 0.2959 0.0000 ( 56014 PWs)   bands (ev):

   -69.0459 -69.0277 -35.8117 -35.5718 -35.4353 -35.4094 -35.2924 -35.2393
   -20.7705 -20.7636 -20.7544 -20.7527 -20.7451 -20.7394 -20.7201 -20.7111
   -20.7065 -20.7038 -20.6685 -20.6658 -20.6598 -20.6595 -12.3425  -6.1888
    -5.6513  -4.7410  -2.4064  -1.7860  -1.1794

          k = 0.1281 0.3699 0.0000 ( 56003 PWs)   bands (ev):

   -69.0395 -69.0250 -35.7876 -35.6211 -35.4861 -35.4457 -35.3292 -35.2604
   -20.7681 -20.7620 -20.7561 -20.7534 -20.7471 -20.7399 -20.7208 -20.7100
   -20.7060 -20.7025 -20.6647 -20.6642 -20.6632 -20.6613 -12.1008  -6.5247
    -5.1856  -4.8909  -2.7088  -1.4828  -1.1534

          k = 0.1281 0.4439 0.0000 ( 56026 PWs)   bands (ev):

   -69.0341 -69.0234 -35.7667 -35.6733 -35.5117 -35.4759 -35.3578 -35.2765
   -20.7664 -20.7607 -20.7575 -20.7534 -20.7491 -20.7403 -20.7212 -20.7090
   -20.7060 -20.7012 -20.6683 -20.6674 -20.6594 -20.6580 -11.9182  -6.7748
    -4.9847  -4.9200  -2.8880  -1.0907  -0.9691

          k = 0.1281 0.5178 0.0000 ( 56069 PWs)   bands (ev):

   -69.0308 -69.0228 -35.7474 -35.7137 -35.5145 -35.5000 -35.3726 -35.2853
   -20.7657 -20.7599 -20.7582 -20.7527 -20.7508 -20.7406 -20.7214 -20.7083
   -20.7063 -20.7004 -20.6703 -20.6691 -20.6572 -20.6562 -11.8209  -6.9071
    -5.0235  -4.8371  -2.9737  -0.7771  -0.7140

          k = 0.1922 0.3329 0.0000 ( 56026 PWs)   bands (ev):

   -69.0400 -69.0252 -35.7885 -35.6043 -35.4891 -35.4369 -35.3223 -35.2774
   -20.7679 -20.7623 -20.7550 -20.7546 -20.7462 -20.7403 -20.7207 -20.7104
   -20.7049 -20.7037 -20.6646 -20.6642 -20.6633 -20.6616 -12.1154  -6.3331
    -5.3112  -5.0016  -2.3741  -1.8288  -0.8621

          k = 0.1922 0.4069 0.0000 ( 56001 PWs)   bands (ev):

   -69.0345 -69.0234 -35.7653 -35.6405 -35.5256 -35.4575 -35.3586 -35.3081
   -20.7656 -20.7611 -20.7568 -20.7542 -20.7477 -20.7411 -20.7210 -20.7095
   -20.7047 -20.7029 -20.6681 -20.6678 -20.6597 -20.6582 -11.9224  -6.4948
    -5.3095  -4.8961  -2.3737  -1.5817  -1.0294

          k = 0.1922 0.4808 0.0000 ( 56014 PWs)   bands (ev):

   -69.0302 -69.0228 -35.7422 -35.6774 -35.5375 -35.4771 -35.3870 -35.3271
   -20.7642 -20.7601 -20.7580 -20.7532 -20.7494 -20.7418 -20.7212 -20.7084
   -20.7057 -20.7018 -20.6709 -20.6702 -20.6569 -20.6559 -11.7944  -6.6184
    -5.3996  -4.7506  -2.4180  -1.1728  -0.9735

          k = 0.1922 0.5548 0.0000 ( 56038 PWs)   bands (ev):

   -69.0284 -69.0228 -35.7233 -35.7023 -35.5368 -35.4879 -35.3969 -35.3337
   -20.7638 -20.7596 -20.7586 -20.7522 -20.7507 -20.7420 -20.7212 -20.7073
   -20.7068 -20.7015 -20.6718 -20.6711 -20.6558 -20.6552 -11.7497  -6.6648
    -5.4278  -4.7101  -2.4451  -0.9580  -0.8936

          k = 0.2563 0.4439 0.0000 ( 56008 PWs)   bands (ev):

   -69.0300 -69.0227 -35.7397 -35.6555 -35.5550 -35.4623 -35.3878 -35.3534
   -20.7634 -20.7605 -20.7579 -20.7535 -20.7486 -20.7424 -20.7211 -20.7086
   -20.7047 -20.7030 -20.6710 -20.6708 -20.6568 -20.6558 -11.7842  -6.4360
    -5.6084  -4.7109  -1.9180  -1.6227  -1.0930

          k = 0.2563 0.5178 0.0000 ( 56016 PWs)   bands (ev):

   -69.0269 -69.0230 -35.7117 -35.6758 -35.5677 -35.4627 -35.4092 -35.3804
   -20.7621 -20.7600 -20.7588 -20.7521 -20.7500 -20.7432 -20.7211 -20.7074
   -20.7059 -20.7027 -20.6726 -20.6723 -20.6551 -20.6546 -11.7092  -6.3878
    -5.7783  -4.6144  -1.8434  -1.3016  -1.0971

          k = 0.3203 0.5548 0.0000 ( 56082 PWs)   bands (ev):

   -69.0244 -69.0244 -35.6847 -35.6847 -35.5842 -35.4405 -35.4172 -35.4172
   -20.7605 -20.7605 -20.7593 -20.7508 -20.7508 -20.7439 -20.7210 -20.7065
   -20.7065 -20.7031 -20.6732 -20.6732 -20.6543 -20.6543 -11.6788  -6.1067
    -6.1067  -4.5596  -1.4202  -1.3277  -1.3277

     highest occupied level (ev):    -0.5406

!    total energy              =   -1373.22336058 Ry
     estimated scf accuracy    <          9.1E-13 Ry

     The total energy is the sum of the following terms:
     one-electron contribution =  -10496.93539455 Ry
     hartree contribution      =    5275.18732725 Ry
     xc contribution           =    -138.40248912 Ry
     ewald contribution        =    3986.92719584 Ry

     convergence has been achieved in  19 iterations

     negative rho (up, down):  1.136E-04 0.000E+00

     Forces acting on atoms (cartesian axes, Ry/au):

     atom    1 type  2   force =     0.00000000    0.00000000    0.00000000
     atom    2 type  1   force =    -0.00000000   -0.00000000    0.07962012
     atom    3 type  1   force =     0.00000000    0.00000000   -0.07962012

     Total force =     0.112600     Total SCF correction =     0.000002


     Computing stress (Cartesian axis) and pressure


     negative rho (up, down):  1.136E-04 0.000E+00
          total   stress  (Ry/bohr**3)                   (kbar)     P=      -40.40
  -0.00030720   0.00000000  -0.00000000          -45.19        0.00       -0.00
   0.00000000  -0.00030720  -0.00000000            0.00      -45.19       -0.00
   0.00000000   0.00000000  -0.00020945            0.00        0.00      -30.81


     Writing output data file /scratch/as3359/Mos2_ct_lat/Ta2CH2.save/
 
     init_run     :     23.82s CPU     13.65s WALL (       1 calls)
     electrons    :    829.40s CPU    427.91s WALL (       1 calls)
     forces       :      9.85s CPU      5.16s WALL (       1 calls)
     stress       :     37.10s CPU     19.35s WALL (       1 calls)

     Called by init_run:
     wfcinit      :     14.38s CPU      7.45s WALL (       1 calls)
     potinit      :      2.35s CPU      1.19s WALL (       1 calls)
     hinit0       :      5.04s CPU      3.64s WALL (       1 calls)

     Called by electrons:
     c_bands      :    648.18s CPU    327.68s WALL (      19 calls)
     sum_band     :    136.10s CPU     73.05s WALL (      19 calls)
     v_of_rho     :      7.07s CPU      3.82s WALL (      20 calls)
     newd         :     37.24s CPU     23.08s WALL (      20 calls)
     mix_rho      :      2.62s CPU      1.39s WALL (      19 calls)

     Called by c_bands:
     init_us_2    :     16.16s CPU      8.10s WALL (    1107 calls)
     cegterg      :    600.52s CPU    303.72s WALL (     513 calls)

     Called by *egterg:
     cdiaghg      :      5.46s CPU      2.80s WALL (    3501 calls)
     h_psi        :    466.87s CPU    236.67s WALL (    3528 calls)
     s_psi        :     31.15s CPU     15.59s WALL (    3528 calls)
     g_psi        :      3.21s CPU      1.61s WALL (    2988 calls)

     Called by h_psi:
     h_psi:calbec :     22.96s CPU     11.51s WALL (    3528 calls)
     vloc_psi     :    406.07s CPU    206.11s WALL (    3528 calls)
     add_vuspsi   :     33.78s CPU     16.91s WALL (    3528 calls)

     General routines
     calbec       :     29.42s CPU     14.75s WALL (    4176 calls)
     fft          :      3.50s CPU      1.79s WALL (     245 calls)
     ffts         :      0.24s CPU      0.12s WALL (      19 calls)
     fftw         :    389.04s CPU    197.85s WALL (  102029 calls)
 
     Parallel routines
 
     PWSCF        :  15m 2.33s CPU   7m47.96s WALL

 
   This run was terminated on:  18:59:53   9Apr2022            

=------------------------------------------------------------------------------=
   JOB DONE.
=------------------------------------------------------------------------------=
