
     Program PWSCF v.6.8 starts on  9Apr2022 at 17:59:29 

     This program is part of the open-source Quantum ESPRESSO suite
     for quantum simulation of materials; please cite
         "P. Giannozzi et al., J. Phys.:Condens. Matter 21 395502 (2009);
         "P. Giannozzi et al., J. Phys.:Condens. Matter 29 465901 (2017);
         "P. Giannozzi et al., J. Chem. Phys. 152 154105 (2020);
          URL http://www.quantum-espresso.org", 
     in publications or presentations arising from this work. More details at
     http://www.quantum-espresso.org/quote

     Parallel version (MPI & OpenMP), running on       4 processor cores
     Number of MPI processes:                 2
     Threads/MPI process:                     2

     MPI processes distributed on     1 nodes
     R & G space division:  proc/nbgrp/npool/nimage =       2
     124964 MiB available memory on the printing compute node when the environment starts
 
     Reading input from Ta2CH2.scf.5.600.in
Warning: card  &CELL ignored
Warning: card     CELL_DYNAMICS='BFGS' ignored
Warning: card  / ignored

     Current dimensions of program PWSCF are:
     Max number of different atomic species (ntypx) = 10
     Max number of k-points (npk) =  40000
     Max angular momentum in pseudopotentials (lmaxx) =  4
     Message from routine iosys:
     restart disabled: needed files not found
     file Ta.pbesol-spfn-rrkjus_psl.1.0.0.UPF: wavefunction(s)  5S 5P renormalized
     Message from routine setup:
     using ibrav=0 with symmetry is DISCOURAGED, use correct ibrav instead

     Subspace diagonalization in iterative solution of the eigenvalue problem:
     a serial algorithm will be used

 
     Parallelization info
     --------------------
     sticks:   dense  smooth     PW     G-vecs:    dense   smooth      PW
     Min         700     700    192               204365   204365   30141
     Max         705     705    193               204372   204372   30150
     Sum        1405    1405    385               408737   408737   60291
 
     Using Slab Decomposition
 


     bravais-lattice index     =            0
     lattice parameter (alat)  =       5.6000  a.u.
     unit-cell volume          =    1646.9383 (a.u.)^3
     number of atoms/cell      =            3
     number of atomic types    =            2
     number of electrons       =        58.00
     number of Kohn-Sham states=           29
     kinetic-energy cutoff     =     150.0000  Ry
     charge density cutoff     =     600.0000  Ry
     scf convergence threshold =      1.0E-12
     mixing beta               =       0.7000
     number of iterations used =            8  plain     mixing
     Exchange-correlation= PBESOL
                           (   1   4  10   8   0   0   0)

     celldm(1)=   5.600000  celldm(2)=   0.000000  celldm(3)=   0.000000
     celldm(4)=   0.000000  celldm(5)=   0.000000  celldm(6)=   0.000000

     crystal axes: (cart. coord. in units of alat)
               a(1) = (   1.040618   0.000000   0.000000 )  
               a(2) = (  -0.520309   0.901202   0.000000 )  
               a(3) = (   0.000000   0.000000  10.000000 )  

     reciprocal axes: (cart. coord. in units 2 pi/alat)
               b(1) = (  0.960967  0.554815  0.000000 )  
               b(2) = (  0.000000  1.109630  0.000000 )  
               b(3) = (  0.000000  0.000000  0.100000 )  


     PseudoPot. # 1 for Ta read from file:
     /shared/home/as3359/pseudo/Ta.pbesol-spfn-rrkjus_psl.1.0.0.UPF
     MD5 check sum: f099565ffaca9b150a52e9412a28e20b
     Pseudo is Ultrasoft + core correction, Zval = 27.0
     Generated using &quot;atomic&quot; code by A. Dal Corso  v.6.3
     Using radial grid of 1273 points,  8 beta functions with: 
                l(1) =   0
                l(2) =   0
                l(3) =   1
                l(4) =   1
                l(5) =   2
                l(6) =   2
                l(7) =   3
                l(8) =   3
     Q(r) pseudized with 0 coefficients 


     PseudoPot. # 2 for C  read from file:
     /shared/home/as3359/pseudo/C.pbesol-n-rrkjus_psl.1.0.0.UPF
     MD5 check sum: 05995be603a8a7c99da3dc4413f31573
     Pseudo is Ultrasoft + core correction, Zval =  4.0
     Generated using &quot;atomic&quot; code by A. Dal Corso  v.6.3MaX
     Using radial grid of 1073 points,  4 beta functions with: 
                l(1) =   0
                l(2) =   0
                l(3) =   1
                l(4) =   1
     Q(r) pseudized with 0 coefficients 


     atomic species   valence    mass     pseudopotential
        Ta            27.00   180.94788     Ta( 1.00)
        C              4.00    12.01070     C ( 1.00)

     12 Sym. Ops., with inversion, found



   Cartesian axes

     site n.     atom                  positions (alat units)
         1           C   tau(   1) = (   0.0000000   0.0000000   0.0000000  )
         2           Ta  tau(   2) = (   0.5203090   0.3004005  -0.4101496  )
         3           Ta  tau(   3) = (  -0.0000000   0.6008011   0.4101496  )

     number of k points=    27
                       cart. coord. in units 2pi/alat
        k(    1) = (   0.0000000   0.0000000   0.0000000), wk =   0.0088889
        k(    2) = (   0.0000000   0.0739753   0.0000000), wk =   0.0533333
        k(    3) = (   0.0000000   0.1479506   0.0000000), wk =   0.0533333
        k(    4) = (   0.0000000   0.2219259   0.0000000), wk =   0.0533333
        k(    5) = (   0.0000000   0.2959012   0.0000000), wk =   0.0533333
        k(    6) = (   0.0000000   0.3698766   0.0000000), wk =   0.0533333
        k(    7) = (   0.0000000   0.4438519   0.0000000), wk =   0.0533333
        k(    8) = (   0.0000000   0.5178272   0.0000000), wk =   0.0533333
        k(    9) = (   0.0640645   0.1109630   0.0000000), wk =   0.0533333
        k(   10) = (   0.0640645   0.1849383   0.0000000), wk =   0.1066667
        k(   11) = (   0.0640645   0.2589136   0.0000000), wk =   0.1066667
        k(   12) = (   0.0640645   0.3328889   0.0000000), wk =   0.1066667
        k(   13) = (   0.0640645   0.4068642   0.0000000), wk =   0.1066667
        k(   14) = (   0.0640645   0.4808395   0.0000000), wk =   0.1066667
        k(   15) = (   0.0640645   0.5548148   0.0000000), wk =   0.0533333
        k(   16) = (   0.1281290   0.2219259   0.0000000), wk =   0.0533333
        k(   17) = (   0.1281290   0.2959012   0.0000000), wk =   0.1066667
        k(   18) = (   0.1281290   0.3698766   0.0000000), wk =   0.1066667
        k(   19) = (   0.1281290   0.4438519   0.0000000), wk =   0.1066667
        k(   20) = (   0.1281290   0.5178272   0.0000000), wk =   0.1066667
        k(   21) = (   0.1921935   0.3328889   0.0000000), wk =   0.0533333
        k(   22) = (   0.1921935   0.4068642   0.0000000), wk =   0.1066667
        k(   23) = (   0.1921935   0.4808395   0.0000000), wk =   0.1066667
        k(   24) = (   0.1921935   0.5548148   0.0000000), wk =   0.0533333
        k(   25) = (   0.2562580   0.4438519   0.0000000), wk =   0.0533333
        k(   26) = (   0.2562580   0.5178272   0.0000000), wk =   0.1066667
        k(   27) = (   0.3203225   0.5548148   0.0000000), wk =   0.0177778

     Dense  grid:   408737 G-vectors     FFT dimensions: (  45,  45, 450)

     Estimated max dynamical RAM per process >       2.24 GB

     Estimated total dynamical RAM >       4.48 GB
     Cannot read rho : file not found

     Initial potential from superposition of free atoms

     starting charge   57.99842, renormalised to   58.00000

     negative rho (up, down):  1.010E-04 0.000E+00
     Message from routine qexsd_readschema :
     xml data file /scratch/as3359/Mos2_ct_lat/Ta2CH2.save/data-file-schema.xml not f
     Cannot read wfcs: file not found
     Starting wfcs are   38 randomized atomic wfcs

     total cpu time spent up to now is       13.0 secs

     Self-consistent Calculation

     iteration #  1     ecut=   150.00 Ry     beta= 0.70
     Davidson diagonalization with overlap
     c_bands:  1 eigenvalues not converged
     ethr =  1.00E-05,  avg # of iterations = 12.1

     negative rho (up, down):  9.722E-05 0.000E+00

     total cpu time spent up to now is       50.6 secs

     total energy              =   -1372.49014603 Ry
     estimated scf accuracy    <       1.26423132 Ry

     iteration #  2     ecut=   150.00 Ry     beta= 0.70
     Davidson diagonalization with overlap
     ethr =  2.18E-03,  avg # of iterations =  7.8

     total cpu time spent up to now is       74.5 secs

     total energy              =   -1371.87087361 Ry
     estimated scf accuracy    <       8.55852066 Ry

     iteration #  3     ecut=   150.00 Ry     beta= 0.70
     Davidson diagonalization with overlap
     ethr =  2.18E-03,  avg # of iterations =  6.0

     total cpu time spent up to now is       96.6 secs

     total energy              =   -1373.20357631 Ry
     estimated scf accuracy    <       0.11421201 Ry

     iteration #  4     ecut=   150.00 Ry     beta= 0.70
     Davidson diagonalization with overlap
     ethr =  1.97E-04,  avg # of iterations =  5.4

     total cpu time spent up to now is      116.0 secs

     total energy              =   -1373.24885507 Ry
     estimated scf accuracy    <       0.02147100 Ry

     iteration #  5     ecut=   150.00 Ry     beta= 0.70
     Davidson diagonalization with overlap
     ethr =  3.70E-05,  avg # of iterations =  4.4

     negative rho (up, down):  7.610E-08 0.000E+00

     total cpu time spent up to now is      136.3 secs

     total energy              =   -1373.25023109 Ry
     estimated scf accuracy    <       0.00620804 Ry

     iteration #  6     ecut=   150.00 Ry     beta= 0.70
     Davidson diagonalization with overlap
     ethr =  1.07E-05,  avg # of iterations =  4.2

     negative rho (up, down):  6.295E-06 0.000E+00

     total cpu time spent up to now is      156.0 secs

     total energy              =   -1373.25133912 Ry
     estimated scf accuracy    <       0.00033676 Ry

     iteration #  7     ecut=   150.00 Ry     beta= 0.70
     Davidson diagonalization with overlap
     ethr =  5.81E-07,  avg # of iterations =  6.3

     negative rho (up, down):  4.980E-05 0.000E+00

     total cpu time spent up to now is      178.4 secs

     total energy              =   -1373.25141923 Ry
     estimated scf accuracy    <       0.00033011 Ry

     iteration #  8     ecut=   150.00 Ry     beta= 0.70
     Davidson diagonalization with overlap
     ethr =  5.69E-07,  avg # of iterations =  4.8

     negative rho (up, down):  1.464E-04 0.000E+00

     total cpu time spent up to now is      196.5 secs

     total energy              =   -1373.25146721 Ry
     estimated scf accuracy    <       0.00001533 Ry

     iteration #  9     ecut=   150.00 Ry     beta= 0.70
     Davidson diagonalization with overlap
     ethr =  2.64E-08,  avg # of iterations =  8.5

     negative rho (up, down):  1.504E-04 0.000E+00

     total cpu time spent up to now is      220.2 secs

     total energy              =   -1373.25147089 Ry
     estimated scf accuracy    <       0.00002114 Ry

     iteration # 10     ecut=   150.00 Ry     beta= 0.70
     Davidson diagonalization with overlap
     ethr =  2.64E-08,  avg # of iterations =  4.4

     negative rho (up, down):  1.054E-04 0.000E+00

     total cpu time spent up to now is      238.5 secs

     total energy              =   -1373.25147280 Ry
     estimated scf accuracy    <       0.00000127 Ry

     iteration # 11     ecut=   150.00 Ry     beta= 0.70
     Davidson diagonalization with overlap
     ethr =  2.19E-09,  avg # of iterations =  7.7

     negative rho (up, down):  1.073E-04 0.000E+00

     total cpu time spent up to now is      261.8 secs

     total energy              =   -1373.25147342 Ry
     estimated scf accuracy    <       0.00000055 Ry

     iteration # 12     ecut=   150.00 Ry     beta= 0.70
     Davidson diagonalization with overlap
     ethr =  9.51E-10,  avg # of iterations =  2.7

     negative rho (up, down):  1.063E-04 0.000E+00

     total cpu time spent up to now is      278.8 secs

     total energy              =   -1373.25147336 Ry
     estimated scf accuracy    <       0.00000021 Ry

     iteration # 13     ecut=   150.00 Ry     beta= 0.70
     Davidson diagonalization with overlap
     ethr =  3.66E-10,  avg # of iterations =  6.5

     negative rho (up, down):  1.062E-04 0.000E+00

     total cpu time spent up to now is      299.8 secs

     total energy              =   -1373.25147344 Ry
     estimated scf accuracy    <       0.00000005 Ry

     iteration # 14     ecut=   150.00 Ry     beta= 0.70
     Davidson diagonalization with overlap
     ethr =  8.30E-11,  avg # of iterations =  3.5

     negative rho (up, down):  1.063E-04 0.000E+00

     total cpu time spent up to now is      317.0 secs

     total energy              =   -1373.25147343 Ry
     estimated scf accuracy    <       0.00000002 Ry

     iteration # 15     ecut=   150.00 Ry     beta= 0.70
     Davidson diagonalization with overlap
     ethr =  3.09E-11,  avg # of iterations =  6.0

     negative rho (up, down):  1.064E-04 0.000E+00

     total cpu time spent up to now is      336.8 secs

     total energy              =   -1373.25147344 Ry
     estimated scf accuracy    <          3.0E-10 Ry

     iteration # 16     ecut=   150.00 Ry     beta= 0.70
     Davidson diagonalization with overlap
     ethr =  5.10E-13,  avg # of iterations = 10.1

     negative rho (up, down):  1.064E-04 0.000E+00

     total cpu time spent up to now is      366.7 secs

     total energy              =   -1373.25147344 Ry
     estimated scf accuracy    <          3.5E-10 Ry

     iteration # 17     ecut=   150.00 Ry     beta= 0.70
     Davidson diagonalization with overlap
     ethr =  5.10E-13,  avg # of iterations =  3.2

     negative rho (up, down):  1.064E-04 0.000E+00

     total cpu time spent up to now is      385.0 secs

     total energy              =   -1373.25147344 Ry
     estimated scf accuracy    <          4.4E-11 Ry

     iteration # 18     ecut=   150.00 Ry     beta= 0.70
     Davidson diagonalization with overlap
     ethr =  1.00E-13,  avg # of iterations =  6.9

     negative rho (up, down):  1.064E-04 0.000E+00

     total cpu time spent up to now is      407.7 secs

     total energy              =   -1373.25147344 Ry
     estimated scf accuracy    <          6.8E-12 Ry

     iteration # 19     ecut=   150.00 Ry     beta= 0.70
     Davidson diagonalization with overlap
     ethr =  1.00E-13,  avg # of iterations =  1.0

     negative rho (up, down):  1.064E-04 0.000E+00

     total cpu time spent up to now is      422.9 secs

     total energy              =   -1373.25147344 Ry
     estimated scf accuracy    <          3.8E-12 Ry

     iteration # 20     ecut=   150.00 Ry     beta= 0.70
     Davidson diagonalization with overlap
     ethr =  1.00E-13,  avg # of iterations =  1.5

     negative rho (up, down):  1.064E-04 0.000E+00

     total cpu time spent up to now is      438.5 secs

     End of self-consistent calculation

          k = 0.0000 0.0000 0.0000 ( 51087 PWs)   bands (ev):

   -68.4642 -68.4212 -35.4413 -34.8904 -34.5928 -34.5928 -34.5294 -34.5294
   -20.1387 -20.1258 -20.1018 -20.1018 -20.0939 -20.0939 -20.0688 -20.0688
   -20.0600 -20.0600 -20.0467 -20.0412 -19.9882 -19.9867 -13.2416  -7.5790
    -4.3934  -4.3934  -1.9528  -0.9820  -0.7846

          k = 0.0000 0.0740 0.0000 ( 51195 PWs)   bands (ev):

   -68.4621 -68.4199 -35.4339 -34.8936 -34.6194 -34.6022 -34.5543 -34.5327
   -20.1378 -20.1252 -20.1026 -20.1020 -20.0942 -20.0934 -20.0696 -20.0685
   -20.0602 -20.0596 -20.0450 -20.0397 -19.9898 -19.9884 -13.1711  -7.4430
    -4.6064  -4.3720  -1.8797  -1.1015  -0.6636

          k = 0.0000 0.1480 0.0000 ( 51213 PWs)   bands (ev):

   -68.4561 -68.4164 -35.4131 -34.9063 -34.6906 -34.6274 -34.6235 -34.5433
   -20.1354 -20.1236 -20.1049 -20.1027 -20.0952 -20.0922 -20.0717 -20.0676
   -20.0606 -20.0584 -20.0404 -20.0355 -19.9942 -19.9930 -12.9755  -7.0620
    -5.0940  -4.3252  -1.7823  -1.3866  -0.8487

          k = 0.0000 0.2219 0.0000 ( 51182 PWs)   bands (ev):

   -68.4471 -68.4113 -35.3829 -34.9432 -34.7773 -34.7214 -34.6626 -34.5608
   -20.1321 -20.1215 -20.1078 -20.1036 -20.0968 -20.0908 -20.0743 -20.0660
   -20.0612 -20.0566 -20.0337 -20.0293 -20.0005 -19.9996 -12.6982  -6.5560
    -5.5941  -4.2923  -2.0226  -1.5899  -1.1204

          k = 0.0000 0.2959 0.0000 ( 51108 PWs)   bands (ev):

   -68.4365 -68.4057 -35.3504 -35.0268 -34.8425 -34.8198 -34.7011 -34.5823
   -20.1288 -20.1189 -20.1107 -20.1046 -20.0989 -20.0899 -20.0765 -20.0639
   -20.0619 -20.0544 -20.0259 -20.0221 -20.0077 -20.0066 -12.3992  -6.4545
    -5.5913  -4.3030  -2.5729  -1.5683  -1.0506

          k = 0.0000 0.3699 0.0000 ( 51076 PWs)   bands (ev):

   -68.4258 -68.4009 -35.3254 -35.1340 -34.9195 -34.8612 -34.7367 -34.6037
   -20.1267 -20.1162 -20.1129 -20.1057 -20.1013 -20.0897 -20.0780 -20.0624
   -20.0617 -20.0520 -20.0182 -20.0152 -20.0145 -20.0128 -12.1372  -6.7860
    -5.1923  -4.3532  -3.0531  -1.2803  -0.7688

          k = 0.0000 0.4439 0.0000 ( 51072 PWs)   bands (ev):

   -68.4168 -68.3978 -35.3154 -35.2248 -34.9703 -34.8832 -34.7638 -34.6209
   -20.1260 -20.1141 -20.1136 -20.1066 -20.1035 -20.0899 -20.0786 -20.0627
   -20.0598 -20.0501 -20.0198 -20.0173 -20.0121 -20.0099 -11.9522  -7.0555
    -4.9726  -4.4130  -3.3836  -0.6984  -0.3896

          k = 0.0000 0.5178 0.0000 ( 51100 PWs)   bands (ev):

   -68.4115 -68.3965 -35.3141 -35.2782 -34.9874 -34.8970 -34.7785 -34.6305
   -20.1260 -20.1140 -20.1127 -20.1072 -20.1046 -20.0901 -20.0787 -20.0629
   -20.0587 -20.0489 -20.0226 -20.0196 -20.0086 -20.0070 -11.8591  -7.1946
    -4.9101  -4.4518  -3.5491  -0.1592  -0.0914

          k = 0.0641 0.1110 0.0000 ( 51241 PWs)   bands (ev):

   -68.4581 -68.4175 -35.4198 -34.9013 -34.6633 -34.6347 -34.5871 -34.5439
   -20.1362 -20.1241 -20.1040 -20.1027 -20.0948 -20.0926 -20.0710 -20.0679
   -20.0604 -20.0589 -20.0419 -20.0369 -19.9928 -19.9915 -13.0381  -7.1827
    -4.9417  -4.3558  -1.7899  -1.2641  -0.7424

          k = 0.0641 0.1849 0.0000 ( 51186 PWs)   bands (ev):

   -68.4506 -68.4132 -35.3942 -34.9241 -34.7395 -34.7059 -34.6298 -34.5626
   -20.1332 -20.1223 -20.1064 -20.1038 -20.0958 -20.0915 -20.0733 -20.0668
   -20.0607 -20.0576 -20.0363 -20.0316 -19.9982 -19.9972 -12.8013  -6.7157
    -5.4222  -4.3663  -1.7699  -1.4926  -1.1178

          k = 0.0641 0.2589 0.0000 ( 51135 PWs)   bands (ev):

   -68.4408 -68.4079 -35.3625 -34.9818 -34.8195 -34.7894 -34.6776 -34.5845
   -20.1297 -20.1201 -20.1092 -20.1050 -20.0974 -20.0905 -20.0757 -20.0653
   -20.0609 -20.0557 -20.0290 -20.0249 -20.0049 -20.0041 -12.5128  -6.2979
    -5.7422  -4.4173  -2.2162  -1.4628  -1.2131

          k = 0.0641 0.3329 0.0000 ( 51058 PWs)   bands (ev):

   -68.4301 -68.4027 -35.3329 -35.0785 -34.8934 -34.8465 -34.7222 -34.6078
   -20.1269 -20.1175 -20.1118 -20.1062 -20.0995 -20.0900 -20.0775 -20.0637
   -20.0607 -20.0535 -20.0213 -20.0179 -20.0119 -20.0107 -12.2326  -6.5446
    -5.3657  -4.4919  -2.7206  -1.2940  -1.0500

          k = 0.0641 0.4069 0.0000 ( 51070 PWs)   bands (ev):

   -68.4202 -68.3988 -35.3147 -35.1774 -34.9528 -34.8778 -34.7578 -34.6287
   -20.1254 -20.1148 -20.1133 -20.1070 -20.1018 -20.0901 -20.0785 -20.0629
   -20.0600 -20.0514 -20.0181 -20.0162 -20.0142 -20.0117 -12.0103  -6.8640
    -5.0243  -4.5600  -3.0894  -0.9210  -0.6869

          k = 0.0641 0.4808 0.0000 ( 51049 PWs)   bands (ev):

   -68.4128 -68.3968 -35.3088 -35.2498 -34.9794 -34.9001 -34.7806 -34.6431
   -20.1252 -20.1139 -20.1130 -20.1073 -20.1038 -20.0904 -20.0788 -20.0627
   -20.0591 -20.0498 -20.0221 -20.0196 -20.0095 -20.0077 -11.8728  -7.0683
    -4.8966  -4.6124  -3.3031  -0.3980  -0.2892

          k = 0.0641 0.5548 0.0000 ( 51092 PWs)   bands (ev):

   -68.4100 -68.3963 -35.3053 -35.2795 -34.9842 -34.9096 -34.7884 -34.6483
   -20.1252 -20.1140 -20.1124 -20.1072 -20.1046 -20.0905 -20.0789 -20.0626
   -20.0587 -20.0492 -20.0236 -20.0208 -20.0077 -20.0063 -11.8271  -7.1373
    -4.8701  -4.6369  -3.3725  -0.1217  -0.1120

          k = 0.1281 0.2219 0.0000 ( 51171 PWs)   bands (ev):

   -68.4422 -68.4087 -35.3668 -34.9636 -34.8060 -34.7879 -34.6560 -34.5970
   -20.1300 -20.1205 -20.1081 -20.1059 -20.0964 -20.0909 -20.0753 -20.0659
   -20.0601 -20.0565 -20.0301 -20.0259 -20.0039 -20.0032 -12.5531  -6.2011
    -5.8036  -4.5312  -1.8459  -1.6783  -1.0563

          k = 0.1281 0.2959 0.0000 ( 51098 PWs)   bands (ev):

   -68.4324 -68.4038 -35.3371 -35.0329 -34.8947 -34.8299 -34.7028 -34.6304
   -20.1265 -20.1185 -20.1101 -20.1077 -20.0977 -20.0906 -20.0772 -20.0649
   -20.0591 -20.0552 -20.0229 -20.0194 -20.0105 -20.0099 -12.2832  -6.2101
    -5.5922  -4.7256  -2.2705  -1.5207  -0.8631

          k = 0.1281 0.3699 0.0000 ( 51033 PWs)   bands (ev):

   -68.4224 -68.3996 -35.3128 -35.1202 -34.9538 -34.8662 -34.7521 -34.6587
   -20.1239 -20.1162 -20.1121 -20.1084 -20.0997 -20.0908 -20.0785 -20.0638
   -20.0585 -20.0535 -20.0173 -20.0165 -20.0152 -20.0129 -12.0438  -6.5438
    -5.1046  -4.8754  -2.6049  -1.1896  -0.8215

          k = 0.1281 0.4439 0.0000 ( 51041 PWs)   bands (ev):

   -68.4139 -68.3970 -35.2979 -35.1988 -34.9781 -34.9035 -34.7872 -34.6804
   -20.1229 -20.1142 -20.1130 -20.1081 -20.1020 -20.0912 -20.0792 -20.0628
   -20.0586 -20.0517 -20.0220 -20.0204 -20.0102 -20.0082 -11.8720  -6.7884
    -4.9659  -4.8457  -2.8091  -0.7423  -0.6008

          k = 0.1281 0.5178 0.0000 ( 51048 PWs)   bands (ev):

   -68.4087 -68.3961 -35.2863 -35.2509 -34.9745 -34.9369 -34.8039 -34.6924
   -20.1229 -20.1141 -20.1121 -20.1072 -20.1039 -20.0915 -20.0794 -20.0619
   -20.0591 -20.0506 -20.0248 -20.0226 -20.0070 -20.0057 -11.7843  -6.9163
    -5.0011  -4.7757  -2.9088  -0.3808  -0.3113

          k = 0.1922 0.3329 0.0000 ( 51045 PWs)   bands (ev):

   -68.4231 -68.3999 -35.3120 -35.0875 -34.9685 -34.8555 -34.7427 -34.6820
   -20.1228 -20.1171 -20.1104 -20.1102 -20.0986 -20.0912 -20.0786 -20.0643
   -20.0569 -20.0553 -20.0173 -20.0165 -20.0154 -20.0133 -12.0545  -6.3290
    -5.2644  -4.9703  -2.2226  -1.5901  -0.5348

          k = 0.1922 0.4069 0.0000 ( 51060 PWs)   bands (ev):

   -68.4144 -68.3971 -35.2902 -35.1442 -35.0086 -34.8851 -34.7882 -34.7223
   -20.1202 -20.1159 -20.1119 -20.1093 -20.1003 -20.0921 -20.0795 -20.0633
   -20.0568 -20.0542 -20.0219 -20.0213 -20.0106 -20.0085 -11.8672  -6.4807
    -5.3052  -4.8114  -2.2197  -1.3234  -0.7024

          k = 0.1922 0.4808 0.0000 ( 51066 PWs)   bands (ev):

   -68.4077 -68.3961 -35.2688 -35.1974 -35.0125 -34.9244 -34.8160 -34.7479
   -20.1198 -20.1147 -20.1119 -20.1077 -20.1024 -20.0928 -20.0800 -20.0619
   -20.0582 -20.0528 -20.0257 -20.0245 -20.0066 -20.0053 -11.7473  -6.6034
    -5.3864  -4.6667  -2.2833  -0.8522  -0.6228

          k = 0.1922 0.5548 0.0000 ( 51074 PWs)   bands (ev):

   -68.4050 -68.3961 -35.2456 -35.2333 -35.0029 -34.9500 -34.8232 -34.7571
   -20.1199 -20.1143 -20.1115 -20.1065 -20.1038 -20.0931 -20.0801 -20.0605
   -20.0596 -20.0522 -20.0270 -20.0256 -20.0051 -20.0042 -11.7064  -6.6504
    -5.4097  -4.6288  -2.3195  -0.6004  -0.5302

          k = 0.2563 0.4439 0.0000 ( 51067 PWs)   bands (ev):

   -68.4074 -68.3960 -35.2616 -35.1569 -35.0532 -34.9024 -34.8227 -34.7783
   -20.1168 -20.1167 -20.1116 -20.1081 -20.1015 -20.0935 -20.0803 -20.0621
   -20.0568 -20.0545 -20.0258 -20.0254 -20.0065 -20.0052 -11.7326  -6.4052
    -5.6039  -4.6153  -1.6958  -1.3989  -0.7675

          k = 0.2563 0.5178 0.0000 ( 51065 PWs)   bands (ev):

   -68.4025 -68.3965 -35.2239 -35.1827 -35.0720 -34.9220 -34.8368 -34.8124
   -20.1175 -20.1144 -20.1116 -20.1061 -20.1031 -20.0945 -20.0807 -20.0604
   -20.0585 -20.0541 -20.0282 -20.0276 -20.0041 -20.0034 -11.6603  -6.3592
    -5.7614  -4.5117  -1.6384  -1.0129  -0.7713

          k = 0.3203 0.5548 0.0000 ( 51048 PWs)   bands (ev):

   -68.3987 -68.3987 -35.1793 -35.1793 -35.1185 -34.9135 -34.8443 -34.8443
   -20.1171 -20.1126 -20.1126 -20.1043 -20.1043 -20.0953 -20.0810 -20.0592
   -20.0592 -20.0548 -20.0289 -20.0289 -20.0030 -20.0030 -11.6291  -6.0808
    -6.0808  -4.4469  -1.1654  -1.0402  -1.0402

     highest occupied level (ev):    -0.0914

!    total energy              =   -1373.25147344 Ry
     estimated scf accuracy    <          2.3E-13 Ry

     The total energy is the sum of the following terms:
     one-electron contribution =  -10748.11251829 Ry
     hartree contribution      =    5402.02317485 Ry
     xc contribution           =    -138.68080071 Ry
     ewald contribution        =    4111.51867071 Ry

     convergence has been achieved in  20 iterations

     negative rho (up, down):  1.064E-04 0.000E+00

     Forces acting on atoms (cartesian axes, Ry/au):

     atom    1 type  2   force =     0.00000000    0.00000000    0.00000000
     atom    2 type  1   force =    -0.00000000   -0.00000000    0.01953534
     atom    3 type  1   force =     0.00000000    0.00000000   -0.01953534

     Total force =     0.027627     Total SCF correction =     0.000005


     Computing stress (Cartesian axis) and pressure


     negative rho (up, down):  1.064E-04 0.000E+00
          total   stress  (Ry/bohr**3)                   (kbar)     P=       -9.07
  -0.00006489   0.00000000   0.00000000           -9.55        0.00        0.00
   0.00000000  -0.00006489   0.00000000            0.00       -9.55        0.00
   0.00000000   0.00000000  -0.00005517            0.00        0.00       -8.12


     Writing output data file /scratch/as3359/Mos2_ct_lat/Ta2CH2.save/
 
     init_run     :     22.41s CPU     12.82s WALL (       1 calls)
     electrons    :    826.69s CPU    425.50s WALL (       1 calls)
     forces       :      8.93s CPU      4.68s WALL (       1 calls)
     stress       :     33.12s CPU     17.26s WALL (       1 calls)

     Called by init_run:
     wfcinit      :     13.87s CPU      7.18s WALL (       1 calls)
     potinit      :      2.10s CPU      1.07s WALL (       1 calls)
     hinit0       :      4.61s CPU      3.34s WALL (       1 calls)

     Called by electrons:
     c_bands      :    649.48s CPU    327.74s WALL (      20 calls)
     sum_band     :    135.06s CPU     72.32s WALL (      20 calls)
     v_of_rho     :      6.40s CPU      3.47s WALL (      21 calls)
     newd         :     34.84s CPU     21.64s WALL (      21 calls)
     mix_rho      :      2.50s CPU      1.32s WALL (      20 calls)

     Called by c_bands:
     init_us_2    :     15.55s CPU      7.79s WALL (    1161 calls)
     cegterg      :    604.09s CPU    304.93s WALL (     540 calls)

     Called by *egterg:
     cdiaghg      :      5.59s CPU      2.86s WALL (    3590 calls)
     h_psi        :    477.53s CPU    241.42s WALL (    3617 calls)
     s_psi        :     28.46s CPU     14.24s WALL (    3617 calls)
     g_psi        :      3.03s CPU      1.52s WALL (    3050 calls)

     Called by h_psi:
     h_psi:calbec :     21.77s CPU     10.91s WALL (    3617 calls)
     vloc_psi     :    420.89s CPU    212.96s WALL (    3617 calls)
     add_vuspsi   :     31.09s CPU     15.57s WALL (    3617 calls)

     General routines
     calbec       :     27.99s CPU     14.03s WALL (    4292 calls)
     fft          :      3.22s CPU      1.65s WALL (     256 calls)
     ffts         :      0.23s CPU      0.12s WALL (      20 calls)
     fftw         :    423.65s CPU    214.56s WALL (  107024 calls)
 
     Parallel routines
 
     PWSCF        :  14m53.12s CPU   7m41.97s WALL

 
   This run was terminated on:  18: 7:11   9Apr2022            

=------------------------------------------------------------------------------=
   JOB DONE.
=------------------------------------------------------------------------------=
