
     Program PWSCF v.6.8 starts on  9Apr2022 at 17: 2: 3 

     This program is part of the open-source Quantum ESPRESSO suite
     for quantum simulation of materials; please cite
         "P. Giannozzi et al., J. Phys.:Condens. Matter 21 395502 (2009);
         "P. Giannozzi et al., J. Phys.:Condens. Matter 29 465901 (2017);
         "P. Giannozzi et al., J. Chem. Phys. 152 154105 (2020);
          URL http://www.quantum-espresso.org", 
     in publications or presentations arising from this work. More details at
     http://www.quantum-espresso.org/quote

     Parallel version (MPI & OpenMP), running on       4 processor cores
     Number of MPI processes:                 2
     Threads/MPI process:                     2

     MPI processes distributed on     1 nodes
     R & G space division:  proc/nbgrp/npool/nimage =       2
     125258 MiB available memory on the printing compute node when the environment starts
 
     Reading input from Ta2CH2.scf.5.400.in
Warning: card  &CELL ignored
Warning: card     CELL_DYNAMICS='BFGS' ignored
Warning: card  / ignored

     Current dimensions of program PWSCF are:
     Max number of different atomic species (ntypx) = 10
     Max number of k-points (npk) =  40000
     Max angular momentum in pseudopotentials (lmaxx) =  4
     file Ta.pbesol-spfn-rrkjus_psl.1.0.0.UPF: wavefunction(s)  5S 5P renormalized
     Message from routine setup:
     using ibrav=0 with symmetry is DISCOURAGED, use correct ibrav instead

     Subspace diagonalization in iterative solution of the eigenvalue problem:
     a serial algorithm will be used

 
     Parallelization info
     --------------------
     sticks:   dense  smooth     PW     G-vecs:    dense   smooth      PW
     Min         642     642    183               182890   182890   27341
     Max         643     643    184               182955   182955   27356
     Sum        1285    1285    367               365845   365845   54697
 
     Using Slab Decomposition
 


     bravais-lattice index     =            0
     lattice parameter (alat)  =       5.4000  a.u.
     unit-cell volume          =    1476.7077 (a.u.)^3
     number of atoms/cell      =            3
     number of atomic types    =            2
     number of electrons       =        58.00
     number of Kohn-Sham states=           29
     kinetic-energy cutoff     =     150.0000  Ry
     charge density cutoff     =     600.0000  Ry
     scf convergence threshold =      1.0E-12
     mixing beta               =       0.7000
     number of iterations used =            8  plain     mixing
     Exchange-correlation= PBESOL
                           (   1   4  10   8   0   0   0)

     celldm(1)=   5.400000  celldm(2)=   0.000000  celldm(3)=   0.000000
     celldm(4)=   0.000000  celldm(5)=   0.000000  celldm(6)=   0.000000

     crystal axes: (cart. coord. in units of alat)
               a(1) = (   1.040618   0.000000   0.000000 )  
               a(2) = (  -0.520309   0.901202   0.000000 )  
               a(3) = (   0.000000   0.000000  10.000000 )  

     reciprocal axes: (cart. coord. in units 2 pi/alat)
               b(1) = (  0.960967  0.554815  0.000000 )  
               b(2) = (  0.000000  1.109630  0.000000 )  
               b(3) = (  0.000000  0.000000  0.100000 )  


     PseudoPot. # 1 for Ta read from file:
     /shared/home/as3359/pseudo/Ta.pbesol-spfn-rrkjus_psl.1.0.0.UPF
     MD5 check sum: f099565ffaca9b150a52e9412a28e20b
     Pseudo is Ultrasoft + core correction, Zval = 27.0
     Generated using &quot;atomic&quot; code by A. Dal Corso  v.6.3
     Using radial grid of 1273 points,  8 beta functions with: 
                l(1) =   0
                l(2) =   0
                l(3) =   1
                l(4) =   1
                l(5) =   2
                l(6) =   2
                l(7) =   3
                l(8) =   3
     Q(r) pseudized with 0 coefficients 


     PseudoPot. # 2 for C  read from file:
     /shared/home/as3359/pseudo/C.pbesol-n-rrkjus_psl.1.0.0.UPF
     MD5 check sum: 05995be603a8a7c99da3dc4413f31573
     Pseudo is Ultrasoft + core correction, Zval =  4.0
     Generated using &quot;atomic&quot; code by A. Dal Corso  v.6.3MaX
     Using radial grid of 1073 points,  4 beta functions with: 
                l(1) =   0
                l(2) =   0
                l(3) =   1
                l(4) =   1
     Q(r) pseudized with 0 coefficients 


     atomic species   valence    mass     pseudopotential
        Ta            27.00   180.94788     Ta( 1.00)
        C              4.00    12.01070     C ( 1.00)

     12 Sym. Ops., with inversion, found



   Cartesian axes

     site n.     atom                  positions (alat units)
         1           C   tau(   1) = (   0.0000000   0.0000000   0.0000000  )
         2           Ta  tau(   2) = (   0.5203090   0.3004005  -0.4101496  )
         3           Ta  tau(   3) = (  -0.0000000   0.6008011   0.4101496  )

     number of k points=    27
                       cart. coord. in units 2pi/alat
        k(    1) = (   0.0000000   0.0000000   0.0000000), wk =   0.0088889
        k(    2) = (   0.0000000   0.0739753   0.0000000), wk =   0.0533333
        k(    3) = (   0.0000000   0.1479506   0.0000000), wk =   0.0533333
        k(    4) = (   0.0000000   0.2219259   0.0000000), wk =   0.0533333
        k(    5) = (   0.0000000   0.2959012   0.0000000), wk =   0.0533333
        k(    6) = (   0.0000000   0.3698766   0.0000000), wk =   0.0533333
        k(    7) = (   0.0000000   0.4438519   0.0000000), wk =   0.0533333
        k(    8) = (   0.0000000   0.5178272   0.0000000), wk =   0.0533333
        k(    9) = (   0.0640645   0.1109630   0.0000000), wk =   0.0533333
        k(   10) = (   0.0640645   0.1849383   0.0000000), wk =   0.1066667
        k(   11) = (   0.0640645   0.2589136   0.0000000), wk =   0.1066667
        k(   12) = (   0.0640645   0.3328889   0.0000000), wk =   0.1066667
        k(   13) = (   0.0640645   0.4068642   0.0000000), wk =   0.1066667
        k(   14) = (   0.0640645   0.4808395   0.0000000), wk =   0.1066667
        k(   15) = (   0.0640645   0.5548148   0.0000000), wk =   0.0533333
        k(   16) = (   0.1281290   0.2219259   0.0000000), wk =   0.0533333
        k(   17) = (   0.1281290   0.2959012   0.0000000), wk =   0.1066667
        k(   18) = (   0.1281290   0.3698766   0.0000000), wk =   0.1066667
        k(   19) = (   0.1281290   0.4438519   0.0000000), wk =   0.1066667
        k(   20) = (   0.1281290   0.5178272   0.0000000), wk =   0.1066667
        k(   21) = (   0.1921935   0.3328889   0.0000000), wk =   0.0533333
        k(   22) = (   0.1921935   0.4068642   0.0000000), wk =   0.1066667
        k(   23) = (   0.1921935   0.4808395   0.0000000), wk =   0.1066667
        k(   24) = (   0.1921935   0.5548148   0.0000000), wk =   0.0533333
        k(   25) = (   0.2562580   0.4438519   0.0000000), wk =   0.0533333
        k(   26) = (   0.2562580   0.5178272   0.0000000), wk =   0.1066667
        k(   27) = (   0.3203225   0.5548148   0.0000000), wk =   0.0177778

     Dense  grid:   365845 G-vectors     FFT dimensions: (  45,  45, 432)

     Estimated max dynamical RAM per process >       2.01 GB

     Estimated total dynamical RAM >       4.01 GB

     Atomic positions and unit cell read from directory:
     /scratch/as3359/Mos2_ct_lat/Ta2CH2.save/
     Message from routine qexsd_readschema :
     xml data file /scratch/as3359/Mos2_ct_lat/Ta2CH2.save/data-file-schema.xml not f
     Nothing found: using input atomic positions and unit cell

     Cannot read rho : file not found

     Initial potential from superposition of free atoms

     starting charge   57.99842, renormalised to   58.00000

     negative rho (up, down):  9.307E-05 0.000E+00
     Message from routine qexsd_readschema :
     xml data file /scratch/as3359/Mos2_ct_lat/Ta2CH2.save/data-file-schema.xml not f
     Cannot read wfcs: file not found
     Starting wfcs are   38 randomized atomic wfcs

     total cpu time spent up to now is       12.0 secs

     Self-consistent Calculation

     iteration #  1     ecut=   150.00 Ry     beta= 0.70
     Davidson diagonalization with overlap
     ethr =  1.00E-05,  avg # of iterations = 12.3

     negative rho (up, down):  8.455E-05 0.000E+00

     total cpu time spent up to now is       47.4 secs

     total energy              =   -1372.33522201 Ry
     estimated scf accuracy    <       1.47502023 Ry

     iteration #  2     ecut=   150.00 Ry     beta= 0.70
     Davidson diagonalization with overlap
     c_bands:  1 eigenvalues not converged
     c_bands:  1 eigenvalues not converged
     c_bands:  1 eigenvalues not converged
     ethr =  2.54E-03,  avg # of iterations =  9.6

     total cpu time spent up to now is       70.9 secs

     total energy              =   -1370.54994563 Ry
     estimated scf accuracy    <      17.30618029 Ry

     iteration #  3     ecut=   150.00 Ry     beta= 0.70
     Davidson diagonalization with overlap
     ethr =  2.54E-03,  avg # of iterations =  7.6

     total cpu time spent up to now is       92.5 secs

     total energy              =   -1373.18989653 Ry
     estimated scf accuracy    <       0.31084531 Ry

     iteration #  4     ecut=   150.00 Ry     beta= 0.70
     Davidson diagonalization with overlap
     ethr =  5.36E-04,  avg # of iterations =  3.6

     total cpu time spent up to now is      109.2 secs

     total energy              =   -1373.23916889 Ry
     estimated scf accuracy    <       0.06198515 Ry

     iteration #  5     ecut=   150.00 Ry     beta= 0.70
     Davidson diagonalization with overlap
     ethr =  1.07E-04,  avg # of iterations =  3.4

     total cpu time spent up to now is      125.4 secs

     total energy              =   -1373.23742484 Ry
     estimated scf accuracy    <       0.03906060 Ry

     iteration #  6     ecut=   150.00 Ry     beta= 0.70
     Davidson diagonalization with overlap
     ethr =  6.73E-05,  avg # of iterations =  1.9

     total cpu time spent up to now is      139.9 secs

     total energy              =   -1373.23022482 Ry
     estimated scf accuracy    <       0.02202066 Ry

     iteration #  7     ecut=   150.00 Ry     beta= 0.70
     Davidson diagonalization with overlap
     ethr =  3.80E-05,  avg # of iterations =  3.0

     total cpu time spent up to now is      155.7 secs

     total energy              =   -1373.23205648 Ry
     estimated scf accuracy    <       0.00296339 Ry

     iteration #  8     ecut=   150.00 Ry     beta= 0.70
     Davidson diagonalization with overlap
     ethr =  5.11E-06,  avg # of iterations =  5.4

     negative rho (up, down):  6.333E-03 0.000E+00

     total cpu time spent up to now is      172.4 secs

     total energy              =   -1373.23213157 Ry
     estimated scf accuracy    <       0.00119388 Ry

     iteration #  9     ecut=   150.00 Ry     beta= 0.70
     Davidson diagonalization with overlap
     ethr =  2.06E-06,  avg # of iterations =  2.7

     total cpu time spent up to now is      187.9 secs

     total energy              =   -1373.23190464 Ry
     estimated scf accuracy    <       0.00040110 Ry

     iteration # 10     ecut=   150.00 Ry     beta= 0.70
     Davidson diagonalization with overlap
     ethr =  6.92E-07,  avg # of iterations =  4.0

     negative rho (up, down):  2.095E-03 0.000E+00

     total cpu time spent up to now is      204.6 secs

     total energy              =   -1373.23200943 Ry
     estimated scf accuracy    <       0.00007725 Ry

     iteration # 11     ecut=   150.00 Ry     beta= 0.70
     Davidson diagonalization with overlap
     ethr =  1.33E-07,  avg # of iterations =  5.7

     negative rho (up, down):  9.273E-05 0.000E+00

     total cpu time spent up to now is      224.3 secs

     total energy              =   -1373.23198752 Ry
     estimated scf accuracy    <       0.00005477 Ry

     iteration # 12     ecut=   150.00 Ry     beta= 0.70
     Davidson diagonalization with overlap
     ethr =  9.44E-08,  avg # of iterations =  3.3

     negative rho (up, down):  9.067E-05 0.000E+00

     total cpu time spent up to now is      240.6 secs

     total energy              =   -1373.23199698 Ry
     estimated scf accuracy    <       0.00000107 Ry

     iteration # 13     ecut=   150.00 Ry     beta= 0.70
     Davidson diagonalization with overlap
     ethr =  1.85E-09,  avg # of iterations =  8.4

     negative rho (up, down):  9.390E-05 0.000E+00

     total cpu time spent up to now is      263.4 secs

     total energy              =   -1373.23199780 Ry
     estimated scf accuracy    <       0.00000020 Ry

     iteration # 14     ecut=   150.00 Ry     beta= 0.70
     Davidson diagonalization with overlap
     ethr =  3.38E-10,  avg # of iterations =  4.3

     negative rho (up, down):  9.530E-05 0.000E+00

     total cpu time spent up to now is      280.6 secs

     total energy              =   -1373.23199781 Ry
     estimated scf accuracy    <       0.00000008 Ry

     iteration # 15     ecut=   150.00 Ry     beta= 0.70
     Davidson diagonalization with overlap
     ethr =  1.39E-10,  avg # of iterations =  5.1

     negative rho (up, down):  9.479E-05 0.000E+00

     total cpu time spent up to now is      297.6 secs

     total energy              =   -1373.23199782 Ry
     estimated scf accuracy    <          8.5E-09 Ry

     iteration # 16     ecut=   150.00 Ry     beta= 0.70
     Davidson diagonalization with overlap
     ethr =  1.47E-11,  avg # of iterations =  6.0

     negative rho (up, down):  9.455E-05 0.000E+00

     total cpu time spent up to now is      315.7 secs

     total energy              =   -1373.23199782 Ry
     estimated scf accuracy    <          2.7E-09 Ry

     iteration # 17     ecut=   150.00 Ry     beta= 0.70
     Davidson diagonalization with overlap
     ethr =  4.69E-12,  avg # of iterations =  4.1

     negative rho (up, down):  9.461E-05 0.000E+00

     total cpu time spent up to now is      332.5 secs

     total energy              =   -1373.23199782 Ry
     estimated scf accuracy    <          4.6E-10 Ry

     iteration # 18     ecut=   150.00 Ry     beta= 0.70
     Davidson diagonalization with overlap
     ethr =  7.93E-13,  avg # of iterations =  7.4

     negative rho (up, down):  9.462E-05 0.000E+00

     total cpu time spent up to now is      352.2 secs

     total energy              =   -1373.23199782 Ry
     estimated scf accuracy    <          6.1E-11 Ry

     iteration # 19     ecut=   150.00 Ry     beta= 0.70
     Davidson diagonalization with overlap
     ethr =  1.06E-13,  avg # of iterations =  4.8

     negative rho (up, down):  9.459E-05 0.000E+00

     total cpu time spent up to now is      369.4 secs

     total energy              =   -1373.23199782 Ry
     estimated scf accuracy    <          5.7E-12 Ry

     iteration # 20     ecut=   150.00 Ry     beta= 0.70
     Davidson diagonalization with overlap
     ethr =  1.00E-13,  avg # of iterations =  2.2

     negative rho (up, down):  9.459E-05 0.000E+00

     total cpu time spent up to now is      384.4 secs

     End of self-consistent calculation

          k = 0.0000 0.0000 0.0000 ( 45535 PWs)   bands (ev):

   -67.7117 -67.6398 -34.9180 -34.1081 -33.7981 -33.7981 -33.7098 -33.7098
   -19.3221 -19.3069 -19.2758 -19.2758 -19.2756 -19.2756 -19.2356 -19.2356
   -19.2324 -19.2312 -19.2312 -19.2277 -19.1487 -19.1466 -13.1322  -7.6784
    -4.3873  -4.3873  -1.4308  -0.6311  -0.4394

          k = 0.0000 0.0740 0.0000 ( 45531 PWs)   bands (ev):

   -67.7082 -67.6376 -34.9077 -34.1138 -33.8369 -33.8123 -33.7459 -33.7141
   -19.3208 -19.3062 -19.2776 -19.2766 -19.2748 -19.2738 -19.2374 -19.2355
   -19.2317 -19.2307 -19.2298 -19.2254 -19.1510 -19.1491 -13.0503  -7.5223
    -4.6007  -4.3564  -1.3777  -0.7683  -0.3022

          k = 0.0000 0.1480 0.0000 ( 45621 PWs)   bands (ev):

   -67.6982 -67.6317 -34.8789 -34.1407 -33.9347 -33.8502 -33.8460 -33.7285
   -19.3173 -19.3044 -19.2809 -19.2772 -19.2741 -19.2707 -19.2413 -19.2354
   -19.2327 -19.2292 -19.2235 -19.2190 -19.1574 -19.1558 -12.8269  -7.0899
    -5.0917  -4.2854  -1.3447  -1.0931  -0.4666

          k = 0.0000 0.2219 0.0000 ( 45743 PWs)   bands (ev):

   -67.6832 -67.6232 -34.8386 -34.2317 -34.0281 -33.9835 -33.9024 -33.7528
   -19.3129 -19.3017 -19.2848 -19.2781 -19.2731 -19.2668 -19.2464 -19.2352
   -19.2340 -19.2269 -19.2143 -19.2096 -19.1666 -19.1651 -12.5223  -6.5468
    -5.5637  -4.2248  -1.8003  -1.2268  -0.7137

          k = 0.0000 0.2959 0.0000 ( 45833 PWs)   bands (ev):

   -67.6654 -67.6139 -34.7999 -34.3946 -34.1399 -34.0605 -33.9591 -33.7833
   -19.3106 -19.2972 -19.2884 -19.2792 -19.2723 -19.2632 -19.2513 -19.2352
   -19.2348 -19.2238 -19.2033 -19.1987 -19.1768 -19.1748 -12.2156  -6.4988
    -5.4479  -4.2155  -2.4448  -1.2010  -0.6100

          k = 0.0000 0.3699 0.0000 ( 45813 PWs)   bands (ev):

   -67.6475 -67.6058 -34.7832 -34.5618 -34.2506 -34.0892 -34.0112 -33.8139
   -19.3110 -19.2919 -19.2901 -19.2806 -19.2729 -19.2611 -19.2542 -19.2362
   -19.2338 -19.2205 -19.1922 -19.1883 -19.1864 -19.1829 -11.9734  -6.8177
    -5.0407  -4.2569  -2.9872  -0.8424  -0.2781

          k = 0.0000 0.4439 0.0000 ( 45855 PWs)   bands (ev):

   -67.6325 -67.6005 -34.8025 -34.6861 -34.3025 -34.1144 -34.0509 -33.8384
   -19.3124 -19.2915 -19.2872 -19.2819 -19.2744 -19.2605 -19.2548 -19.2368
   -19.2325 -19.2176 -19.1937 -19.1885 -19.1832 -19.1802 -11.8239  -7.0638
    -4.8534  -4.3157  -3.3600  -0.1664   0.1812

          k = 0.0000 0.5178 0.0000 ( 45821 PWs)   bands (ev):

   -67.6235 -67.5984 -34.8343 -34.7458 -34.3113 -34.1326 -34.0723 -33.8520
   -19.3133 -19.2908 -19.2867 -19.2827 -19.2748 -19.2606 -19.2545 -19.2371
   -19.2315 -19.2158 -19.1976 -19.1913 -19.1781 -19.1758 -11.7579  -7.1871
    -4.8146  -4.3555  -3.5473   0.4299   0.5435

          k = 0.0641 0.1110 0.0000 ( 45629 PWs)   bands (ev):

   -67.7015 -67.6336 -34.8881 -34.1293 -33.8977 -33.8630 -33.7911 -33.7302
   -19.3183 -19.3050 -19.2793 -19.2782 -19.2734 -19.2721 -19.2401 -19.2356
   -19.2322 -19.2299 -19.2255 -19.2210 -19.1554 -19.1536 -12.8976  -7.2253
    -4.9393  -4.3242  -1.3183  -0.9646  -0.3675

          k = 0.0641 0.1849 0.0000 ( 45730 PWs)   bands (ev):

   -67.6890 -67.6264 -34.8533 -34.1832 -33.9934 -33.9634 -33.8524 -33.7567
   -19.3141 -19.3030 -19.2827 -19.2793 -19.2724 -19.2686 -19.2444 -19.2358
   -19.2328 -19.2283 -19.2178 -19.2131 -19.1631 -19.1618 -12.6332  -6.7020
    -5.4188  -4.3137  -1.4347  -1.1713  -0.7402

          k = 0.0641 0.2589 0.0000 ( 45792 PWs)   bands (ev):

   -67.6725 -67.6175 -34.8130 -34.3118 -34.1057 -34.0408 -33.9228 -33.7874
   -19.3101 -19.3000 -19.2865 -19.2802 -19.2715 -19.2648 -19.2495 -19.2362
   -19.2330 -19.2257 -19.2077 -19.2030 -19.1728 -19.1715 -12.3271  -6.3016
    -5.6528  -4.3494  -2.0353  -1.0819  -0.8207

          k = 0.0641 0.3329 0.0000 ( 45832 PWs)   bands (ev):

   -67.6547 -67.6089 -34.7835 -34.4774 -34.2185 -34.0820 -33.9862 -33.8203
   -19.3091 -19.2948 -19.2893 -19.2812 -19.2715 -19.2621 -19.2535 -19.2366
   -19.2329 -19.2227 -19.1967 -19.1924 -19.1828 -19.1804 -12.0535  -6.5681
    -5.2080  -4.4151  -2.6089  -0.8854  -0.6158

          k = 0.0641 0.4069 0.0000 ( 45837 PWs)   bands (ev):

   -67.6381 -67.6023 -34.7833 -34.6227 -34.2881 -34.1195 -34.0330 -33.8499
   -19.3102 -19.2910 -19.2892 -19.2819 -19.2731 -19.2609 -19.2552 -19.2368
   -19.2323 -19.2196 -19.1915 -19.1878 -19.1862 -19.1831 -11.8604  -6.8673
    -4.8849  -4.4746  -3.0256  -0.4360  -0.1817

          k = 0.0641 0.4808 0.0000 ( 45881 PWs)   bands (ev):

   -67.6258 -67.5989 -34.8102 -34.7137 -34.3071 -34.1534 -34.0607 -33.8704
   -19.3115 -19.2909 -19.2869 -19.2821 -19.2745 -19.2608 -19.2553 -19.2368
   -19.2318 -19.2172 -19.1971 -19.1917 -19.1794 -19.1769 -11.7559  -7.0525
    -4.7888  -4.5262  -3.2670   0.1559   0.3042

          k = 0.0641 0.5548 0.0000 ( 45871 PWs)   bands (ev):

   -67.6210 -67.5981 -34.8275 -34.7424 -34.3061 -34.1684 -34.0700 -33.8778
   -19.3120 -19.2906 -19.2865 -19.2826 -19.2746 -19.2610 -19.2552 -19.2368
   -19.2315 -19.2163 -19.1991 -19.1932 -19.1768 -19.1748 -11.7243  -7.1139
    -4.7718  -4.5548  -3.3454   0.4832   0.4960

          k = 0.1281 0.2219 0.0000 ( 45761 PWs)   bands (ev):

   -67.6750 -67.6188 -34.8180 -34.2710 -34.1108 -34.0304 -33.8894 -33.8069
   -19.3093 -19.3015 -19.2847 -19.2820 -19.2707 -19.2657 -19.2486 -19.2367
   -19.2318 -19.2271 -19.2092 -19.2045 -19.1714 -19.1705 -12.3667  -6.1298
    -5.7943  -4.4754  -1.6452  -1.2944  -0.6631

          k = 0.1281 0.2959 0.0000 ( 45819 PWs)   bands (ev):

   -67.6585 -67.6106 -34.7846 -34.4000 -34.2285 -34.0683 -33.9564 -33.8535
   -19.3054 -19.2989 -19.2871 -19.2835 -19.2699 -19.2630 -19.2529 -19.2373
   -19.2306 -19.2253 -19.1991 -19.1947 -19.1808 -19.1798 -12.0940  -6.1911
    -5.4642  -4.6707  -2.0958  -1.1615  -0.4370

          k = 0.1281 0.3699 0.0000 ( 45814 PWs)   bands (ev):

   -67.6418 -67.6036 -34.7681 -34.5385 -34.2981 -34.1172 -34.0190 -33.8925
   -19.3055 -19.2936 -19.2890 -19.2836 -19.2708 -19.2617 -19.2559 -19.2373
   -19.2303 -19.2228 -19.1907 -19.1893 -19.1872 -19.1848 -11.8729  -6.5118
    -4.9521  -4.8153  -2.4691  -0.7922  -0.3710

          k = 0.1281 0.4439 0.0000 ( 45863 PWs)   bands (ev):

   -67.6276 -67.5992 -34.7746 -34.6480 -34.3163 -34.1808 -34.0534 -33.9230
   -19.3068 -19.2901 -19.2887 -19.2822 -19.2731 -19.2615 -19.2570 -19.2366
   -19.2308 -19.2202 -19.1973 -19.1938 -19.1805 -19.1778 -11.7306  -6.7419
    -4.9024  -4.7029  -2.7059  -0.2634  -0.0944

          k = 0.1281 0.5178 0.0000 ( 45908 PWs)   bands (ev):

   -67.6188 -67.5978 -34.7891 -34.7055 -34.2994 -34.2363 -34.0677 -33.9405
   -19.3078 -19.2904 -19.2860 -19.2818 -19.2743 -19.2618 -19.2574 -19.2358
   -19.2317 -19.2186 -19.2012 -19.1966 -19.1758 -19.1739 -11.6649  -6.8603
    -4.9300  -4.6544  -2.8244   0.1696   0.2479

          k = 0.1922 0.3329 0.0000 ( 45801 PWs)   bands (ev):

   -67.6431 -67.6041 -34.7627 -34.4858 -34.3268 -34.1011 -34.0117 -33.9236
   -19.2995 -19.2993 -19.2866 -19.2859 -19.2697 -19.2620 -19.2562 -19.2375
   -19.2278 -19.2256 -19.1909 -19.1896 -19.1877 -19.1854 -11.8748  -6.2610
    -5.1819  -4.8663  -2.0209  -1.2755  -0.1028

          k = 0.1922 0.4069 0.0000 ( 45842 PWs)   bands (ev):

   -67.6285 -67.5994 -34.7511 -34.5699 -34.3714 -34.1575 -34.0628 -33.9752
   -19.3008 -19.2936 -19.2873 -19.2842 -19.2713 -19.2621 -19.2584 -19.2368
   -19.2280 -19.2242 -19.1972 -19.1959 -19.1811 -19.1783 -11.7078  -6.3922
    -5.2595  -4.6515  -2.0150  -0.9806  -0.2629

          k = 0.1922 0.4808 0.0000 ( 45865 PWs)   bands (ev):

   -67.6173 -67.5977 -34.7425 -34.6384 -34.3704 -34.2327 -34.0782 -34.0115
   -19.3022 -19.2905 -19.2863 -19.2813 -19.2736 -19.2628 -19.2599 -19.2353
   -19.2303 -19.2221 -19.2026 -19.2002 -19.1752 -19.1734 -11.6083  -6.5116
    -5.3223  -4.5108  -2.1079  -0.4157  -0.1441

          k = 0.1922 0.5548 0.0000 ( 45883 PWs)   bands (ev):

   -67.6126 -67.5977 -34.7352 -34.6684 -34.3561 -34.2744 -34.0773 -34.0278
   -19.3028 -19.2901 -19.2845 -19.2808 -19.2742 -19.2630 -19.2607 -19.2339
   -19.2321 -19.2213 -19.2046 -19.2016 -19.1731 -19.1718 -11.5759  -6.5586
    -5.3370  -4.4771  -2.1570  -0.1074  -0.0318

          k = 0.2563 0.4439 0.0000 ( 45821 PWs)   bands (ev):

   -67.6167 -67.5976 -34.7224 -34.5811 -34.4389 -34.2034 -34.1055 -34.0357
   -19.2987 -19.2916 -19.2857 -19.2821 -19.2728 -19.2632 -19.2611 -19.2353
   -19.2282 -19.2249 -19.2028 -19.2021 -19.1751 -19.1732 -11.5851  -6.2897
    -5.5505  -4.4404  -1.3929  -1.1103  -0.3281

          k = 0.2563 0.5178 0.0000 ( 45870 PWs)   bands (ev):

   -67.6085 -67.5984 -34.6781 -34.6071 -34.4722 -34.2570 -34.1049 -34.0767
   -19.2991 -19.2888 -19.2847 -19.2790 -19.2743 -19.2642 -19.2636 -19.2332
   -19.2307 -19.2244 -19.2063 -19.2051 -19.1716 -19.1707 -11.5203  -6.2493
    -5.6839  -4.3250  -1.3692  -0.6226  -0.3299

          k = 0.3203 0.5548 0.0000 ( 45831 PWs)   bands (ev):

   -67.6020 -67.6020 -34.5877 -34.5877 -34.5791 -34.2725 -34.1062 -34.1062
   -19.2984 -19.2858 -19.2858 -19.2759 -19.2759 -19.2658 -19.2650 -19.2314
   -19.2314 -19.2257 -19.2073 -19.2073 -19.1700 -19.1700 -11.4882  -5.9818
    -5.9818  -4.2434  -0.8295  -0.6522  -0.6522

     highest occupied level (ev):     0.5435

!    total energy              =   -1373.23199782 Ry
     estimated scf accuracy    <          8.4E-13 Ry

     The total energy is the sum of the following terms:
     one-electron contribution =  -11055.12391534 Ry
     hartree contribution      =    5557.13812009 Ry
     xc contribution           =    -139.04334258 Ry
     ewald contribution        =    4263.79714000 Ry

     convergence has been achieved in  20 iterations

     negative rho (up, down):  9.459E-05 0.000E+00

     Forces acting on atoms (cartesian axes, Ry/au):

     atom    1 type  2   force =     0.00000000   -0.00000000    0.00000000
     atom    2 type  1   force =    -0.00000000   -0.00000000   -0.07553159
     atom    3 type  1   force =     0.00000000   -0.00000000    0.07553159

     Total force =     0.106818     Total SCF correction =     0.000007


     Computing stress (Cartesian axis) and pressure


     negative rho (up, down):  9.459E-05 0.000E+00
          total   stress  (Ry/bohr**3)                   (kbar)     P=       47.59
   0.00037238  -0.00000000  -0.00000000           54.78       -0.00       -0.00
  -0.00000000   0.00037238  -0.00000000           -0.00       54.78       -0.00
   0.00000000   0.00000000   0.00022586            0.00        0.00       33.23


     Writing output data file /scratch/as3359/Mos2_ct_lat/Ta2CH2.save/
 
     init_run     :     20.55s CPU     11.75s WALL (       1 calls)
     electrons    :    722.53s CPU    372.51s WALL (       1 calls)
     forces       :      8.00s CPU      4.20s WALL (       1 calls)
     stress       :     28.98s CPU     15.13s WALL (       1 calls)

     Called by init_run:
     wfcinit      :     12.73s CPU      6.59s WALL (       1 calls)
     potinit      :      1.87s CPU      0.95s WALL (       1 calls)
     hinit0       :      4.24s CPU      3.06s WALL (       1 calls)

     Called by electrons:
     c_bands      :    562.83s CPU    284.34s WALL (      20 calls)
     sum_band     :    121.30s CPU     65.00s WALL (      20 calls)
     v_of_rho     :      5.79s CPU      3.15s WALL (      21 calls)
     newd         :     31.83s CPU     19.72s WALL (      21 calls)
     mix_rho      :      2.21s CPU      1.18s WALL (      20 calls)

     Called by c_bands:
     init_us_2    :     13.40s CPU      6.71s WALL (    1161 calls)
     cegterg      :    523.99s CPU    264.78s WALL (     540 calls)

     Called by *egterg:
     cdiaghg      :      5.13s CPU      2.64s WALL (    3371 calls)
     h_psi        :    419.98s CPU    212.57s WALL (    3398 calls)
     s_psi        :     23.78s CPU     11.90s WALL (    3398 calls)
     g_psi        :      2.08s CPU      1.05s WALL (    2831 calls)

     Called by h_psi:
     h_psi:calbec :     17.63s CPU      8.85s WALL (    3398 calls)
     vloc_psi     :    372.84s CPU    188.85s WALL (    3398 calls)
     add_vuspsi   :     26.36s CPU     13.21s WALL (    3398 calls)

     General routines
     calbec       :     22.94s CPU     11.52s WALL (    4073 calls)
     fft          :      2.95s CPU      1.52s WALL (     256 calls)
     ffts         :      0.20s CPU      0.10s WALL (      20 calls)
     fftw         :    377.16s CPU    191.15s WALL (  103016 calls)
 
     Parallel routines
 
     PWSCF        :  13m 1.82s CPU   6m45.21s WALL

 
   This run was terminated on:  17: 8:48   9Apr2022            

=------------------------------------------------------------------------------=
   JOB DONE.
=------------------------------------------------------------------------------=
