
     Program PWSCF v.6.8 starts on 24Mar2022 at 22:49:35 

     This program is part of the open-source Quantum ESPRESSO suite
     for quantum simulation of materials; please cite
         "P. Giannozzi et al., J. Phys.:Condens. Matter 21 395502 (2009);
         "P. Giannozzi et al., J. Phys.:Condens. Matter 29 465901 (2017);
         "P. Giannozzi et al., J. Chem. Phys. 152 154105 (2020);
          URL http://www.quantum-espresso.org", 
     in publications or presentations arising from this work. More details at
     http://www.quantum-espresso.org/quote

     Parallel version (MPI & OpenMP), running on       4 processor cores
     Number of MPI processes:                 2
     Threads/MPI process:                     2

     MPI processes distributed on     1 nodes
     R & G space division:  proc/nbgrp/npool/nimage =       2
     124542 MiB available memory on the printing compute node when the environment starts
 
     Reading input from Ta2CH2.relax.in
Warning: card  &CELL ignored
Warning: card     CELL_DYNAMICS='BFGS', CELL_DOFREE ='2DXY' ignored
Warning: card  / ignored

     Current dimensions of program PWSCF are:
     Max number of different atomic species (ntypx) = 10
     Max number of k-points (npk) =  40000
     Max angular momentum in pseudopotentials (lmaxx) =  4
     file Ta.pbesol-spfn-rrkjus_psl.1.0.0.UPF: wavefunction(s)  5S 5P renormalized

     Subspace diagonalization in iterative solution of the eigenvalue problem:
     a serial algorithm will be used

 
     Parallelization info
     --------------------
     sticks:   dense  smooth     PW     G-vecs:    dense   smooth      PW
     Min         765     306     99               239667    60489   11079
     Max         766     307    100               239702    60490   11102
     Sum        1531     613    199               479369   120979   22181
 
     Using Slab Decomposition
 


     bravais-lattice index     =            0
     lattice parameter (alat)  =       5.5500  a.u.
     unit-cell volume          =    1533.2393 (a.u.)^3
     number of atoms/cell      =            5
     number of atomic types    =            3
     number of electrons       =        60.00
     number of Kohn-Sham states=           36
     kinetic-energy cutoff     =      70.0000  Ry
     charge density cutoff     =     700.0000  Ry
     scf convergence threshold =      1.0E-12
     mixing beta               =       0.7000
     number of iterations used =            8  plain     mixing
     energy convergence thresh.=      1.0E-04
     force convergence thresh. =      1.0E-03
     Exchange-correlation= PBESOL
                           (   1   4  10   8   0   0   0)
     nstep                     =           50


     celldm(1)=   5.550000  celldm(2)=   0.000000  celldm(3)=   0.000000
     celldm(4)=   0.000000  celldm(5)=   0.000000  celldm(6)=   0.000000

     crystal axes: (cart. coord. in units of alat)
               a(1) = (   1.017295  -0.000177   0.000000 )  
               a(2) = (  -0.508801   0.881714   0.000000 )  
               a(3) = (   0.000000   0.000000  10.000000 )  

     reciprocal axes: (cart. coord. in units 2 pi/alat)
               b(1) = (  0.983098  0.567305  0.000000 )  
               b(2) = (  0.000198  1.134269  0.000000 )  
               b(3) = (  0.000000  0.000000  0.100000 )  


     PseudoPot. # 1 for Ta read from file:
     /shared/home/as3359/pseudo/Ta.pbesol-spfn-rrkjus_psl.1.0.0.UPF
     MD5 check sum: f099565ffaca9b150a52e9412a28e20b
     Pseudo is Ultrasoft + core correction, Zval = 27.0
     Generated using &quot;atomic&quot; code by A. Dal Corso  v.6.3
     Using radial grid of 1273 points,  8 beta functions with: 
                l(1) =   0
                l(2) =   0
                l(3) =   1
                l(4) =   1
                l(5) =   2
                l(6) =   2
                l(7) =   3
                l(8) =   3
     Q(r) pseudized with 0 coefficients 


     PseudoPot. # 2 for C  read from file:
     /shared/home/as3359/pseudo/C.pbesol-n-rrkjus_psl.1.0.0.UPF
     MD5 check sum: 05995be603a8a7c99da3dc4413f31573
     Pseudo is Ultrasoft + core correction, Zval =  4.0
     Generated using &quot;atomic&quot; code by A. Dal Corso  v.6.3MaX
     Using radial grid of 1073 points,  4 beta functions with: 
                l(1) =   0
                l(2) =   0
                l(3) =   1
                l(4) =   1
     Q(r) pseudized with 0 coefficients 


     PseudoPot. # 3 for H  read from file:
     /shared/home/as3359/pseudo/H.pbesol-rrkjus_psl.0.1.UPF
     MD5 check sum: 1dbb1a5c48b1283557b8117eb856a7ca
     Pseudo is Ultrasoft, Zval =  1.0
     Generated using "atomic" code by A. Dal Corso  v.5.0.2 svn rev. 9415
     Using radial grid of  929 points,  2 beta functions with: 
                l(1) =   0
                l(2) =   0
     Q(r) pseudized with 0 coefficients 


     atomic species   valence    mass     pseudopotential
        Ta            27.00   180.94788     Ta( 1.00)
        C              4.00    12.01070     C ( 1.00)
        H              1.00     1.00000     H ( 1.00)

     No symmetry found



   Cartesian axes

     site n.     atom                  positions (alat units)
         1           C   tau(   1) = (   0.0000000   0.0000000   0.0000000  )
         2           Ta  tau(   2) = (   0.5088008   0.2948413  -0.4364511  )
         3           Ta  tau(   3) = (  -0.0007447   0.5869407   0.4364532  )
         4           H   tau(   4) = (  -0.0017928  -0.0015314   0.8341930  )
         5           H   tau(   5) = (   0.0002769   0.0024412  -0.8341930  )

     number of k points=    74  Marzari-Vanderbilt smearing, width (Ry)=  0.0010
                       cart. coord. in units 2pi/alat
        k(    1) = (   0.0000000   0.0000000   0.0000000), wk =   0.0138889
        k(    2) = (   0.0000165   0.0945224   0.0000000), wk =   0.0277778
        k(    3) = (   0.0000329   0.1890448   0.0000000), wk =   0.0277778
        k(    4) = (   0.0000494   0.2835672   0.0000000), wk =   0.0277778
        k(    5) = (   0.0000659   0.3780896   0.0000000), wk =   0.0277778
        k(    6) = (   0.0000823   0.4726120   0.0000000), wk =   0.0277778
        k(    7) = (  -0.0000988  -0.5671343   0.0000000), wk =   0.0138889
        k(    8) = (   0.0819248   0.0472755   0.0000000), wk =   0.0277778
        k(    9) = (   0.0819413   0.1417978   0.0000000), wk =   0.0277778
        k(   10) = (   0.0819577   0.2363202   0.0000000), wk =   0.0277778
        k(   11) = (   0.0819742   0.3308426   0.0000000), wk =   0.0277778
        k(   12) = (   0.0819907   0.4253650   0.0000000), wk =   0.0277778
        k(   13) = (   0.0820071   0.5198874   0.0000000), wk =   0.0277778
        k(   14) = (   0.0818260  -0.5198589   0.0000000), wk =   0.0277778
        k(   15) = (   0.0818425  -0.4253365   0.0000000), wk =   0.0277778
        k(   16) = (   0.0818590  -0.3308141   0.0000000), wk =   0.0277778
        k(   17) = (   0.0818754  -0.2362917   0.0000000), wk =   0.0277778
        k(   18) = (   0.0818919  -0.1417693   0.0000000), wk =   0.0277778
        k(   19) = (   0.0819084  -0.0472469   0.0000000), wk =   0.0277778
        k(   20) = (   0.1638496   0.0945509   0.0000000), wk =   0.0277778
        k(   21) = (   0.1638661   0.1890733   0.0000000), wk =   0.0277778
        k(   22) = (   0.1638826   0.2835957   0.0000000), wk =   0.0277778
        k(   23) = (   0.1638990   0.3781181   0.0000000), wk =   0.0277778
        k(   24) = (   0.1639155   0.4726405   0.0000000), wk =   0.0277778
        k(   25) = (   0.1639319   0.5671629   0.0000000), wk =   0.0277778
        k(   26) = (   0.1637508  -0.4725834   0.0000000), wk =   0.0277778
        k(   27) = (   0.1637673  -0.3780610   0.0000000), wk =   0.0277778
        k(   28) = (   0.1637838  -0.2835386   0.0000000), wk =   0.0277778
        k(   29) = (   0.1638002  -0.1890163   0.0000000), wk =   0.0277778
        k(   30) = (   0.1638167  -0.0944939   0.0000000), wk =   0.0277778
        k(   31) = (   0.1638332   0.0000285   0.0000000), wk =   0.0277778
        k(   32) = (   0.2457744   0.1418264   0.0000000), wk =   0.0277778
        k(   33) = (   0.2457909   0.2363488   0.0000000), wk =   0.0277778
        k(   34) = (   0.2458074   0.3308711   0.0000000), wk =   0.0277778
        k(   35) = (   0.2458238   0.4253935   0.0000000), wk =   0.0277778
        k(   36) = (   0.2458403   0.5199159   0.0000000), wk =   0.0277778
        k(   37) = (   0.2458568   0.6144383   0.0000000), wk =   0.0277778
        k(   38) = (   0.2456757  -0.4253080   0.0000000), wk =   0.0277778
        k(   39) = (   0.2456921  -0.3307856   0.0000000), wk =   0.0277778
        k(   40) = (   0.2457086  -0.2362632   0.0000000), wk =   0.0277778
        k(   41) = (   0.2457251  -0.1417408   0.0000000), wk =   0.0277778
        k(   42) = (   0.2457415  -0.0472184   0.0000000), wk =   0.0277778
        k(   43) = (   0.2457580   0.0473040   0.0000000), wk =   0.0277778
        k(   44) = (   0.3276993   0.1891018   0.0000000), wk =   0.0277778
        k(   45) = (   0.3277157   0.2836242   0.0000000), wk =   0.0277778
        k(   46) = (   0.3277322   0.3781466   0.0000000), wk =   0.0277778
        k(   47) = (   0.3277486   0.4726690   0.0000000), wk =   0.0277778
        k(   48) = (   0.3277651   0.5671914   0.0000000), wk =   0.0277778
        k(   49) = (   0.3277816   0.6617138   0.0000000), wk =   0.0277778
        k(   50) = (   0.3276005  -0.3780325   0.0000000), wk =   0.0277778
        k(   51) = (   0.3276169  -0.2835101   0.0000000), wk =   0.0277778
        k(   52) = (   0.3276334  -0.1889877   0.0000000), wk =   0.0277778
        k(   53) = (   0.3276499  -0.0944653   0.0000000), wk =   0.0277778
        k(   54) = (   0.3276663   0.0000570   0.0000000), wk =   0.0277778
        k(   55) = (   0.3276828   0.0945794   0.0000000), wk =   0.0277778
        k(   56) = (   0.4096241   0.2363773   0.0000000), wk =   0.0277778
        k(   57) = (   0.4096405   0.3308997   0.0000000), wk =   0.0277778
        k(   58) = (   0.4096570   0.4254221   0.0000000), wk =   0.0277778
        k(   59) = (   0.4096735   0.5199445   0.0000000), wk =   0.0277778
        k(   60) = (   0.4096899   0.6144668   0.0000000), wk =   0.0277778
        k(   61) = (   0.4097064   0.7089892   0.0000000), wk =   0.0277778
        k(   62) = (   0.4095253  -0.3307571   0.0000000), wk =   0.0277778
        k(   63) = (   0.4095418  -0.2362347   0.0000000), wk =   0.0277778
        k(   64) = (   0.4095582  -0.1417123   0.0000000), wk =   0.0277778
        k(   65) = (   0.4095747  -0.0471899   0.0000000), wk =   0.0277778
        k(   66) = (   0.4095911   0.0473325   0.0000000), wk =   0.0277778
        k(   67) = (   0.4096076   0.1418549   0.0000000), wk =   0.0277778
        k(   68) = (  -0.4915489  -0.2836527   0.0000000), wk =   0.0138889
        k(   69) = (  -0.4915324  -0.1891303   0.0000000), wk =   0.0277778
        k(   70) = (  -0.4915160  -0.0946080   0.0000000), wk =   0.0277778
        k(   71) = (  -0.4914995  -0.0000856   0.0000000), wk =   0.0277778
        k(   72) = (  -0.4914830   0.0944368   0.0000000), wk =   0.0277778
        k(   73) = (  -0.4914666   0.1889592   0.0000000), wk =   0.0277778
        k(   74) = (  -0.4916477  -0.8507871   0.0000000), wk =   0.0138889

     Dense  grid:   479369 G-vectors     FFT dimensions: (  48,  48, 480)

     Smooth grid:   120979 G-vectors     FFT dimensions: (  32,  32, 300)

     Estimated max dynamical RAM per process >       2.55 GB

     Estimated total dynamical RAM >       5.11 GB

     Initial potential from superposition of free atoms

     starting charge   59.99840, renormalised to   60.00000

     negative rho (up, down):  4.798E-05 0.000E+00
     Starting wfcs are   40 randomized atomic wfcs

     total cpu time spent up to now is       14.1 secs

     Self-consistent Calculation

     iteration #  1     ecut=    70.00 Ry     beta= 0.70
     Davidson diagonalization with overlap
     ethr =  1.00E-02,  avg # of iterations =  2.0

     negative rho (up, down):  1.936E-05 0.000E+00

     total cpu time spent up to now is       30.6 secs

     total energy              =   -1375.11763993 Ry
     estimated scf accuracy    <       1.05053165 Ry

     iteration #  2     ecut=    70.00 Ry     beta= 0.70
     Davidson diagonalization with overlap
     ethr =  1.75E-03,  avg # of iterations =  6.9

     negative rho (up, down):  6.253E-05 0.000E+00

     total cpu time spent up to now is       52.5 secs

     total energy              =   -1374.70505224 Ry
     estimated scf accuracy    <       5.46267904 Ry

     iteration #  3     ecut=    70.00 Ry     beta= 0.70
     Davidson diagonalization with overlap
     ethr =  1.75E-03,  avg # of iterations =  4.8

     negative rho (up, down):  2.397E-05 0.000E+00

     total cpu time spent up to now is       72.3 secs

     total energy              =   -1375.66387012 Ry
     estimated scf accuracy    <       0.22971988 Ry

     iteration #  4     ecut=    70.00 Ry     beta= 0.70
     Davidson diagonalization with overlap
     ethr =  3.83E-04,  avg # of iterations =  2.4

     negative rho (up, down):  3.789E-05 0.000E+00

     total cpu time spent up to now is       89.1 secs

     total energy              =   -1375.69287184 Ry
     estimated scf accuracy    <       0.02361939 Ry

     iteration #  5     ecut=    70.00 Ry     beta= 0.70
     Davidson diagonalization with overlap
     ethr =  3.94E-05,  avg # of iterations = 11.8

     negative rho (up, down):  4.352E-05 0.000E+00

     total cpu time spent up to now is      112.7 secs

     total energy              =   -1375.68343895 Ry
     estimated scf accuracy    <       0.20084433 Ry

     iteration #  6     ecut=    70.00 Ry     beta= 0.70
     Davidson diagonalization with overlap
     ethr =  3.94E-05,  avg # of iterations = 11.5

     negative rho (up, down):  5.119E-05 0.000E+00

     total cpu time spent up to now is      133.8 secs

     total energy              =   -1375.69607129 Ry
     estimated scf accuracy    <       0.01122982 Ry

     iteration #  7     ecut=    70.00 Ry     beta= 0.70
     Davidson diagonalization with overlap
     ethr =  1.87E-05,  avg # of iterations =  3.4

     negative rho (up, down):  5.895E-05 0.000E+00

     total cpu time spent up to now is      149.6 secs

     total energy              =   -1375.69704443 Ry
     estimated scf accuracy    <       0.00023342 Ry

     iteration #  8     ecut=    70.00 Ry     beta= 0.70
     Davidson diagonalization with overlap
     ethr =  3.89E-07,  avg # of iterations =  9.8

     negative rho (up, down):  6.560E-05 0.000E+00

     total cpu time spent up to now is      172.2 secs

     total energy              =   -1375.69710745 Ry
     estimated scf accuracy    <       0.00001647 Ry

     iteration #  9     ecut=    70.00 Ry     beta= 0.70
     Davidson diagonalization with overlap
     ethr =  2.75E-08,  avg # of iterations =  2.8

     negative rho (up, down):  6.618E-05 0.000E+00

     total cpu time spent up to now is      188.7 secs

     total energy              =   -1375.69710994 Ry
     estimated scf accuracy    <       0.00000551 Ry

     iteration # 10     ecut=    70.00 Ry     beta= 0.70
     Davidson diagonalization with overlap
     ethr =  9.18E-09,  avg # of iterations =  2.0

     negative rho (up, down):  6.639E-05 0.000E+00

     total cpu time spent up to now is      204.7 secs

     total energy              =   -1375.69711044 Ry
     estimated scf accuracy    <       0.00000062 Ry

     iteration # 11     ecut=    70.00 Ry     beta= 0.70
     Davidson diagonalization with overlap
     ethr =  1.04E-09,  avg # of iterations =  2.8

     negative rho (up, down):  6.642E-05 0.000E+00

     total cpu time spent up to now is      222.6 secs

     total energy              =   -1375.69711056 Ry
     estimated scf accuracy    <       0.00000008 Ry

     iteration # 12     ecut=    70.00 Ry     beta= 0.70
     Davidson diagonalization with overlap
     ethr =  1.31E-10,  avg # of iterations =  2.4

     negative rho (up, down):  6.644E-05 0.000E+00

     total cpu time spent up to now is      240.3 secs

     total energy              =   -1375.69711057 Ry
     estimated scf accuracy    <       0.00000003 Ry

     iteration # 13     ecut=    70.00 Ry     beta= 0.70
     Davidson diagonalization with overlap
     ethr =  4.44E-11,  avg # of iterations =  2.0

     negative rho (up, down):  6.645E-05 0.000E+00

     total cpu time spent up to now is      256.3 secs

     total energy              =   -1375.69711057 Ry
     estimated scf accuracy    <          3.3E-09 Ry

     iteration # 14     ecut=    70.00 Ry     beta= 0.70
     Davidson diagonalization with overlap
     ethr =  5.58E-12,  avg # of iterations =  3.3

     negative rho (up, down):  6.646E-05 0.000E+00

     total cpu time spent up to now is      273.3 secs

     total energy              =   -1375.69711057 Ry
     estimated scf accuracy    <          2.8E-10 Ry

     iteration # 15     ecut=    70.00 Ry     beta= 0.70
     Davidson diagonalization with overlap
     ethr =  4.64E-13,  avg # of iterations =  2.1

     negative rho (up, down):  6.646E-05 0.000E+00

     total cpu time spent up to now is      290.6 secs

     total energy              =   -1375.69711057 Ry
     estimated scf accuracy    <          1.4E-10 Ry

     iteration # 16     ecut=    70.00 Ry     beta= 0.70
     Davidson diagonalization with overlap
     ethr =  2.40E-13,  avg # of iterations =  2.0

     negative rho (up, down):  6.646E-05 0.000E+00

     total cpu time spent up to now is      306.0 secs

     total energy              =   -1375.69711057 Ry
     estimated scf accuracy    <          9.2E-11 Ry

     iteration # 17     ecut=    70.00 Ry     beta= 0.70
     Davidson diagonalization with overlap
     ethr =  1.53E-13,  avg # of iterations =  1.3

     negative rho (up, down):  6.646E-05 0.000E+00

     total cpu time spent up to now is      320.7 secs

     total energy              =   -1375.69711057 Ry
     estimated scf accuracy    <          4.5E-12 Ry

     iteration # 18     ecut=    70.00 Ry     beta= 0.70
     Davidson diagonalization with overlap
     ethr =  1.00E-13,  avg # of iterations =  1.4

     negative rho (up, down):  6.646E-05 0.000E+00

     total cpu time spent up to now is      335.4 secs

     total energy              =   -1375.69711057 Ry
     estimated scf accuracy    <          1.1E-12 Ry

     iteration # 19     ecut=    70.00 Ry     beta= 0.70
     Davidson diagonalization with overlap
     ethr =  1.00E-13,  avg # of iterations =  1.0

     negative rho (up, down):  6.646E-05 0.000E+00

     total cpu time spent up to now is      349.8 secs

     End of self-consistent calculation

          k = 0.0000 0.0000 0.0000 ( 15189 PWs)   bands (ev):

   -67.6113 -67.5798 -34.5959 -34.1125 -33.6977 -33.6962 -33.6576 -33.6573
   -19.2626 -19.2486 -19.2294 -19.2289 -19.2287 -19.2286 -19.2077 -19.2076
   -19.2064 -19.2057 -19.2051 -19.1989 -19.1251 -19.1243 -12.8530  -8.3508
    -5.2549  -3.4725  -3.2158  -3.2010  -1.2328   0.3201   0.3400   2.4921
     2.5039   2.9060   2.9388   3.4878

          k = 0.0000 0.0945 0.0000 ( 15215 PWs)   bands (ev):

   -67.6068 -67.5763 -34.5810 -34.1113 -33.7565 -33.7148 -33.7143 -33.6668
   -19.2610 -19.2479 -19.2305 -19.2291 -19.2288 -19.2274 -19.2098 -19.2078
   -19.2065 -19.2057 -19.2016 -19.1956 -19.1285 -19.1278 -12.7137  -8.1322
    -5.3198  -3.5506  -3.3883  -3.1599  -1.0611  -0.0548   0.5503   1.8796
     2.1882   2.9307   3.3027   4.1847

          k = 0.0000 0.1890 0.0000 ( 15269 PWs)   bands (ev):

   -67.5944 -67.5666 -34.5409 -34.1151 -33.9122 -33.8652 -33.7591 -33.6950
   -19.2568 -19.2463 -19.2345 -19.2293 -19.2285 -19.2236 -19.2149 -19.2085
   -19.2080 -19.2041 -19.1920 -19.1867 -19.1376 -19.1371 -12.3437  -7.5534
    -5.4870  -4.0330  -3.4648  -3.0956  -1.0086  -0.4081   1.1340   1.3103
     2.0986   2.7908   3.6425   4.9611

          k = 0.0000 0.2836 0.0000 ( 15241 PWs)   bands (ev):

   -67.5772 -67.5535 -34.4912 -34.1928 -34.0654 -34.0402 -33.8168 -33.7357
   -19.2535 -19.2434 -19.2396 -19.2304 -19.2282 -19.2200 -19.2195 -19.2104
   -19.2075 -19.2012 -19.1787 -19.1745 -19.1496 -19.1484 -11.8703  -6.9305
    -5.6162  -4.4651  -3.5641  -3.1174  -1.6548   0.3119   1.1539   1.8937
     2.5022   2.6849   3.7591   5.5428

          k = 0.0001 0.3781 0.0000 ( 15185 PWs)   bands (ev):

   -67.5594 -67.5410 -34.4785 -34.3729 -34.2107 -34.0696 -33.8724 -33.7776
   -19.2540 -19.2441 -19.2391 -19.2323 -19.2316 -19.2198 -19.2183 -19.2112
   -19.2048 -19.1978 -19.1651 -19.1620 -19.1610 -19.1583 -11.4460  -6.8499
    -5.3717  -4.6847  -3.6243  -3.2340  -1.9181   1.1168   1.4880   2.0740
     2.6886   3.7816   3.9163   6.0536

          k = 0.0001 0.4726 0.0000 ( 15143 PWs)   bands (ev):

   -67.5456 -67.5324 -34.5588 -34.4938 -34.2391 -34.0824 -33.9122 -33.8086
   -19.2558 -19.2465 -19.2398 -19.2341 -19.2321 -19.2196 -19.2171 -19.2112
   -19.2014 -19.1949 -19.1688 -19.1646 -19.1548 -19.1529 -11.1750  -7.0603
    -5.1829  -4.7668  -3.4531  -3.3568  -1.8313   1.5220   1.7916   2.1385
     3.1454   4.3201   5.1299   6.1971

          k =-0.0001-0.5671 0.0000 ( 15134 PWs)   bands (ev):

   -67.5403 -67.5295 -34.6059 -34.5364 -34.2290 -34.0900 -33.9267 -33.8200
   -19.2566 -19.2469 -19.2416 -19.2348 -19.2314 -19.2205 -19.2154 -19.2113
   -19.2000 -19.1938 -19.1716 -19.1667 -19.1509 -19.1497 -11.0854  -7.1574
    -5.1751  -4.7929  -3.4069  -3.2807  -1.7691   1.4154   2.0589   2.3151
     3.2035   4.7978   5.7635   6.3432

          k = 0.0819 0.0473 0.0000 ( 15215 PWs)   bands (ev):

   -67.6068 -67.5762 -34.5810 -34.1114 -33.7577 -33.7144 -33.7137 -33.6669
   -19.2609 -19.2479 -19.2306 -19.2291 -19.2289 -19.2272 -19.2097 -19.2079
   -19.2071 -19.2051 -19.2016 -19.1957 -19.1285 -19.1278 -12.7135  -8.1319
    -5.3178  -3.5467  -3.3850  -3.1733  -1.0625  -0.0385   0.5340   1.8794
     2.1871   2.9629   3.2871   4.1712

          k = 0.0819 0.1418 0.0000 ( 15237 PWs)   bands (ev):

   -67.5984 -67.5696 -34.5533 -34.1120 -33.8542 -33.8315 -33.7342 -33.6951
   -19.2578 -19.2468 -19.2327 -19.2309 -19.2275 -19.2248 -19.2130 -19.2086
   -19.2079 -19.2044 -19.1950 -19.1896 -19.1347 -19.1343 -12.4585  -7.7276
    -5.4295  -3.8033  -3.6597  -2.9875  -0.7500  -0.6289   0.8730   1.6539
     1.8065   3.0002   3.5728   4.8340

          k = 0.0820 0.2363 0.0000 ( 15230 PWs)   bands (ev):

   -67.5835 -67.5582 -34.5074 -34.1387 -34.0101 -33.9900 -33.7939 -33.7388
   -19.2532 -19.2453 -19.2370 -19.2322 -19.2268 -19.2209 -19.2181 -19.2098
   -19.2081 -19.2025 -19.1836 -19.1790 -19.1452 -19.1448 -12.0355  -7.0692
    -5.5907  -4.3088  -3.8488  -2.7945  -1.3672  -0.1427   0.7441   1.9410
     2.2370   2.7785   3.9451   5.3457

          k = 0.0820 0.3308 0.0000 ( 15193 PWs)   bands (ev):

   -67.5659 -67.5455 -34.4696 -34.2818 -34.1608 -34.0630 -33.8636 -33.7869
   -19.2515 -19.2417 -19.2414 -19.2339 -19.2278 -19.2213 -19.2184 -19.2112
   -19.2059 -19.1997 -19.1702 -19.1667 -19.1572 -19.1556 -11.5862  -6.6415
    -5.5395  -4.6351  -4.0059  -2.8071  -1.8139   0.5104   0.8133   2.1937
     2.8462   3.4102   4.0775   5.9461

          k = 0.0820 0.4254 0.0000 ( 15170 PWs)   bands (ev):

   -67.5501 -67.5350 -34.5039 -34.4326 -34.2344 -34.0812 -33.9209 -33.8289
   -19.2530 -19.2449 -19.2391 -19.2340 -19.2312 -19.2202 -19.2184 -19.2113
   -19.2027 -19.1970 -19.1671 -19.1641 -19.1581 -19.1558 -11.2415  -6.7893
    -5.1708  -4.7565  -4.0126  -3.0088  -1.8170   0.8264   1.5707   2.0193
     3.6584   3.9495   4.7825   6.2972

          k = 0.0820 0.5199 0.0000 ( 15103 PWs)   bands (ev):

   -67.5403 -67.5295 -34.5767 -34.5093 -34.2265 -34.0963 -33.9524 -33.8534
   -19.2546 -19.2461 -19.2405 -19.2348 -19.2309 -19.2208 -19.2167 -19.2112
   -19.2008 -19.1951 -19.1725 -19.1683 -19.1511 -19.1497 -11.0651  -6.9718
    -5.0876  -4.7598  -3.7744  -3.2363  -1.6597   1.1846   1.6767   2.2612
     3.9732   4.4370   5.7503   6.2765

          k = 0.0818-0.5199 0.0000 ( 15115 PWs)   bands (ev):

   -67.5403 -67.5295 -34.5766 -34.5092 -34.2265 -34.0963 -33.9525 -33.8534
   -19.2546 -19.2461 -19.2404 -19.2349 -19.2309 -19.2208 -19.2168 -19.2112
   -19.2008 -19.1950 -19.1725 -19.1683 -19.1511 -19.1497 -11.0653  -6.9716
    -5.0875  -4.7597  -3.7706  -3.2407  -1.6590   1.1851   1.6766   2.2618
     3.9722   4.4376   5.7501   6.2768

          k = 0.0818-0.4253 0.0000 ( 15170 PWs)   bands (ev):

   -67.5501 -67.5350 -34.5035 -34.4322 -34.2343 -34.0813 -33.9213 -33.8290
   -19.2530 -19.2449 -19.2389 -19.2341 -19.2313 -19.2200 -19.2189 -19.2112
   -19.2026 -19.1970 -19.1671 -19.1641 -19.1581 -19.1558 -11.2420  -6.7887
    -5.1717  -4.7551  -4.0076  -3.0145  -1.8159   0.8271   1.5746   2.0172
     3.6540   3.9490   4.7813   6.2953

          k = 0.0819-0.3308 0.0000 ( 15195 PWs)   bands (ev):

   -67.5660 -67.5455 -34.4696 -34.2811 -34.1603 -34.0630 -33.8642 -33.7870
   -19.2515 -19.2417 -19.2414 -19.2338 -19.2278 -19.2213 -19.2187 -19.2110
   -19.2058 -19.1998 -19.1702 -19.1666 -19.1572 -19.1556 -11.5868  -6.6413
    -5.5410  -4.6327  -4.0019  -2.8102  -1.8137   0.5075   0.8194   2.1926
     2.8399   3.4083   4.0765   5.9485

          k = 0.0819-0.2363 0.0000 ( 15234 PWs)   bands (ev):

   -67.5835 -67.5583 -34.5075 -34.1382 -34.0100 -33.9892 -33.7945 -33.7390
   -19.2533 -19.2453 -19.2370 -19.2321 -19.2266 -19.2212 -19.2182 -19.2096
   -19.2079 -19.2026 -19.1836 -19.1789 -19.1453 -19.1448 -12.0360  -7.0696
    -5.5926  -4.3065  -3.8462  -2.7930  -1.3691  -0.1409   0.7412   1.9416
     2.2386   2.7728   3.9407   5.3508

          k = 0.0819-0.1418 0.0000 ( 15239 PWs)   bands (ev):

   -67.5984 -67.5696 -34.5534 -34.1119 -33.8533 -33.8312 -33.7349 -33.6953
   -19.2579 -19.2469 -19.2328 -19.2308 -19.2274 -19.2251 -19.2131 -19.2084
   -19.2076 -19.2047 -19.1950 -19.1895 -19.1347 -19.1343 -12.4587  -7.7280
    -5.4314  -3.8036  -3.6578  -2.9826  -0.7487  -0.6336   0.8755   1.6484
     1.8107   2.9970   3.5666   4.8429

          k = 0.0819-0.0472 0.0000 ( 15215 PWs)   bands (ev):

   -67.6068 -67.5762 -34.5810 -34.1114 -33.7571 -33.7145 -33.7140 -33.6670
   -19.2609 -19.2479 -19.2306 -19.2290 -19.2289 -19.2273 -19.2098 -19.2078
   -19.2068 -19.2053 -19.2016 -19.1957 -19.1285 -19.1278 -12.7136  -8.1321
    -5.3187  -3.5484  -3.3865  -3.1673  -1.0619  -0.0458   0.5414   1.8794
     2.1878   2.9490   3.2933   4.1774

          k = 0.1638 0.0946 0.0000 ( 15271 PWs)   bands (ev):

   -67.5944 -67.5665 -34.5406 -34.1155 -33.9134 -33.8656 -33.7586 -33.6951
   -19.2565 -19.2463 -19.2347 -19.2291 -19.2290 -19.2232 -19.2147 -19.2091
   -19.2082 -19.2035 -19.1920 -19.1868 -19.1376 -19.1370 -12.3429  -7.5524
    -5.4794  -4.0343  -3.4700  -3.1105  -1.0090  -0.3967   1.1213   1.3219
     2.0951   2.8203   3.6316   4.9512

          k = 0.1639 0.1891 0.0000 ( 15236 PWs)   bands (ev):

   -67.5834 -67.5582 -34.5072 -34.1390 -34.0113 -33.9894 -33.7941 -33.7389
   -19.2529 -19.2454 -19.2371 -19.2321 -19.2270 -19.2208 -19.2180 -19.2101
   -19.2082 -19.2023 -19.1836 -19.1790 -19.1453 -19.1447 -12.0350  -7.0682
    -5.5850  -4.3122  -3.8537  -2.8026  -1.3667  -0.1377   0.7513   1.9374
     2.2384   2.7870   3.9426   5.3404

          k = 0.1639 0.2836 0.0000 ( 15173 PWs)   bands (ev):

   -67.5682 -67.5471 -34.4694 -34.2257 -34.1468 -34.0544 -33.8596 -33.8146
   -19.2475 -19.2452 -19.2396 -19.2356 -19.2262 -19.2211 -19.2193 -19.2112
   -19.2061 -19.2007 -19.1720 -19.1684 -19.1556 -19.1553 -11.6350  -6.4251
    -5.6903  -4.6297  -4.2206  -2.5246  -1.6901   0.0611   0.4344   2.2179
     3.0411   3.2033   4.4853   5.7348

          k = 0.1639 0.3781 0.0000 ( 15157 PWs)   bands (ev):

   -67.5525 -67.5365 -34.4645 -34.3514 -34.2280 -34.0807 -33.9436 -33.8848
   -19.2475 -19.2421 -19.2412 -19.2363 -19.2286 -19.2217 -19.2196 -19.2117
   -19.2028 -19.1996 -19.1665 -19.1654 -19.1600 -19.1574 -11.2675  -6.2099
    -5.4663  -4.8012  -4.3829  -2.6458  -1.6837  -0.1872   1.2098   2.1700
     3.6385   4.2122   4.8806   6.3408

          k = 0.1639 0.4726 0.0000 ( 15119 PWs)   bands (ev):

   -67.5402 -67.5295 -34.5094 -34.4416 -34.2259 -34.1161 -34.0018 -33.9337
   -19.2499 -19.2431 -19.2400 -19.2336 -19.2307 -19.2221 -19.2196 -19.2109
   -19.2018 -19.1982 -19.1741 -19.1717 -19.1513 -19.1498 -11.0240  -6.4518
    -4.9279  -4.8660  -4.4032  -3.0255  -1.4533   0.0250   1.9800   2.3110
     3.8272   4.5350   5.4235   6.3574

          k = 0.1639 0.5672 0.0000 ( 15084 PWs)   bands (ev):

   -67.5353 -67.5273 -34.5364 -34.4706 -34.2081 -34.1430 -34.0180 -33.9520
   -19.2509 -19.2434 -19.2387 -19.2359 -19.2289 -19.2227 -19.2190 -19.2107
   -19.2018 -19.1974 -19.1769 -19.1739 -19.1480 -19.1471 -10.9409  -6.5620
    -4.8971  -4.7261  -4.3079  -3.2761  -1.3137   0.2287   2.2190   2.4627
     4.0586   4.4476   5.5838   6.1203

          k = 0.1638-0.4726 0.0000 ( 15123 PWs)   bands (ev):

   -67.5403 -67.5295 -34.5087 -34.4409 -34.2259 -34.1165 -34.0024 -33.9337
   -19.2498 -19.2431 -19.2397 -19.2338 -19.2309 -19.2221 -19.2198 -19.2109
   -19.2017 -19.1981 -19.1741 -19.1717 -19.1513 -19.1498 -11.0247  -6.4507
    -4.9309  -4.8629  -4.3982  -3.0304  -1.4521   0.0256   1.9841   2.3076
     3.8295   4.5252   5.4248   6.3580

          k = 0.1638-0.3781 0.0000 ( 15159 PWs)   bands (ev):

   -67.5526 -67.5365 -34.4639 -34.3501 -34.2277 -34.0809 -33.9445 -33.8849
   -19.2474 -19.2420 -19.2410 -19.2366 -19.2286 -19.2216 -19.2200 -19.2115
   -19.2026 -19.1996 -19.1665 -19.1653 -19.1600 -19.1574 -11.2685  -6.2088
    -5.4688  -4.7969  -4.3782  -2.6505  -1.6815  -0.1892   1.2154   2.1649
     3.6368   4.2052   4.8759   6.3444

          k = 0.1638-0.2835 0.0000 ( 15173 PWs)   bands (ev):

   -67.5683 -67.5471 -34.4694 -34.2242 -34.1462 -34.0542 -33.8604 -33.8149
   -19.2476 -19.2450 -19.2395 -19.2357 -19.2260 -19.2214 -19.2197 -19.2110
   -19.2058 -19.2009 -19.1720 -19.1683 -19.1556 -19.1553 -11.6359  -6.4258
    -5.6932  -4.6246  -4.2158  -2.5240  -1.6899   0.0532   0.4404   2.2147
     3.0355   3.2012   4.4785   5.7438

          k = 0.1638-0.1890 0.0000 ( 15238 PWs)   bands (ev):

   -67.5835 -67.5582 -34.5074 -34.1384 -34.0103 -33.9890 -33.7946 -33.7391
   -19.2531 -19.2454 -19.2371 -19.2320 -19.2267 -19.2211 -19.2182 -19.2098
   -19.2080 -19.2025 -19.1836 -19.1789 -19.1453 -19.1448 -12.0357  -7.0692
    -5.5892  -4.3084  -3.8489  -2.7975  -1.3687  -0.1380   0.7451   1.9397
     2.2393   2.7777   3.9389   5.3480

          k = 0.1638-0.0945 0.0000 ( 15267 PWs)   bands (ev):

   -67.5944 -67.5665 -34.5407 -34.1154 -33.9126 -33.8654 -33.7589 -33.6952
   -19.2566 -19.2463 -19.2346 -19.2291 -19.2288 -19.2234 -19.2149 -19.2088
   -19.2081 -19.2038 -19.1920 -19.1868 -19.1376 -19.1370 -12.3433  -7.5530
    -5.4826  -4.0338  -3.4675  -3.1041  -1.0090  -0.4016   1.1271   1.3167
     2.0967   2.8074   3.6357   4.9557

          k = 0.1638 0.0000 0.0000 ( 15235 PWs)   bands (ev):

   -67.5983 -67.5696 -34.5532 -34.1122 -33.8550 -33.8316 -33.7336 -33.6952
   -19.2577 -19.2468 -19.2328 -19.2310 -19.2276 -19.2246 -19.2131 -19.2087
   -19.2079 -19.2041 -19.1951 -19.1896 -19.1347 -19.1342 -12.4581  -7.7273
    -5.4267  -3.8030  -3.6619  -2.9937  -0.7517  -0.6233   0.8702   1.6619
     1.8012   3.0034   3.5807   4.8225

          k = 0.2458 0.1418 0.0000 ( 15249 PWs)   bands (ev):

   -67.5770 -67.5535 -34.4908 -34.1940 -34.0670 -34.0400 -33.8167 -33.7360
   -19.2530 -19.2435 -19.2398 -19.2301 -19.2289 -19.2199 -19.2190 -19.2111
   -19.2078 -19.2009 -19.1787 -19.1745 -19.1496 -19.1483 -11.8687  -6.9276
    -5.6045  -4.4754  -3.5738  -3.1342  -1.6528   0.3215   1.1726   1.8888
     2.5287   2.6781   3.7515   5.5340

          k = 0.2458 0.2363 0.0000 ( 15193 PWs)   bands (ev):

   -67.5658 -67.5454 -34.4696 -34.2826 -34.1611 -34.0633 -33.8641 -33.7871
   -19.2510 -19.2421 -19.2411 -19.2338 -19.2280 -19.2213 -19.2184 -19.2116
   -19.2061 -19.1995 -19.1702 -19.1667 -19.1572 -19.1555 -11.5849  -6.6368
    -5.5333  -4.6437  -4.0124  -2.8235  -1.8125   0.5280   0.8220   2.2039
     2.8466   3.4045   4.0794   5.9363

          k = 0.2458 0.3309 0.0000 ( 15161 PWs)   bands (ev):

   -67.5524 -67.5365 -34.4648 -34.3520 -34.2276 -34.0809 -33.9443 -33.8846
   -19.2476 -19.2418 -19.2407 -19.2366 -19.2287 -19.2214 -19.2200 -19.2119
   -19.2029 -19.1995 -19.1665 -19.1652 -19.1600 -19.1574 -11.2667  -6.2038
    -5.4711  -4.8024  -4.3858  -2.6554  -1.6841  -0.1759   1.2149   2.1744
     3.6385   4.2098   4.8833   6.3356

          k = 0.2458 0.4254 0.0000 ( 15084 PWs)   bands (ev):

   -67.5401 -67.5295 -34.4712 -34.3868 -34.2481 -34.1142 -34.0329 -33.9830
   -19.2472 -19.2409 -19.2371 -19.2362 -19.2310 -19.2226 -19.2211 -19.2109
   -19.2013 -19.2008 -19.1746 -19.1737 -19.1515 -19.1498 -11.0026  -5.7679
    -5.6043  -4.7456  -4.5326  -2.8579  -1.2596  -0.5963   1.9008   2.4541
     3.6702   4.5724   5.2460   6.6396

          k = 0.2458 0.5199 0.0000 ( 15099 PWs)   bands (ev):

   -67.5320 -67.5264 -34.4624 -34.3976 -34.2506 -34.1822 -34.0651 -34.0403
   -19.2481 -19.2384 -19.2370 -19.2347 -19.2293 -19.2248 -19.2224 -19.2090
   -19.2030 -19.2010 -19.1796 -19.1784 -19.1463 -19.1456 -10.8552  -5.9396
    -5.1442  -4.7275  -4.6204  -3.1520  -0.9455  -0.4713   2.5598   2.7680
     3.5036   4.1702   5.1631   6.3218

          k = 0.2459 0.6144 0.0000 ( 15101 PWs)   bands (ev):

   -67.5321 -67.5264 -34.4617 -34.3970 -34.2506 -34.1830 -34.0663 -34.0394
   -19.2480 -19.2382 -19.2370 -19.2348 -19.2296 -19.2249 -19.2223 -19.2089
   -19.2031 -19.2009 -19.1796 -19.1784 -19.1463 -19.1456 -10.8557  -5.9384
    -5.1442  -4.7275  -4.6183  -3.1536  -0.9451  -0.4713   2.5628   2.7639
     3.5074   4.1623   5.1636   6.3208

          k = 0.2457-0.4253 0.0000 ( 15090 PWs)   bands (ev):

   -67.5402 -67.5295 -34.4701 -34.3850 -34.2487 -34.1148 -34.0339 -33.9827
   -19.2468 -19.2408 -19.2371 -19.2365 -19.2311 -19.2228 -19.2211 -19.2107
   -19.2013 -19.2006 -19.1746 -19.1737 -19.1515 -19.1498 -11.0038  -5.7659
    -5.6047  -4.7436  -4.5285  -2.8606  -1.2569  -0.5995   1.9044   2.4478
     3.6730   4.5592   5.2458   6.6363

          k = 0.2457-0.3308 0.0000 ( 15163 PWs)   bands (ev):

   -67.5525 -67.5365 -34.4641 -34.3504 -34.2277 -34.0810 -33.9449 -33.8849
   -19.2474 -19.2420 -19.2408 -19.2367 -19.2287 -19.2215 -19.2202 -19.2116
   -19.2027 -19.1995 -19.1665 -19.1653 -19.1600 -19.1574 -11.2681  -6.2058
    -5.4713  -4.7975  -4.3799  -2.6556  -1.6816  -0.1831   1.2181   2.1672
     3.6368   4.2038   4.8775   6.3412

          k = 0.2457-0.2363 0.0000 ( 15195 PWs)   bands (ev):

   -67.5659 -67.5455 -34.4695 -34.2815 -34.1605 -34.0631 -33.8645 -33.7873
   -19.2512 -19.2419 -19.2414 -19.2337 -19.2279 -19.2214 -19.2187 -19.2113
   -19.2058 -19.1996 -19.1701 -19.1666 -19.1572 -19.1555 -11.5861  -6.6391
    -5.5372  -4.6375  -4.0055  -2.8191  -1.8126   0.5174   0.8239   2.1982
     2.8401   3.4051   4.0774   5.9431

          k = 0.2457-0.1417 0.0000 ( 15245 PWs)   bands (ev):

   -67.5771 -67.5535 -34.4909 -34.1935 -34.0660 -34.0401 -33.8168 -33.7360
   -19.2532 -19.2434 -19.2398 -19.2302 -19.2285 -19.2201 -19.2193 -19.2107
   -19.2076 -19.2011 -19.1787 -19.1745 -19.1496 -19.1483 -11.8695  -6.9293
    -5.6093  -4.4709  -3.5691  -3.1270  -1.6535   0.3173   1.1641   1.8911
     2.5171   2.6811   3.7543   5.5380

          k = 0.2457-0.0472 0.0000 ( 15232 PWs)   bands (ev):

   -67.5834 -67.5582 -34.5072 -34.1396 -34.0106 -33.9906 -33.7934 -33.7388
   -19.2530 -19.2453 -19.2372 -19.2321 -19.2269 -19.2207 -19.2181 -19.2101
   -19.2082 -19.2023 -19.1836 -19.1790 -19.1452 -19.1448 -12.0347  -7.0686
    -5.5847  -4.3140  -3.8542  -2.8013  -1.3646  -0.1426   0.7522   1.9384
     2.2365   2.7900   3.9489   5.3360

          k = 0.2458 0.0473 0.0000 ( 15230 PWs)   bands (ev):

   -67.5834 -67.5582 -34.5071 -34.1396 -34.0115 -33.9901 -33.7934 -33.7388
   -19.2528 -19.2454 -19.2372 -19.2322 -19.2270 -19.2206 -19.2181 -19.2102
   -19.2083 -19.2022 -19.1836 -19.1790 -19.1453 -19.1447 -12.0344  -7.0680
    -5.5824  -4.3154  -3.8564  -2.8049  -1.3644  -0.1405   0.7555   1.9368
     2.2372   2.7936   3.9483   5.3336

          k = 0.3277 0.1891 0.0000 ( 15181 PWs)   bands (ev):

   -67.5590 -67.5409 -34.4792 -34.3745 -34.2104 -34.0706 -33.8727 -33.7780
   -19.2536 -19.2441 -19.2387 -19.2321 -19.2319 -19.2202 -19.2180 -19.2119
   -19.2050 -19.1976 -19.1651 -19.1621 -19.1610 -19.1580 -11.4435  -6.8445
    -5.3632  -4.6977  -3.6362  -3.2521  -1.9162   1.1364   1.5056   2.0961
     2.6851   3.7788   3.9109   6.0455

          k = 0.3277 0.2836 0.0000 ( 15170 PWs)   bands (ev):

   -67.5497 -67.5350 -34.5049 -34.4341 -34.2328 -34.0823 -33.9216 -33.8293
   -19.2530 -19.2447 -19.2384 -19.2340 -19.2316 -19.2201 -19.2190 -19.2120
   -19.2027 -19.1968 -19.1671 -19.1638 -19.1581 -19.1558 -11.2393  -6.7842
    -5.1662  -4.7675  -4.0197  -3.0281  -1.8147   0.8499   1.5812   2.0334
     3.6569   3.9499   4.7821   6.2863

          k = 0.3277 0.3781 0.0000 ( 15117 PWs)   bands (ev):

   -67.5399 -67.5295 -34.5105 -34.4431 -34.2240 -34.1165 -34.0032 -33.9334
   -19.2503 -19.2424 -19.2394 -19.2334 -19.2312 -19.2219 -19.2202 -19.2115
   -19.2018 -19.1980 -19.1741 -19.1714 -19.1513 -19.1498 -11.0220  -6.4485
    -4.9344  -4.8681  -4.4056  -3.0374  -1.4539   0.0399   1.9906   2.3210
     3.8289   4.5305   5.4247   6.3676

          k = 0.3277 0.4727 0.0000 ( 15099 PWs)   bands (ev):

   -67.5318 -67.5265 -34.4636 -34.3990 -34.2498 -34.1807 -34.0666 -34.0397
   -19.2485 -19.2381 -19.2362 -19.2346 -19.2299 -19.2247 -19.2226 -19.2093
   -19.2032 -19.2008 -19.1797 -19.1782 -19.1463 -19.1456 -10.8539  -5.9392
    -5.1483  -4.7325  -4.6168  -3.1563  -0.9490  -0.4632   2.5687   2.7729
     3.5025   4.1701   5.1617   6.3238

          k = 0.3278 0.5672 0.0000 ( 15116 PWs)   bands (ev):

   -67.5273 -67.5270 -34.3839 -34.3432 -34.3424 -34.2312 -34.0817 -34.0791
   -19.2478 -19.2361 -19.2360 -19.2295 -19.2292 -19.2275 -19.2265 -19.2059
   -19.2043 -19.2040 -19.1814 -19.1813 -19.1443 -19.1443 -10.7904  -5.4407
    -5.4369  -4.9151  -4.5611  -3.1827  -0.6382  -0.6329   2.9584   2.9599
     3.4966   3.5041   4.8881   6.6782

          k = 0.3278 0.6617 0.0000 ( 15095 PWs)   bands (ev):

   -67.5320 -67.5264 -34.4625 -34.3974 -34.2504 -34.1821 -34.0670 -34.0392
   -19.2482 -19.2381 -19.2366 -19.2348 -19.2299 -19.2248 -19.2224 -19.2091
   -19.2032 -19.2007 -19.1796 -19.1783 -19.1463 -19.1456 -10.8549  -5.9384
    -5.1464  -4.7300  -4.6167  -3.1556  -0.9469  -0.4669   2.5677   2.7664
     3.5067   4.1625   5.1629   6.3211

          k = 0.3276-0.3780 0.0000 ( 15123 PWs)   bands (ev):

   -67.5401 -67.5295 -34.5094 -34.4415 -34.2251 -34.1166 -34.0031 -33.9336
   -19.2499 -19.2428 -19.2394 -19.2337 -19.2311 -19.2220 -19.2201 -19.2112
   -19.2018 -19.1980 -19.1741 -19.1715 -19.1513 -19.1498 -11.0235  -6.4493
    -4.9344  -4.8640  -4.3999  -3.0364  -1.4522   0.0337   1.9895   2.3130
     3.8307   4.5227   5.4254   6.3629

          k = 0.3276-0.2835 0.0000 ( 15168 PWs)   bands (ev):

   -67.5499 -67.5350 -34.5041 -34.4327 -34.2336 -34.0818 -33.9217 -33.8293
   -19.2529 -19.2449 -19.2385 -19.2341 -19.2316 -19.2201 -19.2192 -19.2116
   -19.2026 -19.1968 -19.1671 -19.1639 -19.1581 -19.1558 -11.2408  -6.7864
    -5.1691  -4.7613  -4.0116  -3.0247  -1.8142   0.8400   1.5798   2.0250
     3.6530   3.9493   4.7810   6.2886

          k = 0.3276-0.1890 0.0000 ( 15181 PWs)   bands (ev):

   -67.5592 -67.5409 -34.4789 -34.3736 -34.2106 -34.0700 -33.8726 -33.7779
   -19.2537 -19.2442 -19.2389 -19.2322 -19.2317 -19.2201 -19.2182 -19.2116
   -19.2049 -19.1977 -19.1651 -19.1621 -19.1609 -19.1581 -11.4447  -6.8474
    -5.3668  -4.6920  -3.6303  -3.2444  -1.9167   1.1279   1.4969   2.0862
     2.6866   3.7800   3.9131   6.0485

          k = 0.3276-0.0945 0.0000 ( 15197 PWs)   bands (ev):

   -67.5658 -67.5454 -34.4696 -34.2831 -34.1614 -34.0631 -33.8634 -33.7869
   -19.2512 -19.2419 -19.2414 -19.2339 -19.2278 -19.2213 -19.2182 -19.2115
   -19.2061 -19.1996 -19.1702 -19.1667 -19.1571 -19.1555 -11.5848  -6.6397
    -5.5339  -4.6431  -4.0137  -2.8131  -1.8134   0.5239   0.8099   2.2013
     2.8543   3.4099   4.0788   5.9378

          k = 0.3277 0.0001 0.0000 ( 15169 PWs)   bands (ev):

   -67.5681 -67.5471 -34.4693 -34.2275 -34.1471 -34.0545 -33.8588 -33.8143
   -19.2472 -19.2452 -19.2398 -19.2355 -19.2262 -19.2211 -19.2191 -19.2114
   -19.2063 -19.2007 -19.1720 -19.1684 -19.1556 -19.1553 -11.6338  -6.4247
    -5.6864  -4.6364  -4.2258  -2.5261  -1.6905   0.0709   0.4263   2.2224
     3.0480   3.2070   4.4932   5.7232

          k = 0.3277 0.0946 0.0000 ( 15193 PWs)   bands (ev):

   -67.5657 -67.5454 -34.4696 -34.2835 -34.1615 -34.0633 -33.8636 -33.7869
   -19.2511 -19.2421 -19.2411 -19.2339 -19.2279 -19.2212 -19.2183 -19.2117
   -19.2062 -19.1995 -19.1702 -19.1667 -19.1571 -19.1555 -11.5842  -6.6371
    -5.5315  -4.6468  -4.0167  -2.8206  -1.8130   0.5316   0.8142   2.2060
     2.8545   3.4074   4.0799   5.9333

          k = 0.4096 0.2364 0.0000 ( 15157 PWs)   bands (ev):

   -67.5452 -67.5323 -34.5606 -34.4961 -34.2361 -34.0845 -33.9128 -33.8092
   -19.2557 -19.2462 -19.2394 -19.2338 -19.2323 -19.2196 -19.2178 -19.2120
   -19.2014 -19.1948 -19.1688 -19.1642 -19.1548 -19.1530 -11.1717  -7.0565
    -5.1779  -4.7795  -3.4639  -3.3755  -1.8281   1.5325   1.8292   2.1542
     3.1363   4.3238   5.1309   6.1885

          k = 0.4096 0.3309 0.0000 ( 15111 PWs)   bands (ev):

   -67.5398 -67.5295 -34.5785 -34.5117 -34.2230 -34.0986 -33.9532 -33.8538
   -19.2548 -19.2457 -19.2401 -19.2346 -19.2309 -19.2208 -19.2175 -19.2120
   -19.2007 -19.1950 -19.1725 -19.1679 -19.1510 -19.1497 -11.0618  -6.9691
    -5.0850  -4.7714  -3.7837  -3.2513  -1.6575   1.2054   1.6870   2.2812
     3.9749   4.4378   5.7573   6.2753

          k = 0.4097 0.4254 0.0000 ( 15078 PWs)   bands (ev):

   -67.5349 -67.5274 -34.5385 -34.4731 -34.2045 -34.1441 -34.0195 -33.9516
   -19.2515 -19.2425 -19.2386 -19.2356 -19.2288 -19.2226 -19.2196 -19.2114
   -19.2019 -19.1973 -19.1769 -19.1735 -19.1479 -19.1471 -10.9378  -6.5615
    -4.8990  -4.7354  -4.3128  -3.2832  -1.3153   0.2418   2.2287   2.4799
     4.0537   4.4564   5.5799   6.1274

          k = 0.4097 0.5199 0.0000 ( 15095 PWs)   bands (ev):

   -67.5317 -67.5265 -34.4644 -34.3999 -34.2488 -34.1805 -34.0660 -34.0402
   -19.2486 -19.2384 -19.2361 -19.2345 -19.2296 -19.2246 -19.2228 -19.2093
   -19.2031 -19.2009 -19.1796 -19.1782 -19.1463 -19.1456 -10.8532  -5.9409
    -5.1482  -4.7330  -4.6189  -3.1543  -0.9499  -0.4634   2.5646   2.7789
     3.4974   4.1793   5.1623   6.3253

          k = 0.4097 0.6145 0.0000 ( 15095 PWs)   bands (ev):

   -67.5318 -67.5265 -34.4640 -34.3990 -34.2493 -34.1812 -34.0651 -34.0406
   -19.2484 -19.2385 -19.2365 -19.2345 -19.2293 -19.2247 -19.2227 -19.2092
   -19.2031 -19.2009 -19.1796 -19.1783 -19.1463 -19.1456 -10.8537  -5.9414
    -5.1462  -4.7306  -4.6209  -3.1521  -0.9483  -0.4672   2.5606   2.7765
     3.4979   4.1796   5.1630   6.3238

          k = 0.4097 0.7090 0.0000 ( 15080 PWs)   bands (ev):

   -67.5351 -67.5274 -34.5377 -34.4716 -34.2063 -34.1435 -34.0188 -33.9519
   -19.2511 -19.2430 -19.2387 -19.2358 -19.2288 -19.2227 -19.2193 -19.2110
   -19.2019 -19.1973 -19.1769 -19.1737 -19.1480 -19.1470 -10.9391  -6.5622
    -4.8979  -4.7316  -4.3110  -3.2793  -1.3143   0.2356   2.2238   2.4723
     4.0556   4.4528   5.5818   6.1236

          k = 0.4095-0.3308 0.0000 ( 15111 PWs)   bands (ev):

   -67.5400 -67.5295 -34.5776 -34.5101 -34.2248 -34.0975 -33.9530 -33.8537
   -19.2546 -19.2460 -19.2402 -19.2348 -19.2309 -19.2209 -19.2173 -19.2116
   -19.2008 -19.1949 -19.1725 -19.1681 -19.1510 -19.1497 -11.0634  -6.9706
    -5.0860  -4.7664  -3.7761  -3.2480  -1.6574   1.1964   1.6817   2.2727
     3.9728   4.4380   5.7540   6.2755

          k = 0.4095-0.2362 0.0000 ( 15153 PWs)   bands (ev):

   -67.5454 -67.5324 -34.5599 -34.4947 -34.2376 -34.0835 -33.9126 -33.8090
   -19.2556 -19.2464 -19.2396 -19.2339 -19.2322 -19.2197 -19.2175 -19.2116
   -19.2014 -19.1948 -19.1688 -19.1644 -19.1548 -19.1529 -11.1731  -7.0588
    -5.1801  -4.7741  -3.4584  -3.3673  -1.8291   1.5271   1.8128   2.1467
     3.1398   4.3223   5.1304   6.1916

          k = 0.4096-0.1417 0.0000 ( 15170 PWs)   bands (ev):

   -67.5498 -67.5350 -34.5050 -34.4337 -34.2336 -34.0818 -33.9210 -33.8291
   -19.2529 -19.2449 -19.2390 -19.2339 -19.2312 -19.2203 -19.2185 -19.2117
   -19.2028 -19.1969 -19.1670 -19.1639 -19.1581 -19.1558 -11.2396  -6.7878
    -5.1671  -4.7645  -4.0219  -3.0132  -1.8169   0.8383   1.5710   2.0305
     3.6625   3.9502   4.7843   6.2931

          k = 0.4096-0.0472 0.0000 ( 15153 PWs)   bands (ev):

   -67.5523 -67.5365 -34.4654 -34.3532 -34.2276 -34.0809 -33.9432 -33.8845
   -19.2476 -19.2421 -19.2411 -19.2362 -19.2285 -19.2216 -19.2195 -19.2119
   -19.2030 -19.1995 -19.1665 -19.1653 -19.1600 -19.1574 -11.2657  -6.2083
    -5.4661  -4.8070  -4.3899  -2.6457  -1.6871  -0.1786   1.2049   2.1799
     3.6404   4.2198   4.8880   6.3333

          k = 0.4096 0.0473 0.0000 ( 15157 PWs)   bands (ev):

   -67.5523 -67.5365 -34.4655 -34.3536 -34.2273 -34.0810 -33.9436 -33.8843
   -19.2477 -19.2420 -19.2408 -19.2364 -19.2286 -19.2215 -19.2197 -19.2121
   -19.2031 -19.1995 -19.1665 -19.1652 -19.1600 -19.1574 -11.2653  -6.2052
    -5.4685  -4.8076  -4.3910  -2.6503  -1.6874  -0.1734   1.2073   2.1820
     3.6404   4.2189   4.8892   6.3313

          k = 0.4096 0.1419 0.0000 ( 15170 PWs)   bands (ev):

   -67.5497 -67.5349 -34.5054 -34.4346 -34.2326 -34.0824 -33.9213 -33.8291
   -19.2530 -19.2447 -19.2386 -19.2340 -19.2313 -19.2202 -19.2188 -19.2120
   -19.2028 -19.1969 -19.1671 -19.1638 -19.1581 -19.1558 -11.2386  -6.7850
    -5.1651  -4.7692  -4.0251  -3.0223  -1.8162   0.8489   1.5763   2.0368
     3.6621   3.9502   4.7842   6.2890

          k =-0.4915-0.2837 0.0000 ( 15122 PWs)   bands (ev):

   -67.5398 -67.5295 -34.6078 -34.5390 -34.2249 -34.0929 -33.9273 -33.8206
   -19.2567 -19.2466 -19.2413 -19.2346 -19.2314 -19.2205 -19.2162 -19.2122
   -19.1999 -19.1937 -19.1716 -19.1663 -19.1509 -19.1497 -11.0817  -7.1548
    -5.1718  -4.8053  -3.4258  -3.2905  -1.7650   1.4264   2.0958   2.3336
     3.1935   4.8000   5.7727   6.3359

          k =-0.4915-0.1891 0.0000 ( 15105 PWs)   bands (ev):

   -67.5398 -67.5295 -34.5787 -34.5119 -34.2228 -34.0987 -33.9530 -33.8537
   -19.2548 -19.2456 -19.2403 -19.2345 -19.2309 -19.2208 -19.2175 -19.2120
   -19.2008 -19.1950 -19.1725 -19.1679 -19.1510 -19.1497 -11.0615  -6.9695
    -5.0851  -4.7716  -3.7875  -3.2469  -1.6583   1.2046   1.6872   2.2805
     3.9760   4.4367   5.7578   6.2761

          k =-0.4915-0.0946 0.0000 ( 15115 PWs)   bands (ev):

   -67.5399 -67.5295 -34.5113 -34.4440 -34.2235 -34.1166 -34.0028 -33.9333
   -19.2504 -19.2424 -19.2397 -19.2331 -19.2310 -19.2218 -19.2201 -19.2115
   -19.2019 -19.1981 -19.1741 -19.1714 -19.1513 -19.1498 -11.0210  -6.4499
    -4.9312  -4.8717  -4.4110  -3.0321  -1.4558   0.0389   1.9853   2.3261
     3.8255   4.5417   5.4244   6.3679

          k =-0.4915-0.0001 0.0000 ( 15090 PWs)   bands (ev):

   -67.5399 -67.5295 -34.4726 -34.3889 -34.2465 -34.1141 -34.0323 -33.9829
   -19.2474 -19.2412 -19.2366 -19.2361 -19.2309 -19.2223 -19.2212 -19.2111
   -19.2012 -19.2010 -19.1745 -19.1736 -19.1514 -19.1498 -11.0009  -5.7712
    -5.6037  -4.7478  -4.5377  -2.8545  -1.2639  -0.5924   1.8957   2.4632
     3.6663   4.5880   5.2481   6.6445

          k =-0.4915 0.0944 0.0000 ( 15119 PWs)   bands (ev):

   -67.5400 -67.5295 -34.5109 -34.4430 -34.2245 -34.1163 -34.0021 -33.9335
   -19.2501 -19.2428 -19.2400 -19.2332 -19.2308 -19.2220 -19.2198 -19.2113
   -19.2019 -19.1982 -19.1741 -19.1715 -19.1513 -19.1498 -11.0219  -6.4519
    -4.9281  -4.8708  -4.4103  -3.0261  -1.4552   0.0321   1.9802   2.3216
     3.8249   4.5438   5.4239   6.3626

          k =-0.4915 0.1890 0.0000 ( 15105 PWs)   bands (ev):

   -67.5400 -67.5295 -34.5780 -34.5105 -34.2246 -34.0975 -33.9527 -33.8536
   -19.2546 -19.2460 -19.2405 -19.2346 -19.2308 -19.2209 -19.2171 -19.2116
   -19.2008 -19.1950 -19.1724 -19.1681 -19.1510 -19.1497 -11.0630  -6.9713
    -5.0862  -4.7667  -3.7837  -3.2392  -1.6589   1.1951   1.6819   2.2715
     3.9750   4.4363   5.7548   6.2764

          k =-0.4916-0.8508 0.0000 ( 15130 PWs)   bands (ev):

   -67.5400 -67.5295 -34.6070 -34.5375 -34.2269 -34.0915 -33.9271 -33.8204
   -19.2566 -19.2468 -19.2415 -19.2347 -19.2314 -19.2205 -19.2159 -19.2118
   -19.2000 -19.1937 -19.1715 -19.1665 -19.1509 -19.1497 -11.0833  -7.1566
    -5.1732  -4.8000  -3.4179  -3.2850  -1.7664   1.4207   2.0799   2.3244
     3.1974   4.7990   5.7687   6.3386

     the Fermi energy is     0.8299 ev

!    total energy              =   -1375.69711057 Ry
     estimated scf accuracy    <          2.5E-13 Ry
     smearing contrib. (-TS)   =      -0.00000378 Ry
     internal energy E=F+TS    =   -1375.69710679 Ry

     The total energy is F=E-TS. E is the sum of the following terms:
     one-electron contribution =  -11616.51537559 Ry
     hartree contribution      =    5838.39818769 Ry
     xc contribution           =    -140.31142962 Ry
     ewald contribution        =    4542.73151073 Ry

     convergence has been achieved in  19 iterations

     negative rho (up, down):  6.646E-05 0.000E+00

     Forces acting on atoms (cartesian axes, Ry/au):

     atom    1 type  2   force =    -0.00045461    0.00025797   -0.00000140
     atom    2 type  1   force =     0.00004009    0.00027675   -0.00027252
     atom    3 type  1   force =     0.00009768   -0.00035246    0.00027305
     atom    4 type  3   force =     0.00026845   -0.00055675   -0.00005516
     atom    5 type  3   force =     0.00004838    0.00037450    0.00005602

     Total force =     0.001079     Total SCF correction =     0.000005


     Computing stress (Cartesian axis) and pressure


     negative rho (up, down):  6.646E-05 0.000E+00
          total   stress  (Ry/bohr**3)                   (kbar)     P=       -0.36
  -0.00000322   0.00000012   0.00000076           -0.47        0.02        0.11
   0.00000012  -0.00000043  -0.00000381            0.02       -0.06       -0.56
   0.00000076  -0.00000381  -0.00000370            0.11       -0.56       -0.54


     BFGS Geometry Optimization
     Energy error            =      0.0E+00 Ry
     Gradient error          =      5.6E-04 Ry/Bohr

     bfgs converged in   1 scf cycles and   0 bfgs steps
     (criteria: energy <  1.0E-04 Ry, force <  1.0E-03 Ry/Bohr)

     End of BFGS Geometry Optimization

     Final energy             =   -1375.6971105697 Ry
Begin final coordinates

ATOMIC_POSITIONS (alat)
C             0.0000000000        0.0000000000        0.0000000000
Ta            0.5088008000        0.2948413000       -0.4364511000
Ta           -0.0007447000        0.5869407000        0.4364532000
H            -0.0017928000       -0.0015314000        0.8341930000
H             0.0002769000        0.0024412000       -0.8341930000
End final coordinates



     Writing output data file /scratch/as3359/Ta2CH2-VCrelax/Ta.save/
 
     init_run     :     23.22s CPU     13.91s WALL (       1 calls)
     electrons    :    644.01s CPU    335.75s WALL (       1 calls)
     forces       :     11.30s CPU      5.92s WALL (       1 calls)
     stress       :     33.99s CPU     17.77s WALL (       1 calls)

     Called by init_run:
     wfcinit      :     10.77s CPU      5.56s WALL (       1 calls)
     potinit      :      3.63s CPU      1.85s WALL (       1 calls)
     hinit0       :      6.66s CPU      5.10s WALL (       1 calls)

     Called by electrons:
     c_bands      :    473.42s CPU    240.28s WALL (      19 calls)
     sum_band     :    123.80s CPU     67.21s WALL (      19 calls)
     v_of_rho     :      7.00s CPU      3.71s WALL (      20 calls)
     newd         :     40.00s CPU     24.84s WALL (      20 calls)
     mix_rho      :      1.29s CPU      0.68s WALL (      19 calls)

     Called by c_bands:
     init_us_2    :     12.32s CPU      6.17s WALL (    3034 calls)
     cegterg      :    436.67s CPU    221.71s WALL (    1406 calls)

     Called by *egterg:
     cdiaghg      :     16.14s CPU      8.27s WALL (    7004 calls)
     h_psi        :    343.83s CPU    175.06s WALL (    7078 calls)
     s_psi        :     15.85s CPU      7.94s WALL (    7078 calls)
     g_psi        :      2.09s CPU      1.05s WALL (    5598 calls)

     Called by h_psi:
     h_psi:calbec :     14.73s CPU      7.41s WALL (    7078 calls)
     vloc_psi     :    306.16s CPU    156.13s WALL (    7078 calls)
     add_vuspsi   :     19.86s CPU      9.96s WALL (    7078 calls)

     General routines
     calbec       :     20.07s CPU     10.09s WALL (    8854 calls)
     fft          :      4.49s CPU      2.31s WALL (     283 calls)
     ffts         :      0.14s CPU      0.07s WALL (      39 calls)
     fftw         :    312.75s CPU    159.63s WALL (  302478 calls)
     interpolate  :      0.43s CPU      0.22s WALL (      20 calls)
 
     Parallel routines
 
     PWSCF        :  11m54.70s CPU   6m15.35s WALL

 
   This run was terminated on:  22:55:50  24Mar2022            

=------------------------------------------------------------------------------=
   JOB DONE.
=------------------------------------------------------------------------------=
