
     Program PWSCF v.6.8 starts on 22Apr2022 at  8:49:52 

     This program is part of the open-source Quantum ESPRESSO suite
     for quantum simulation of materials; please cite
         "P. Giannozzi et al., J. Phys.:Condens. Matter 21 395502 (2009);
         "P. Giannozzi et al., J. Phys.:Condens. Matter 29 465901 (2017);
         "P. Giannozzi et al., J. Chem. Phys. 152 154105 (2020);
          URL http://www.quantum-espresso.org", 
     in publications or presentations arising from this work. More details at
     http://www.quantum-espresso.org/quote

     Parallel version (MPI & OpenMP), running on       4 processor cores
     Number of MPI processes:                 2
     Threads/MPI process:                     2

     MPI processes distributed on     1 nodes
     R & G space division:  proc/nbgrp/npool/nimage =       2
     118147 MiB available memory on the printing compute node when the environment starts
 
     Waiting for input...
     Reading input from standard input

     Current dimensions of program PWSCF are:
     Max number of different atomic species (ntypx) = 10
     Max number of k-points (npk) =  40000
     Max angular momentum in pseudopotentials (lmaxx) =  4

     Atomic positions and unit cell read from directory:
     /scratch/as3359/Ta2CH_bandsdos/Ta.save/
 
     file Ta.pbesol-spfn-rrkjus_psl.1.0.0.UPF: wavefunction(s)  5S 5P renormalized
     file S.pbesol-nl-kjpaw_psl.1.0.0.UPF: wavefunction(s)  3S renormalized

     Subspace diagonalization in iterative solution of the eigenvalue problem:
     a serial algorithm will be used

 
     Parallelization info
     --------------------
     sticks:   dense  smooth     PW     G-vecs:    dense   smooth      PW
     Min         856     735    210               265452   210771   31212
     Max         857     736    211               265455   210772   31225
     Sum        1713    1471    421               530907   421543   62437
 
     Using Slab Decomposition
 


     bravais-lattice index     =            0
     lattice parameter (alat)  =       5.5500  a.u.
     unit-cell volume          =    1699.0018 (a.u.)^3
     number of atoms/cell      =            4
     number of atomic types    =            3
     number of electrons       =        64.00
     number of Kohn-Sham states=           42
     kinetic-energy cutoff     =     150.0000  Ry
     charge density cutoff     =     700.0000  Ry
     Exchange-correlation= SLA  PW   PSX  PSC
                           (   1   4  10   8   0   0   0)

     celldm(1)=   5.550000  celldm(2)=   0.000000  celldm(3)=   0.000000
     celldm(4)=   0.000000  celldm(5)=   0.000000  celldm(6)=   0.000000

     crystal axes: (cart. coord. in units of alat)
               a(1) = (   1.070291  -0.003288   0.000000 )  
               a(2) = (  -0.533526   0.930205   0.000000 )  
               a(3) = (   0.000000   0.000000  10.000000 )  

     reciprocal axes: (cart. coord. in units 2 pi/alat)
               b(1) = (  0.935974  0.536835  0.000000 )  
               b(2) = (  0.003308  1.076929  0.000000 )  
               b(3) = (  0.000000  0.000000  0.100000 )  


     PseudoPot. # 1 for Ta read from file:
     /shared/home/as3359/pseudo/Ta.pbesol-spfn-rrkjus_psl.1.0.0.UPF
     MD5 check sum: f099565ffaca9b150a52e9412a28e20b
     Pseudo is Ultrasoft + core correction, Zval = 27.0
     Generated using &quot;atomic&quot; code by A. Dal Corso  v.6.3
     Using radial grid of 1273 points,  8 beta functions with: 
                l(1) =   0
                l(2) =   0
                l(3) =   1
                l(4) =   1
                l(5) =   2
                l(6) =   2
                l(7) =   3
                l(8) =   3
     Q(r) pseudized with 0 coefficients 


     PseudoPot. # 2 for C  read from file:
     /shared/home/as3359/pseudo/C.pbesol-n-rrkjus_psl.1.0.0.UPF
     MD5 check sum: 05995be603a8a7c99da3dc4413f31573
     Pseudo is Ultrasoft + core correction, Zval =  4.0
     Generated using &quot;atomic&quot; code by A. Dal Corso  v.6.3MaX
     Using radial grid of 1073 points,  4 beta functions with: 
                l(1) =   0
                l(2) =   0
                l(3) =   1
                l(4) =   1
     Q(r) pseudized with 0 coefficients 


     PseudoPot. # 3 for S  read from file:
     /shared/home/as3359/pseudo/S.pbesol-nl-kjpaw_psl.1.0.0.UPF
     MD5 check sum: bf3db50ec3f960682bbc396f1aadd1dd
     Pseudo is Projector augmented-wave + core cor, Zval =  6.0
     Generated using &quot;atomic&quot; code by A. Dal Corso  v.6.3
     Shape of augmentation charge: PSQ
     Using radial grid of 1151 points,  4 beta functions with: 
                l(1) =   0
                l(2) =   0
                l(3) =   1
                l(4) =   1
     Q(r) pseudized with 0 coefficients 


     atomic species   valence    mass     pseudopotential
        Ta            27.00   180.94788     Ta( 1.00)
        C              4.00    12.01070     C ( 1.00)
        S              6.00    32.06500     S ( 1.00)

     No symmetry found



   Cartesian axes

     site n.     atom                  positions (alat units)
         1           C   tau(   1) = (   0.0001541   0.0001295  -0.0002665  )
         2           Ta  tau(   2) = (   0.5365170   0.3085634  -0.3899267  )
         3           Ta  tau(   3) = (   0.0012366   0.6192060   0.4285633  )
         4           S   tau(   4) = (   0.5351086   0.3081437   0.9859537  )

     number of k points=    91  Marzari-Vanderbilt smearing, width (Ry)=  0.0010
                       cart. coord. in units 2pi/alat
        k(    1) = (   0.0000000   0.0000000   0.0000000), wk =   0.0219780
        k(    2) = (   0.0207627  -0.0000362   0.0000000), wk =   0.0219780
        k(    3) = (   0.0415253  -0.0000724   0.0000000), wk =   0.0219780
        k(    4) = (   0.0622880  -0.0001086   0.0000000), wk =   0.0219780
        k(    5) = (   0.0830507  -0.0001449   0.0000000), wk =   0.0219780
        k(    6) = (   0.1038134  -0.0001811   0.0000000), wk =   0.0219780
        k(    7) = (   0.1245760  -0.0002173   0.0000000), wk =   0.0219780
        k(    8) = (   0.1453387  -0.0002535   0.0000000), wk =   0.0219780
        k(    9) = (   0.1661014  -0.0002897   0.0000000), wk =   0.0219780
        k(   10) = (   0.1868640  -0.0003259   0.0000000), wk =   0.0219780
        k(   11) = (   0.2076267  -0.0003621   0.0000000), wk =   0.0219780
        k(   12) = (   0.2283894  -0.0003984   0.0000000), wk =   0.0219780
        k(   13) = (   0.2491521  -0.0004346   0.0000000), wk =   0.0219780
        k(   14) = (   0.2699147  -0.0004708   0.0000000), wk =   0.0219780
        k(   15) = (   0.2906774  -0.0005070   0.0000000), wk =   0.0219780
        k(   16) = (   0.3114401  -0.0005432   0.0000000), wk =   0.0219780
        k(   17) = (   0.3322027  -0.0005794   0.0000000), wk =   0.0219780
        k(   18) = (   0.3529654  -0.0006157   0.0000000), wk =   0.0219780
        k(   19) = (   0.3737281  -0.0006519   0.0000000), wk =   0.0219780
        k(   20) = (   0.3944908  -0.0006881   0.0000000), wk =   0.0219780
        k(   21) = (   0.4152534  -0.0007243   0.0000000), wk =   0.0219780
        k(   22) = (   0.4360161  -0.0007605   0.0000000), wk =   0.0219780
        k(   23) = (   0.4567788  -0.0007967   0.0000000), wk =   0.0219780
        k(   24) = (   0.4775415  -0.0008329   0.0000000), wk =   0.0219780
        k(   25) = (   0.4983041  -0.0008692   0.0000000), wk =   0.0219780
        k(   26) = (   0.5190668  -0.0009054   0.0000000), wk =   0.0219780
        k(   27) = (   0.5398295  -0.0009416   0.0000000), wk =   0.0219780
        k(   28) = (   0.5605921  -0.0009778   0.0000000), wk =   0.0219780
        k(   29) = (   0.5813548  -0.0010140   0.0000000), wk =   0.0219780
        k(   30) = (   0.6021175  -0.0010502   0.0000000), wk =   0.0219780
        k(   31) = (   0.6228802  -0.0010864   0.0000000), wk =   0.0219780
        k(   32) = (   0.6176619  -0.0100518   0.0000000), wk =   0.0219780
        k(   33) = (   0.6124437  -0.0190172   0.0000000), wk =   0.0219780
        k(   34) = (   0.6072254  -0.0279825   0.0000000), wk =   0.0219780
        k(   35) = (   0.6020072  -0.0369479   0.0000000), wk =   0.0219780
        k(   36) = (   0.5967890  -0.0459132   0.0000000), wk =   0.0219780
        k(   37) = (   0.5915707  -0.0548786   0.0000000), wk =   0.0219780
        k(   38) = (   0.5863525  -0.0638439   0.0000000), wk =   0.0219780
        k(   39) = (   0.5811343  -0.0728093   0.0000000), wk =   0.0219780
        k(   40) = (   0.5759160  -0.0817746   0.0000000), wk =   0.0219780
        k(   41) = (   0.5706978  -0.0907400   0.0000000), wk =   0.0219780
        k(   42) = (   0.5654796  -0.0997053   0.0000000), wk =   0.0219780
        k(   43) = (   0.5602613  -0.1086707   0.0000000), wk =   0.0219780
        k(   44) = (   0.5550431  -0.1176360   0.0000000), wk =   0.0219780
        k(   45) = (   0.5498248  -0.1266014   0.0000000), wk =   0.0219780
        k(   46) = (   0.5446066  -0.1355668   0.0000000), wk =   0.0219780
        k(   47) = (   0.5393884  -0.1445321   0.0000000), wk =   0.0219780
        k(   48) = (   0.5341701  -0.1534975   0.0000000), wk =   0.0219780
        k(   49) = (   0.5289519  -0.1624628   0.0000000), wk =   0.0219780
        k(   50) = (   0.5237337  -0.1714282   0.0000000), wk =   0.0219780
        k(   51) = (   0.5185154  -0.1803935   0.0000000), wk =   0.0219780
        k(   52) = (   0.5132972  -0.1893589   0.0000000), wk =   0.0219780
        k(   53) = (   0.5080790  -0.1983242   0.0000000), wk =   0.0219780
        k(   54) = (   0.5028607  -0.2072896   0.0000000), wk =   0.0219780
        k(   55) = (   0.4976425  -0.2162549   0.0000000), wk =   0.0219780
        k(   56) = (   0.4924243  -0.2252203   0.0000000), wk =   0.0219780
        k(   57) = (   0.4872060  -0.2341856   0.0000000), wk =   0.0219780
        k(   58) = (   0.4819878  -0.2431510   0.0000000), wk =   0.0219780
        k(   59) = (   0.4767695  -0.2521164   0.0000000), wk =   0.0219780
        k(   60) = (   0.4715513  -0.2610817   0.0000000), wk =   0.0219780
        k(   61) = (   0.4663331  -0.2700471   0.0000000), wk =   0.0219780
        k(   62) = (   0.4507886  -0.2610455   0.0000000), wk =   0.0219780
        k(   63) = (   0.4352442  -0.2520439   0.0000000), wk =   0.0219780
        k(   64) = (   0.4196998  -0.2430424   0.0000000), wk =   0.0219780
        k(   65) = (   0.4041553  -0.2340408   0.0000000), wk =   0.0219780
        k(   66) = (   0.3886109  -0.2250392   0.0000000), wk =   0.0219780
        k(   67) = (   0.3730665  -0.2160377   0.0000000), wk =   0.0219780
        k(   68) = (   0.3575220  -0.2070361   0.0000000), wk =   0.0219780
        k(   69) = (   0.3419776  -0.1980345   0.0000000), wk =   0.0219780
        k(   70) = (   0.3264332  -0.1890329   0.0000000), wk =   0.0219780
        k(   71) = (   0.3108887  -0.1800314   0.0000000), wk =   0.0219780
        k(   72) = (   0.2953443  -0.1710298   0.0000000), wk =   0.0219780
        k(   73) = (   0.2797998  -0.1620282   0.0000000), wk =   0.0219780
        k(   74) = (   0.2642554  -0.1530267   0.0000000), wk =   0.0219780
        k(   75) = (   0.2487110  -0.1440251   0.0000000), wk =   0.0219780
        k(   76) = (   0.2331665  -0.1350235   0.0000000), wk =   0.0219780
        k(   77) = (   0.2176221  -0.1260220   0.0000000), wk =   0.0219780
        k(   78) = (   0.2020777  -0.1170204   0.0000000), wk =   0.0219780
        k(   79) = (   0.1865332  -0.1080188   0.0000000), wk =   0.0219780
        k(   80) = (   0.1709888  -0.0990173   0.0000000), wk =   0.0219780
        k(   81) = (   0.1554444  -0.0900157   0.0000000), wk =   0.0219780
        k(   82) = (   0.1398999  -0.0810141   0.0000000), wk =   0.0219780
        k(   83) = (   0.1243555  -0.0720126   0.0000000), wk =   0.0219780
        k(   84) = (   0.1088111  -0.0630110   0.0000000), wk =   0.0219780
        k(   85) = (   0.0932666  -0.0540094   0.0000000), wk =   0.0219780
        k(   86) = (   0.0777222  -0.0450078   0.0000000), wk =   0.0219780
        k(   87) = (   0.0621777  -0.0360063   0.0000000), wk =   0.0219780
        k(   88) = (   0.0466333  -0.0270047   0.0000000), wk =   0.0219780
        k(   89) = (   0.0310889  -0.0180031   0.0000000), wk =   0.0219780
        k(   90) = (   0.0155444  -0.0090016   0.0000000), wk =   0.0219780
        k(   91) = (   0.0000000   0.0000000   0.0000000), wk =   0.0219780

     Dense  grid:   530907 G-vectors     FFT dimensions: (  54,  54, 480)

     Smooth grid:   421543 G-vectors     FFT dimensions: (  48,  48, 450)

     Estimated max dynamical RAM per process >       2.36 GB

     Estimated total dynamical RAM >       4.73 GB

     The potential is recalculated from file :
     /scratch/as3359/Ta2CH_bandsdos/Ta.save/charge-density


     negative rho (up, down):  6.495E-05 0.000E+00
     Starting wfcs are   42 randomized atomic wfcs
     Checking if some PAW data can be deallocated... 

     Band Structure Calculation
     Davidson diagonalization with overlap
     c_bands:  1 eigenvalues not converged
     c_bands:  1 eigenvalues not converged
     c_bands:  1 eigenvalues not converged
     c_bands:  1 eigenvalues not converged

     ethr =  1.00E-13,  avg # of iterations = 72.7

     total cpu time spent up to now is      810.9 secs

     End of band structure calculation

          k = 0.0000 0.0000 0.0000 ( 52835 PWs)   bands (ev):

   -67.9728 -67.8567 -34.8368 -34.3126 -34.2952 -34.2939 -34.0367 -34.0357
   -19.6191 -19.5901 -19.5900 -19.5865 -19.5698 -19.5682 -19.5639 -19.5604
   -19.5219 -19.5210 -19.4974 -19.4972 -19.4821 -19.4325 -14.2781 -12.0971
    -7.1057  -4.2243  -4.1987  -3.2300  -0.9636  -0.9372  -0.6289  -0.1025
     0.2021   0.2236   2.7861   2.8127   3.1048   3.1142   3.3714   4.5579
     5.0458   5.3144

          k = 0.0208-0.0000 0.0000 ( 52833 PWs)   bands (ev):

   -67.9726 -67.8566 -34.8363 -34.3156 -34.2953 -34.2935 -34.0375 -34.0371
   -19.6190 -19.5900 -19.5900 -19.5864 -19.5698 -19.5682 -19.5640 -19.5604
   -19.5219 -19.5210 -19.4974 -19.4972 -19.4820 -19.4327 -14.2713 -12.0944
    -7.0955  -4.2321  -4.2135  -3.2134  -0.9811  -0.9626  -0.6335  -0.1006
     0.2066   0.2318   2.7948   2.8119   3.0627   3.1053   3.4348   4.5694
     5.0561   5.3227

          k = 0.0415-0.0001 0.0000 ( 52818 PWs)   bands (ev):

   -67.9723 -67.8563 -34.8345 -34.3237 -34.2968 -34.2921 -34.0429 -34.0383
   -19.6186 -19.5901 -19.5898 -19.5863 -19.5700 -19.5683 -19.5643 -19.5602
   -19.5221 -19.5211 -19.4974 -19.4971 -19.4816 -19.4330 -14.2510 -12.0861
    -7.0649  -4.2984  -4.2082  -3.1706  -1.0800  -0.9855  -0.6450  -0.0983
     0.2116   0.2616   2.7960   2.8306   2.9675   3.1089   3.5691   4.6033
     5.0865   5.3474

          k = 0.0623-0.0001 0.0000 ( 52815 PWs)   bands (ev):

   -67.9716 -67.8558 -34.8317 -34.3355 -34.2996 -34.2910 -34.0516 -34.0402
   -19.6180 -19.5902 -19.5895 -19.5860 -19.5703 -19.5684 -19.5649 -19.5598
   -19.5224 -19.5212 -19.4975 -19.4969 -19.4810 -19.4336 -14.2175 -12.0726
    -7.0145  -4.3991  -4.1939  -3.1167  -1.2260  -1.0284  -0.6541  -0.0993
     0.2009   0.3200   2.7863   2.8378   2.8946   3.1239   3.7371   4.6584
     5.1352   5.3883

          k = 0.0831-0.0001 0.0000 ( 52813 PWs)   bands (ev):

   -67.9707 -67.8552 -34.8278 -34.3507 -34.3037 -34.2904 -34.0636 -34.0430
   -19.6172 -19.5904 -19.5890 -19.5857 -19.5707 -19.5685 -19.5658 -19.5594
   -19.5228 -19.5213 -19.4977 -19.4966 -19.4802 -19.4344 -14.1710 -12.0540
    -6.9446  -4.5178  -4.1752  -3.0672  -1.3987  -1.0973  -0.6529  -0.1026
     0.1677   0.4025   2.7537   2.7786   2.9118   3.1612   3.9296   4.7334
     5.2003   5.4449

          k = 0.1038-0.0002 0.0000 ( 52813 PWs)   bands (ev):

   -67.9696 -67.8543 -34.8229 -34.3689 -34.3092 -34.2903 -34.0783 -34.0466
   -19.6162 -19.5906 -19.5885 -19.5852 -19.5712 -19.5687 -19.5667 -19.5589
   -19.5234 -19.5215 -19.4978 -19.4962 -19.4792 -19.4353 -14.1122 -12.0309
    -6.8563  -4.6445  -4.1540  -3.0347  -1.5839  -1.1853  -0.6442  -0.1060
     0.1122   0.5039   2.6681   2.7695   2.9379   3.2229   4.1390   4.8285
     5.2804   5.5171

          k = 0.1246-0.0002 0.0000 ( 52787 PWs)   bands (ev):

   -67.9683 -67.8533 -34.8172 -34.3897 -34.3160 -34.2907 -34.0954 -34.0510
   -19.6149 -19.5909 -19.5880 -19.5845 -19.5719 -19.5690 -19.5678 -19.5583
   -19.5241 -19.5216 -19.4980 -19.4957 -19.4781 -19.4365 -14.0417 -12.0036
    -6.7505  -4.7729  -4.1329  -3.0297  -1.7700  -1.2799  -0.6380  -0.1180
     0.0506   0.6215   2.5910   2.7600   2.9766   3.2991   4.3552   4.9450
     5.3743   5.6048

          k = 0.1453-0.0003 0.0000 ( 52787 PWs)   bands (ev):

   -67.9668 -67.8522 -34.8107 -34.4129 -34.3244 -34.2917 -34.1143 -34.0563
   -19.6135 -19.5912 -19.5875 -19.5836 -19.5728 -19.5695 -19.5686 -19.5576
   -19.5248 -19.5218 -19.4982 -19.4952 -19.4767 -19.4378 -13.9604 -11.9726
    -6.6285  -4.8982  -4.1151  -3.0602  -1.9479  -1.3702  -0.6432  -0.1785
     0.0328   0.7537   2.5201   2.7547   3.0392   3.3798   4.5662   5.0847
     5.4816   5.7083

          k = 0.1661-0.0003 0.0000 ( 52810 PWs)   bands (ev):

   -67.9651 -67.8509 -34.8036 -34.4379 -34.3343 -34.2932 -34.1345 -34.0625
   -19.6119 -19.5915 -19.5869 -19.5826 -19.5739 -19.5705 -19.5690 -19.5569
   -19.5257 -19.5221 -19.4984 -19.4947 -19.4752 -19.4393 -13.8691 -11.9385
    -6.4920  -5.0176  -4.1045  -3.1300  -2.1110  -1.4491  -0.6627  -0.2937
     0.0739   0.8993   2.4496   2.7644   3.1271   3.4587   4.7625   5.2465
     5.6022   5.8276

          k = 0.1869-0.0003 0.0000 ( 52825 PWs)   bands (ev):

   -67.9633 -67.8495 -34.7962 -34.4641 -34.3459 -34.2953 -34.1553 -34.0696
   -19.6101 -19.5918 -19.5864 -19.5815 -19.5752 -19.5715 -19.5692 -19.5561
   -19.5266 -19.5223 -19.4985 -19.4941 -19.4736 -19.4409 -13.7690 -11.9018
    -6.3428  -5.1286  -4.1055  -3.2361  -2.2569  -1.5148  -0.6931  -0.4312
     0.1471   1.0562   2.3768   2.7982   3.2359   3.5337   4.9414   5.4231
     5.7359   5.9613

          k = 0.2076-0.0004 0.0000 ( 52831 PWs)   bands (ev):

   -67.9614 -67.8480 -34.7888 -34.4910 -34.3592 -34.2982 -34.1760 -34.0774
   -19.6083 -19.5922 -19.5859 -19.5803 -19.5768 -19.5724 -19.5695 -19.5553
   -19.5275 -19.5226 -19.4987 -19.4935 -19.4719 -19.4426 -13.6612 -11.8628
    -6.1830  -5.2300  -4.1228  -3.3693  -2.3869  -1.5712  -0.7274  -0.5725
     0.2387   1.2206   2.3053   2.8595   3.3560   3.6086   5.1065   5.6031
     5.8825   6.1054

          k = 0.2284-0.0004 0.0000 ( 52817 PWs)   bands (ev):

   -67.9593 -67.8465 -34.7816 -34.5178 -34.3742 -34.3020 -34.1959 -34.0861
   -19.6063 -19.5924 -19.5855 -19.5794 -19.5781 -19.5733 -19.5697 -19.5545
   -19.5285 -19.5230 -19.4988 -19.4928 -19.4701 -19.4444 -13.5470 -11.8218
    -6.0155  -5.3207  -4.1605  -3.5170  -2.5039  -1.6264  -0.7616  -0.7010
     0.3408   1.3845   2.2452   2.9479   3.4672   3.6988   5.2622   5.7772
     6.0411   6.2528

          k = 0.2492-0.0004 0.0000 ( 52791 PWs)   bands (ev):

   -67.9572 -67.8449 -34.7751 -34.5436 -34.3908 -34.3069 -34.2145 -34.0954
   -19.6043 -19.5927 -19.5850 -19.5807 -19.5773 -19.5741 -19.5700 -19.5536
   -19.5295 -19.5234 -19.4990 -19.4922 -19.4682 -19.4462 -13.4280 -11.7791
    -5.8443  -5.3994  -4.2211  -3.6666  -2.6114  -1.6903  -0.8400  -0.7558
     0.4483   1.5316   2.2158   3.0612   3.5435   3.8274   5.4092   5.9403
     6.2085   6.3960

          k = 0.2699-0.0005 0.0000 ( 52771 PWs)   bands (ev):

   -67.9550 -67.8432 -34.7699 -34.5677 -34.4088 -34.3130 -34.2313 -34.1055
   -19.6023 -19.5929 -19.5846 -19.5824 -19.5761 -19.5748 -19.5702 -19.5528
   -19.5305 -19.5238 -19.4991 -19.4915 -19.4663 -19.4480 -13.3057 -11.7346
    -5.6809  -5.4588  -4.3039  -3.8084  -2.7128  -1.7701  -0.9355  -0.7525
     0.5569   1.6359   2.2460   3.1967   3.5847   3.9936   5.5433   6.0898
     6.3752   6.5363

          k = 0.2907-0.0005 0.0000 ( 52768 PWs)   bands (ev):

   -67.9529 -67.8416 -34.7668 -34.5888 -34.4279 -34.3204 -34.2462 -34.1162
   -19.6002 -19.5930 -19.5850 -19.5835 -19.5757 -19.5747 -19.5705 -19.5520
   -19.5315 -19.5242 -19.4991 -19.4909 -19.4644 -19.4499 -13.1817 -11.6883
    -5.5980  -5.4319  -4.4032  -3.9369  -2.8111  -1.8675  -1.0109  -0.7252
     0.6628   1.6853   2.3493   3.3510   3.6064   4.1827   5.6545   6.2255
     6.5159   6.6959

          k = 0.3114-0.0005 0.0000 ( 52737 PWs)   bands (ev):

   -67.9507 -67.8400 -34.7664 -34.6061 -34.4476 -34.3288 -34.2591 -34.1273
   -19.5983 -19.5931 -19.5866 -19.5833 -19.5763 -19.5736 -19.5706 -19.5511
   -19.5324 -19.5247 -19.4991 -19.4903 -19.4625 -19.4517 -13.0580 -11.6400
    -5.6335  -5.2896  -4.5074  -4.0504  -2.9084  -1.9795  -1.0653  -0.6799
     0.7632   1.7052   2.5001   3.5190   3.6222   4.3855   5.7297   6.3544
     6.6128   6.8925

          k = 0.3322-0.0006 0.0000 ( 52747 PWs)   bands (ev):

   -67.9486 -67.8384 -34.7692 -34.6187 -34.4676 -34.3378 -34.2706 -34.1388
   -19.5965 -19.5929 -19.5884 -19.5829 -19.5769 -19.5727 -19.5706 -19.5504
   -19.5333 -19.5253 -19.4991 -19.4898 -19.4606 -19.4534 -12.9364 -11.5894
    -5.6885  -5.1456  -4.5985  -4.1485  -3.0056  -2.1007  -1.1004  -0.6235
     0.8568   1.7270   2.6616   3.6302   3.7081   4.5964   5.7615   6.4863
     6.6774   7.1128

          k = 0.3530-0.0006 0.0000 ( 52739 PWs)   bands (ev):

   -67.9465 -67.8368 -34.7750 -34.6267 -34.4875 -34.3470 -34.2811 -34.1506
   -19.5951 -19.5924 -19.5902 -19.5825 -19.5774 -19.5723 -19.5702 -19.5496
   -19.5341 -19.5258 -19.4991 -19.4893 -19.4590 -19.4551 -12.8186 -11.5365
    -5.7483  -5.0426  -4.6491  -4.2285  -3.1026  -2.2263  -1.1184  -0.5642
     0.9450   1.7673   2.8050   3.6651   3.8884   4.8107   5.7568   6.6205
     6.7240   7.3035

          k = 0.3737-0.0007 0.0000 ( 52735 PWs)   bands (ev):

   -67.9446 -67.8353 -34.7829 -34.6306 -34.5070 -34.3559 -34.2911 -34.1625
   -19.5943 -19.5919 -19.5913 -19.5821 -19.5778 -19.5723 -19.5694 -19.5489
   -19.5348 -19.5264 -19.4990 -19.4889 -19.4580 -19.4560 -12.7065 -11.4812
    -5.8119  -5.0134  -4.6362  -4.2810  -3.1979  -2.3525  -1.1206  -0.5086
     1.0321   1.8304   2.9088   3.7228   4.0652   5.0203   5.7338   6.7200
     6.7862   7.5060

          k = 0.3945-0.0007 0.0000 ( 52696 PWs)   bands (ev):

   -67.9427 -67.8340 -34.7916 -34.6316 -34.5259 -34.3639 -34.3010 -34.1743
   -19.5942 -19.5931 -19.5898 -19.5818 -19.5783 -19.5725 -19.5687 -19.5482
   -19.5354 -19.5270 -19.4988 -19.4885 -19.4589 -19.4550 -12.6015 -11.4241
    -5.8781  -5.0375  -4.6034  -4.2853  -3.2893  -2.4761  -1.1079  -0.4611
     1.1230   1.9129   2.9645   3.8061   4.2230   5.2051   5.7239   6.7476
     6.8886   7.7199

          k = 0.4153-0.0007 0.0000 ( 52698 PWs)   bands (ev):

   -67.9410 -67.8327 -34.7998 -34.6307 -34.5443 -34.3708 -34.3111 -34.1859
   -19.5952 -19.5932 -19.5883 -19.5815 -19.5786 -19.5727 -19.5680 -19.5475
   -19.5359 -19.5276 -19.4986 -19.4883 -19.4603 -19.4536 -12.5046 -11.3662
    -5.9437  -5.0756  -4.6034  -4.2339  -3.3739  -2.5947  -1.0811  -0.4223
     1.2197   2.0082   2.9790   3.9002   4.3448   5.3197   5.7831   6.7560
     6.9670   7.9355

          k = 0.4360-0.0008 0.0000 ( 52682 PWs)   bands (ev):

   -67.9395 -67.8315 -34.8064 -34.6287 -34.5621 -34.3762 -34.3214 -34.1971
   -19.5965 -19.5929 -19.5869 -19.5813 -19.5789 -19.5728 -19.5675 -19.5470
   -19.5364 -19.5283 -19.4984 -19.4881 -19.4617 -19.4523 -12.4164 -11.3090
    -6.0038  -5.1129  -4.6286  -4.1585  -3.4481  -2.7056  -1.0408  -0.3897
     1.3199   2.1093   2.9668   3.9816   4.4147   5.3480   5.9379   6.7606
     7.0084   8.1327

          k = 0.4568-0.0008 0.0000 ( 52680 PWs)   bands (ev):

   -67.9381 -67.8305 -34.8108 -34.6263 -34.5792 -34.3802 -34.3321 -34.2078
   -19.5976 -19.5925 -19.5857 -19.5811 -19.5792 -19.5730 -19.5671 -19.5464
   -19.5366 -19.5289 -19.4981 -19.4880 -19.4629 -19.4511 -12.3372 -11.2545
    -6.0531  -5.1472  -4.6620  -4.0886  -3.5083  -2.8065  -0.9884  -0.3593
     1.4176   2.2092   2.9414   4.0205   4.4329   5.3462   6.1357   6.7709
     7.0267   8.2049

          k = 0.4775-0.0008 0.0000 ( 52672 PWs)   bands (ev):

   -67.9368 -67.8295 -34.8126 -34.6247 -34.5946 -34.3829 -34.3429 -34.2178
   -19.5986 -19.5920 -19.5847 -19.5809 -19.5794 -19.5732 -19.5669 -19.5459
   -19.5368 -19.5296 -19.4977 -19.4881 -19.4640 -19.4500 -12.2669 -11.2048
    -6.0869  -5.1792  -4.6994  -4.0361  -3.5522  -2.8953  -0.9258  -0.3270
     1.5055   2.3009   2.9138   3.9800   4.4315   5.3506   6.3210   6.8047
     7.0469   8.1729

          k = 0.4983-0.0009 0.0000 ( 52666 PWs)   bands (ev):

   -67.9358 -67.8288 -34.8115 -34.6285 -34.6042 -34.3844 -34.3536 -34.2269
   -19.5995 -19.5914 -19.5839 -19.5808 -19.5795 -19.5733 -19.5668 -19.5455
   -19.5369 -19.5303 -19.4974 -19.4882 -19.4650 -19.4491 -12.2053 -11.1620
    -6.1013  -5.2100  -4.7428  -4.0008  -3.5814  -2.9710  -0.8558  -0.2900
     1.5768   2.3775   2.8932   3.8479   4.4424   5.3694   6.4333   6.8989
     7.0881   8.1032

          k = 0.5191-0.0009 0.0000 ( 52628 PWs)   bands (ev):

   -67.9349 -67.8281 -34.8074 -34.6413 -34.6043 -34.3851 -34.3639 -34.2351
   -19.6002 -19.5907 -19.5835 -19.5806 -19.5794 -19.5735 -19.5669 -19.5452
   -19.5368 -19.5309 -19.4970 -19.4883 -19.4659 -19.4483 -12.1522 -11.1275
    -6.0944  -5.2406  -4.7949  -3.9752  -3.6012  -3.0338  -0.7826  -0.2475
     1.6274   2.4342   2.8842   3.6582   4.4618   5.4057   6.4472   7.0453
     7.1724   8.0130

          k = 0.5398-0.0009 0.0000 ( 52602 PWs)   bands (ev):

   -67.9342 -67.8276 -34.8004 -34.6578 -34.6005 -34.3855 -34.3731 -34.2421
   -19.6008 -19.5899 -19.5835 -19.5804 -19.5792 -19.5737 -19.5669 -19.5449
   -19.5366 -19.5316 -19.4967 -19.4885 -19.4666 -19.4477 -12.1077 -11.1021
    -6.0659  -5.2723  -4.8556  -3.9515  -3.6162  -3.0857  -0.7109  -0.2013
     1.6566   2.4723   2.8810   3.4551   4.4788   5.4639   6.3961   7.1548
     7.3383   7.9210

          k = 0.5606-0.0010 0.0000 ( 52604 PWs)   bands (ev):

   -67.9337 -67.8272 -34.7909 -34.6751 -34.5959 -34.3865 -34.3802 -34.2479
   -19.6012 -19.5890 -19.5839 -19.5802 -19.5790 -19.5740 -19.5670 -19.5446
   -19.5363 -19.5322 -19.4963 -19.4888 -19.4671 -19.4473 -12.0719 -11.0854
    -6.0184  -5.3069  -4.9199  -3.9266  -3.6276  -3.1293  -0.6456  -0.1557
     1.6677   2.5001   2.8603   3.2829   4.4900   5.5453   6.3070   7.2396
     7.5251   7.8439

          k = 0.5814-0.0010 0.0000 ( 52563 PWs)   bands (ev):

   -67.9333 -67.8269 -34.7794 -34.6919 -34.5917 -34.3890 -34.3838 -34.2521
   -19.6015 -19.5881 -19.5845 -19.5799 -19.5787 -19.5744 -19.5671 -19.5445
   -19.5359 -19.5329 -19.4960 -19.4890 -19.4675 -19.4470 -12.0456 -11.0762
    -5.9585  -5.3462  -4.9779  -3.9034  -3.6335  -3.1655  -0.5918  -0.1178
     1.6670   2.5279   2.7934   3.1832   4.4969   5.6449   6.1967   7.3250
     7.6356   7.8254

          k = 0.6021-0.0011 0.0000 ( 52553 PWs)   bands (ev):

   -67.9331 -67.8268 -34.7676 -34.7067 -34.5888 -34.3909 -34.3856 -34.2548
   -19.6017 -19.5870 -19.5854 -19.5795 -19.5786 -19.5748 -19.5672 -19.5444
   -19.5355 -19.5335 -19.4958 -19.4892 -19.4677 -19.4468 -12.0295 -11.0726
    -5.9011  -5.3855  -5.0182  -3.8871  -3.6331  -3.1922  -0.5544  -0.0941
     1.6615   2.5641   2.6982   3.1485   4.5012   5.7477   6.0854   7.4148
     7.6033   7.8955

          k = 0.6229-0.0011 0.0000 ( 52606 PWs)   bands (ev):

   -67.9331 -67.8267 -34.7608 -34.7143 -34.5878 -34.3903 -34.3874 -34.2557
   -19.6017 -19.5864 -19.5859 -19.5792 -19.5786 -19.5751 -19.5672 -19.5444
   -19.5350 -19.5339 -19.4957 -19.4893 -19.4678 -19.4467 -12.0243 -11.0722
    -5.8739  -5.4047  -5.0328  -3.8811  -3.6309  -3.2032  -0.5396  -0.0871
     1.6579   2.6101   2.6246   3.1410   4.5029   5.8058   6.0232   7.4804
     7.5498   7.9304

          k = 0.6177-0.0101 0.0000 ( 52586 PWs)   bands (ev):

   -67.9331 -67.8268 -34.7622 -34.7126 -34.5881 -34.3906 -34.3867 -34.2555
   -19.6017 -19.5867 -19.5857 -19.5792 -19.5787 -19.5751 -19.5671 -19.5444
   -19.5350 -19.5339 -19.4957 -19.4893 -19.4678 -19.4467 -12.0258 -11.0722
    -5.8820  -5.3986  -5.0289  -3.8822  -3.6318  -3.2004  -0.5436  -0.0882
     1.6588   2.5918   2.6500   3.1419   4.5024   5.7896   6.0402   7.4505
     7.5761   7.9218

          k = 0.6124-0.0190 0.0000 ( 52560 PWs)   bands (ev):

   -67.9332 -67.8268 -34.7666 -34.7076 -34.5888 -34.3919 -34.3845 -34.2549
   -19.6017 -19.5873 -19.5852 -19.5792 -19.5786 -19.5750 -19.5671 -19.5444
   -19.5352 -19.5338 -19.4957 -19.4892 -19.4677 -19.4468 -12.0300 -11.0723
    -5.9058  -5.3811  -5.0172  -3.8857  -3.6350  -3.1911  -0.5565  -0.0903
     1.6623   2.5778   2.6848   3.1447   4.5003   5.7531   6.0786   7.3966
     7.6161   7.9001

          k = 0.6072-0.0280 0.0000 ( 52559 PWs)   bands (ev):

   -67.9332 -67.8269 -34.7728 -34.7005 -34.5898 -34.3935 -34.3814 -34.2538
   -19.6016 -19.5879 -19.5846 -19.5794 -19.5786 -19.5750 -19.5670 -19.5444
   -19.5354 -19.5335 -19.4958 -19.4891 -19.4676 -19.4469 -12.0371 -11.0721
    -5.9431  -5.3553  -4.9974  -3.8916  -3.6406  -3.1753  -0.5790  -0.0915
     1.6689   2.5723   2.7239   3.1501   4.4964   5.7104   6.1245   7.3329
     7.6451   7.8780

          k = 0.6020-0.0369 0.0000 ( 52546 PWs)   bands (ev):

   -67.9333 -67.8269 -34.7798 -34.6922 -34.5911 -34.3954 -34.3776 -34.2522
   -19.6015 -19.5886 -19.5841 -19.5797 -19.5784 -19.5749 -19.5670 -19.5445
   -19.5356 -19.5332 -19.4959 -19.4890 -19.4675 -19.4469 -12.0467 -11.0717
    -5.9905  -5.3251  -4.9694  -3.9001  -3.6476  -3.1534  -0.6112  -0.0905
     1.6791   2.5733   2.7667   3.1591   4.4903   5.6680   6.1711   7.2611
     7.6425   7.8770

          k = 0.5968-0.0459 0.0000 ( 52542 PWs)   bands (ev):

   -67.9335 -67.8270 -34.7874 -34.6835 -34.5925 -34.3975 -34.3732 -34.2502
   -19.6014 -19.5892 -19.5835 -19.5800 -19.5783 -19.5747 -19.5669 -19.5446
   -19.5359 -19.5329 -19.4961 -19.4889 -19.4673 -19.4470 -12.0589 -11.0707
    -6.0450  -5.2939  -4.9333  -3.9116  -3.6546  -3.1263  -0.6524  -0.0863
     1.6930   2.5785   2.8127   3.1732   4.4820   5.6286   6.2151   7.1809
     7.6020   7.9069

          k = 0.5916-0.0549 0.0000 ( 52549 PWs)   bands (ev):

   -67.9336 -67.8271 -34.7951 -34.6748 -34.5936 -34.3997 -34.3684 -34.2477
   -19.6013 -19.5899 -19.5830 -19.5803 -19.5782 -19.5746 -19.5668 -19.5447
   -19.5361 -19.5325 -19.4963 -19.4887 -19.4672 -19.4472 -12.0734 -11.0693
    -6.1043  -5.2638  -4.8901  -3.9265  -3.6599  -3.0947  -0.7015  -0.0785
     1.7107   2.5854   2.8609   3.1940   4.4715   5.5935   6.2544   7.0928
     7.5392   7.9549

          k = 0.5864-0.0638 0.0000 ( 52561 PWs)   bands (ev):

   -67.9338 -67.8273 -34.8028 -34.6667 -34.5940 -34.4020 -34.3635 -34.2447
   -19.6012 -19.5906 -19.5825 -19.5806 -19.5782 -19.5744 -19.5667 -19.5448
   -19.5364 -19.5322 -19.4965 -19.4885 -19.4670 -19.4473 -12.0900 -11.0673
    -6.1668  -5.2354  -4.8414  -3.9450  -3.6621  -3.0595  -0.7565  -0.0673
     1.7324   2.5914   2.9105   3.2233   4.4587   5.5631   6.2869   6.9982
     7.4676   8.0094

          k = 0.5811-0.0728 0.0000 ( 52569 PWs)   bands (ev):

   -67.9340 -67.8274 -34.8105 -34.6598 -34.5933 -34.4045 -34.3584 -34.2412
   -19.6011 -19.5913 -19.5821 -19.5808 -19.5781 -19.5741 -19.5666 -19.5449
   -19.5366 -19.5318 -19.4967 -19.4883 -19.4667 -19.4475 -12.1085 -11.0649
    -6.2310  -5.2090  -4.7892  -3.9672  -3.6603  -3.0212  -0.8158  -0.0529
     1.7581   2.5945   2.9607   3.2620   4.4441   5.5375   6.3097   6.9005
     7.3938   8.0647

          k = 0.5759-0.0818 0.0000 ( 52576 PWs)   bands (ev):

   -67.9342 -67.8275 -34.8180 -34.6545 -34.5908 -34.4070 -34.3534 -34.2372
   -19.6009 -19.5920 -19.5821 -19.5807 -19.5780 -19.5739 -19.5665 -19.5450
   -19.5369 -19.5315 -19.4969 -19.4881 -19.4665 -19.4476 -12.1285 -11.0620
    -6.2962  -5.1840  -4.7354  -3.9925  -3.6540  -2.9801  -0.8776  -0.0358
     1.7879   2.5934   3.0109   3.3103   4.4279   5.5160   6.3180   6.8060
     7.3211   8.1174

          k = 0.5707-0.0907 0.0000 ( 52578 PWs)   bands (ev):

   -67.9344 -67.8277 -34.8254 -34.6513 -34.5863 -34.4095 -34.3485 -34.2328
   -19.6008 -19.5928 -19.5822 -19.5803 -19.5779 -19.5737 -19.5664 -19.5452
   -19.5371 -19.5311 -19.4971 -19.4879 -19.4662 -19.4478 -12.1498 -11.0588
    -6.3615  -5.1601  -4.6820  -4.0203  -3.6434  -2.9363  -0.9405  -0.0163
     1.8216   2.5873   3.0608   3.3676   4.4103   5.4978   6.3046   6.7242
     7.2513   8.1652

          k = 0.5655-0.0997 0.0000 ( 52584 PWs)   bands (ev):

   -67.9346 -67.8279 -34.8325 -34.6502 -34.5799 -34.4120 -34.3439 -34.2280
   -19.6006 -19.5935 -19.5825 -19.5799 -19.5779 -19.5734 -19.5663 -19.5453
   -19.5373 -19.5308 -19.4974 -19.4876 -19.4659 -19.4480 -12.1721 -11.0553
    -6.4264  -5.1371  -4.6303  -4.0499  -3.6291  -2.8899  -1.0032   0.0052
     1.8594   2.5764   3.1105   3.4323   4.3916   5.4813   6.2632   6.6641
     7.1856   8.2062

          k = 0.5603-0.1087 0.0000 ( 52572 PWs)   bands (ev):

   -67.9348 -67.8280 -34.8395 -34.6507 -34.5718 -34.4146 -34.3397 -34.2227
   -19.6005 -19.5942 -19.5829 -19.5795 -19.5778 -19.5731 -19.5662 -19.5455
   -19.5376 -19.5304 -19.4976 -19.4874 -19.4656 -19.4482 -12.1950 -11.0516
    -6.4904  -5.1147  -4.5815  -4.0803  -3.6120  -2.8405  -1.0648   0.0283
     1.9012   2.5609   3.1599   3.5026   4.3720   5.4640   6.1968   6.6258
     7.1254   8.2392

          k = 0.5550-0.1176 0.0000 ( 52582 PWs)   bands (ev):

   -67.9350 -67.8282 -34.8461 -34.6523 -34.5627 -34.4171 -34.3359 -34.2170
   -19.6003 -19.5949 -19.5832 -19.5791 -19.5777 -19.5729 -19.5661 -19.5456
   -19.5378 -19.5301 -19.4978 -19.4871 -19.4653 -19.4484 -12.2184 -11.0479
    -6.5531  -5.0928  -4.5362  -4.1108  -3.5932  -2.7880  -1.1243   0.0526
     1.9469   2.5418   3.2088   3.5766   4.3517   5.4422   6.1190   6.5996
     7.0724   8.2630

          k = 0.5498-0.1266 0.0000 ( 52593 PWs)   bands (ev):

   -67.9353 -67.8284 -34.8525 -34.6547 -34.5529 -34.4195 -34.3325 -34.2111
   -19.6002 -19.5955 -19.5836 -19.5788 -19.5774 -19.5726 -19.5661 -19.5458
   -19.5380 -19.5297 -19.4980 -19.4869 -19.4650 -19.4486 -12.2419 -11.0441
    -6.6139  -5.0716  -4.4948  -4.1409  -3.5737  -2.7322  -1.1811   0.0777
     1.9963   2.5195   3.2570   3.6525   4.3307   5.4108   6.0453   6.5749
     7.0285   8.2769

          k = 0.5446-0.1356 0.0000 ( 52573 PWs)   bands (ev):

   -67.9355 -67.8285 -34.8586 -34.6575 -34.5428 -34.4219 -34.3295 -34.2049
   -19.6001 -19.5962 -19.5839 -19.5786 -19.5771 -19.5723 -19.5660 -19.5459
   -19.5382 -19.5294 -19.4983 -19.4867 -19.4647 -19.4488 -12.2653 -11.0403
    -6.6727  -5.0512  -4.4573  -4.1700  -3.5547  -2.6731  -1.2347   0.1034
     2.0492   2.4950   3.3042   3.7287   4.3094   5.3646   5.9880   6.5446
     6.9949   8.2798

          k = 0.5394-0.1445 0.0000 ( 52573 PWs)   bands (ev):

   -67.9357 -67.8287 -34.8643 -34.6605 -34.5327 -34.4242 -34.3270 -34.1987
   -19.6000 -19.5968 -19.5842 -19.5785 -19.5768 -19.5720 -19.5659 -19.5461
   -19.5384 -19.5291 -19.4985 -19.4865 -19.4644 -19.4490 -12.2883 -11.0367
    -6.7291  -5.0317  -4.4235  -4.1976  -3.5372  -2.6109  -1.2847   0.1292
     2.1052   2.4689   3.3499   3.8032   4.2883   5.3016   5.9536   6.5058
     6.9716   8.2693

          k = 0.5342-0.1535 0.0000 ( 52584 PWs)   bands (ev):

   -67.9359 -67.8289 -34.8697 -34.6637 -34.5227 -34.4264 -34.3249 -34.1924
   -19.5999 -19.5973 -19.5845 -19.5785 -19.5764 -19.5717 -19.5658 -19.5463
   -19.5385 -19.5288 -19.4987 -19.4862 -19.4640 -19.4491 -12.3107 -11.0333
    -6.7828  -5.0134  -4.3933  -4.2231  -3.5220  -2.5461  -1.3308   0.1547
     2.1640   2.4418   3.3937   3.8740   4.2686   5.2241   5.9423   6.4584
     6.9571   8.2388

          k = 0.5290-0.1625 0.0000 ( 52587 PWs)   bands (ev):

   -67.9361 -67.8290 -34.8748 -34.6668 -34.5129 -34.4285 -34.3233 -34.1861
   -19.5998 -19.5978 -19.5848 -19.5784 -19.5760 -19.5715 -19.5657 -19.5464
   -19.5387 -19.5285 -19.4989 -19.4860 -19.4637 -19.4493 -12.3322 -11.0300
    -6.8336  -4.9964  -4.3666  -4.2458  -3.5095  -2.4796  -1.3725   0.1797
     2.2249   2.4143   3.4348   3.9378   4.2530   5.1381   5.9499   6.4042
     6.9489   8.1760

          k = 0.5237-0.1714 0.0000 ( 52599 PWs)   bands (ev):

   -67.9364 -67.8292 -34.8795 -34.6698 -34.5035 -34.4305 -34.3220 -34.1801
   -19.5999 -19.5981 -19.5851 -19.5784 -19.5756 -19.5712 -19.5656 -19.5466
   -19.5388 -19.5283 -19.4991 -19.4858 -19.4634 -19.4495 -12.3528 -11.0270
    -6.8812  -4.9810  -4.3443  -4.2645  -3.4999  -2.4125  -1.4097   0.2037
     2.2872   2.3869   3.4725   3.9898   4.2459   5.0496   5.9712   6.3453
     6.9448   8.0784

          k = 0.5185-0.1804 0.0000 ( 52601 PWs)   bands (ev):

   -67.9365 -67.8293 -34.8838 -34.6727 -34.4945 -34.4323 -34.3210 -34.1742
   -19.6000 -19.5983 -19.5853 -19.5785 -19.5752 -19.5710 -19.5656 -19.5467
   -19.5390 -19.5280 -19.4992 -19.4857 -19.4631 -19.4497 -12.3721 -11.0243
    -6.9253  -4.9672  -4.3297  -4.2751  -3.4930  -2.3465  -1.4419   0.2266
     2.3490   2.3610   3.5056   4.0243   4.2534   4.9636   6.0018   6.2840
     6.9429   7.9619

          k = 0.5133-0.1894 0.0000 ( 52606 PWs)   bands (ev):

   -67.9367 -67.8295 -34.8878 -34.6754 -34.4861 -34.4339 -34.3203 -34.1687
   -19.6003 -19.5984 -19.5856 -19.5785 -19.5749 -19.5707 -19.5655 -19.5469
   -19.5391 -19.5278 -19.4994 -19.4855 -19.4629 -19.4498 -12.3901 -11.0218
    -6.9659  -4.9553  -4.3289  -4.2714  -3.4888  -2.2831  -1.4686   0.2479
     2.3334   2.4130   3.5328   4.0401   4.2772   4.8835   6.0376   6.2227
     6.9420   7.8410

          k = 0.5081-0.1983 0.0000 ( 52626 PWs)   bands (ev):

   -67.9369 -67.8296 -34.8913 -34.6779 -34.4783 -34.4354 -34.3199 -34.1636
   -19.6006 -19.5985 -19.5858 -19.5785 -19.5746 -19.5705 -19.5654 -19.5470
   -19.5392 -19.5276 -19.4995 -19.4853 -19.4626 -19.4500 -12.4066 -11.0197
    -7.0026  -4.9452  -4.3375  -4.2576  -3.4867  -2.2242  -1.4896   0.2675
     2.3086   2.4739   3.5528   4.0447   4.3105   4.8125   6.0724   6.1658
     6.9418   7.7227

          k = 0.5029-0.2073 0.0000 ( 52624 PWs)   bands (ev):

   -67.9370 -67.8297 -34.8945 -34.6801 -34.4712 -34.4367 -34.3197 -34.1589
   -19.6009 -19.5984 -19.5860 -19.5785 -19.5743 -19.5703 -19.5654 -19.5471
   -19.5393 -19.5274 -19.4996 -19.4852 -19.4624 -19.4501 -12.4214 -11.0178
    -7.0354  -4.9368  -4.3479  -4.2414  -3.4863  -2.1715  -1.5044   0.2852
     2.2852   2.5321   3.5646   4.0476   4.3434   4.7531   6.0763   6.1424
     6.9424   7.6108

          k = 0.4976-0.2163 0.0000 ( 52630 PWs)   bands (ev):

   -67.9372 -67.8298 -34.8972 -34.6821 -34.4649 -34.4377 -34.3197 -34.1548
   -19.6012 -19.5984 -19.5861 -19.5785 -19.5740 -19.5702 -19.5653 -19.5472
   -19.5394 -19.5273 -19.4997 -19.4851 -19.4622 -19.4502 -12.4345 -11.0161
    -7.0642  -4.9301  -4.3576  -4.2256  -3.4872  -2.1264  -1.5130   0.3007
     2.2637   2.5862   3.5681   4.0548   4.3677   4.7086   6.0308   6.1699
     6.9447   7.5073

          k = 0.4924-0.2252 0.0000 ( 52645 PWs)   bands (ev):

   -67.9373 -67.8299 -34.8996 -34.6838 -34.4596 -34.4385 -34.3198 -34.1512
   -19.6014 -19.5983 -19.5863 -19.5785 -19.5738 -19.5700 -19.5653 -19.5473
   -19.5395 -19.5271 -19.4998 -19.4850 -19.4620 -19.4503 -12.4458 -11.0148
    -7.0887  -4.9248  -4.3658  -4.2112  -3.4889  -2.0898  -1.5160   0.3140
     2.2445   2.6347   3.5648   4.0685   4.3771   4.6819   5.9809   6.2027
     6.9502   7.4134

          k = 0.4872-0.2342 0.0000 ( 52660 PWs)   bands (ev):

   -67.9374 -67.8300 -34.9015 -34.6852 -34.4552 -34.4389 -34.3200 -34.1482
   -19.6016 -19.5983 -19.5864 -19.5786 -19.5736 -19.5699 -19.5653 -19.5474
   -19.5395 -19.5270 -19.4999 -19.4849 -19.4618 -19.4504 -12.4551 -11.0137
    -7.1089  -4.9209  -4.3725  -4.1987  -3.4910  -2.0617  -1.5145   0.3250
     2.2279   2.6763   3.5572   4.0888   4.3695   4.6726   5.9358   6.2315
     6.9604   7.3294

          k = 0.4820-0.2432 0.0000 ( 52644 PWs)   bands (ev):

   -67.9375 -67.8300 -34.9030 -34.6863 -34.4520 -34.4391 -34.3202 -34.1458
   -19.6018 -19.5983 -19.5865 -19.5786 -19.5735 -19.5698 -19.5652 -19.5475
   -19.5396 -19.5269 -19.5000 -19.4848 -19.4617 -19.4505 -12.4624 -11.0128
    -7.1247  -4.9181  -4.3776  -4.1884  -3.4930  -2.0417  -1.5102   0.3336
     2.2145   2.7100   3.5480   4.1140   4.3489   4.6753   5.8982   6.2540
     6.9770   7.2550

          k = 0.4768-0.2521 0.0000 ( 52645 PWs)   bands (ev):

   -67.9375 -67.8301 -34.9041 -34.6871 -34.4499 -34.4389 -34.3204 -34.1441
   -19.6019 -19.5982 -19.5865 -19.5786 -19.5734 -19.5697 -19.5652 -19.5475
   -19.5396 -19.5269 -19.5000 -19.4848 -19.4616 -19.4505 -12.4677 -11.0123
    -7.1360  -4.9162  -4.3812  -4.1809  -3.4947  -2.0286  -1.5052   0.3398
     2.2046   2.7347   3.5398   4.1414   4.3219   4.6826   5.8698   6.2699
     7.0006   7.1903

          k = 0.4716-0.2611 0.0000 ( 52658 PWs)   bands (ev):

   -67.9375 -67.8301 -34.9047 -34.6876 -34.4488 -34.4387 -34.3205 -34.1430
   -19.6020 -19.5982 -19.5866 -19.5786 -19.5733 -19.5697 -19.5652 -19.5475
   -19.5396 -19.5268 -19.5000 -19.4848 -19.4616 -19.4505 -12.4708 -11.0119
    -7.1429  -4.9151  -4.3834  -4.1762  -3.4959  -2.0213  -1.5014   0.3434
     2.1984   2.7497   3.5343   4.1661   4.2966   4.6890   5.8521   6.2790
     7.0302   7.1362

          k = 0.4663-0.2700 0.0000 ( 52660 PWs)   bands (ev):

   -67.9376 -67.8301 -34.9049 -34.6877 -34.4485 -34.4386 -34.3205 -34.1427
   -19.6020 -19.5982 -19.5866 -19.5786 -19.5733 -19.5697 -19.5652 -19.5475
   -19.5397 -19.5268 -19.5001 -19.4848 -19.4616 -19.4506 -12.4719 -11.0118
    -7.1451  -4.9148  -4.3841  -4.1747  -3.4962  -2.0189  -1.5000   0.3447
     2.1964   2.7548   3.5323   4.1775   4.2849   4.6915   5.8461   6.2820
     7.0520   7.1063

          k = 0.4508-0.2610 0.0000 ( 52690 PWs)   bands (ev):

   -67.9377 -67.8302 -34.9036 -34.6873 -34.4484 -34.4382 -34.3201 -34.1424
   -19.6020 -19.5981 -19.5866 -19.5786 -19.5734 -19.5697 -19.5653 -19.5476
   -19.5396 -19.5268 -19.5001 -19.4848 -19.4615 -19.4506 -12.4749 -11.0198
    -7.1325  -4.9214  -4.3735  -4.1729  -3.4979  -2.0195  -1.5004   0.3313
     2.1888   2.7555   3.5166   4.1618   4.2602   4.6925   5.8591   6.3141
     7.0488   7.1158

          k = 0.4352-0.2520 0.0000 ( 52688 PWs)   bands (ev):

   -67.9379 -67.8304 -34.8997 -34.6860 -34.4482 -34.4371 -34.3186 -34.1415
   -19.6019 -19.5979 -19.5867 -19.5787 -19.5735 -19.5697 -19.5655 -19.5476
   -19.5395 -19.5267 -19.5000 -19.4849 -19.4613 -19.4509 -12.4842 -11.0434
    -7.0953  -4.9388  -4.3448  -4.1676  -3.5023  -2.0207  -1.5016   0.2923
     2.1665   2.7578   3.4705   4.1159   4.1902   4.6950   5.9001   6.3989
     7.0428   7.1437

          k = 0.4197-0.2430 0.0000 ( 52677 PWs)   bands (ev):

   -67.9384 -67.8307 -34.8933 -34.6840 -34.4477 -34.4351 -34.3163 -34.1401
   -19.6018 -19.5975 -19.5869 -19.5789 -19.5736 -19.5698 -19.5658 -19.5477
   -19.5392 -19.5266 -19.5000 -19.4851 -19.4609 -19.4513 -12.5001 -11.0808
    -7.0354  -4.9621  -4.3051  -4.1589  -3.5080  -2.0216  -1.5035   0.2308
     2.1309   2.7614   3.3974   4.0420   4.0859   4.6974   5.9679   6.5126
     7.0444   7.1877

          k = 0.4042-0.2340 0.0000 ( 52690 PWs)   bands (ev):

   -67.9391 -67.8312 -34.8845 -34.6814 -34.4464 -34.4325 -34.3132 -34.1381
   -19.6016 -19.5969 -19.5872 -19.5790 -19.5739 -19.5698 -19.5663 -19.5479
   -19.5389 -19.5265 -19.5000 -19.4853 -19.4604 -19.4519 -12.5232 -11.1295
    -6.9555  -4.9857  -4.2638  -4.1471  -3.5114  -2.0205  -1.5062   0.1514
     2.0840   2.7657   3.3011   3.9429   3.9614   4.6977   6.0500   6.6337
     7.0646   7.2446

          k = 0.3886-0.2250 0.0000 ( 52692 PWs)   bands (ev):

   -67.9399 -67.8319 -34.8734 -34.6785 -34.4441 -34.4292 -34.3095 -34.1356
   -19.6013 -19.5961 -19.5877 -19.5792 -19.5742 -19.5699 -19.5669 -19.5481
   -19.5384 -19.5263 -19.5000 -19.4856 -19.4598 -19.4527 -12.5540 -11.1866
    -6.8592  -5.0053  -4.2317  -4.1325  -3.5066  -2.0154  -1.5095   0.0595
     2.0275   2.7694   3.1858   3.8163   3.8360   4.6946   6.1235   6.7582
     7.0975   7.3101

          k = 0.3731-0.2160 0.0000 ( 52722 PWs)   bands (ev):

   -67.9409 -67.8326 -34.8605 -34.6755 -34.4404 -34.4251 -34.3052 -34.1325
   -19.6010 -19.5952 -19.5883 -19.5793 -19.5746 -19.5699 -19.5676 -19.5484
   -19.5379 -19.5261 -19.5000 -19.4860 -19.4590 -19.4536 -12.5934 -11.2489
    -6.7507  -5.0174  -4.2200  -4.1158  -3.4856  -2.0041  -1.5133  -0.0394
     1.9631   2.7704   3.0548   3.6794   3.7080   4.6867   6.1664   6.9004
     7.0997   7.3799

          k = 0.3575-0.2070 0.0000 ( 52730 PWs)   bands (ev):

   -67.9421 -67.8335 -34.8460 -34.6723 -34.4348 -34.4205 -34.3006 -34.1290
   -19.6007 -19.5942 -19.5891 -19.5793 -19.5751 -19.5700 -19.5683 -19.5487
   -19.5373 -19.5259 -19.4999 -19.4864 -19.4581 -19.4547 -12.6419 -11.3133
    -6.6344  -5.0192  -4.2368  -4.0973  -3.4420  -1.9847  -1.5174  -0.1403
     1.8919   2.7660   2.9105   3.5486   3.5759   4.6731   6.1736   6.9989
     7.0922   7.4497

          k = 0.3420-0.1980 0.0000 ( 52718 PWs)   bands (ev):

   -67.9434 -67.8345 -34.8305 -34.6690 -34.4273 -34.4153 -34.2955 -34.1251
   -19.6004 -19.5930 -19.5900 -19.5793 -19.5757 -19.5700 -19.5692 -19.5491
   -19.5366 -19.5257 -19.4999 -19.4869 -19.4571 -19.4558 -12.7000 -11.3775
    -6.5153  -5.0092  -4.2826  -4.0778  -3.3748  -1.9556  -1.5213  -0.2387
     1.8145   2.7464   2.7611   3.4315   3.4452   4.6530   6.1549   6.8648
     7.2653   7.5159

          k = 0.3264-0.1890 0.0000 ( 52727 PWs)   bands (ev):

   -67.9449 -67.8356 -34.8149 -34.6651 -34.4176 -34.4095 -34.2901 -34.1208
   -19.6000 -19.5917 -19.5910 -19.5791 -19.5763 -19.5703 -19.5698 -19.5495
   -19.5359 -19.5254 -19.4998 -19.4874 -19.4572 -19.4560 -12.7676 -11.4395
    -6.3981  -4.9882  -4.3493  -4.0579  -3.2880  -1.9156  -1.5246  -0.3312
     1.7310   2.5877   2.7285   3.3205   3.3349   4.6258   6.1212   6.6975
     7.3742   7.5750

          k = 0.3109-0.1800 0.0000 ( 52725 PWs)   bands (ev):

   -67.9464 -67.8367 -34.8000 -34.6599 -34.4061 -34.4032 -34.2843 -34.1161
   -19.5997 -19.5923 -19.5902 -19.5789 -19.5769 -19.5712 -19.5698 -19.5500
   -19.5351 -19.5252 -19.4997 -19.4880 -19.4585 -19.4548 -12.8443 -11.4980
    -6.2875  -4.9631  -4.4208  -4.0387  -3.1873  -1.8642  -1.5265  -0.4152
     1.6416   2.4136   2.6890   3.2071   3.2606   4.5906   6.0792   6.5261
     7.2868   7.4239

          k = 0.2953-0.1710 0.0000 ( 52724 PWs)   bands (ev):

   -67.9481 -67.8380 -34.7873 -34.6522 -34.3968 -34.3926 -34.2779 -34.1112
   -19.5996 -19.5934 -19.5887 -19.5788 -19.5774 -19.5722 -19.5698 -19.5505
   -19.5342 -19.5249 -19.4997 -19.4886 -19.4600 -19.4535 -12.9290 -11.5526
    -6.1877  -4.9532  -4.4688  -4.0210  -3.0783  -1.8009  -1.5263  -0.4887
     1.5466   2.2333   2.6378   3.1071   3.2079   4.5470   6.0294   6.3624
     7.1227   7.2093

          k = 0.2798-0.1620 0.0000 ( 52746 PWs)   bands (ev):

   -67.9498 -67.8393 -34.7779 -34.6409 -34.3898 -34.3783 -34.2707 -34.1060
   -19.5997 -19.5944 -19.5871 -19.5791 -19.5774 -19.5732 -19.5698 -19.5511
   -19.5334 -19.5246 -19.4996 -19.4892 -19.4616 -19.4521 -13.0205 -11.6032
    -6.1020  -4.9860  -4.4579  -4.0058  -2.9659  -1.7258  -1.5230  -0.5506
     1.4467   2.0495   2.5801   3.0221   3.1712   4.4942   5.9644   6.2183
     6.9478   7.0018

          k = 0.2643-0.1530 0.0000 ( 52754 PWs)   bands (ev):

   -67.9516 -67.8406 -34.7725 -34.6255 -34.3825 -34.3636 -34.2623 -34.1006
   -19.6002 -19.5950 -19.5855 -19.5797 -19.5772 -19.5742 -19.5697 -19.5517
   -19.5324 -19.5243 -19.4995 -19.4899 -19.4632 -19.4507 -13.1172 -11.6502
    -6.0337  -5.0624  -4.3807  -3.9940  -2.8539  -1.6392  -1.5157  -0.5999
     1.3427   1.8650   2.5222   2.9522   3.1436   4.4318   5.8697   6.1085
     6.7783   6.8028

          k = 0.2487-0.1440 0.0000 ( 52763 PWs)   bands (ev):

   -67.9534 -67.8420 -34.7709 -34.6063 -34.3752 -34.3494 -34.2522 -34.0951
   -19.6013 -19.5951 -19.5839 -19.5804 -19.5769 -19.5751 -19.5697 -19.5524
   -19.5315 -19.5240 -19.4994 -19.4905 -19.4648 -19.4492 -13.2174 -11.6941
    -5.9881  -5.1545  -4.2572  -3.9862  -2.7456  -1.5418  -1.5031  -0.6359
     1.2361   1.6824   2.4692   2.8974   3.1194   4.3596   5.7446   6.0299
     6.6100   6.6241

          k = 0.2332-0.1350 0.0000 ( 52777 PWs)   bands (ev):

   -67.9552 -67.8434 -34.7722 -34.5841 -34.3677 -34.3364 -34.2400 -34.0896
   -19.6027 -19.5949 -19.5828 -19.5806 -19.5771 -19.5754 -19.5696 -19.5530
   -19.5305 -19.5238 -19.4992 -19.4912 -19.4664 -19.4477 -13.3195 -11.7354
    -5.9741  -5.2335  -4.1058  -3.9832  -2.6435  -1.4851  -1.4347  -0.6582
     1.1285   1.5041   2.4246   2.8569   3.0945   4.2776   5.6050   5.9586
     6.4299   6.4832

          k = 0.2176-0.1260 0.0000 ( 52774 PWs)   bands (ev):

   -67.9571 -67.8448 -34.7758 -34.5599 -34.3602 -34.3254 -34.2255 -34.0840
   -19.6043 -19.5946 -19.5829 -19.5797 -19.5779 -19.5751 -19.5695 -19.5537
   -19.5296 -19.5235 -19.4991 -19.4918 -19.4680 -19.4462 -13.4217 -11.7747
    -6.0017  -5.2771  -3.9855  -3.9380  -2.5487  -1.4602  -1.3215  -0.6658
     1.0215   1.3322   2.3909   2.8297   3.0664   4.1861   5.4618   5.8742
     6.2587   6.3603

          k = 0.2021-0.1170 0.0000 ( 52786 PWs)   bands (ev):

   -67.9589 -67.8461 -34.7807 -34.5347 -34.3527 -34.3164 -34.2089 -34.0785
   -19.6059 -19.5941 -19.5836 -19.5790 -19.5780 -19.5745 -19.5694 -19.5544
   -19.5286 -19.5232 -19.4989 -19.4925 -19.4697 -19.4447 -13.5228 -11.8122
    -6.0718  -5.2768  -3.9925  -3.7631  -2.4609  -1.4287  -1.2062  -0.6573
     0.9168   1.1685   2.3697   2.8145   3.0343   4.0859   5.3180   5.7672
     6.0982   6.2474

          k = 0.1865-0.1080 0.0000 ( 52779 PWs)   bands (ev):

   -67.9607 -67.8475 -34.7865 -34.5089 -34.3454 -34.3094 -34.1906 -34.0731
   -19.6075 -19.5937 -19.5843 -19.5799 -19.5765 -19.5738 -19.5693 -19.5551
   -19.5277 -19.5230 -19.4988 -19.4931 -19.4712 -19.4432 -13.6213 -11.8481
    -6.1725  -5.2391  -4.0045  -3.5888  -2.3777  -1.3906  -1.0955  -0.6301
     0.8162   1.0146   2.3619   2.8098   2.9984   3.9779   5.1736   5.6380
     5.9494   6.1343

          k = 0.1710-0.0990 0.0000 ( 52785 PWs)   bands (ev):

   -67.9624 -67.8488 -34.7927 -34.4834 -34.3384 -34.3040 -34.1714 -34.0679
   -19.6092 -19.5932 -19.5851 -19.5808 -19.5749 -19.5731 -19.5692 -19.5558
   -19.5268 -19.5228 -19.4986 -19.4937 -19.4728 -19.4417 -13.7160 -11.8826
    -6.2889  -5.1752  -4.0207  -3.4241  -2.2941  -1.3467  -0.9974  -0.5813
     0.7210   0.8721   2.3684   2.8141   2.9599   3.8639   5.0265   5.4939
     5.8128   6.0182

          k = 0.1554-0.0900 0.0000 ( 52781 PWs)   bands (ev):

   -67.9640 -67.8500 -34.7990 -34.4585 -34.3316 -34.2999 -34.1520 -34.0630
   -19.6107 -19.5927 -19.5859 -19.5818 -19.5736 -19.5723 -19.5690 -19.5564
   -19.5260 -19.5226 -19.4984 -19.4943 -19.4742 -19.4403 -13.8059 -11.9154
    -6.4100  -5.0938  -4.0404  -3.2789  -2.2031  -1.2981  -0.9178  -0.5110
     0.6328   0.7422   2.3896   2.8256   2.9209   3.7458   4.8731   5.3443
     5.6882   5.9036

          k = 0.1399-0.0810 0.0000 ( 52800 PWs)   bands (ev):

   -67.9656 -67.8512 -34.8053 -34.4346 -34.3252 -34.2967 -34.1328 -34.0583
   -19.6122 -19.5922 -19.5866 -19.5826 -19.5726 -19.5713 -19.5688 -19.5571
   -19.5251 -19.5224 -19.4983 -19.4948 -19.4756 -19.4390 -13.8901 -11.9465
    -6.5291  -5.0002  -4.0626  -3.1636  -2.0965  -1.2464  -0.8563  -0.4258
     0.5526   0.6260   2.4252   2.8421   2.8840   3.6260   4.7103   5.1991
     5.5748   5.7955

          k = 0.1244-0.0720 0.0000 ( 52792 PWs)   bands (ev):

   -67.9670 -67.8523 -34.8113 -34.4121 -34.3193 -34.2943 -34.1146 -34.0540
   -19.6136 -19.5918 -19.5873 -19.5834 -19.5718 -19.5703 -19.5685 -19.5577
   -19.5244 -19.5222 -19.4981 -19.4953 -19.4769 -19.4377 -13.9676 -11.9755
    -6.6418  -4.8980  -4.0862  -3.0854  -1.9690  -1.1934  -0.8080  -0.3373
     0.4816   0.5246   2.4747   2.8508   2.8626   3.5078   4.5369   5.0659
     5.4720   5.6968

          k = 0.1088-0.0630 0.0000 ( 52775 PWs)   bands (ev):

   -67.9683 -67.8533 -34.8169 -34.3914 -34.3139 -34.2926 -34.0975 -34.0501
   -19.6148 -19.5914 -19.5879 -19.5841 -19.5713 -19.5696 -19.5679 -19.5583
   -19.5237 -19.5220 -19.4979 -19.4958 -19.4780 -19.4366 -14.0377 -12.0021
    -6.7454  -4.7901  -4.1101  -3.0453  -1.8210  -1.1415  -0.7681  -0.2561
     0.4202   0.4388   2.5365   2.8266   2.8814   3.3948   4.3553   4.9484
     5.3794   5.6089

          k = 0.0933-0.0540 0.0000 ( 52778 PWs)   bands (ev):

   -67.9694 -67.8542 -34.8219 -34.3726 -34.3091 -34.2915 -34.0821 -34.0466
   -19.6159 -19.5910 -19.5885 -19.5847 -19.5708 -19.5692 -19.5670 -19.5588
   -19.5232 -19.5219 -19.4978 -19.4962 -19.4790 -19.4355 -14.0998 -12.0261
    -6.8379  -4.6793  -4.1331  -3.0387  -1.6586  -1.0928  -0.7338  -0.1900
     0.3652   0.3722   2.6083   2.8116   2.8970   3.2925   4.1711   4.8472
     5.2969   5.5321

          k = 0.0777-0.0450 0.0000 ( 52811 PWs)   bands (ev):

   -67.9704 -67.8549 -34.8263 -34.3560 -34.3050 -34.2909 -34.0685 -34.0435
   -19.6169 -19.5907 -19.5890 -19.5852 -19.5704 -19.5689 -19.5661 -19.5593
   -19.5227 -19.5217 -19.4976 -19.4965 -19.4799 -19.4346 -14.1533 -12.0471
    -6.9180  -4.5688  -4.1544  -3.0579  -1.4911  -1.0495  -0.7040  -0.1428
     0.3120   0.3281   2.6843   2.8101   2.9030   3.2081   3.9907   4.7613
     5.2247   5.4665

          k = 0.0622-0.0360 0.0000 ( 52803 PWs)   bands (ev):

   -67.9713 -67.8556 -34.8300 -34.3417 -34.3015 -34.2908 -34.0571 -34.0410
   -19.6177 -19.5904 -19.5894 -19.5857 -19.5702 -19.5687 -19.5653 -19.5597
   -19.5223 -19.5215 -19.4975 -19.4968 -19.4807 -19.4339 -14.1977 -12.0647
    -6.9847  -4.4627  -4.1729  -3.0946  -1.3283  -1.0131  -0.6785  -0.1144
     0.2714   0.2927   2.7468   2.8359   2.8931   3.1500   3.8201   4.6901
     5.1632   5.4124

          k = 0.0466-0.0270 0.0000 ( 52810 PWs)   bands (ev):

   -67.9719 -67.8561 -34.8330 -34.3300 -34.2987 -34.2913 -34.0480 -34.0390
   -19.6183 -19.5902 -19.5897 -19.5860 -19.5700 -19.5685 -19.5647 -19.5600
   -19.5221 -19.5213 -19.4974 -19.4970 -19.4813 -19.4333 -14.2326 -12.0787
    -7.0373  -4.3666  -4.1879  -3.1400  -1.1811  -0.9844  -0.6577  -0.1014
     0.2427   0.2630   2.7743   2.8665   2.9053   3.1206   3.6644   4.6335
     5.1133   5.3698

          k = 0.0311-0.0180 0.0000 ( 52813 PWs)   bands (ev):

   -67.9724 -67.8564 -34.8351 -34.3209 -34.2968 -34.2922 -34.0414 -34.0375
   -19.6188 -19.5901 -19.5899 -19.5863 -19.5698 -19.5683 -19.5642 -19.5602
   -19.5220 -19.5212 -19.4974 -19.4972 -19.4817 -19.4329 -14.2578 -12.0889
    -7.0752  -4.2880  -4.1984  -3.1845  -1.0616  -0.9636  -0.6421  -0.0989
     0.2223   0.2403   2.7851   2.8366   2.9907   3.1105   3.5282   4.5920
     5.0764   5.3391

          k = 0.0155-0.0090 0.0000 ( 52841 PWs)   bands (ev):

   -67.9727 -67.8566 -34.8364 -34.3148 -34.2956 -34.2934 -34.0376 -34.0365
   -19.6190 -19.5901 -19.5900 -19.5864 -19.5698 -19.5682 -19.5639 -19.5604
   -19.5219 -19.5211 -19.4974 -19.4972 -19.4820 -19.4326 -14.2730 -12.0951
    -7.0980  -4.2378  -4.2020  -3.2176  -0.9851  -0.9481  -0.6322  -0.1010
     0.2078   0.2274   2.7877   2.8173   3.0705   3.1088   3.4202   4.5665
     5.0535   5.3206

          k = 0.0000 0.0000 0.0000 ( 52835 PWs)   bands (ev):

   -67.9728 -67.8567 -34.8368 -34.3126 -34.2952 -34.2939 -34.0367 -34.0357
   -19.6191 -19.5901 -19.5900 -19.5865 -19.5698 -19.5682 -19.5639 -19.5604
   -19.5219 -19.5210 -19.4974 -19.4972 -19.4821 -19.4325 -14.2781 -12.0971
    -7.1057  -4.2243  -4.1987  -3.2300  -0.9636  -0.9372  -0.6289  -0.1025
     0.2021   0.2236   2.7861   2.8127   3.1048   3.1142   3.3714   4.5579
     5.0458   5.3144

     Writing output data file /scratch/as3359/Ta2CH_bandsdos/Ta.save/
 
     init_run     :     12.06s CPU      8.55s WALL (       1 calls)
     electrons    :   1582.07s CPU    801.94s WALL (       1 calls)

     Called by init_run:
     wfcinit      :      0.00s CPU      0.00s WALL (       1 calls)
     potinit      :      0.56s CPU      0.33s WALL (       1 calls)
     hinit0       :      8.90s CPU      6.56s WALL (       1 calls)

     Called by electrons:
     c_bands      :   1582.07s CPU    801.94s WALL (       1 calls)
     v_of_rho     :      0.40s CPU      0.22s WALL (       1 calls)
     newd         :      2.10s CPU      1.32s WALL (       1 calls)
     PAW_pot      :      0.04s CPU      0.02s WALL (       1 calls)

     Called by c_bands:
     init_us_2    :      1.25s CPU      0.63s WALL (      91 calls)
     cegterg      :   1529.37s CPU    774.37s WALL (     373 calls)

     Called by *egterg:
     cdiaghg      :     22.58s CPU     11.52s WALL (    6704 calls)
     h_psi        :   1128.58s CPU    572.74s WALL (    7077 calls)
     s_psi        :     65.40s CPU     32.74s WALL (    7077 calls)
     g_psi        :     10.09s CPU      5.06s WALL (    6613 calls)

     Called by h_psi:
     h_psi:calbec :     49.36s CPU     24.75s WALL (    7077 calls)
     vloc_psi     :   1001.72s CPU    508.70s WALL (    7077 calls)
     add_vuspsi   :     69.04s CPU     34.56s WALL (    7077 calls)

     General routines
     calbec       :     49.30s CPU     24.72s WALL (    7077 calls)
     fft          :      0.20s CPU      0.11s WALL (      13 calls)
     ffts         :      0.01s CPU      0.01s WALL (       1 calls)
     fftw         :    845.96s CPU    430.29s WALL (  252530 calls)
     interpolate  :      0.04s CPU      0.02s WALL (       1 calls)
     davcio       :      1.00s CPU      1.04s WALL (     182 calls)
 
     Parallel routines
 
     PWSCF        :  26m43.22s CPU  13m38.96s WALL

 
   This run was terminated on:   9: 3:31  22Apr2022            

=------------------------------------------------------------------------------=
   JOB DONE.
=------------------------------------------------------------------------------=
