
     Program BANDS v.6.8 starts on 22Apr2022 at  9: 3:33 

     This program is part of the open-source Quantum ESPRESSO suite
     for quantum simulation of materials; please cite
         "P. Giannozzi et al., J. Phys.:Condens. Matter 21 395502 (2009);
         "P. Giannozzi et al., J. Phys.:Condens. Matter 29 465901 (2017);
         "P. Giannozzi et al., J. Chem. Phys. 152 154105 (2020);
          URL http://www.quantum-espresso.org", 
     in publications or presentations arising from this work. More details at
     http://www.quantum-espresso.org/quote

     Parallel version (MPI & OpenMP), running on       4 processor cores
     Number of MPI processes:                 2
     Threads/MPI process:                     2

     MPI processes distributed on     1 nodes
     R & G space division:  proc/nbgrp/npool/nimage =       2
     118018 MiB available memory on the printing compute node when the environment starts
 

     Reading xml data from directory:

     /scratch/as3359/Ta2CH_bandsdos/Ta.save/
     file Ta.pbesol-spfn-rrkjus_psl.1.0.0.UPF: wavefunction(s)  5S 5P renormalized
     file S.pbesol-nl-kjpaw_psl.1.0.0.UPF: wavefunction(s)  3S renormalized

     IMPORTANT: XC functional enforced from input :
     Exchange-correlation= PBESOL
                           (   1   4  10   8   0   0   0)
     Any further DFT definition will be discarded
     Please, verify this is what you really want

 
     Parallelization info
     --------------------
     sticks:   dense  smooth     PW     G-vecs:    dense   smooth      PW
     Min         856     735    210               265452   210771   31212
     Max         857     736    211               265455   210772   31225
     Sum        1713    1471    421               530907   421543   62437
 
     Using Slab Decomposition
 

     negative rho (up, down):  6.495E-05 0.000E+00
     Reading collected, re-writing distributed wavefunctions
     high-symmetry point:  0.0000 0.0000 0.0000   x coordinate   0.0000
     high-symmetry point:  0.6229-0.0011 0.0000   x coordinate   0.6229
     high-symmetry point:  0.4663-0.2700 0.0000   x coordinate   0.9341
     high-symmetry point:  0.0000 0.0000 0.0000   x coordinate   1.4730

     Plottable bands (eV) written to file Ta2CS.Bandx.dat.gnu
     Bands written to file Ta2CS.Bandx.dat

 **************************************************************************

                    xk=(   0.00000,   0.00000,   0.00000  )

     point group C_1 (1)    
     there are  1 classes
     the character table:

       E    
A      1.00

     the symmetry operations in each class and the name of the first element:

     E        1
                                                                 

     Band symmetry, C_1 (1)     point group:

     e(  1 -  1) =    -67.97277  eV     1   --> A              
     e(  2 -  2) =    -67.85671  eV     1   --> A              
     e(  3 -  3) =    -34.83684  eV     1   --> A              
     e(  4 -  4) =    -34.31258  eV     1   --> A              
     e(  5 -  5) =    -34.29518  eV     1   --> A              
     e(  6 -  6) =    -34.29393  eV     1   --> A              
     e(  7 -  7) =    -34.03674  eV     1   --> A              
     e(  8 -  8) =    -34.03572  eV     1   --> A              
     e(  9 -  9) =    -19.61913  eV     1   --> A              
     e( 10 - 10) =    -19.59011  eV     1   --> A              
     e( 11 - 11) =    -19.58995  eV     1   --> A              
     e( 12 - 12) =    -19.58645  eV     1   --> A              
     e( 13 - 13) =    -19.56976  eV     1   --> A              
     e( 14 - 14) =    -19.56820  eV     1   --> A              
     e( 15 - 15) =    -19.56385  eV     1   --> A              
     e( 16 - 16) =    -19.56042  eV     1   --> A              
     e( 17 - 17) =    -19.52187  eV     1   --> A              
     e( 18 - 18) =    -19.52102  eV     1   --> A              
     e( 19 - 19) =    -19.49737  eV     1   --> A              
     e( 20 - 20) =    -19.49722  eV     1   --> A              
     e( 21 - 21) =    -19.48208  eV     1   --> A              
     e( 22 - 22) =    -19.43253  eV     1   --> A              
     e( 23 - 23) =    -14.27809  eV     1   --> A              
     e( 24 - 24) =    -12.09714  eV     1   --> A              
     e( 25 - 25) =     -7.10568  eV     1   --> A              
     e( 26 - 26) =     -4.22432  eV     1   --> A              
     e( 27 - 27) =     -4.19873  eV     1   --> A              
     e( 28 - 28) =     -3.22998  eV     1   --> A              
     e( 29 - 29) =     -0.96363  eV     1   --> A              
     e( 30 - 30) =     -0.93722  eV     1   --> A              
     e( 31 - 31) =     -0.62887  eV     1   --> A              
     e( 32 - 32) =     -0.10252  eV     1   --> A              
     e( 33 - 33) =      0.20213  eV     1   --> A              
     e( 34 - 34) =      0.22364  eV     1   --> A              
     e( 35 - 35) =      2.78608  eV     1   --> A              
     e( 36 - 36) =      2.81267  eV     1   --> A              
     e( 37 - 37) =      3.10476  eV     1   --> A              
     e( 38 - 38) =      3.11421  eV     1   --> A              
     e( 39 - 39) =      3.37139  eV     1   --> A              
     e( 40 - 40) =      4.55787  eV     1   --> A              
     e( 41 - 41) =      5.04582  eV     1   --> A              
     e( 42 - 42) =      5.31437  eV     1   --> A              

 **************************************************************************

 **************************************************************************

                    xk=(   0.02076,  -0.00004,   0.00000  )

     Band symmetry, C_1 (1)     point group:

     e(  1 -  1) =    -67.97264  eV     1   --> A              
     e(  2 -  2) =    -67.85661  eV     1   --> A              
     e(  3 -  3) =    -34.83626  eV     1   --> A              
     e(  4 -  4) =    -34.31564  eV     1   --> A              
     e(  5 -  5) =    -34.29530  eV     1   --> A              
     e(  6 -  6) =    -34.29349  eV     1   --> A              
     e(  7 -  7) =    -34.03753  eV     1   --> A              
     e(  8 -  8) =    -34.03711  eV     1   --> A              
     e(  9 -  9) =    -19.61900  eV     1   --> A              
     e( 10 - 11) =    -19.59004  eV     2   -->   2 A              
     e( 12 - 12) =    -19.58641  eV     1   --> A              
     e( 13 - 13) =    -19.56982  eV     1   --> A              
     e( 14 - 14) =    -19.56823  eV     1   --> A              
     e( 15 - 15) =    -19.56398  eV     1   --> A              
     e( 16 - 16) =    -19.56035  eV     1   --> A              
     e( 17 - 17) =    -19.52192  eV     1   --> A              
     e( 18 - 18) =    -19.52104  eV     1   --> A              
     e( 19 - 19) =    -19.49738  eV     1   --> A              
     e( 20 - 20) =    -19.49718  eV     1   --> A              
     e( 21 - 21) =    -19.48196  eV     1   --> A              
     e( 22 - 22) =    -19.43265  eV     1   --> A              
     e( 23 - 23) =    -14.27130  eV     1   --> A              
     e( 24 - 24) =    -12.09437  eV     1   --> A              
     e( 25 - 25) =     -7.09547  eV     1   --> A              
     e( 26 - 26) =     -4.23205  eV     1   --> A              
     e( 27 - 27) =     -4.21347  eV     1   --> A              
     e( 28 - 28) =     -3.21338  eV     1   --> A              
     e( 29 - 29) =     -0.98109  eV     1   --> A              
     e( 30 - 30) =     -0.96261  eV     1   --> A              
     e( 31 - 31) =     -0.63351  eV     1   --> A              
     e( 32 - 32) =     -0.10063  eV     1   --> A              
     e( 33 - 33) =      0.20659  eV     1   --> A              
     e( 34 - 34) =      0.23182  eV     1   --> A              
     e( 35 - 35) =      2.79484  eV     1   --> A              
     e( 36 - 36) =      2.81186  eV     1   --> A              
     e( 37 - 37) =      3.06273  eV     1   --> A              
     e( 38 - 38) =      3.10534  eV     1   --> A              
     e( 39 - 39) =      3.43478  eV     1   --> A              
     e( 40 - 40) =      4.56938  eV     1   --> A              
     e( 41 - 41) =      5.05614  eV     1   --> A              
     e( 42 - 42) =      5.32266  eV     1   --> A              

 **************************************************************************

 **************************************************************************

                    xk=(   0.04153,  -0.00007,   0.00000  )

     Band symmetry, C_1 (1)     point group:

     e(  1 -  1) =    -67.97225  eV     1   --> A              
     e(  2 -  2) =    -67.85632  eV     1   --> A              
     e(  3 -  3) =    -34.83453  eV     1   --> A              
     e(  4 -  4) =    -34.32369  eV     1   --> A              
     e(  5 -  5) =    -34.29681  eV     1   --> A              
     e(  6 -  6) =    -34.29211  eV     1   --> A              
     e(  7 -  7) =    -34.04288  eV     1   --> A              
     e(  8 -  8) =    -34.03828  eV     1   --> A              
     e(  9 -  9) =    -19.61864  eV     1   --> A              
     e( 10 - 10) =    -19.59007  eV     1   --> A              
     e( 11 - 11) =    -19.58983  eV     1   --> A              
     e( 12 - 12) =    -19.58627  eV     1   --> A              
     e( 13 - 13) =    -19.56998  eV     1   --> A              
     e( 14 - 14) =    -19.56830  eV     1   --> A              
     e( 15 - 15) =    -19.56435  eV     1   --> A              
     e( 16 - 16) =    -19.56016  eV     1   --> A              
     e( 17 - 17) =    -19.52210  eV     1   --> A              
     e( 18 - 18) =    -19.52111  eV     1   --> A              
     e( 19 - 19) =    -19.49744  eV     1   --> A              
     e( 20 - 20) =    -19.49706  eV     1   --> A              
     e( 21 - 21) =    -19.48161  eV     1   --> A              
     e( 22 - 22) =    -19.43300  eV     1   --> A              
     e( 23 - 23) =    -14.25101  eV     1   --> A              
     e( 24 - 24) =    -12.08611  eV     1   --> A              
     e( 25 - 25) =     -7.06495  eV     1   --> A              
     e( 26 - 26) =     -4.29841  eV     1   --> A              
     e( 27 - 27) =     -4.20820  eV     1   --> A              
     e( 28 - 28) =     -3.17056  eV     1   --> A              
     e( 29 - 29) =     -1.07996  eV     1   --> A              
     e( 30 - 30) =     -0.98554  eV     1   --> A              
     e( 31 - 31) =     -0.64499  eV     1   --> A              
     e( 32 - 32) =     -0.09830  eV     1   --> A              
     e( 33 - 33) =      0.21162  eV     1   --> A              
     e( 34 - 34) =      0.26165  eV     1   --> A              
     e( 35 - 35) =      2.79595  eV     1   --> A              
     e( 36 - 36) =      2.83063  eV     1   --> A              
     e( 37 - 37) =      2.96751  eV     1   --> A              
     e( 38 - 38) =      3.10894  eV     1   --> A              
     e( 39 - 39) =      3.56910  eV     1   --> A              
     e( 40 - 40) =      4.60333  eV     1   --> A              
     e( 41 - 41) =      5.08646  eV     1   --> A              
     e( 42 - 42) =      5.34742  eV     1   --> A              

 **************************************************************************

 **************************************************************************

                    xk=(   0.06229,  -0.00011,   0.00000  )

     Band symmetry, C_1 (1)     point group:

     e(  1 -  1) =    -67.97162  eV     1   --> A              
     e(  2 -  2) =    -67.85583  eV     1   --> A              
     e(  3 -  3) =    -34.83169  eV     1   --> A              
     e(  4 -  4) =    -34.33554  eV     1   --> A              
     e(  5 -  5) =    -34.29962  eV     1   --> A              
     e(  6 -  6) =    -34.29096  eV     1   --> A              
     e(  7 -  7) =    -34.05164  eV     1   --> A              
     e(  8 -  8) =    -34.04023  eV     1   --> A              
     e(  9 -  9) =    -19.61804  eV     1   --> A              
     e( 10 - 10) =    -19.59021  eV     1   --> A              
     e( 11 - 11) =    -19.58949  eV     1   --> A              
     e( 12 - 12) =    -19.58603  eV     1   --> A              
     e( 13 - 13) =    -19.57027  eV     1   --> A              
     e( 14 - 14) =    -19.56840  eV     1   --> A              
     e( 15 - 15) =    -19.56495  eV     1   --> A              
     e( 16 - 16) =    -19.55984  eV     1   --> A              
     e( 17 - 17) =    -19.52240  eV     1   --> A              
     e( 18 - 18) =    -19.52121  eV     1   --> A              
     e( 19 - 19) =    -19.49754  eV     1   --> A              
     e( 20 - 20) =    -19.49685  eV     1   --> A              
     e( 21 - 21) =    -19.48103  eV     1   --> A              
     e( 22 - 22) =    -19.43357  eV     1   --> A              
     e( 23 - 23) =    -14.21745  eV     1   --> A              
     e( 24 - 24) =    -12.07256  eV     1   --> A              
     e( 25 - 25) =     -7.01447  eV     1   --> A              
     e( 26 - 26) =     -4.39914  eV     1   --> A              
     e( 27 - 27) =     -4.19391  eV     1   --> A              
     e( 28 - 28) =     -3.11673  eV     1   --> A              
     e( 29 - 29) =     -1.22603  eV     1   --> A              
     e( 30 - 30) =     -1.02839  eV     1   --> A              
     e( 31 - 31) =     -0.65410  eV     1   --> A              
     e( 32 - 32) =     -0.09929  eV     1   --> A              
     e( 33 - 33) =      0.20092  eV     1   --> A              
     e( 34 - 34) =      0.32002  eV     1   --> A              
     e( 35 - 35) =      2.78631  eV     1   --> A              
     e( 36 - 36) =      2.83783  eV     1   --> A              
     e( 37 - 37) =      2.89462  eV     1   --> A              
     e( 38 - 38) =      3.12390  eV     1   --> A              
     e( 39 - 39) =      3.73711  eV     1   --> A              
     e( 40 - 40) =      4.65838  eV     1   --> A              
     e( 41 - 41) =      5.13517  eV     1   --> A              
     e( 42 - 42) =      5.38829  eV     1   --> A              

 **************************************************************************

 **************************************************************************

                    xk=(   0.08305,  -0.00014,   0.00000  )

     Band symmetry, C_1 (1)     point group:

     e(  1 -  1) =    -67.97075  eV     1   --> A              
     e(  2 -  2) =    -67.85517  eV     1   --> A              
     e(  3 -  3) =    -34.82780  eV     1   --> A              
     e(  4 -  4) =    -34.35069  eV     1   --> A              
     e(  5 -  5) =    -34.30372  eV     1   --> A              
     e(  6 -  6) =    -34.29036  eV     1   --> A              
     e(  7 -  7) =    -34.06356  eV     1   --> A              
     e(  8 -  8) =    -34.04299  eV     1   --> A              
     e(  9 -  9) =    -19.61721  eV     1   --> A              
     e( 10 - 10) =    -19.59040  eV     1   --> A              
     e( 11 - 11) =    -19.58904  eV     1   --> A              
     e( 12 - 12) =    -19.58566  eV     1   --> A              
     e( 13 - 13) =    -19.57068  eV     1   --> A              
     e( 14 - 14) =    -19.56853  eV     1   --> A              
     e( 15 - 15) =    -19.56575  eV     1   --> A              
     e( 16 - 16) =    -19.55942  eV     1   --> A              
     e( 17 - 17) =    -19.52284  eV     1   --> A              
     e( 18 - 18) =    -19.52133  eV     1   --> A              
     e( 19 - 19) =    -19.49767  eV     1   --> A              
     e( 20 - 20) =    -19.49656  eV     1   --> A              
     e( 21 - 21) =    -19.48024  eV     1   --> A              
     e( 22 - 22) =    -19.43435  eV     1   --> A              
     e( 23 - 23) =    -14.17101  eV     1   --> A              
     e( 24 - 24) =    -12.05401  eV     1   --> A              
     e( 25 - 25) =     -6.94464  eV     1   --> A              
     e( 26 - 26) =     -4.51776  eV     1   --> A              
     e( 27 - 27) =     -4.17515  eV     1   --> A              
     e( 28 - 28) =     -3.06720  eV     1   --> A              
     e( 29 - 29) =     -1.39872  eV     1   --> A              
     e( 30 - 30) =     -1.09734  eV     1   --> A              
     e( 31 - 31) =     -0.65287  eV     1   --> A              
     e( 32 - 32) =     -0.10256  eV     1   --> A              
     e( 33 - 33) =      0.16768  eV     1   --> A              
     e( 34 - 34) =      0.40248  eV     1   --> A              
     e( 35 - 35) =      2.75371  eV     1   --> A              
     e( 36 - 36) =      2.77860  eV     1   --> A              
     e( 37 - 37) =      2.91181  eV     1   --> A              
     e( 38 - 38) =      3.16123  eV     1   --> A              
     e( 39 - 39) =      3.92961  eV     1   --> A              
     e( 40 - 40) =      4.73344  eV     1   --> A              
     e( 41 - 41) =      5.20035  eV     1   --> A              
     e( 42 - 42) =      5.44492  eV     1   --> A              

 **************************************************************************

 **************************************************************************

                    xk=(   0.10381,  -0.00018,   0.00000  )

     Band symmetry, C_1 (1)     point group:

     e(  1 -  1) =    -67.96965  eV     1   --> A              
     e(  2 -  2) =    -67.85433  eV     1   --> A              
     e(  3 -  3) =    -34.82292  eV     1   --> A              
     e(  4 -  4) =    -34.36887  eV     1   --> A              
     e(  5 -  5) =    -34.30916  eV     1   --> A              
     e(  6 -  6) =    -34.29030  eV     1   --> A              
     e(  7 -  7) =    -34.07828  eV     1   --> A              
     e(  8 -  8) =    -34.04659  eV     1   --> A              
     e(  9 -  9) =    -19.61616  eV     1   --> A              
     e( 10 - 10) =    -19.59064  eV     1   --> A              
     e( 11 - 11) =    -19.58854  eV     1   --> A              
     e( 12 - 12) =    -19.58516  eV     1   --> A              
     e( 13 - 13) =    -19.57122  eV     1   --> A              
     e( 14 - 14) =    -19.56870  eV     1   --> A              
     e( 15 - 15) =    -19.56672  eV     1   --> A              
     e( 16 - 16) =    -19.55889  eV     1   --> A              
     e( 17 - 17) =    -19.52340  eV     1   --> A              
     e( 18 - 18) =    -19.52148  eV     1   --> A              
     e( 19 - 19) =    -19.49783  eV     1   --> A              
     e( 20 - 20) =    -19.49619  eV     1   --> A              
     e( 21 - 21) =    -19.47925  eV     1   --> A              
     e( 22 - 22) =    -19.43534  eV     1   --> A              
     e( 23 - 23) =    -14.11222  eV     1   --> A              
     e( 24 - 24) =    -12.03085  eV     1   --> A              
     e( 25 - 25) =     -6.85628  eV     1   --> A              
     e( 26 - 26) =     -4.64453  eV     1   --> A              
     e( 27 - 27) =     -4.15397  eV     1   --> A              
     e( 28 - 28) =     -3.03470  eV     1   --> A              
     e( 29 - 29) =     -1.58386  eV     1   --> A              
     e( 30 - 30) =     -1.18526  eV     1   --> A              
     e( 31 - 31) =     -0.64425  eV     1   --> A              
     e( 32 - 32) =     -0.10600  eV     1   --> A              
     e( 33 - 33) =      0.11220  eV     1   --> A              
     e( 34 - 34) =      0.50393  eV     1   --> A              
     e( 35 - 35) =      2.66806  eV     1   --> A              
     e( 36 - 36) =      2.76945  eV     1   --> A              
     e( 37 - 37) =      2.93792  eV     1   --> A              
     e( 38 - 38) =      3.22286  eV     1   --> A              
     e( 39 - 39) =      4.13905  eV     1   --> A              
     e( 40 - 40) =      4.82853  eV     1   --> A              
     e( 41 - 41) =      5.28039  eV     1   --> A              
     e( 42 - 42) =      5.51709  eV     1   --> A              

 **************************************************************************

 **************************************************************************

                    xk=(   0.12458,  -0.00022,   0.00000  )

     Band symmetry, C_1 (1)     point group:

     e(  1 -  1) =    -67.96833  eV     1   --> A              
     e(  2 -  2) =    -67.85332  eV     1   --> A              
     e(  3 -  3) =    -34.81718  eV     1   --> A              
     e(  4 -  4) =    -34.38974  eV     1   --> A              
     e(  5 -  5) =    -34.31603  eV     1   --> A              
     e(  6 -  6) =    -34.29074  eV     1   --> A              
     e(  7 -  7) =    -34.09537  eV     1   --> A              
     e(  8 -  8) =    -34.05104  eV     1   --> A              
     e(  9 -  9) =    -19.61491  eV     1   --> A              
     e( 10 - 10) =    -19.59091  eV     1   --> A              
     e( 11 - 11) =    -19.58800  eV     1   --> A              
     e( 12 - 12) =    -19.58449  eV     1   --> A              
     e( 13 - 13) =    -19.57192  eV     1   --> A              
     e( 14 - 14) =    -19.56895  eV     1   --> A              
     e( 15 - 15) =    -19.56777  eV     1   --> A              
     e( 16 - 16) =    -19.55829  eV     1   --> A              
     e( 17 - 17) =    -19.52407  eV     1   --> A              
     e( 18 - 18) =    -19.52165  eV     1   --> A              
     e( 19 - 19) =    -19.49800  eV     1   --> A              
     e( 20 - 20) =    -19.49575  eV     1   --> A              
     e( 21 - 21) =    -19.47807  eV     1   --> A              
     e( 22 - 22) =    -19.43651  eV     1   --> A              
     e( 23 - 23) =    -14.04174  eV     1   --> A              
     e( 24 - 24) =    -12.00355  eV     1   --> A              
     e( 25 - 25) =     -6.75047  eV     1   --> A              
     e( 26 - 26) =     -4.77286  eV     1   --> A              
     e( 27 - 27) =     -4.13287  eV     1   --> A              
     e( 28 - 28) =     -3.02971  eV     1   --> A              
     e( 29 - 29) =     -1.77000  eV     1   --> A              
     e( 30 - 30) =     -1.27988  eV     1   --> A              
     e( 31 - 31) =     -0.63804  eV     1   --> A              
     e( 32 - 32) =     -0.11801  eV     1   --> A              
     e( 33 - 33) =      0.05056  eV     1   --> A              
     e( 34 - 34) =      0.62152  eV     1   --> A              
     e( 35 - 35) =      2.59099  eV     1   --> A              
     e( 36 - 36) =      2.76004  eV     1   --> A              
     e( 37 - 37) =      2.97664  eV     1   --> A              
     e( 38 - 38) =      3.29911  eV     1   --> A              
     e( 39 - 39) =      4.35522  eV     1   --> A              
     e( 40 - 40) =      4.94501  eV     1   --> A              
     e( 41 - 41) =      5.37430  eV     1   --> A              
     e( 42 - 42) =      5.60483  eV     1   --> A              

 **************************************************************************

 **************************************************************************

                    xk=(   0.14534,  -0.00025,   0.00000  )

     Band symmetry, C_1 (1)     point group:

     e(  1 -  1) =    -67.96683  eV     1   --> A              
     e(  2 -  2) =    -67.85217  eV     1   --> A              
     e(  3 -  3) =    -34.81069  eV     1   --> A              
     e(  4 -  4) =    -34.41291  eV     1   --> A              
     e(  5 -  5) =    -34.32439  eV     1   --> A              
     e(  6 -  6) =    -34.29169  eV     1   --> A              
     e(  7 -  7) =    -34.11431  eV     1   --> A              
     e(  8 -  8) =    -34.05635  eV     1   --> A              
     e(  9 -  9) =    -19.61348  eV     1   --> A              
     e( 10 - 10) =    -19.59121  eV     1   --> A              
     e( 11 - 11) =    -19.58746  eV     1   --> A              
     e( 12 - 12) =    -19.58365  eV     1   --> A              
     e( 13 - 13) =    -19.57280  eV     1   --> A              
     e( 14 - 14) =    -19.56949  eV     1   --> A              
     e( 15 - 15) =    -19.56859  eV     1   --> A              
     e( 16 - 16) =    -19.55761  eV     1   --> A              
     e( 17 - 17) =    -19.52483  eV     1   --> A              
     e( 18 - 18) =    -19.52185  eV     1   --> A              
     e( 19 - 19) =    -19.49818  eV     1   --> A              
     e( 20 - 20) =    -19.49525  eV     1   --> A              
     e( 21 - 21) =    -19.47672  eV     1   --> A              
     e( 22 - 22) =    -19.43784  eV     1   --> A              
     e( 23 - 23) =    -13.96039  eV     1   --> A              
     e( 24 - 24) =    -11.97260  eV     1   --> A              
     e( 25 - 25) =     -6.62852  eV     1   --> A              
     e( 26 - 26) =     -4.89825  eV     1   --> A              
     e( 27 - 27) =     -4.11507  eV     1   --> A              
     e( 28 - 28) =     -3.06022  eV     1   --> A              
     e( 29 - 29) =     -1.94786  eV     1   --> A              
     e( 30 - 30) =     -1.37018  eV     1   --> A              
     e( 31 - 31) =     -0.64319  eV     1   --> A              
     e( 32 - 32) =     -0.17846  eV     1   --> A              
     e( 33 - 33) =      0.03277  eV     1   --> A              
     e( 34 - 34) =      0.75375  eV     1   --> A              
     e( 35 - 35) =      2.52007  eV     1   --> A              
     e( 36 - 36) =      2.75470  eV     1   --> A              
     e( 37 - 37) =      3.03917  eV     1   --> A              
     e( 38 - 38) =      3.37980  eV     1   --> A              
     e( 39 - 39) =      4.56623  eV     1   --> A              
     e( 40 - 40) =      5.08467  eV     1   --> A              
     e( 41 - 41) =      5.48162  eV     1   --> A              
     e( 42 - 42) =      5.70835  eV     1   --> A              

 **************************************************************************

 **************************************************************************

                    xk=(   0.16610,  -0.00029,   0.00000  )

     Band symmetry, C_1 (1)     point group:

     e(  1 -  1) =    -67.96515  eV     1   --> A              
     e(  2 -  2) =    -67.85089  eV     1   --> A              
     e(  3 -  3) =    -34.80364  eV     1   --> A              
     e(  4 -  4) =    -34.43790  eV     1   --> A              
     e(  5 -  5) =    -34.33433  eV     1   --> A              
     e(  6 -  6) =    -34.29319  eV     1   --> A              
     e(  7 -  7) =    -34.13450  eV     1   --> A              
     e(  8 -  8) =    -34.06252  eV     1   --> A              
     e(  9 -  9) =    -19.61188  eV     1   --> A              
     e( 10 - 10) =    -19.59153  eV     1   --> A              
     e( 11 - 11) =    -19.58694  eV     1   --> A              
     e( 12 - 12) =    -19.58265  eV     1   --> A              
     e( 13 - 13) =    -19.57390  eV     1   --> A              
     e( 14 - 14) =    -19.57047  eV     1   --> A              
     e( 15 - 15) =    -19.56898  eV     1   --> A              
     e( 16 - 16) =    -19.55688  eV     1   --> A              
     e( 17 - 17) =    -19.52568  eV     1   --> A              
     e( 18 - 18) =    -19.52208  eV     1   --> A              
     e( 19 - 19) =    -19.49836  eV     1   --> A              
     e( 20 - 20) =    -19.49469  eV     1   --> A              
     e( 21 - 21) =    -19.47522  eV     1   --> A              
     e( 22 - 22) =    -19.43931  eV     1   --> A              
     e( 23 - 23) =    -13.86911  eV     1   --> A              
     e( 24 - 24) =    -11.93852  eV     1   --> A              
     e( 25 - 25) =     -6.49200  eV     1   --> A              
     e( 26 - 26) =     -5.01757  eV     1   --> A              
     e( 27 - 27) =     -4.10446  eV     1   --> A              
     e( 28 - 28) =     -3.12997  eV     1   --> A              
     e( 29 - 29) =     -2.11099  eV     1   --> A              
     e( 30 - 30) =     -1.44908  eV     1   --> A              
     e( 31 - 31) =     -0.66270  eV     1   --> A              
     e( 32 - 32) =     -0.29368  eV     1   --> A              
     e( 33 - 33) =      0.07389  eV     1   --> A              
     e( 34 - 34) =      0.89931  eV     1   --> A              
     e( 35 - 35) =      2.44959  eV     1   --> A              
     e( 36 - 36) =      2.76442  eV     1   --> A              
     e( 37 - 37) =      3.12709  eV     1   --> A              
     e( 38 - 38) =      3.45871  eV     1   --> A              
     e( 39 - 39) =      4.76251  eV     1   --> A              
     e( 40 - 40) =      5.24647  eV     1   --> A              
     e( 41 - 41) =      5.60219  eV     1   --> A              
     e( 42 - 42) =      5.82759  eV     1   --> A              

 **************************************************************************

 **************************************************************************

                    xk=(   0.18686,  -0.00033,   0.00000  )

     Band symmetry, C_1 (1)     point group:

     e(  1 -  1) =    -67.96332  eV     1   --> A              
     e(  2 -  2) =    -67.84950  eV     1   --> A              
     e(  3 -  3) =    -34.79625  eV     1   --> A              
     e(  4 -  4) =    -34.46414  eV     1   --> A              
     e(  5 -  5) =    -34.34592  eV     1   --> A              
     e(  6 -  6) =    -34.29533  eV     1   --> A              
     e(  7 -  7) =    -34.15529  eV     1   --> A              
     e(  8 -  8) =    -34.06955  eV     1   --> A              
     e(  9 -  9) =    -19.61013  eV     1   --> A              
     e( 10 - 10) =    -19.59184  eV     1   --> A              
     e( 11 - 11) =    -19.58643  eV     1   --> A              
     e( 12 - 12) =    -19.58151  eV     1   --> A              
     e( 13 - 13) =    -19.57525  eV     1   --> A              
     e( 14 - 14) =    -19.57149  eV     1   --> A              
     e( 15 - 15) =    -19.56924  eV     1   --> A              
     e( 16 - 16) =    -19.55611  eV     1   --> A              
     e( 17 - 17) =    -19.52659  eV     1   --> A              
     e( 18 - 18) =    -19.52235  eV     1   --> A              
     e( 19 - 19) =    -19.49854  eV     1   --> A              
     e( 20 - 20) =    -19.49409  eV     1   --> A              
     e( 21 - 21) =    -19.47360  eV     1   --> A              
     e( 22 - 22) =    -19.44091  eV     1   --> A              
     e( 23 - 23) =    -13.76897  eV     1   --> A              
     e( 24 - 24) =    -11.90177  eV     1   --> A              
     e( 25 - 25) =     -6.34276  eV     1   --> A              
     e( 26 - 26) =     -5.12865  eV     1   --> A              
     e( 27 - 27) =     -4.10550  eV     1   --> A              
     e( 28 - 28) =     -3.23611  eV     1   --> A              
     e( 29 - 29) =     -2.25692  eV     1   --> A              
     e( 30 - 30) =     -1.51479  eV     1   --> A              
     e( 31 - 31) =     -0.69311  eV     1   --> A              
     e( 32 - 32) =     -0.43117  eV     1   --> A              
     e( 33 - 33) =      0.14715  eV     1   --> A              
     e( 34 - 34) =      1.05624  eV     1   --> A              
     e( 35 - 35) =      2.37683  eV     1   --> A              
     e( 36 - 36) =      2.79823  eV     1   --> A              
     e( 37 - 37) =      3.23594  eV     1   --> A              
     e( 38 - 38) =      3.53373  eV     1   --> A              
     e( 39 - 39) =      4.94140  eV     1   --> A              
     e( 40 - 40) =      5.42307  eV     1   --> A              
     e( 41 - 41) =      5.73593  eV     1   --> A              
     e( 42 - 42) =      5.96128  eV     1   --> A              

 **************************************************************************

 **************************************************************************

                    xk=(   0.20763,  -0.00036,   0.00000  )

     Band symmetry, C_1 (1)     point group:

     e(  1 -  1) =    -67.96136  eV     1   --> A              
     e(  2 -  2) =    -67.84802  eV     1   --> A              
     e(  3 -  3) =    -34.78877  eV     1   --> A              
     e(  4 -  4) =    -34.49101  eV     1   --> A              
     e(  5 -  5) =    -34.35920  eV     1   --> A              
     e(  6 -  6) =    -34.29823  eV     1   --> A              
     e(  7 -  7) =    -34.17599  eV     1   --> A              
     e(  8 -  8) =    -34.07741  eV     1   --> A              
     e(  9 -  9) =    -19.60827  eV     1   --> A              
     e( 10 - 10) =    -19.59215  eV     1   --> A              
     e( 11 - 11) =    -19.58593  eV     1   --> A              
     e( 12 - 12) =    -19.58032  eV     1   --> A              
     e( 13 - 13) =    -19.57678  eV     1   --> A              
     e( 14 - 14) =    -19.57244  eV     1   --> A              
     e( 15 - 15) =    -19.56949  eV     1   --> A              
     e( 16 - 16) =    -19.55530  eV     1   --> A              
     e( 17 - 17) =    -19.52755  eV     1   --> A              
     e( 18 - 18) =    -19.52265  eV     1   --> A              
     e( 19 - 19) =    -19.49870  eV     1   --> A              
     e( 20 - 20) =    -19.49346  eV     1   --> A              
     e( 21 - 21) =    -19.47187  eV     1   --> A              
     e( 22 - 22) =    -19.44260  eV     1   --> A              
     e( 23 - 23) =    -13.66116  eV     1   --> A              
     e( 24 - 24) =    -11.86277  eV     1   --> A              
     e( 25 - 25) =     -6.18300  eV     1   --> A              
     e( 26 - 26) =     -5.23003  eV     1   --> A              
     e( 27 - 27) =     -4.12280  eV     1   --> A              
     e( 28 - 28) =     -3.36933  eV     1   --> A              
     e( 29 - 29) =     -2.38685  eV     1   --> A              
     e( 30 - 30) =     -1.57117  eV     1   --> A              
     e( 31 - 31) =     -0.72736  eV     1   --> A              
     e( 32 - 32) =     -0.57246  eV     1   --> A              
     e( 33 - 33) =      0.23866  eV     1   --> A              
     e( 34 - 34) =      1.22064  eV     1   --> A              
     e( 35 - 35) =      2.30527  eV     1   --> A              
     e( 36 - 36) =      2.85953  eV     1   --> A              
     e( 37 - 37) =      3.35602  eV     1   --> A              
     e( 38 - 38) =      3.60858  eV     1   --> A              
     e( 39 - 39) =      5.10654  eV     1   --> A              
     e( 40 - 40) =      5.60307  eV     1   --> A              
     e( 41 - 41) =      5.88255  eV     1   --> A              
     e( 42 - 42) =      6.10542  eV     1   --> A              

 **************************************************************************

 **************************************************************************

                    xk=(   0.22839,  -0.00040,   0.00000  )

     Band symmetry, C_1 (1)     point group:

     e(  1 -  1) =    -67.95931  eV     1   --> A              
     e(  2 -  2) =    -67.84646  eV     1   --> A              
     e(  3 -  3) =    -34.78157  eV     1   --> A              
     e(  4 -  4) =    -34.51778  eV     1   --> A              
     e(  5 -  5) =    -34.37419  eV     1   --> A              
     e(  6 -  6) =    -34.30205  eV     1   --> A              
     e(  7 -  7) =    -34.19592  eV     1   --> A              
     e(  8 -  8) =    -34.08605  eV     1   --> A              
     e(  9 -  9) =    -19.60632  eV     1   --> A              
     e( 10 - 10) =    -19.59244  eV     1   --> A              
     e( 11 - 11) =    -19.58545  eV     1   --> A              
     e( 12 - 12) =    -19.57944  eV     1   --> A              
     e( 13 - 13) =    -19.57808  eV     1   --> A              
     e( 14 - 14) =    -19.57331  eV     1   --> A              
     e( 15 - 15) =    -19.56974  eV     1   --> A              
     e( 16 - 16) =    -19.55447  eV     1   --> A              
     e( 17 - 17) =    -19.52853  eV     1   --> A              
     e( 18 - 18) =    -19.52299  eV     1   --> A              
     e( 19 - 19) =    -19.49885  eV     1   --> A              
     e( 20 - 20) =    -19.49281  eV     1   --> A              
     e( 21 - 21) =    -19.47006  eV     1   --> A              
     e( 22 - 22) =    -19.44437  eV     1   --> A              
     e( 23 - 23) =    -13.54702  eV     1   --> A              
     e( 24 - 24) =    -11.82182  eV     1   --> A              
     e( 25 - 25) =     -6.01547  eV     1   --> A              
     e( 26 - 26) =     -5.32071  eV     1   --> A              
     e( 27 - 27) =     -4.16047  eV     1   --> A              
     e( 28 - 28) =     -3.51695  eV     1   --> A              
     e( 29 - 29) =     -2.50387  eV     1   --> A              
     e( 30 - 30) =     -1.62645  eV     1   --> A              
     e( 31 - 31) =     -0.76164  eV     1   --> A              
     e( 32 - 32) =     -0.70103  eV     1   --> A              
     e( 33 - 33) =      0.34084  eV     1   --> A              
     e( 34 - 34) =      1.38453  eV     1   --> A              
     e( 35 - 35) =      2.24515  eV     1   --> A              
     e( 36 - 36) =      2.94788  eV     1   --> A              
     e( 37 - 37) =      3.46717  eV     1   --> A              
     e( 38 - 38) =      3.69882  eV     1   --> A              
     e( 39 - 39) =      5.26218  eV     1   --> A              
     e( 40 - 40) =      5.77718  eV     1   --> A              
     e( 41 - 41) =      6.04106  eV     1   --> A              
     e( 42 - 42) =      6.25282  eV     1   --> A              

 **************************************************************************

 **************************************************************************

                    xk=(   0.24915,  -0.00043,   0.00000  )

     Band symmetry, C_1 (1)     point group:

     e(  1 -  1) =    -67.95719  eV     1   --> A              
     e(  2 -  2) =    -67.84486  eV     1   --> A              
     e(  3 -  3) =    -34.77510  eV     1   --> A              
     e(  4 -  4) =    -34.54364  eV     1   --> A              
     e(  5 -  5) =    -34.39080  eV     1   --> A              
     e(  6 -  6) =    -34.30694  eV     1   --> A              
     e(  7 -  7) =    -34.21451  eV     1   --> A              
     e(  8 -  8) =    -34.09544  eV     1   --> A              
     e(  9 -  9) =    -19.60431  eV     1   --> A              
     e( 10 - 10) =    -19.59270  eV     1   --> A              
     e( 11 - 11) =    -19.58499  eV     1   --> A              
     e( 12 - 12) =    -19.58066  eV     1   --> A              
     e( 13 - 13) =    -19.57735  eV     1   --> A              
     e( 14 - 14) =    -19.57411  eV     1   --> A              
     e( 15 - 15) =    -19.56999  eV     1   --> A              
     e( 16 - 16) =    -19.55363  eV     1   --> A              
     e( 17 - 17) =    -19.52953  eV     1   --> A              
     e( 18 - 18) =    -19.52337  eV     1   --> A              
     e( 19 - 19) =    -19.49897  eV     1   --> A              
     e( 20 - 20) =    -19.49216  eV     1   --> A              
     e( 21 - 21) =    -19.46819  eV     1   --> A              
     e( 22 - 22) =    -19.44618  eV     1   --> A              
     e( 23 - 23) =    -13.42799  eV     1   --> A              
     e( 24 - 24) =    -11.77910  eV     1   --> A              
     e( 25 - 25) =     -5.84433  eV     1   --> A              
     e( 26 - 26) =     -5.39935  eV     1   --> A              
     e( 27 - 27) =     -4.22106  eV     1   --> A              
     e( 28 - 28) =     -3.66658  eV     1   --> A              
     e( 29 - 29) =     -2.61142  eV     1   --> A              
     e( 30 - 30) =     -1.69034  eV     1   --> A              
     e( 31 - 31) =     -0.84004  eV     1   --> A              
     e( 32 - 32) =     -0.75577  eV     1   --> A              
     e( 33 - 33) =      0.44834  eV     1   --> A              
     e( 34 - 34) =      1.53160  eV     1   --> A              
     e( 35 - 35) =      2.21583  eV     1   --> A              
     e( 36 - 36) =      3.06118  eV     1   --> A              
     e( 37 - 37) =      3.54354  eV     1   --> A              
     e( 38 - 38) =      3.82740  eV     1   --> A              
     e( 39 - 39) =      5.40918  eV     1   --> A              
     e( 40 - 40) =      5.94032  eV     1   --> A              
     e( 41 - 41) =      6.20850  eV     1   --> A              
     e( 42 - 42) =      6.39601  eV     1   --> A              

 **************************************************************************

 **************************************************************************

                    xk=(   0.26991,  -0.00047,   0.00000  )

     Band symmetry, C_1 (1)     point group:

     e(  1 -  1) =    -67.95503  eV     1   --> A              
     e(  2 -  2) =    -67.84322  eV     1   --> A              
     e(  3 -  3) =    -34.76993  eV     1   --> A              
     e(  4 -  4) =    -34.56766  eV     1   --> A              
     e(  5 -  5) =    -34.40880  eV     1   --> A              
     e(  6 -  6) =    -34.31304  eV     1   --> A              
     e(  7 -  7) =    -34.23132  eV     1   --> A              
     e(  8 -  8) =    -34.10550  eV     1   --> A              
     e(  9 -  9) =    -19.60227  eV     1   --> A              
     e( 10 - 10) =    -19.59290  eV     1   --> A              
     e( 11 - 11) =    -19.58463  eV     1   --> A              
     e( 12 - 12) =    -19.58240  eV     1   --> A              
     e( 13 - 13) =    -19.57609  eV     1   --> A              
     e( 14 - 14) =    -19.57483  eV     1   --> A              
     e( 15 - 15) =    -19.57024  eV     1   --> A              
     e( 16 - 16) =    -19.55279  eV     1   --> A              
     e( 17 - 17) =    -19.53052  eV     1   --> A              
     e( 18 - 18) =    -19.52378  eV     1   --> A              
     e( 19 - 19) =    -19.49906  eV     1   --> A              
     e( 20 - 20) =    -19.49151  eV     1   --> A              
     e( 21 - 21) =    -19.46628  eV     1   --> A              
     e( 22 - 22) =    -19.44802  eV     1   --> A              
     e( 23 - 23) =    -13.30566  eV     1   --> A              
     e( 24 - 24) =    -11.73463  eV     1   --> A              
     e( 25 - 25) =     -5.68090  eV     1   --> A              
     e( 26 - 26) =     -5.45875  eV     1   --> A              
     e( 27 - 27) =     -4.30390  eV     1   --> A              
     e( 28 - 28) =     -3.80844  eV     1   --> A              
     e( 29 - 29) =     -2.71283  eV     1   --> A              
     e( 30 - 30) =     -1.77008  eV     1   --> A              
     e( 31 - 31) =     -0.93548  eV     1   --> A              
     e( 32 - 32) =     -0.75249  eV     1   --> A              
     e( 33 - 33) =      0.55687  eV     1   --> A              
     e( 34 - 34) =      1.63587  eV     1   --> A              
     e( 35 - 35) =      2.24599  eV     1   --> A              
     e( 36 - 36) =      3.19668  eV     1   --> A              
     e( 37 - 37) =      3.58471  eV     1   --> A              
     e( 38 - 38) =      3.99362  eV     1   --> A              
     e( 39 - 39) =      5.54328  eV     1   --> A              
     e( 40 - 40) =      6.08977  eV     1   --> A              
     e( 41 - 41) =      6.37517  eV     1   --> A              
     e( 42 - 42) =      6.53628  eV     1   --> A              

 **************************************************************************

 **************************************************************************

                    xk=(   0.29068,  -0.00051,   0.00000  )

     Band symmetry, C_1 (1)     point group:

     e(  1 -  1) =    -67.95286  eV     1   --> A              
     e(  2 -  2) =    -67.84158  eV     1   --> A              
     e(  3 -  3) =    -34.76679  eV     1   --> A              
     e(  4 -  4) =    -34.58882  eV     1   --> A              
     e(  5 -  5) =    -34.42788  eV     1   --> A              
     e(  6 -  6) =    -34.32037  eV     1   --> A              
     e(  7 -  7) =    -34.24615  eV     1   --> A              
     e(  8 -  8) =    -34.11615  eV     1   --> A              
     e(  9 -  9) =    -19.60025  eV     1   --> A              
     e( 10 - 10) =    -19.59304  eV     1   --> A              
     e( 11 - 11) =    -19.58500  eV     1   --> A              
     e( 12 - 12) =    -19.58348  eV     1   --> A              
     e( 13 - 13) =    -19.57567  eV     1   --> A              
     e( 14 - 14) =    -19.57467  eV     1   --> A              
     e( 15 - 15) =    -19.57048  eV     1   --> A              
     e( 16 - 16) =    -19.55196  eV     1   --> A              
     e( 17 - 17) =    -19.53149  eV     1   --> A              
     e( 18 - 18) =    -19.52424  eV     1   --> A              
     e( 19 - 19) =    -19.49912  eV     1   --> A              
     e( 20 - 20) =    -19.49089  eV     1   --> A              
     e( 21 - 21) =    -19.46437  eV     1   --> A              
     e( 22 - 22) =    -19.44986  eV     1   --> A              
     e( 23 - 23) =    -13.18173  eV     1   --> A              
     e( 24 - 24) =    -11.68833  eV     1   --> A              
     e( 25 - 25) =     -5.59804  eV     1   --> A              
     e( 26 - 26) =     -5.43188  eV     1   --> A              
     e( 27 - 27) =     -4.40323  eV     1   --> A              
     e( 28 - 28) =     -3.93693  eV     1   --> A              
     e( 29 - 29) =     -2.81108  eV     1   --> A              
     e( 30 - 30) =     -1.86751  eV     1   --> A              
     e( 31 - 31) =     -1.01093  eV     1   --> A              
     e( 32 - 32) =     -0.72522  eV     1   --> A              
     e( 33 - 33) =      0.66281  eV     1   --> A              
     e( 34 - 34) =      1.68533  eV     1   --> A              
     e( 35 - 35) =      2.34934  eV     1   --> A              
     e( 36 - 36) =      3.35104  eV     1   --> A              
     e( 37 - 37) =      3.60641  eV     1   --> A              
     e( 38 - 38) =      4.18273  eV     1   --> A              
     e( 39 - 39) =      5.65450  eV     1   --> A              
     e( 40 - 40) =      6.22553  eV     1   --> A              
     e( 41 - 41) =      6.51586  eV     1   --> A              
     e( 42 - 42) =      6.69591  eV     1   --> A              

 **************************************************************************

 **************************************************************************

                    xk=(   0.31144,  -0.00054,   0.00000  )

     Band symmetry, C_1 (1)     point group:

     e(  1 -  1) =    -67.95070  eV     1   --> A              
     e(  2 -  2) =    -67.83995  eV     1   --> A              
     e(  3 -  3) =    -34.76638  eV     1   --> A              
     e(  4 -  4) =    -34.60608  eV     1   --> A              
     e(  5 -  5) =    -34.44762  eV     1   --> A              
     e(  6 -  6) =    -34.32876  eV     1   --> A              
     e(  7 -  7) =    -34.25912  eV     1   --> A              
     e(  8 -  8) =    -34.12730  eV     1   --> A              
     e(  9 -  9) =    -19.59828  eV     1   --> A              
     e( 10 - 10) =    -19.59308  eV     1   --> A              
     e( 11 - 11) =    -19.58663  eV     1   --> A              
     e( 12 - 12) =    -19.58329  eV     1   --> A              
     e( 13 - 13) =    -19.57627  eV     1   --> A              
     e( 14 - 14) =    -19.57355  eV     1   --> A              
     e( 15 - 15) =    -19.57064  eV     1   --> A              
     e( 16 - 16) =    -19.55114  eV     1   --> A              
     e( 17 - 17) =    -19.53241  eV     1   --> A              
     e( 18 - 18) =    -19.52473  eV     1   --> A              
     e( 19 - 19) =    -19.49914  eV     1   --> A              
     e( 20 - 20) =    -19.49029  eV     1   --> A              
     e( 21 - 21) =    -19.46247  eV     1   --> A              
     e( 22 - 22) =    -19.45168  eV     1   --> A              
     e( 23 - 23) =    -13.05802  eV     1   --> A              
     e( 24 - 24) =    -11.64001  eV     1   --> A              
     e( 25 - 25) =     -5.63354  eV     1   --> A              
     e( 26 - 26) =     -5.28964  eV     1   --> A              
     e( 27 - 27) =     -4.50738  eV     1   --> A              
     e( 28 - 28) =     -4.05039  eV     1   --> A              
     e( 29 - 29) =     -2.90835  eV     1   --> A              
     e( 30 - 30) =     -1.97946  eV     1   --> A              
     e( 31 - 31) =     -1.06525  eV     1   --> A              
     e( 32 - 32) =     -0.67986  eV     1   --> A              
     e( 33 - 33) =      0.76321  eV     1   --> A              
     e( 34 - 34) =      1.70519  eV     1   --> A              
     e( 35 - 35) =      2.50012  eV     1   --> A              
     e( 36 - 36) =      3.51897  eV     1   --> A              
     e( 37 - 37) =      3.62222  eV     1   --> A              
     e( 38 - 38) =      4.38546  eV     1   --> A              
     e( 39 - 39) =      5.72965  eV     1   --> A              
     e( 40 - 40) =      6.35439  eV     1   --> A              
     e( 41 - 41) =      6.61283  eV     1   --> A              
     e( 42 - 42) =      6.89249  eV     1   --> A              

 **************************************************************************

 **************************************************************************

                    xk=(   0.33220,  -0.00058,   0.00000  )

     Band symmetry, C_1 (1)     point group:

     e(  1 -  1) =    -67.94859  eV     1   --> A              
     e(  2 -  2) =    -67.83836  eV     1   --> A              
     e(  3 -  3) =    -34.76919  eV     1   --> A              
     e(  4 -  4) =    -34.61872  eV     1   --> A              
     e(  5 -  5) =    -34.46762  eV     1   --> A              
     e(  6 -  6) =    -34.33781  eV     1   --> A              
     e(  7 -  7) =    -34.27060  eV     1   --> A              
     e(  8 -  8) =    -34.13883  eV     1   --> A              
     e(  9 -  9) =    -19.59648  eV     1   --> A              
     e( 10 - 10) =    -19.59295  eV     1   --> A              
     e( 11 - 11) =    -19.58844  eV     1   --> A              
     e( 12 - 12) =    -19.58290  eV     1   --> A              
     e( 13 - 13) =    -19.57685  eV     1   --> A              
     e( 14 - 14) =    -19.57266  eV     1   --> A              
     e( 15 - 15) =    -19.57061  eV     1   --> A              
     e( 16 - 16) =    -19.55035  eV     1   --> A              
     e( 17 - 17) =    -19.53328  eV     1   --> A              
     e( 18 - 18) =    -19.52525  eV     1   --> A              
     e( 19 - 19) =    -19.49912  eV     1   --> A              
     e( 20 - 20) =    -19.48975  eV     1   --> A              
     e( 21 - 21) =    -19.46065  eV     1   --> A              
     e( 22 - 22) =    -19.45344  eV     1   --> A              
     e( 23 - 23) =    -12.93637  eV     1   --> A              
     e( 24 - 24) =    -11.58943  eV     1   --> A              
     e( 25 - 25) =     -5.68854  eV     1   --> A              
     e( 26 - 26) =     -5.14559  eV     1   --> A              
     e( 27 - 27) =     -4.59853  eV     1   --> A              
     e( 28 - 28) =     -4.14847  eV     1   --> A              
     e( 29 - 29) =     -3.00564  eV     1   --> A              
     e( 30 - 30) =     -2.10069  eV     1   --> A              
     e( 31 - 31) =     -1.10040  eV     1   --> A              
     e( 32 - 32) =     -0.62354  eV     1   --> A              
     e( 33 - 33) =      0.85677  eV     1   --> A              
     e( 34 - 34) =      1.72696  eV     1   --> A              
     e( 35 - 35) =      2.66164  eV     1   --> A              
     e( 36 - 36) =      3.63016  eV     1   --> A              
     e( 37 - 37) =      3.70808  eV     1   --> A              
     e( 38 - 38) =      4.59642  eV     1   --> A              
     e( 39 - 39) =      5.76155  eV     1   --> A              
     e( 40 - 40) =      6.48632  eV     1   --> A              
     e( 41 - 41) =      6.67742  eV     1   --> A              
     e( 42 - 42) =      7.11279  eV     1   --> A              

 **************************************************************************

 **************************************************************************

                    xk=(   0.35297,  -0.00062,   0.00000  )

     Band symmetry, C_1 (1)     point group:

     e(  1 -  1) =    -67.94654  eV     1   --> A              
     e(  2 -  2) =    -67.83682  eV     1   --> A              
     e(  3 -  3) =    -34.77502  eV     1   --> A              
     e(  4 -  4) =    -34.62666  eV     1   --> A              
     e(  5 -  5) =    -34.48749  eV     1   --> A              
     e(  6 -  6) =    -34.34703  eV     1   --> A              
     e(  7 -  7) =    -34.28110  eV     1   --> A              
     e(  8 -  8) =    -34.15061  eV     1   --> A              
     e(  9 -  9) =    -19.59508  eV     1   --> A              
     e( 10 - 10) =    -19.59242  eV     1   --> A              
     e( 11 - 11) =    -19.59020  eV     1   --> A              
     e( 12 - 12) =    -19.58250  eV     1   --> A              
     e( 13 - 13) =    -19.57738  eV     1   --> A              
     e( 14 - 14) =    -19.57229  eV     1   --> A              
     e( 15 - 15) =    -19.57015  eV     1   --> A              
     e( 16 - 16) =    -19.54959  eV     1   --> A              
     e( 17 - 17) =    -19.53409  eV     1   --> A              
     e( 18 - 18) =    -19.52581  eV     1   --> A              
     e( 19 - 19) =    -19.49906  eV     1   --> A              
     e( 20 - 20) =    -19.48927  eV     1   --> A              
     e( 21 - 21) =    -19.45896  eV     1   --> A              
     e( 22 - 22) =    -19.45507  eV     1   --> A              
     e( 23 - 23) =    -12.81864  eV     1   --> A              
     e( 24 - 24) =    -11.53646  eV     1   --> A              
     e( 25 - 25) =     -5.74831  eV     1   --> A              
     e( 26 - 26) =     -5.04257  eV     1   --> A              
     e( 27 - 27) =     -4.64910  eV     1   --> A              
     e( 28 - 28) =     -4.22850  eV     1   --> A              
     e( 29 - 29) =     -3.10263  eV     1   --> A              
     e( 30 - 30) =     -2.22632  eV     1   --> A              
     e( 31 - 31) =     -1.11838  eV     1   --> A              
     e( 32 - 32) =     -0.56418  eV     1   --> A              
     e( 33 - 33) =      0.94496  eV     1   --> A              
     e( 34 - 34) =      1.76733  eV     1   --> A              
     e( 35 - 35) =      2.80499  eV     1   --> A              
     e( 36 - 36) =      3.66512  eV     1   --> A              
     e( 37 - 37) =      3.88843  eV     1   --> A              
     e( 38 - 38) =      4.81072  eV     1   --> A              
     e( 39 - 39) =      5.75681  eV     1   --> A              
     e( 40 - 40) =      6.62055  eV     1   --> A              
     e( 41 - 41) =      6.72404  eV     1   --> A              
     e( 42 - 42) =      7.30355  eV     1   --> A              

 **************************************************************************

 **************************************************************************

                    xk=(   0.37373,  -0.00065,   0.00000  )

     Band symmetry, C_1 (1)     point group:

     e(  1 -  1) =    -67.94459  eV     1   --> A              
     e(  2 -  2) =    -67.83535  eV     1   --> A              
     e(  3 -  3) =    -34.78295  eV     1   --> A              
     e(  4 -  4) =    -34.63059  eV     1   --> A              
     e(  5 -  5) =    -34.50696  eV     1   --> A              
     e(  6 -  6) =    -34.35589  eV     1   --> A              
     e(  7 -  7) =    -34.29109  eV     1   --> A              
     e(  8 -  8) =    -34.16248  eV     1   --> A              
     e(  9 -  9) =    -19.59433  eV     1   --> A              
     e( 10 - 10) =    -19.59187  eV     1   --> A              
     e( 11 - 11) =    -19.59126  eV     1   --> A              
     e( 12 - 12) =    -19.58214  eV     1   --> A              
     e( 13 - 13) =    -19.57785  eV     1   --> A              
     e( 14 - 14) =    -19.57231  eV     1   --> A              
     e( 15 - 15) =    -19.56941  eV     1   --> A              
     e( 16 - 16) =    -19.54887  eV     1   --> A              
     e( 17 - 17) =    -19.53480  eV     1   --> A              
     e( 18 - 18) =    -19.52640  eV     1   --> A              
     e( 19 - 19) =    -19.49895  eV     1   --> A              
     e( 20 - 20) =    -19.48886  eV     1   --> A              
     e( 21 - 21) =    -19.45800  eV     1   --> A              
     e( 22 - 22) =    -19.45599  eV     1   --> A              
     e( 23 - 23) =    -12.70652  eV     1   --> A              
     e( 24 - 24) =    -11.48120  eV     1   --> A              
     e( 25 - 25) =     -5.81192  eV     1   --> A              
     e( 26 - 26) =     -5.01337  eV     1   --> A              
     e( 27 - 27) =     -4.63625  eV     1   --> A              
     e( 28 - 28) =     -4.28096  eV     1   --> A              
     e( 29 - 29) =     -3.19794  eV     1   --> A              
     e( 30 - 30) =     -2.35248  eV     1   --> A              
     e( 31 - 31) =     -1.12057  eV     1   --> A              
     e( 32 - 32) =     -0.50864  eV     1   --> A              
     e( 33 - 33) =      1.03212  eV     1   --> A              
     e( 34 - 34) =      1.83041  eV     1   --> A              
     e( 35 - 35) =      2.90883  eV     1   --> A              
     e( 36 - 36) =      3.72284  eV     1   --> A              
     e( 37 - 37) =      4.06523  eV     1   --> A              
     e( 38 - 38) =      5.02033  eV     1   --> A              
     e( 39 - 39) =      5.73379  eV     1   --> A              
     e( 40 - 40) =      6.72004  eV     1   --> A              
     e( 41 - 41) =      6.78620  eV     1   --> A              
     e( 42 - 42) =      7.50602  eV     1   --> A              

 **************************************************************************

 **************************************************************************

                    xk=(   0.39449,  -0.00069,   0.00000  )

     Band symmetry, C_1 (1)     point group:

     e(  1 -  1) =    -67.94274  eV     1   --> A              
     e(  2 -  2) =    -67.83396  eV     1   --> A              
     e(  3 -  3) =    -34.79162  eV     1   --> A              
     e(  4 -  4) =    -34.63160  eV     1   --> A              
     e(  5 -  5) =    -34.52590  eV     1   --> A              
     e(  6 -  6) =    -34.36392  eV     1   --> A              
     e(  7 -  7) =    -34.30099  eV     1   --> A              
     e(  8 -  8) =    -34.17430  eV     1   --> A              
     e(  9 -  9) =    -19.59421  eV     1   --> A              
     e( 10 - 10) =    -19.59313  eV     1   --> A              
     e( 11 - 11) =    -19.58981  eV     1   --> A              
     e( 12 - 12) =    -19.58181  eV     1   --> A              
     e( 13 - 13) =    -19.57826  eV     1   --> A              
     e( 14 - 14) =    -19.57247  eV     1   --> A              
     e( 15 - 15) =    -19.56865  eV     1   --> A              
     e( 16 - 16) =    -19.54819  eV     1   --> A              
     e( 17 - 17) =    -19.53543  eV     1   --> A              
     e( 18 - 18) =    -19.52701  eV     1   --> A              
     e( 19 - 19) =    -19.49880  eV     1   --> A              
     e( 20 - 20) =    -19.48852  eV     1   --> A              
     e( 21 - 21) =    -19.45892  eV     1   --> A              
     e( 22 - 22) =    -19.45503  eV     1   --> A              
     e( 23 - 23) =    -12.60147  eV     1   --> A              
     e( 24 - 24) =    -11.42412  eV     1   --> A              
     e( 25 - 25) =     -5.87811  eV     1   --> A              
     e( 26 - 26) =     -5.03750  eV     1   --> A              
     e( 27 - 27) =     -4.60336  eV     1   --> A              
     e( 28 - 28) =     -4.28530  eV     1   --> A              
     e( 29 - 29) =     -3.28933  eV     1   --> A              
     e( 30 - 30) =     -2.47615  eV     1   --> A              
     e( 31 - 31) =     -1.10791  eV     1   --> A              
     e( 32 - 32) =     -0.46112  eV     1   --> A              
     e( 33 - 33) =      1.12305  eV     1   --> A              
     e( 34 - 34) =      1.91288  eV     1   --> A              
     e( 35 - 35) =      2.96448  eV     1   --> A              
     e( 36 - 36) =      3.80607  eV     1   --> A              
     e( 37 - 37) =      4.22295  eV     1   --> A              
     e( 38 - 38) =      5.20512  eV     1   --> A              
     e( 39 - 39) =      5.72388  eV     1   --> A              
     e( 40 - 40) =      6.74755  eV     1   --> A              
     e( 41 - 41) =      6.88864  eV     1   --> A              
     e( 42 - 42) =      7.71989  eV     1   --> A              

 **************************************************************************

 **************************************************************************

                    xk=(   0.41525,  -0.00072,   0.00000  )

     Band symmetry, C_1 (1)     point group:

     e(  1 -  1) =    -67.94103  eV     1   --> A              
     e(  2 -  2) =    -67.83268  eV     1   --> A              
     e(  3 -  3) =    -34.79978  eV     1   --> A              
     e(  4 -  4) =    -34.63072  eV     1   --> A              
     e(  5 -  5) =    -34.54427  eV     1   --> A              
     e(  6 -  6) =    -34.37078  eV     1   --> A              
     e(  7 -  7) =    -34.31105  eV     1   --> A              
     e(  8 -  8) =    -34.18590  eV     1   --> A              
     e(  9 -  9) =    -19.59519  eV     1   --> A              
     e( 10 - 10) =    -19.59325  eV     1   --> A              
     e( 11 - 11) =    -19.58832  eV     1   --> A              
     e( 12 - 12) =    -19.58153  eV     1   --> A              
     e( 13 - 13) =    -19.57861  eV     1   --> A              
     e( 14 - 14) =    -19.57266  eV     1   --> A              
     e( 15 - 15) =    -19.56800  eV     1   --> A              
     e( 16 - 16) =    -19.54755  eV     1   --> A              
     e( 17 - 17) =    -19.53595  eV     1   --> A              
     e( 18 - 18) =    -19.52764  eV     1   --> A              
     e( 19 - 19) =    -19.49860  eV     1   --> A              
     e( 20 - 20) =    -19.48827  eV     1   --> A              
     e( 21 - 21) =    -19.46030  eV     1   --> A              
     e( 22 - 22) =    -19.45364  eV     1   --> A              
     e( 23 - 23) =    -12.50455  eV     1   --> A              
     e( 24 - 24) =    -11.36622  eV     1   --> A              
     e( 25 - 25) =     -5.94366  eV     1   --> A              
     e( 26 - 26) =     -5.07557  eV     1   --> A              
     e( 27 - 27) =     -4.60343  eV     1   --> A              
     e( 28 - 28) =     -4.23392  eV     1   --> A              
     e( 29 - 29) =     -3.37389  eV     1   --> A              
     e( 30 - 30) =     -2.59469  eV     1   --> A              
     e( 31 - 31) =     -1.08107  eV     1   --> A              
     e( 32 - 32) =     -0.42226  eV     1   --> A              
     e( 33 - 33) =      1.21974  eV     1   --> A              
     e( 34 - 34) =      2.00824  eV     1   --> A              
     e( 35 - 35) =      2.97901  eV     1   --> A              
     e( 36 - 36) =      3.90021  eV     1   --> A              
     e( 37 - 37) =      4.34476  eV     1   --> A              
     e( 38 - 38) =      5.31966  eV     1   --> A              
     e( 39 - 39) =      5.78314  eV     1   --> A              
     e( 40 - 40) =      6.75602  eV     1   --> A              
     e( 41 - 41) =      6.96701  eV     1   --> A              
     e( 42 - 42) =      7.93549  eV     1   --> A              

 **************************************************************************

 **************************************************************************

                    xk=(   0.43602,  -0.00076,   0.00000  )

     Band symmetry, C_1 (1)     point group:

     e(  1 -  1) =    -67.93947  eV     1   --> A              
     e(  2 -  2) =    -67.83151  eV     1   --> A              
     e(  3 -  3) =    -34.80641  eV     1   --> A              
     e(  4 -  4) =    -34.62874  eV     1   --> A              
     e(  5 -  5) =    -34.56207  eV     1   --> A              
     e(  6 -  6) =    -34.37623  eV     1   --> A              
     e(  7 -  7) =    -34.32141  eV     1   --> A              
     e(  8 -  8) =    -34.19711  eV     1   --> A              
     e(  9 -  9) =    -19.59645  eV     1   --> A              
     e( 10 - 10) =    -19.59293  eV     1   --> A              
     e( 11 - 11) =    -19.58692  eV     1   --> A              
     e( 12 - 12) =    -19.58129  eV     1   --> A              
     e( 13 - 13) =    -19.57891  eV     1   --> A              
     e( 14 - 14) =    -19.57284  eV     1   --> A              
     e( 15 - 15) =    -19.56749  eV     1   --> A              
     e( 16 - 16) =    -19.54696  eV     1   --> A              
     e( 17 - 17) =    -19.53636  eV     1   --> A              
     e( 18 - 18) =    -19.52829  eV     1   --> A              
     e( 19 - 19) =    -19.49836  eV     1   --> A              
     e( 20 - 20) =    -19.48811  eV     1   --> A              
     e( 21 - 21) =    -19.46165  eV     1   --> A              
     e( 22 - 22) =    -19.45230  eV     1   --> A              
     e( 23 - 23) =    -12.41640  eV     1   --> A              
     e( 24 - 24) =    -11.30902  eV     1   --> A              
     e( 25 - 25) =     -6.00377  eV     1   --> A              
     e( 26 - 26) =     -5.11290  eV     1   --> A              
     e( 27 - 27) =     -4.62859  eV     1   --> A              
     e( 28 - 28) =     -4.15850  eV     1   --> A              
     e( 29 - 29) =     -3.44810  eV     1   --> A              
     e( 30 - 30) =     -2.70561  eV     1   --> A              
     e( 31 - 31) =     -1.04084  eV     1   --> A              
     e( 32 - 32) =     -0.38965  eV     1   --> A              
     e( 33 - 33) =      1.31986  eV     1   --> A              
     e( 34 - 34) =      2.10935  eV     1   --> A              
     e( 35 - 35) =      2.96680  eV     1   --> A              
     e( 36 - 36) =      3.98160  eV     1   --> A              
     e( 37 - 37) =      4.41474  eV     1   --> A              
     e( 38 - 38) =      5.34795  eV     1   --> A              
     e( 39 - 39) =      5.93785  eV     1   --> A              
     e( 40 - 40) =      6.76059  eV     1   --> A              
     e( 41 - 41) =      7.00835  eV     1   --> A              
     e( 42 - 42) =      8.13274  eV     1   --> A              

 **************************************************************************

 **************************************************************************

                    xk=(   0.45678,  -0.00080,   0.00000  )

     Band symmetry, C_1 (1)     point group:

     e(  1 -  1) =    -67.93806  eV     1   --> A              
     e(  2 -  2) =    -67.83046  eV     1   --> A              
     e(  3 -  3) =    -34.81083  eV     1   --> A              
     e(  4 -  4) =    -34.62632  eV     1   --> A              
     e(  5 -  5) =    -34.57917  eV     1   --> A              
     e(  6 -  6) =    -34.38023  eV     1   --> A              
     e(  7 -  7) =    -34.33206  eV     1   --> A              
     e(  8 -  8) =    -34.20778  eV     1   --> A              
     e(  9 -  9) =    -19.59761  eV     1   --> A              
     e( 10 - 10) =    -19.59250  eV     1   --> A              
     e( 11 - 11) =    -19.58568  eV     1   --> A              
     e( 12 - 12) =    -19.58110  eV     1   --> A              
     e( 13 - 13) =    -19.57916  eV     1   --> A              
     e( 14 - 14) =    -19.57301  eV     1   --> A              
     e( 15 - 15) =    -19.56713  eV     1   --> A              
     e( 16 - 16) =    -19.54643  eV     1   --> A              
     e( 17 - 17) =    -19.53665  eV     1   --> A              
     e( 18 - 18) =    -19.52894  eV     1   --> A              
     e( 19 - 19) =    -19.49807  eV     1   --> A              
     e( 20 - 20) =    -19.48804  eV     1   --> A              
     e( 21 - 21) =    -19.46291  eV     1   --> A              
     e( 22 - 22) =    -19.45108  eV     1   --> A              
     e( 23 - 23) =    -12.33723  eV     1   --> A              
     e( 24 - 24) =    -11.25450  eV     1   --> A              
     e( 25 - 25) =     -6.05311  eV     1   --> A              
     e( 26 - 26) =     -5.14717  eV     1   --> A              
     e( 27 - 27) =     -4.66202  eV     1   --> A              
     e( 28 - 28) =     -4.08856  eV     1   --> A              
     e( 29 - 29) =     -3.50828  eV     1   --> A              
     e( 30 - 30) =     -2.80651  eV     1   --> A              
     e( 31 - 31) =     -0.98842  eV     1   --> A              
     e( 32 - 32) =     -0.35926  eV     1   --> A              
     e( 33 - 33) =      1.41757  eV     1   --> A              
     e( 34 - 34) =      2.20922  eV     1   --> A              
     e( 35 - 35) =      2.94135  eV     1   --> A              
     e( 36 - 36) =      4.02050  eV     1   --> A              
     e( 37 - 37) =      4.43286  eV     1   --> A              
     e( 38 - 38) =      5.34620  eV     1   --> A              
     e( 39 - 39) =      6.13573  eV     1   --> A              
     e( 40 - 40) =      6.77088  eV     1   --> A              
     e( 41 - 41) =      7.02675  eV     1   --> A              
     e( 42 - 42) =      8.20494  eV     1   --> A              

 **************************************************************************

 **************************************************************************

                    xk=(   0.47754,  -0.00083,   0.00000  )

     Band symmetry, C_1 (1)     point group:

     e(  1 -  1) =    -67.93683  eV     1   --> A              
     e(  2 -  2) =    -67.82954  eV     1   --> A              
     e(  3 -  3) =    -34.81260  eV     1   --> A              
     e(  4 -  4) =    -34.62475  eV     1   --> A              
     e(  5 -  5) =    -34.59465  eV     1   --> A              
     e(  6 -  6) =    -34.38286  eV     1   --> A              
     e(  7 -  7) =    -34.34288  eV     1   --> A              
     e(  8 -  8) =    -34.21777  eV     1   --> A              
     e(  9 -  9) =    -19.59863  eV     1   --> A              
     e( 10 - 10) =    -19.59198  eV     1   --> A              
     e( 11 - 11) =    -19.58465  eV     1   --> A              
     e( 12 - 12) =    -19.58093  eV     1   --> A              
     e( 13 - 13) =    -19.57936  eV     1   --> A              
     e( 14 - 14) =    -19.57316  eV     1   --> A              
     e( 15 - 15) =    -19.56692  eV     1   --> A              
     e( 16 - 16) =    -19.54595  eV     1   --> A              
     e( 17 - 17) =    -19.53682  eV     1   --> A              
     e( 18 - 18) =    -19.52961  eV     1   --> A              
     e( 19 - 19) =    -19.49775  eV     1   --> A              
     e( 20 - 20) =    -19.48806  eV     1   --> A              
     e( 21 - 21) =    -19.46403  eV     1   --> A              
     e( 22 - 22) =    -19.45000  eV     1   --> A              
     e( 23 - 23) =    -12.26695  eV     1   --> A              
     e( 24 - 24) =    -11.20483  eV     1   --> A              
     e( 25 - 25) =     -6.08686  eV     1   --> A              
     e( 26 - 26) =     -5.17918  eV     1   --> A              
     e( 27 - 27) =     -4.69944  eV     1   --> A              
     e( 28 - 28) =     -4.03605  eV     1   --> A              
     e( 29 - 29) =     -3.55221  eV     1   --> A              
     e( 30 - 30) =     -2.89535  eV     1   --> A              
     e( 31 - 31) =     -0.92576  eV     1   --> A              
     e( 32 - 32) =     -0.32700  eV     1   --> A              
     e( 33 - 33) =      1.50549  eV     1   --> A              
     e( 34 - 34) =      2.30088  eV     1   --> A              
     e( 35 - 35) =      2.91379  eV     1   --> A              
     e( 36 - 36) =      3.97996  eV     1   --> A              
     e( 37 - 37) =      4.43150  eV     1   --> A              
     e( 38 - 38) =      5.35064  eV     1   --> A              
     e( 39 - 39) =      6.32098  eV     1   --> A              
     e( 40 - 40) =      6.80466  eV     1   --> A              
     e( 41 - 41) =      7.04691  eV     1   --> A              
     e( 42 - 42) =      8.17287  eV     1   --> A              

 **************************************************************************

 **************************************************************************

                    xk=(   0.49830,  -0.00087,   0.00000  )

     Band symmetry, C_1 (1)     point group:

     e(  1 -  1) =    -67.93578  eV     1   --> A              
     e(  2 -  2) =    -67.82875  eV     1   --> A              
     e(  3 -  3) =    -34.81148  eV     1   --> A              
     e(  4 -  4) =    -34.62851  eV     1   --> A              
     e(  5 -  5) =    -34.60420  eV     1   --> A              
     e(  6 -  6) =    -34.38436  eV     1   --> A              
     e(  7 -  7) =    -34.35363  eV     1   --> A              
     e(  8 -  8) =    -34.22692  eV     1   --> A              
     e(  9 -  9) =    -19.59951  eV     1   --> A              
     e( 10 - 10) =    -19.59136  eV     1   --> A              
     e( 11 - 11) =    -19.58389  eV     1   --> A              
     e( 12 - 12) =    -19.58079  eV     1   --> A              
     e( 13 - 13) =    -19.57946  eV     1   --> A              
     e( 14 - 14) =    -19.57332  eV     1   --> A              
     e( 15 - 15) =    -19.56684  eV     1   --> A              
     e( 16 - 16) =    -19.54552  eV     1   --> A              
     e( 17 - 17) =    -19.53687  eV     1   --> A              
     e( 18 - 18) =    -19.53028  eV     1   --> A              
     e( 19 - 19) =    -19.49740  eV     1   --> A              
     e( 20 - 20) =    -19.48816  eV     1   --> A              
     e( 21 - 21) =    -19.46503  eV     1   --> A              
     e( 22 - 22) =    -19.44908  eV     1   --> A              
     e( 23 - 23) =    -12.20533  eV     1   --> A              
     e( 24 - 24) =    -11.16201  eV     1   --> A              
     e( 25 - 25) =     -6.10133  eV     1   --> A              
     e( 26 - 26) =     -5.21001  eV     1   --> A              
     e( 27 - 27) =     -4.74282  eV     1   --> A              
     e( 28 - 28) =     -4.00078  eV     1   --> A              
     e( 29 - 29) =     -3.58144  eV     1   --> A              
     e( 30 - 30) =     -2.97098  eV     1   --> A              
     e( 31 - 31) =     -0.85582  eV     1   --> A              
     e( 32 - 32) =     -0.29004  eV     1   --> A              
     e( 33 - 33) =      1.57685  eV     1   --> A              
     e( 34 - 34) =      2.37749  eV     1   --> A              
     e( 35 - 35) =      2.89318  eV     1   --> A              
     e( 36 - 36) =      3.84794  eV     1   --> A              
     e( 37 - 37) =      4.44242  eV     1   --> A              
     e( 38 - 38) =      5.36940  eV     1   --> A              
     e( 39 - 39) =      6.43332  eV     1   --> A              
     e( 40 - 40) =      6.89887  eV     1   --> A              
     e( 41 - 41) =      7.08811  eV     1   --> A              
     e( 42 - 42) =      8.10322  eV     1   --> A              

 **************************************************************************

 **************************************************************************

                    xk=(   0.51907,  -0.00091,   0.00000  )

     Band symmetry, C_1 (1)     point group:

     e(  1 -  1) =    -67.93490  eV     1   --> A              
     e(  2 -  2) =    -67.82810  eV     1   --> A              
     e(  3 -  3) =    -34.80740  eV     1   --> A              
     e(  4 -  4) =    -34.64131  eV     1   --> A              
     e(  5 -  5) =    -34.60431  eV     1   --> A              
     e(  6 -  6) =    -34.38509  eV     1   --> A              
     e(  7 -  7) =    -34.36390  eV     1   --> A              
     e(  8 -  8) =    -34.23509  eV     1   --> A              
     e(  9 -  9) =    -19.60023  eV     1   --> A              
     e( 10 - 10) =    -19.59066  eV     1   --> A              
     e( 11 - 11) =    -19.58350  eV     1   --> A              
     e( 12 - 12) =    -19.58064  eV     1   --> A              
     e( 13 - 13) =    -19.57942  eV     1   --> A              
     e( 14 - 14) =    -19.57350  eV     1   --> A              
     e( 15 - 15) =    -19.56686  eV     1   --> A              
     e( 16 - 16) =    -19.54516  eV     1   --> A              
     e( 17 - 17) =    -19.53680  eV     1   --> A              
     e( 18 - 18) =    -19.53094  eV     1   --> A              
     e( 19 - 19) =    -19.49703  eV     1   --> A              
     e( 20 - 20) =    -19.48833  eV     1   --> A              
     e( 21 - 21) =    -19.46587  eV     1   --> A              
     e( 22 - 22) =    -19.44832  eV     1   --> A              
     e( 23 - 23) =    -12.15222  eV     1   --> A              
     e( 24 - 24) =    -11.12754  eV     1   --> A              
     e( 25 - 25) =     -6.09440  eV     1   --> A              
     e( 26 - 26) =     -5.24061  eV     1   --> A              
     e( 27 - 27) =     -4.79492  eV     1   --> A              
     e( 28 - 28) =     -3.97524  eV     1   --> A              
     e( 29 - 29) =     -3.60118  eV     1   --> A              
     e( 30 - 30) =     -3.03380  eV     1   --> A              
     e( 31 - 31) =     -0.78260  eV     1   --> A              
     e( 32 - 32) =     -0.24754  eV     1   --> A              
     e( 33 - 33) =      1.62737  eV     1   --> A              
     e( 34 - 34) =      2.43423  eV     1   --> A              
     e( 35 - 35) =      2.88425  eV     1   --> A              
     e( 36 - 36) =      3.65824  eV     1   --> A              
     e( 37 - 37) =      4.46177  eV     1   --> A              
     e( 38 - 38) =      5.40570  eV     1   --> A              
     e( 39 - 39) =      6.44717  eV     1   --> A              
     e( 40 - 40) =      7.04535  eV     1   --> A              
     e( 41 - 41) =      7.17244  eV     1   --> A              
     e( 42 - 42) =      8.01296  eV     1   --> A              

 **************************************************************************

 **************************************************************************

                    xk=(   0.53983,  -0.00094,   0.00000  )

     Band symmetry, C_1 (1)     point group:

     e(  1 -  1) =    -67.93421  eV     1   --> A              
     e(  2 -  2) =    -67.82758  eV     1   --> A              
     e(  3 -  3) =    -34.80044  eV     1   --> A              
     e(  4 -  4) =    -34.65782  eV     1   --> A              
     e(  5 -  5) =    -34.60049  eV     1   --> A              
     e(  6 -  6) =    -34.38554  eV     1   --> A              
     e(  7 -  7) =    -34.37308  eV     1   --> A              
     e(  8 -  8) =    -34.24213  eV     1   --> A              
     e(  9 -  9) =    -19.60079  eV     1   --> A              
[...]
     e( 13 - 13) =    -19.57079  eV     1   --> A              
     e( 14 - 14) =    -19.56920  eV     1   --> A              
     e( 15 - 15) =    -19.56699  eV     1   --> A              
     e( 16 - 16) =    -19.55879  eV     1   --> A              
     e( 17 - 17) =    -19.52317  eV     1   --> A              
     e( 18 - 18) =    -19.52186  eV     1   --> A              
     e( 19 - 19) =    -19.49778  eV     1   --> A              
     e( 20 - 20) =    -19.49617  eV     1   --> A              
     e( 21 - 21) =    -19.47904  eV     1   --> A              
     e( 22 - 22) =    -19.43554  eV     1   --> A              
     e( 23 - 23) =    -14.09977  eV     1   --> A              
     e( 24 - 24) =    -12.02610  eV     1   --> A              
     e( 25 - 25) =     -6.83789  eV     1   --> A              
     e( 26 - 26) =     -4.67926  eV     1   --> A              
     e( 27 - 27) =     -4.13312  eV     1   --> A              
     e( 28 - 28) =     -3.03870  eV     1   --> A              
     e( 29 - 29) =     -1.65864  eV     1   --> A              
     e( 30 - 30) =     -1.09283  eV     1   --> A              
     e( 31 - 31) =     -0.73382  eV     1   --> A              
     e( 32 - 32) =     -0.19004  eV     1   --> A              
     e( 33 - 33) =      0.36518  eV     1   --> A              
     e( 34 - 34) =      0.37224  eV     1   --> A              
     e( 35 - 35) =      2.60827  eV     1   --> A              
     e( 36 - 36) =      2.81162  eV     1   --> A              
     e( 37 - 37) =      2.89696  eV     1   --> A              
     e( 38 - 38) =      3.29251  eV     1   --> A              
     e( 39 - 39) =      4.17111  eV     1   --> A              
     e( 40 - 40) =      4.84718  eV     1   --> A              
     e( 41 - 41) =      5.29692  eV     1   --> A              
     e( 42 - 42) =      5.53208  eV     1   --> A              

 **************************************************************************

 **************************************************************************

                    xk=(   0.07772,  -0.04501,   0.00000  )

     Band symmetry, C_1 (1)     point group:

     e(  1 -  1) =    -67.97042  eV     1   --> A              
     e(  2 -  2) =    -67.85492  eV     1   --> A              
     e(  3 -  3) =    -34.82634  eV     1   --> A              
     e(  4 -  4) =    -34.35598  eV     1   --> A              
     e(  5 -  5) =    -34.30496  eV     1   --> A              
     e(  6 -  6) =    -34.29087  eV     1   --> A              
     e(  7 -  7) =    -34.06849  eV     1   --> A              
     e(  8 -  8) =    -34.04354  eV     1   --> A              
     e(  9 -  9) =    -19.61688  eV     1   --> A              
     e( 10 - 10) =    -19.59071  eV     1   --> A              
     e( 11 - 11) =    -19.58897  eV     1   --> A              
     e( 12 - 12) =    -19.58523  eV     1   --> A              
     e( 13 - 13) =    -19.57042  eV     1   --> A              
     e( 14 - 14) =    -19.56893  eV     1   --> A              
     e( 15 - 15) =    -19.56611  eV     1   --> A              
     e( 16 - 16) =    -19.55926  eV     1   --> A              
     e( 17 - 17) =    -19.52269  eV     1   --> A              
     e( 18 - 18) =    -19.52169  eV     1   --> A              
     e( 19 - 19) =    -19.49764  eV     1   --> A              
     e( 20 - 20) =    -19.49651  eV     1   --> A              
     e( 21 - 21) =    -19.47994  eV     1   --> A              
     e( 22 - 22) =    -19.43465  eV     1   --> A              
     e( 23 - 23) =    -14.15326  eV     1   --> A              
     e( 24 - 24) =    -12.04705  eV     1   --> A              
     e( 25 - 25) =     -6.91801  eV     1   --> A              
     e( 26 - 26) =     -4.56878  eV     1   --> A              
     e( 27 - 27) =     -4.15438  eV     1   --> A              
     e( 28 - 28) =     -3.05792  eV     1   --> A              
     e( 29 - 29) =     -1.49107  eV     1   --> A              
     e( 30 - 30) =     -1.04948  eV     1   --> A              
     e( 31 - 31) =     -0.70403  eV     1   --> A              
     e( 32 - 32) =     -0.14283  eV     1   --> A              
     e( 33 - 33) =      0.31198  eV     1   --> A              
     e( 34 - 34) =      0.32814  eV     1   --> A              
     e( 35 - 35) =      2.68425  eV     1   --> A              
     e( 36 - 36) =      2.81014  eV     1   --> A              
     e( 37 - 37) =      2.90302  eV     1   --> A              
     e( 38 - 38) =      3.20806  eV     1   --> A              
     e( 39 - 39) =      3.99070  eV     1   --> A              
     e( 40 - 40) =      4.76132  eV     1   --> A              
     e( 41 - 41) =      5.22465  eV     1   --> A              
     e( 42 - 42) =      5.46655  eV     1   --> A              

 **************************************************************************

 **************************************************************************

                    xk=(   0.06218,  -0.03601,   0.00000  )

     Band symmetry, C_1 (1)     point group:

     e(  1 -  1) =    -67.97126  eV     1   --> A              
     e(  2 -  2) =    -67.85555  eV     1   --> A              
     e(  3 -  3) =    -34.83005  eV     1   --> A              
     e(  4 -  4) =    -34.34173  eV     1   --> A              
     e(  5 -  5) =    -34.30148  eV     1   --> A              
     e(  6 -  6) =    -34.29080  eV     1   --> A              
     e(  7 -  7) =    -34.05707  eV     1   --> A              
     e(  8 -  8) =    -34.04101  eV     1   --> A              
     e(  9 -  9) =    -19.61768  eV     1   --> A              
     e( 10 - 10) =    -19.59045  eV     1   --> A              
     e( 11 - 11) =    -19.58937  eV     1   --> A              
     e( 12 - 12) =    -19.58567  eV     1   --> A              
     e( 13 - 13) =    -19.57015  eV     1   --> A              
     e( 14 - 14) =    -19.56870  eV     1   --> A              
     e( 15 - 15) =    -19.56533  eV     1   --> A              
     e( 16 - 16) =    -19.55966  eV     1   --> A              
     e( 17 - 17) =    -19.52234  eV     1   --> A              
     e( 18 - 18) =    -19.52152  eV     1   --> A              
     e( 19 - 19) =    -19.49752  eV     1   --> A              
     e( 20 - 20) =    -19.49680  eV     1   --> A              
     e( 21 - 21) =    -19.48070  eV     1   --> A              
     e( 22 - 22) =    -19.43390  eV     1   --> A              
     e( 23 - 23) =    -14.19768  eV     1   --> A              
     e( 24 - 24) =    -12.06468  eV     1   --> A              
     e( 25 - 25) =     -6.98472  eV     1   --> A              
     e( 26 - 26) =     -4.46273  eV     1   --> A              
     e( 27 - 27) =     -4.17293  eV     1   --> A              
     e( 28 - 28) =     -3.09460  eV     1   --> A              
     e( 29 - 29) =     -1.32830  eV     1   --> A              
     e( 30 - 30) =     -1.01306  eV     1   --> A              
     e( 31 - 31) =     -0.67855  eV     1   --> A              
     e( 32 - 32) =     -0.11441  eV     1   --> A              
     e( 33 - 33) =      0.27142  eV     1   --> A              
     e( 34 - 34) =      0.29269  eV     1   --> A              
     e( 35 - 35) =      2.74677  eV     1   --> A              
     e( 36 - 36) =      2.83590  eV     1   --> A              
     e( 37 - 37) =      2.89308  eV     1   --> A              
     e( 38 - 38) =      3.15000  eV     1   --> A              
     e( 39 - 39) =      3.82010  eV     1   --> A              
     e( 40 - 40) =      4.69012  eV     1   --> A              
     e( 41 - 41) =      5.16316  eV     1   --> A              
     e( 42 - 42) =      5.41240  eV     1   --> A              

 **************************************************************************

 **************************************************************************

                    xk=(   0.04663,  -0.02700,   0.00000  )

     Band symmetry, C_1 (1)     point group:

     e(  1 -  1) =    -67.97191  eV     1   --> A              
     e(  2 -  2) =    -67.85606  eV     1   --> A              
     e(  3 -  3) =    -34.83298  eV     1   --> A              
     e(  4 -  4) =    -34.32997  eV     1   --> A              
     e(  5 -  5) =    -34.29874  eV     1   --> A              
     e(  6 -  6) =    -34.29128  eV     1   --> A              
     e(  7 -  7) =    -34.04799  eV     1   --> A              
     e(  8 -  8) =    -34.03901  eV     1   --> A              
     e(  9 -  9) =    -19.61831  eV     1   --> A              
     e( 10 - 10) =    -19.59024  eV     1   --> A              
     e( 11 - 11) =    -19.58969  eV     1   --> A              
     e( 12 - 12) =    -19.58601  eV     1   --> A              
     e( 13 - 13) =    -19.56997  eV     1   --> A              
     e( 14 - 14) =    -19.56850  eV     1   --> A              
     e( 15 - 15) =    -19.56470  eV     1   --> A              
     e( 16 - 16) =    -19.55998  eV     1   --> A              
     e( 17 - 17) =    -19.52210  eV     1   --> A              
     e( 18 - 18) =    -19.52133  eV     1   --> A              
     e( 19 - 19) =    -19.49742  eV     1   --> A              
     e( 20 - 20) =    -19.49702  eV     1   --> A              
     e( 21 - 21) =    -19.48129  eV     1   --> A              
     e( 22 - 22) =    -19.43331  eV     1   --> A              
     e( 23 - 23) =    -14.23263  eV     1   --> A              
     e( 24 - 24) =    -12.07870  eV     1   --> A              
     e( 25 - 25) =     -7.03728  eV     1   --> A              
     e( 26 - 26) =     -4.36658  eV     1   --> A              
     e( 27 - 27) =     -4.18792  eV     1   --> A              
     e( 28 - 28) =     -3.13999  eV     1   --> A              
     e( 29 - 29) =     -1.18106  eV     1   --> A              
     e( 30 - 30) =     -0.98445  eV     1   --> A              
     e( 31 - 31) =     -0.65771  eV     1   --> A              
     e( 32 - 32) =     -0.10144  eV     1   --> A              
     e( 33 - 33) =      0.24268  eV     1   --> A              
     e( 34 - 34) =      0.26303  eV     1   --> A              
     e( 35 - 35) =      2.77428  eV     1   --> A              
     e( 36 - 36) =      2.86654  eV     1   --> A              
     e( 37 - 37) =      2.90527  eV     1   --> A              
     e( 38 - 38) =      3.12060  eV     1   --> A              
     e( 39 - 39) =      3.66438  eV     1   --> A              
     e( 40 - 40) =      4.63349  eV     1   --> A              
     e( 41 - 41) =      5.11333  eV     1   --> A              
     e( 42 - 42) =      5.36984  eV     1   --> A              

 **************************************************************************

 **************************************************************************

                    xk=(   0.03109,  -0.01800,   0.00000  )

     Band symmetry, C_1 (1)     point group:

     e(  1 -  1) =    -67.97238  eV     1   --> A              
     e(  2 -  2) =    -67.85642  eV     1   --> A              
     e(  3 -  3) =    -34.83511  eV     1   --> A              
     e(  4 -  4) =    -34.32088  eV     1   --> A              
     e(  5 -  5) =    -34.29676  eV     1   --> A              
     e(  6 -  6) =    -34.29223  eV     1   --> A              
     e(  7 -  7) =    -34.04142  eV     1   --> A              
     e(  8 -  8) =    -34.03754  eV     1   --> A              
     e(  9 -  9) =    -19.61876  eV     1   --> A              
     e( 10 - 10) =    -19.59010  eV     1   --> A              
     e( 11 - 11) =    -19.58991  eV     1   --> A              
     e( 12 - 12) =    -19.58626  eV     1   --> A              
     e( 13 - 13) =    -19.56985  eV     1   --> A              
     e( 14 - 14) =    -19.56834  eV     1   --> A              
     e( 15 - 15) =    -19.56423  eV     1   --> A              
     e( 16 - 16) =    -19.56022  eV     1   --> A              
     e( 17 - 17) =    -19.52196  eV     1   --> A              
     e( 18 - 18) =    -19.52117  eV     1   --> A              
     e( 19 - 19) =    -19.49736  eV     1   --> A              
     e( 20 - 20) =    -19.49716  eV     1   --> A              
     e( 21 - 21) =    -19.48173  eV     1   --> A              
     e( 22 - 22) =    -19.43288  eV     1   --> A              
     e( 23 - 23) =    -14.25781  eV     1   --> A              
     e( 24 - 24) =    -12.08889  eV     1   --> A              
     e( 25 - 25) =     -7.07517  eV     1   --> A              
     e( 26 - 26) =     -4.28799  eV     1   --> A              
     e( 27 - 27) =     -4.19837  eV     1   --> A              
     e( 28 - 28) =     -3.18448  eV     1   --> A              
     e( 29 - 29) =     -1.06158  eV     1   --> A              
     e( 30 - 30) =     -0.96358  eV     1   --> A              
     e( 31 - 31) =     -0.64206  eV     1   --> A              
     e( 32 - 32) =     -0.09887  eV     1   --> A              
     e( 33 - 33) =      0.22233  eV     1   --> A              
     e( 34 - 34) =      0.24030  eV     1   --> A              
     e( 35 - 35) =      2.78511  eV     1   --> A              
     e( 36 - 36) =      2.83663  eV     1   --> A              
     e( 37 - 37) =      2.99075  eV     1   --> A              
     e( 38 - 38) =      3.11053  eV     1   --> A              
     e( 39 - 39) =      3.52818  eV     1   --> A              
     e( 40 - 40) =      4.59196  eV     1   --> A              
     e( 41 - 41) =      5.07637  eV     1   --> A              
     e( 42 - 42) =      5.33914  eV     1   --> A              

 **************************************************************************

 **************************************************************************

                    xk=(   0.01554,  -0.00900,   0.00000  )

     Band symmetry, C_1 (1)     point group:

     e(  1 -  1) =    -67.97267  eV     1   --> A              
     e(  2 -  2) =    -67.85664  eV     1   --> A              
     e(  3 -  3) =    -34.83640  eV     1   --> A              
     e(  4 -  4) =    -34.31481  eV     1   --> A              
     e(  5 -  5) =    -34.29557  eV     1   --> A              
     e(  6 -  6) =    -34.29337  eV     1   --> A              
     e(  7 -  7) =    -34.03760  eV     1   --> A              
     e(  8 -  8) =    -34.03648  eV     1   --> A              
     e(  9 -  9) =    -19.61903  eV     1   --> A              
     e( 10 - 10) =    -19.59008  eV     1   --> A              
     e( 11 - 11) =    -19.58997  eV     1   --> A              
     e( 12 - 12) =    -19.58640  eV     1   --> A              
     e( 13 - 13) =    -19.56978  eV     1   --> A              
     e( 14 - 14) =    -19.56824  eV     1   --> A              
     e( 15 - 15) =    -19.56395  eV     1   --> A              
     e( 16 - 16) =    -19.56037  eV     1   --> A              
     e( 17 - 17) =    -19.52189  eV     1   --> A              
     e( 18 - 18) =    -19.52106  eV     1   --> A              
     e( 19 - 19) =    -19.49736  eV     1   --> A              
     e( 20 - 20) =    -19.49722  eV     1   --> A              
     e( 21 - 21) =    -19.48199  eV     1   --> A              
     e( 22 - 22) =    -19.43262  eV     1   --> A              
     e( 23 - 23) =    -14.27301  eV     1   --> A              
     e( 24 - 24) =    -12.09507  eV     1   --> A              
     e( 25 - 25) =     -7.09804  eV     1   --> A              
     e( 26 - 26) =     -4.23782  eV     1   --> A              
     e( 27 - 27) =     -4.20197  eV     1   --> A              
     e( 28 - 28) =     -3.21761  eV     1   --> A              
     e( 29 - 29) =     -0.98506  eV     1   --> A              
     e( 30 - 30) =     -0.94808  eV     1   --> A              
     e( 31 - 31) =     -0.63224  eV     1   --> A              
     e( 32 - 32) =     -0.10101  eV     1   --> A              
     e( 33 - 33) =      0.20783  eV     1   --> A              
     e( 34 - 34) =      0.22745  eV     1   --> A              
     e( 35 - 35) =      2.78771  eV     1   --> A              
     e( 36 - 36) =      2.81727  eV     1   --> A              
     e( 37 - 37) =      3.07045  eV     1   --> A              
     e( 38 - 38) =      3.10884  eV     1   --> A              
     e( 39 - 39) =      3.42017  eV     1   --> A              
     e( 40 - 40) =      4.56648  eV     1   --> A              
     e( 41 - 41) =      5.05355  eV     1   --> A              
     e( 42 - 42) =      5.32058  eV     1   --> A              

 **************************************************************************

 **************************************************************************

                    xk=(   0.00000,   0.00000,   0.00000  )

     Band symmetry, C_1 (1)     point group:

     e(  1 -  1) =    -67.97277  eV     1   --> A              
     e(  2 -  2) =    -67.85671  eV     1   --> A              
     e(  3 -  3) =    -34.83684  eV     1   --> A              
     e(  4 -  4) =    -34.31258  eV     1   --> A              
     e(  5 -  5) =    -34.29518  eV     1   --> A              
     e(  6 -  6) =    -34.29393  eV     1   --> A              
     e(  7 -  7) =    -34.03674  eV     1   --> A              
     e(  8 -  8) =    -34.03572  eV     1   --> A              
     e(  9 -  9) =    -19.61913  eV     1   --> A              
     e( 10 - 10) =    -19.59011  eV     1   --> A              
     e( 11 - 11) =    -19.58995  eV     1   --> A              
     e( 12 - 12) =    -19.58645  eV     1   --> A              
     e( 13 - 13) =    -19.56976  eV     1   --> A              
     e( 14 - 14) =    -19.56820  eV     1   --> A              
     e( 15 - 15) =    -19.56385  eV     1   --> A              
     e( 16 - 16) =    -19.56042  eV     1   --> A              
     e( 17 - 17) =    -19.52187  eV     1   --> A              
     e( 18 - 18) =    -19.52102  eV     1   --> A              
     e( 19 - 19) =    -19.49737  eV     1   --> A              
     e( 20 - 20) =    -19.49722  eV     1   --> A              
     e( 21 - 21) =    -19.48208  eV     1   --> A              
     e( 22 - 22) =    -19.43253  eV     1   --> A              
     e( 23 - 23) =    -14.27809  eV     1   --> A              
     e( 24 - 24) =    -12.09714  eV     1   --> A              
     e( 25 - 25) =     -7.10568  eV     1   --> A              
     e( 26 - 26) =     -4.22432  eV     1   --> A              
     e( 27 - 27) =     -4.19873  eV     1   --> A              
     e( 28 - 28) =     -3.22998  eV     1   --> A              
     e( 29 - 29) =     -0.96363  eV     1   --> A              
     e( 30 - 30) =     -0.93722  eV     1   --> A              
     e( 31 - 31) =     -0.62887  eV     1   --> A              
     e( 32 - 32) =     -0.10252  eV     1   --> A              
     e( 33 - 33) =      0.20213  eV     1   --> A              
     e( 34 - 34) =      0.22364  eV     1   --> A              
     e( 35 - 35) =      2.78608  eV     1   --> A              
     e( 36 - 36) =      2.81267  eV     1   --> A              
     e( 37 - 37) =      3.10476  eV     1   --> A              
     e( 38 - 38) =      3.11421  eV     1   --> A              
     e( 39 - 39) =      3.37139  eV     1   --> A              
     e( 40 - 40) =      4.55787  eV     1   --> A              
     e( 41 - 41) =      5.04582  eV     1   --> A              
     e( 42 - 42) =      5.31437  eV     1   --> A              

 **************************************************************************
 
     BANDS        :   1m54.96s CPU   1m18.48s WALL

 
   This run was terminated on:   9: 4:51  22Apr2022            

=------------------------------------------------------------------------------=
   JOB DONE.
=------------------------------------------------------------------------------=
