
     Program PWSCF v.6.8 starts on 22Apr2022 at  8:21: 7 

     This program is part of the open-source Quantum ESPRESSO suite
     for quantum simulation of materials; please cite
         "P. Giannozzi et al., J. Phys.:Condens. Matter 21 395502 (2009);
         "P. Giannozzi et al., J. Phys.:Condens. Matter 29 465901 (2017);
         "P. Giannozzi et al., J. Chem. Phys. 152 154105 (2020);
          URL http://www.quantum-espresso.org", 
     in publications or presentations arising from this work. More details at
     http://www.quantum-espresso.org/quote

     Parallel version (MPI & OpenMP), running on       4 processor cores
     Number of MPI processes:                 2
     Threads/MPI process:                     2

     MPI processes distributed on     1 nodes
     R & G space division:  proc/nbgrp/npool/nimage =       2
     121609 MiB available memory on the printing compute node when the environment starts
 
     Reading input from Ta2CS.nscf.in

     Current dimensions of program PWSCF are:
     Max number of different atomic species (ntypx) = 10
     Max number of k-points (npk) =  40000
     Max angular momentum in pseudopotentials (lmaxx) =  4

     Atomic positions and unit cell read from directory:
     /scratch/as3359/Ta2CH_bandsdos/Ta.save/
 
     file Ta.pbesol-spfn-rrkjus_psl.1.0.0.UPF: wavefunction(s)  5S 5P renormalized
     file S.pbesol-nl-kjpaw_psl.1.0.0.UPF: wavefunction(s)  3S renormalized

     Subspace diagonalization in iterative solution of the eigenvalue problem:
     a serial algorithm will be used

 
     Parallelization info
     --------------------
     sticks:   dense  smooth     PW     G-vecs:    dense   smooth      PW
     Min         856     735    216               265452   210771   33349
     Max         857     736    217               265455   210772   33356
     Sum        1713    1471    433               530907   421543   66705
 
     Using Slab Decomposition
 


     bravais-lattice index     =            0
     lattice parameter (alat)  =       5.5500  a.u.
     unit-cell volume          =    1699.0018 (a.u.)^3
     number of atoms/cell      =            4
     number of atomic types    =            3
     number of electrons       =        64.00
     number of Kohn-Sham states=           38
     kinetic-energy cutoff     =     150.0000  Ry
     charge density cutoff     =     700.0000  Ry
     Exchange-correlation= SLA  PW   PSX  PSC
                           (   1   4  10   8   0   0   0)

     celldm(1)=   5.550000  celldm(2)=   0.000000  celldm(3)=   0.000000
     celldm(4)=   0.000000  celldm(5)=   0.000000  celldm(6)=   0.000000

     crystal axes: (cart. coord. in units of alat)
               a(1) = (   1.070291  -0.003288   0.000000 )  
               a(2) = (  -0.533526   0.930205   0.000000 )  
               a(3) = (   0.000000   0.000000  10.000000 )  

     reciprocal axes: (cart. coord. in units 2 pi/alat)
               b(1) = (  0.935974  0.536835  0.000000 )  
               b(2) = (  0.003308  1.076929  0.000000 )  
               b(3) = (  0.000000  0.000000  0.100000 )  


     PseudoPot. # 1 for Ta read from file:
     /shared/home/as3359/pseudo/Ta.pbesol-spfn-rrkjus_psl.1.0.0.UPF
     MD5 check sum: f099565ffaca9b150a52e9412a28e20b
     Pseudo is Ultrasoft + core correction, Zval = 27.0
     Generated using &quot;atomic&quot; code by A. Dal Corso  v.6.3
     Using radial grid of 1273 points,  8 beta functions with: 
                l(1) =   0
                l(2) =   0
                l(3) =   1
                l(4) =   1
                l(5) =   2
                l(6) =   2
                l(7) =   3
                l(8) =   3
     Q(r) pseudized with 0 coefficients 


     PseudoPot. # 2 for C  read from file:
     /shared/home/as3359/pseudo/C.pbesol-n-rrkjus_psl.1.0.0.UPF
     MD5 check sum: 05995be603a8a7c99da3dc4413f31573
     Pseudo is Ultrasoft + core correction, Zval =  4.0
     Generated using &quot;atomic&quot; code by A. Dal Corso  v.6.3MaX
     Using radial grid of 1073 points,  4 beta functions with: 
                l(1) =   0
                l(2) =   0
                l(3) =   1
                l(4) =   1
     Q(r) pseudized with 0 coefficients 


     PseudoPot. # 3 for S  read from file:
     /shared/home/as3359/pseudo/S.pbesol-nl-kjpaw_psl.1.0.0.UPF
     MD5 check sum: bf3db50ec3f960682bbc396f1aadd1dd
     Pseudo is Projector augmented-wave + core cor, Zval =  6.0
     Generated using &quot;atomic&quot; code by A. Dal Corso  v.6.3
     Shape of augmentation charge: PSQ
     Using radial grid of 1151 points,  4 beta functions with: 
                l(1) =   0
                l(2) =   0
                l(3) =   1
                l(4) =   1
     Q(r) pseudized with 0 coefficients 


     atomic species   valence    mass     pseudopotential
        Ta            27.00   180.94788     Ta( 1.00)
        C              4.00    12.01070     C ( 1.00)
        S              6.00    32.06500     S ( 1.00)

     No symmetry found



   Cartesian axes

     site n.     atom                  positions (alat units)
         1           C   tau(   1) = (   0.0001541   0.0001295  -0.0002665  )
         2           Ta  tau(   2) = (   0.5365170   0.3085634  -0.3899267  )
         3           Ta  tau(   3) = (   0.0012366   0.6192060   0.4285633  )
         4           S   tau(   4) = (   0.5351086   0.3081437   0.9859537  )

     number of k points=   113  Marzari-Vanderbilt smearing, width (Ry)=  0.0010

     Number of k-points >= 100: set verbosity='high' to print them.

     Dense  grid:   530907 G-vectors     FFT dimensions: (  54,  54, 480)

     Smooth grid:   421543 G-vectors     FFT dimensions: (  48,  48, 450)

     Estimated max dynamical RAM per process >       2.36 GB

     Estimated total dynamical RAM >       4.72 GB

     The potential is recalculated from file :
     /scratch/as3359/Ta2CH_bandsdos/Ta.save/charge-density


     negative rho (up, down):  6.495E-05 0.000E+00
     Starting wfcs are   42 randomized atomic wfcs
     Checking if some PAW data can be deallocated... 

     Band Structure Calculation
     Davidson diagonalization with overlap

     ethr =  1.00E-13,  avg # of iterations = 58.1

     total cpu time spent up to now is      893.3 secs

     End of band structure calculation

     Number of k-points >= 100: set verbosity='high' to print the bands.

     the Fermi energy is     0.2738 ev
     (compare with:     0.2738 eV, computed in scf)

     Writing output data file /scratch/as3359/Ta2CH_bandsdos/Ta.save/
 
     init_run     :     12.10s CPU      8.58s WALL (       1 calls)
     electrons    :   1744.08s CPU    884.26s WALL (       1 calls)

     Called by init_run:
     wfcinit      :      0.00s CPU      0.00s WALL (       1 calls)
     potinit      :      0.56s CPU      0.34s WALL (       1 calls)
     hinit0       :      8.89s CPU      6.53s WALL (       1 calls)

     Called by electrons:
     c_bands      :   1744.08s CPU    884.26s WALL (       1 calls)
     v_of_rho     :      0.40s CPU      0.23s WALL (       1 calls)
     newd         :      2.07s CPU      1.31s WALL (       1 calls)
     PAW_pot      :      0.03s CPU      0.02s WALL (       1 calls)

     Called by c_bands:
     init_us_2    :      1.55s CPU      0.78s WALL (     113 calls)
     cegterg      :   1675.84s CPU    848.51s WALL (     362 calls)

     Called by *egterg:
     cdiaghg      :     20.15s CPU     10.30s WALL (    6677 calls)
     h_psi        :   1288.28s CPU    653.62s WALL (    7039 calls)
     s_psi        :     67.96s CPU     34.01s WALL (    7039 calls)
     g_psi        :     11.81s CPU      5.92s WALL (    6564 calls)

     Called by h_psi:
     h_psi:calbec :     51.39s CPU     25.74s WALL (    7039 calls)
     vloc_psi     :   1156.01s CPU    586.82s WALL (    7039 calls)
     add_vuspsi   :     72.01s CPU     36.04s WALL (    7039 calls)

     General routines
     calbec       :     51.33s CPU     25.72s WALL (    7039 calls)
     fft          :      0.20s CPU      0.11s WALL (      13 calls)
     ffts         :      0.01s CPU      0.01s WALL (       1 calls)
     fftw         :    977.40s CPU    497.00s WALL (  273094 calls)
     interpolate  :      0.04s CPU      0.02s WALL (       1 calls)
     davcio       :      1.40s CPU      1.47s WALL (     226 calls)
 
     Parallel routines
 
     PWSCF        :  29m26.20s CPU  15m 2.10s WALL

 
   This run was terminated on:   8:36: 9  22Apr2022            

=------------------------------------------------------------------------------=
   JOB DONE.
=------------------------------------------------------------------------------=
