
     Program PWSCF v.6.8 starts on 22Apr2022 at  7:49:39 

     This program is part of the open-source Quantum ESPRESSO suite
     for quantum simulation of materials; please cite
         "P. Giannozzi et al., J. Phys.:Condens. Matter 21 395502 (2009);
         "P. Giannozzi et al., J. Phys.:Condens. Matter 29 465901 (2017);
         "P. Giannozzi et al., J. Chem. Phys. 152 154105 (2020);
          URL http://www.quantum-espresso.org", 
     in publications or presentations arising from this work. More details at
     http://www.quantum-espresso.org/quote

     Parallel version (MPI & OpenMP), running on       4 processor cores
     Number of MPI processes:                 2
     Threads/MPI process:                     2

     MPI processes distributed on     1 nodes
     R & G space division:  proc/nbgrp/npool/nimage =       2
     125136 MiB available memory on the printing compute node when the environment starts
 
     Reading input from Ta2CS.scf.in

     Current dimensions of program PWSCF are:
     Max number of different atomic species (ntypx) = 10
     Max number of k-points (npk) =  40000
     Max angular momentum in pseudopotentials (lmaxx) =  4
     file Ta.pbesol-spfn-rrkjus_psl.1.0.0.UPF: wavefunction(s)  5S 5P renormalized
     file S.pbesol-nl-kjpaw_psl.1.0.0.UPF: wavefunction(s)  3S renormalized

     Subspace diagonalization in iterative solution of the eigenvalue problem:
     a serial algorithm will be used

 
     Parallelization info
     --------------------
     sticks:   dense  smooth     PW     G-vecs:    dense   smooth      PW
     Min         856     735    216               265452   210771   33349
     Max         857     736    217               265455   210772   33356
     Sum        1713    1471    433               530907   421543   66705
 
     Using Slab Decomposition
 


     bravais-lattice index     =            0
     lattice parameter (alat)  =       5.5500  a.u.
     unit-cell volume          =    1699.0018 (a.u.)^3
     number of atoms/cell      =            4
     number of atomic types    =            3
     number of electrons       =        64.00
     number of Kohn-Sham states=           38
     kinetic-energy cutoff     =     150.0000  Ry
     charge density cutoff     =     700.0000  Ry
     scf convergence threshold =      1.0E-12
     mixing beta               =       0.7000
     number of iterations used =            8  plain     mixing
     Exchange-correlation= SLA  PW   PSX  PSC
                           (   1   4  10   8   0   0   0)

     celldm(1)=   5.550000  celldm(2)=   0.000000  celldm(3)=   0.000000
     celldm(4)=   0.000000  celldm(5)=   0.000000  celldm(6)=   0.000000

     crystal axes: (cart. coord. in units of alat)
               a(1) = (   1.070291  -0.003288   0.000000 )  
               a(2) = (  -0.533526   0.930205   0.000000 )  
               a(3) = (   0.000000   0.000000  10.000000 )  

     reciprocal axes: (cart. coord. in units 2 pi/alat)
               b(1) = (  0.935974  0.536835  0.000000 )  
               b(2) = (  0.003308  1.076929  0.000000 )  
               b(3) = (  0.000000  0.000000  0.100000 )  


     PseudoPot. # 1 for Ta read from file:
     /shared/home/as3359/pseudo/Ta.pbesol-spfn-rrkjus_psl.1.0.0.UPF
     MD5 check sum: f099565ffaca9b150a52e9412a28e20b
     Pseudo is Ultrasoft + core correction, Zval = 27.0
     Generated using &quot;atomic&quot; code by A. Dal Corso  v.6.3
     Using radial grid of 1273 points,  8 beta functions with: 
                l(1) =   0
                l(2) =   0
                l(3) =   1
                l(4) =   1
                l(5) =   2
                l(6) =   2
                l(7) =   3
                l(8) =   3
     Q(r) pseudized with 0 coefficients 


     PseudoPot. # 2 for C  read from file:
     /shared/home/as3359/pseudo/C.pbesol-n-rrkjus_psl.1.0.0.UPF
     MD5 check sum: 05995be603a8a7c99da3dc4413f31573
     Pseudo is Ultrasoft + core correction, Zval =  4.0
     Generated using &quot;atomic&quot; code by A. Dal Corso  v.6.3MaX
     Using radial grid of 1073 points,  4 beta functions with: 
                l(1) =   0
                l(2) =   0
                l(3) =   1
                l(4) =   1
     Q(r) pseudized with 0 coefficients 


     PseudoPot. # 3 for S  read from file:
     /shared/home/as3359/pseudo/S.pbesol-nl-kjpaw_psl.1.0.0.UPF
     MD5 check sum: bf3db50ec3f960682bbc396f1aadd1dd
     Pseudo is Projector augmented-wave + core cor, Zval =  6.0
     Generated using &quot;atomic&quot; code by A. Dal Corso  v.6.3
     Shape of augmentation charge: PSQ
     Using radial grid of 1151 points,  4 beta functions with: 
                l(1) =   0
                l(2) =   0
                l(3) =   1
                l(4) =   1
     Q(r) pseudized with 0 coefficients 


     atomic species   valence    mass     pseudopotential
        Ta            27.00   180.94788     Ta( 1.00)
        C              4.00    12.01070     C ( 1.00)
        S              6.00    32.06500     S ( 1.00)

     No symmetry found



   Cartesian axes

     site n.     atom                  positions (alat units)
         1           C   tau(   1) = (   0.0001541   0.0001295  -0.0002665  )
         2           Ta  tau(   2) = (   0.5365170   0.3085634  -0.3899267  )
         3           Ta  tau(   3) = (   0.0012366   0.6192060   0.4285633  )
         4           S   tau(   4) = (   0.5351086   0.3081437   0.9859537  )

     number of k points=   113  Marzari-Vanderbilt smearing, width (Ry)=  0.0010

     Number of k-points >= 100: set verbosity='high' to print them.

     Dense  grid:   530907 G-vectors     FFT dimensions: (  54,  54, 480)

     Smooth grid:   421543 G-vectors     FFT dimensions: (  48,  48, 450)

     Estimated max dynamical RAM per process >       4.22 GB

     Estimated total dynamical RAM >       8.44 GB

     Initial potential from superposition of free atoms

     starting charge   63.99838, renormalised to   64.00000

     negative rho (up, down):  5.051E-05 0.000E+00
     Starting wfcs are   42 randomized atomic wfcs
     Checking if some PAW data can be deallocated... 

     total cpu time spent up to now is       41.7 secs

     Self-consistent Calculation

     iteration #  1     ecut=   150.00 Ry     beta= 0.70
     Davidson diagonalization with overlap
     ethr =  1.00E-02,  avg # of iterations =  2.3

     negative rho (up, down):  7.183E-06 0.000E+00

     total cpu time spent up to now is      118.2 secs

     total energy              =   -1437.73191370 Ry
     estimated scf accuracy    <       1.17661894 Ry

     iteration #  2     ecut=   150.00 Ry     beta= 0.70
     Davidson diagonalization with overlap
     ethr =  1.84E-03,  avg # of iterations = 10.9

     negative rho (up, down):  2.565E-06 0.000E+00

     total cpu time spent up to now is      249.2 secs

     total energy              =   -1432.44402213 Ry
     estimated scf accuracy    <     103.05081275 Ry

     iteration #  3     ecut=   150.00 Ry     beta= 0.70
     Davidson diagonalization with overlap
     ethr =  1.84E-03,  avg # of iterations =  9.0

     negative rho (up, down):  1.367E-06 0.000E+00

     total cpu time spent up to now is      375.5 secs

     total energy              =   -1437.13017386 Ry
     estimated scf accuracy    <      20.23713751 Ry

     iteration #  4     ecut=   150.00 Ry     beta= 0.70
     Davidson diagonalization with overlap
     ethr =  1.84E-03,  avg # of iterations =  7.0

     negative rho (up, down):  1.367E-06 0.000E+00

     total cpu time spent up to now is      473.8 secs

     total energy              =   -1438.40446358 Ry
     estimated scf accuracy    <       1.09272630 Ry

     iteration #  5     ecut=   150.00 Ry     beta= 0.70
     Davidson diagonalization with overlap
     ethr =  1.71E-03,  avg # of iterations =  2.0

     negative rho (up, down):  2.918E-06 0.000E+00

     total cpu time spent up to now is      545.0 secs

     total energy              =   -1438.48747893 Ry
     estimated scf accuracy    <       0.08250969 Ry

     iteration #  6     ecut=   150.00 Ry     beta= 0.70
     Davidson diagonalization with overlap
     ethr =  1.29E-04,  avg # of iterations =  3.9
     Minimization algorithm failed to find Fermi energy: reverting to bisection
     Possible cause: smearing is larger than the electronic band-gap.

     negative rho (up, down):  8.935E-06 0.000E+00

     total cpu time spent up to now is      624.3 secs

     total energy              =   -1438.48805615 Ry
     estimated scf accuracy    <       0.05551044 Ry

     iteration #  7     ecut=   150.00 Ry     beta= 0.70
     Davidson diagonalization with overlap
     ethr =  8.67E-05,  avg # of iterations =  1.3

     negative rho (up, down):  1.898E-05 0.000E+00

     total cpu time spent up to now is      691.0 secs

     total energy              =   -1438.48182518 Ry
     estimated scf accuracy    <       0.03069716 Ry

     iteration #  8     ecut=   150.00 Ry     beta= 0.70
     Davidson diagonalization with overlap
     ethr =  4.80E-05,  avg # of iterations =  2.2

     negative rho (up, down):  2.227E-05 0.000E+00

     total cpu time spent up to now is      761.9 secs

     total energy              =   -1438.48102654 Ry
     estimated scf accuracy    <       0.01411456 Ry

     iteration #  9     ecut=   150.00 Ry     beta= 0.70
     Davidson diagonalization with overlap
     ethr =  2.21E-05,  avg # of iterations =  1.2

     negative rho (up, down):  2.876E-05 0.000E+00

     total cpu time spent up to now is      828.3 secs

     total energy              =   -1438.47925628 Ry
     estimated scf accuracy    <       0.00891019 Ry

     iteration # 10     ecut=   150.00 Ry     beta= 0.70
     Davidson diagonalization with overlap
     ethr =  1.39E-05,  avg # of iterations =  2.2

     negative rho (up, down):  3.599E-05 0.000E+00

     total cpu time spent up to now is      899.2 secs

     total energy              =   -1438.47891069 Ry
     estimated scf accuracy    <       0.00273402 Ry

     iteration # 11     ecut=   150.00 Ry     beta= 0.70
     Davidson diagonalization with overlap
     ethr =  4.27E-06,  avg # of iterations =  5.0

     negative rho (up, down):  4.529E-05 0.000E+00

     total cpu time spent up to now is      978.5 secs

     total energy              =   -1438.47905183 Ry
     estimated scf accuracy    <       0.00027392 Ry

     iteration # 12     ecut=   150.00 Ry     beta= 0.70
     Davidson diagonalization with overlap
     ethr =  4.28E-07,  avg # of iterations =  2.6

     negative rho (up, down):  4.697E-05 0.000E+00

     total cpu time spent up to now is     1051.3 secs

     total energy              =   -1438.47907678 Ry
     estimated scf accuracy    <       0.00000727 Ry

     iteration # 13     ecut=   150.00 Ry     beta= 0.70
     Davidson diagonalization with overlap
     ethr =  1.14E-08,  avg # of iterations =  4.1

     negative rho (up, down):  5.769E-05 0.000E+00

     total cpu time spent up to now is     1140.3 secs

     total energy              =   -1438.47907944 Ry
     estimated scf accuracy    <       0.00000247 Ry

     iteration # 14     ecut=   150.00 Ry     beta= 0.70
     Davidson diagonalization with overlap
     ethr =  3.86E-09,  avg # of iterations =  3.0

     negative rho (up, down):  5.676E-05 0.000E+00

     total cpu time spent up to now is     1221.4 secs

     total energy              =   -1438.47907963 Ry
     estimated scf accuracy    <       0.00000353 Ry

     iteration # 15     ecut=   150.00 Ry     beta= 0.70
     Davidson diagonalization with overlap
     ethr =  3.86E-09,  avg # of iterations =  2.0

     negative rho (up, down):  6.084E-05 0.000E+00

     total cpu time spent up to now is     1292.4 secs

     total energy              =   -1438.47908003 Ry
     estimated scf accuracy    <       0.00000057 Ry

     iteration # 16     ecut=   150.00 Ry     beta= 0.70
     Davidson diagonalization with overlap
     ethr =  8.83E-10,  avg # of iterations =  2.0

     negative rho (up, down):  6.509E-05 0.000E+00

     total cpu time spent up to now is     1363.9 secs

     total energy              =   -1438.47908007 Ry
     estimated scf accuracy    <       0.00000022 Ry

     iteration # 17     ecut=   150.00 Ry     beta= 0.70
     Davidson diagonalization with overlap
     ethr =  3.37E-10,  avg # of iterations =  1.3

     negative rho (up, down):  6.485E-05 0.000E+00

     total cpu time spent up to now is     1430.6 secs

     total energy              =   -1438.47908009 Ry
     estimated scf accuracy    <          8.6E-09 Ry

     iteration # 18     ecut=   150.00 Ry     beta= 0.70
     Davidson diagonalization with overlap
     ethr =  1.35E-11,  avg # of iterations =  2.1

     negative rho (up, down):  6.500E-05 0.000E+00

     total cpu time spent up to now is     1506.2 secs

     total energy              =   -1438.47908010 Ry
     estimated scf accuracy    <          3.5E-10 Ry

     iteration # 19     ecut=   150.00 Ry     beta= 0.70
     Davidson diagonalization with overlap
     ethr =  5.53E-13,  avg # of iterations =  4.6

     negative rho (up, down):  6.494E-05 0.000E+00

     total cpu time spent up to now is     1598.7 secs

     total energy              =   -1438.47908009 Ry
     estimated scf accuracy    <          7.2E-11 Ry

     iteration # 20     ecut=   150.00 Ry     beta= 0.70
     Davidson diagonalization with overlap
     ethr =  1.12E-13,  avg # of iterations =  2.7

     negative rho (up, down):  6.495E-05 0.000E+00

     total cpu time spent up to now is     1678.4 secs

     total energy              =   -1438.47908009 Ry
     estimated scf accuracy    <          2.2E-11 Ry

     iteration # 21     ecut=   150.00 Ry     beta= 0.70
     Davidson diagonalization with overlap
     ethr =  1.00E-13,  avg # of iterations =  1.0

     negative rho (up, down):  6.495E-05 0.000E+00

     total cpu time spent up to now is     1743.2 secs

     total energy              =   -1438.47908010 Ry
     estimated scf accuracy    <          2.5E-12 Ry

     iteration # 22     ecut=   150.00 Ry     beta= 0.70
     Davidson diagonalization with overlap
     ethr =  1.00E-13,  avg # of iterations =  1.0

     negative rho (up, down):  6.495E-05 0.000E+00

     total cpu time spent up to now is     1807.9 secs

     End of self-consistent calculation

     Number of k-points >= 100: set verbosity='high' to print the bands.

     the Fermi energy is     0.2738 ev

!    total energy              =   -1438.47908010 Ry
     estimated scf accuracy    <          2.2E-13 Ry
     smearing contrib. (-TS)   =      -0.00000511 Ry
     internal energy E=F+TS    =   -1438.47907498 Ry

     The total energy is F=E-TS. E is the sum of the following terms:
     one-electron contribution =  -11692.89319922 Ry
     hartree contribution      =    5877.46994499 Ry
     xc contribution           =    -143.95789541 Ry
     ewald contribution        =    4565.78312073 Ry
     one-center paw contrib.   =     -44.88104608 Ry

     convergence has been achieved in  22 iterations

     negative rho (up, down):  6.495E-05 0.000E+00

     Forces acting on atoms (cartesian axes, Ry/au):

     atom    1 type  2   force =     0.00007165    0.00018585    0.00029069
     atom    2 type  1   force =    -0.00048594   -0.00034507    0.00070101
     atom    3 type  1   force =     0.00082806    0.00123433   -0.00017322
     atom    4 type  3   force =    -0.00041377   -0.00107511   -0.00081848

     Total force =     0.002282     Total SCF correction =     0.000003


     Computing stress (Cartesian axis) and pressure


     negative rho (up, down):  6.495E-05 0.000E+00
          total   stress  (Ry/bohr**3)                   (kbar)     P=        0.92
   0.00001335  -0.00000004   0.00000045            1.96       -0.01        0.07
  -0.00000004   0.00000977  -0.00000130           -0.01        1.44       -0.19
   0.00000045  -0.00000130  -0.00000446            0.07       -0.19       -0.66


     Writing output data file /scratch/as3359/Ta2CH_bandsdos/Ta.save/
 
     init_run     :     75.47s CPU     40.97s WALL (       1 calls)
     electrons    :   3468.05s CPU   1766.48s WALL (       1 calls)
     forces       :     24.14s CPU     12.42s WALL (       1 calls)
     stress       :    111.79s CPU     57.22s WALL (       1 calls)

     Called by init_run:
     wfcinit      :     59.58s CPU     30.46s WALL (       1 calls)
     potinit      :      4.37s CPU      2.22s WALL (       1 calls)
     hinit0       :      8.92s CPU      6.58s WALL (       1 calls)

     Called by electrons:
     c_bands      :   2847.95s CPU   1440.12s WALL (      22 calls)
     sum_band     :    559.21s CPU    288.95s WALL (      22 calls)
     v_of_rho     :      9.28s CPU      5.22s WALL (      23 calls)
     newd         :     47.90s CPU     30.26s WALL (      23 calls)
     PAW_pot      :      0.81s CPU      0.41s WALL (      23 calls)
     mix_rho      :      3.77s CPU      2.05s WALL (      22 calls)

     Called by c_bands:
     init_us_2    :     72.60s CPU     36.33s WALL (    5311 calls)
     cegterg      :   2627.83s CPU   1329.28s WALL (    2486 calls)

     Called by *egterg:
     cdiaghg      :     25.99s CPU     13.29s WALL (   10790 calls)
     h_psi        :   2119.36s CPU   1074.53s WALL (   10903 calls)
     s_psi        :    111.17s CPU     55.63s WALL (   10903 calls)
     g_psi        :     13.45s CPU      6.75s WALL (    8304 calls)

     Called by h_psi:
     h_psi:calbec :     86.55s CPU     43.38s WALL (   10903 calls)
     vloc_psi     :   1899.45s CPU    964.31s WALL (   10903 calls)
     add_vuspsi   :    117.72s CPU     58.91s WALL (   10903 calls)

     General routines
     calbec       :    122.93s CPU     61.63s WALL (   13954 calls)
     fft          :     10.03s CPU      5.29s WALL (     322 calls)
     ffts         :      0.55s CPU      0.29s WALL (      45 calls)
     fftw         :   1942.38s CPU    987.73s WALL (  559618 calls)
     interpolate  :      0.93s CPU      0.48s WALL (      23 calls)
 
     Parallel routines
 
     PWSCF        :      1h 1m CPU  31m26.61s WALL

 
   This run was terminated on:   8:21: 5  22Apr2022            

=------------------------------------------------------------------------------=
   JOB DONE.
=------------------------------------------------------------------------------=
