
     Program PWSCF v.6.8 starts on  6Apr2022 at  9:48:14 

     This program is part of the open-source Quantum ESPRESSO suite
     for quantum simulation of materials; please cite
         "P. Giannozzi et al., J. Phys.:Condens. Matter 21 395502 (2009);
         "P. Giannozzi et al., J. Phys.:Condens. Matter 29 465901 (2017);
         "P. Giannozzi et al., J. Chem. Phys. 152 154105 (2020);
          URL http://www.quantum-espresso.org", 
     in publications or presentations arising from this work. More details at
     http://www.quantum-espresso.org/quote

     Parallel version (MPI & OpenMP), running on       4 processor cores
     Number of MPI processes:                 2
     Threads/MPI process:                     2

     MPI processes distributed on     1 nodes
     R & G space division:  proc/nbgrp/npool/nimage =       2
     125273 MiB available memory on the printing compute node when the environment starts
 
     Reading input from Ta2C.vcrelax.in

     Current dimensions of program PWSCF are:
     Max number of different atomic species (ntypx) = 10
     Max number of k-points (npk) =  40000
     Max angular momentum in pseudopotentials (lmaxx) =  4
     file Ta.pbesol-spfn-rrkjus_psl.1.0.0.UPF: wavefunction(s)  5S 5P renormalized

     Subspace diagonalization in iterative solution of the eigenvalue problem:
     a serial algorithm will be used

 
     Parallelization info
     --------------------
     sticks:   dense  smooth     PW     G-vecs:    dense   smooth      PW
     Min         342     225     69                70259    38139    6387
     Max         343     226     70                70266    38160    6404
     Sum         685     451    139               140525    76299   12791
 
     Using Slab Decomposition
 


     bravais-lattice index     =            0
     lattice parameter (alat)  =       5.5500  a.u.
     unit-cell volume          =    1602.9280 (a.u.)^3
     number of atoms/cell      =            3
     number of atomic types    =            2
     number of electrons       =        58.00
     number of Kohn-Sham states=           35
     kinetic-energy cutoff     =      50.0000  Ry
     charge density cutoff     =     300.0000  Ry
     scf convergence threshold =      1.0E-12
     mixing beta               =       0.7000
     number of iterations used =            8  plain     mixing
     energy convergence thresh.=      1.0E-04
     force convergence thresh. =      1.0E-03
     press convergence thresh. =      5.0E-01
     Exchange-correlation= PBESOL
                           (   1   4  10   8   0   0   0)
     nstep                     =           50


     celldm(1)=   5.550000  celldm(2)=   0.000000  celldm(3)=   0.000000
     celldm(4)=   0.000000  celldm(5)=   0.000000  celldm(6)=   0.000000

     crystal axes: (cart. coord. in units of alat)
               a(1) = (   1.040524   0.000000   0.000000 )  
               a(2) = (  -0.520262   0.901120   0.000000 )  
               a(3) = (   0.000000   0.000000  10.000000 )  

     reciprocal axes: (cart. coord. in units 2 pi/alat)
               b(1) = (  0.961054  0.554865  0.000000 )  
               b(2) = (  0.000000  1.109730  0.000000 )  
               b(3) = (  0.000000  0.000000  0.100000 )  


     PseudoPot. # 1 for Ta read from file:
     /shared/home/as3359/pseudo/Ta.pbesol-spfn-rrkjus_psl.1.0.0.UPF
     MD5 check sum: f099565ffaca9b150a52e9412a28e20b
     Pseudo is Ultrasoft + core correction, Zval = 27.0
     Generated using &quot;atomic&quot; code by A. Dal Corso  v.6.3
     Using radial grid of 1273 points,  8 beta functions with: 
                l(1) =   0
                l(2) =   0
                l(3) =   1
                l(4) =   1
                l(5) =   2
                l(6) =   2
                l(7) =   3
                l(8) =   3
     Q(r) pseudized with 0 coefficients 


     PseudoPot. # 2 for C  read from file:
     /shared/home/as3359/pseudo/C.pbesol-n-rrkjus_psl.1.0.0.UPF
     MD5 check sum: 05995be603a8a7c99da3dc4413f31573
     Pseudo is Ultrasoft + core correction, Zval =  4.0
     Generated using &quot;atomic&quot; code by A. Dal Corso  v.6.3MaX
     Using radial grid of 1073 points,  4 beta functions with: 
                l(1) =   0
                l(2) =   0
                l(3) =   1
                l(4) =   1
     Q(r) pseudized with 0 coefficients 


     atomic species   valence    mass     pseudopotential
        Ta            27.00   180.94788     Ta( 1.00)
        C              4.00    12.01070     C ( 1.00)

     No symmetry found



   Cartesian axes

     site n.     atom                  positions (alat units)
         1           C   tau(   1) = (   0.0000000   0.0000000   0.0000000  )
         2           Ta  tau(   2) = (   0.3850724   0.2706727  -0.4102757  )
         3           Ta  tau(   3) = (  -0.3125459   0.5413454   0.4102757  )

     number of k points=    74  Marzari-Vanderbilt smearing, width (Ry)=  0.0010
                       cart. coord. in units 2pi/alat
        k(    1) = (   0.0000000   0.0000000   0.0000000), wk =   0.0138889
        k(    2) = (   0.0000000   0.0924775   0.0000000), wk =   0.0277778
        k(    3) = (   0.0000000   0.1849549   0.0000000), wk =   0.0277778
        k(    4) = (   0.0000000   0.2774324   0.0000000), wk =   0.0277778
        k(    5) = (   0.0000000   0.3699099   0.0000000), wk =   0.0277778
        k(    6) = (   0.0000000   0.4623873   0.0000000), wk =   0.0277778
        k(    7) = (   0.0000000  -0.5548648   0.0000000), wk =   0.0138889
        k(    8) = (   0.0800878   0.1387162   0.0000000), wk =   0.0277778
        k(    9) = (   0.0800878   0.2311937   0.0000000), wk =   0.0277778
        k(   10) = (   0.0800878   0.3236711   0.0000000), wk =   0.0277778
        k(   11) = (   0.0800878   0.4161486   0.0000000), wk =   0.0277778
        k(   12) = (   0.0800878   0.5086261   0.0000000), wk =   0.0277778
        k(   13) = (   0.1601757   0.2774324   0.0000000), wk =   0.0277778
        k(   14) = (   0.1601757   0.3699099   0.0000000), wk =   0.0277778
        k(   15) = (   0.1601757   0.4623873   0.0000000), wk =   0.0277778
        k(   16) = (   0.1601757   0.5548648   0.0000000), wk =   0.0277778
        k(   17) = (   0.2402635   0.4161486   0.0000000), wk =   0.0277778
        k(   18) = (   0.2402635   0.5086261   0.0000000), wk =   0.0277778
        k(   19) = (   0.3203513   0.5548648   0.0000000), wk =   0.0277778
        k(   20) = (  -0.0800878   0.0462387   0.0000000), wk =   0.0277778
        k(   21) = (   0.0800878   0.0462387   0.0000000), wk =   0.0277778
        k(   22) = (  -0.1601757   0.0924775   0.0000000), wk =   0.0277778
        k(   23) = (   0.1601757   0.0924775   0.0000000), wk =   0.0277778
        k(   24) = (  -0.2402635   0.1387162   0.0000000), wk =   0.0277778
        k(   25) = (   0.2402635   0.1387162   0.0000000), wk =   0.0277778
        k(   26) = (  -0.3203513   0.1849549   0.0000000), wk =   0.0277778
        k(   27) = (   0.3203513   0.1849549   0.0000000), wk =   0.0277778
        k(   28) = (  -0.4004392   0.2311937   0.0000000), wk =   0.0277778
        k(   29) = (   0.4004392   0.2311937   0.0000000), wk =   0.0277778
        k(   30) = (   0.4805270  -0.2774324   0.0000000), wk =   0.0138889
        k(   31) = (  -0.4805270  -0.2774324   0.0000000), wk =   0.0138889
        k(   32) = (  -0.0800878   0.1387162   0.0000000), wk =   0.0277778
        k(   33) = (   0.1601757  -0.0000000   0.0000000), wk =   0.0277778
        k(   34) = (  -0.0800878   0.2311937   0.0000000), wk =   0.0277778
        k(   35) = (  -0.1601757   0.1849549   0.0000000), wk =   0.0277778
        k(   36) = (   0.2402635   0.0462387   0.0000000), wk =   0.0277778
        k(   37) = (  -0.1601757  -0.1849549   0.0000000), wk =   0.0277778
        k(   38) = (   0.2402635  -0.0462387   0.0000000), wk =   0.0277778
        k(   39) = (  -0.0800878   0.3236711   0.0000000), wk =   0.0277778
        k(   40) = (  -0.2402635   0.2311937   0.0000000), wk =   0.0277778
        k(   41) = (   0.3203513   0.0924775   0.0000000), wk =   0.0277778
        k(   42) = (  -0.2402635  -0.2311937   0.0000000), wk =   0.0277778
        k(   43) = (   0.3203513  -0.0924775   0.0000000), wk =   0.0277778
        k(   44) = (  -0.0800878   0.4161486   0.0000000), wk =   0.0277778
        k(   45) = (  -0.3203513   0.2774324   0.0000000), wk =   0.0277778
        k(   46) = (   0.4004392   0.1387162   0.0000000), wk =   0.0277778
        k(   47) = (  -0.3203513  -0.2774324   0.0000000), wk =   0.0277778
        k(   48) = (   0.4004392  -0.1387162   0.0000000), wk =   0.0277778
        k(   49) = (  -0.0800878   0.5086261   0.0000000), wk =   0.0277778
        k(   50) = (  -0.4004392   0.3236711   0.0000000), wk =   0.0277778
        k(   51) = (   0.4805270   0.1849549   0.0000000), wk =   0.0277778
        k(   52) = (  -0.4004392  -0.3236711   0.0000000), wk =   0.0277778
        k(   53) = (   0.4805270  -0.1849549   0.0000000), wk =   0.0277778
        k(   54) = (  -0.1601757   0.2774324   0.0000000), wk =   0.0277778
        k(   55) = (   0.3203513  -0.0000000   0.0000000), wk =   0.0277778
        k(   56) = (  -0.1601757   0.3699099   0.0000000), wk =   0.0277778
        k(   57) = (  -0.2402635   0.3236711   0.0000000), wk =   0.0277778
        k(   58) = (   0.4004392   0.0462387   0.0000000), wk =   0.0277778
        k(   59) = (  -0.2402635  -0.3236711   0.0000000), wk =   0.0277778
        k(   60) = (   0.4004392  -0.0462387   0.0000000), wk =   0.0277778
        k(   61) = (  -0.1601757   0.4623873   0.0000000), wk =   0.0277778
        k(   62) = (  -0.3203513   0.3699099   0.0000000), wk =   0.0277778
        k(   63) = (   0.4805270   0.0924775   0.0000000), wk =   0.0277778
        k(   64) = (  -0.3203513  -0.3699099   0.0000000), wk =   0.0277778
        k(   65) = (   0.4805270  -0.0924775   0.0000000), wk =   0.0277778
        k(   66) = (  -0.4004392   0.4161486   0.0000000), wk =   0.0277778
        k(   67) = (   0.5606148   0.1387162   0.0000000), wk =   0.0277778
        k(   68) = (  -0.2402635   0.4161486   0.0000000), wk =   0.0277778
        k(   69) = (   0.4805270  -0.0000000   0.0000000), wk =   0.0277778
        k(   70) = (  -0.2402635   0.5086261   0.0000000), wk =   0.0277778
        k(   71) = (  -0.3203513   0.4623873   0.0000000), wk =   0.0277778
        k(   72) = (   0.5606148   0.0462387   0.0000000), wk =   0.0277778
        k(   73) = (  -0.3203513  -0.4623873   0.0000000), wk =   0.0277778
        k(   74) = (   0.5606148  -0.0462387   0.0000000), wk =   0.0277778

     Dense  grid:   140525 G-vectors     FFT dimensions: (  32,  32, 320)

     Smooth grid:    76299 G-vectors     FFT dimensions: (  25,  25, 250)

     Estimated max dynamical RAM per process >     876.57 MB

     Estimated total dynamical RAM >       1.71 GB

     Check: negative core charge=   -0.000001

     Initial potential from superposition of free atoms

     starting charge   57.99842, renormalised to   58.00000

     negative rho (up, down):  8.374E-04 0.000E+00
     Starting wfcs are   38 randomized atomic wfcs

     total cpu time spent up to now is        8.0 secs

     Self-consistent Calculation

     iteration #  1     ecut=    50.00 Ry     beta= 0.70
     Davidson diagonalization with overlap
     ethr =  1.00E-02,  avg # of iterations =  2.3

     negative rho (up, down):  7.973E-04 0.000E+00

     total cpu time spent up to now is       15.5 secs

     total energy              =   -1371.80174466 Ry
     estimated scf accuracy    <       1.89071228 Ry

     iteration #  2     ecut=    50.00 Ry     beta= 0.70
     Davidson diagonalization with overlap
     ethr =  3.26E-03,  avg # of iterations = 10.4

     total cpu time spent up to now is       27.9 secs

     total energy              =   -1366.98794117 Ry
     estimated scf accuracy    <      57.43204007 Ry

     iteration #  3     ecut=    50.00 Ry     beta= 0.70
     Davidson diagonalization with overlap
     ethr =  3.26E-03,  avg # of iterations =  7.9

     total cpu time spent up to now is       38.4 secs

     total energy              =   -1371.36433580 Ry
     estimated scf accuracy    <      15.29341956 Ry

     iteration #  4     ecut=    50.00 Ry     beta= 0.70
     Davidson diagonalization with overlap
     ethr =  3.26E-03,  avg # of iterations =  5.2

     total cpu time spent up to now is       46.8 secs

     total energy              =   -1372.33772060 Ry
     estimated scf accuracy    <      16.03295396 Ry

     iteration #  5     ecut=    50.00 Ry     beta= 0.70
     Davidson diagonalization with overlap
     ethr =  3.26E-03,  avg # of iterations =  2.5

     total cpu time spent up to now is       53.9 secs

     total energy              =   -1373.00072912 Ry
     estimated scf accuracy    <       0.14946097 Ry

     iteration #  6     ecut=    50.00 Ry     beta= 0.70
     Davidson diagonalization with overlap
     ethr =  2.58E-04,  avg # of iterations =  5.2

     total cpu time spent up to now is       61.6 secs

     WARNING: integrated charge=    58.00088303, expected=    58.00000000

     total energy              =   -1372.99284526 Ry
     estimated scf accuracy    <       0.09442511 Ry

     iteration #  7     ecut=    50.00 Ry     beta= 0.70
     Davidson diagonalization with overlap
     ethr =  1.63E-04,  avg # of iterations =  1.1

     total cpu time spent up to now is       67.9 secs

     WARNING: integrated charge=    58.00055170, expected=    58.00000000

     total energy              =   -1372.98184617 Ry
     estimated scf accuracy    <       0.05848101 Ry

     iteration #  8     ecut=    50.00 Ry     beta= 0.70
     Davidson diagonalization with overlap
     ethr =  1.01E-04,  avg # of iterations =  1.3

     total cpu time spent up to now is       74.3 secs

     WARNING: integrated charge=    58.00013047, expected=    58.00000000

     total energy              =   -1372.97462578 Ry
     estimated scf accuracy    <       0.03504211 Ry

     iteration #  9     ecut=    50.00 Ry     beta= 0.70
     Davidson diagonalization with overlap
     ethr =  6.04E-05,  avg # of iterations =  1.4

     total cpu time spent up to now is       80.7 secs

     WARNING: integrated charge=    57.99978529, expected=    58.00000000

     total energy              =   -1372.96812081 Ry
     estimated scf accuracy    <       0.02088058 Ry

     iteration # 10     ecut=    50.00 Ry     beta= 0.70
     Davidson diagonalization with overlap
     ethr =  3.60E-05,  avg # of iterations =  1.8

     negative rho (up, down):  4.079E-07 0.000E+00

     total cpu time spent up to now is       87.4 secs

     WARNING: integrated charge=    57.99974288, expected=    58.00000000

     total energy              =   -1372.96377283 Ry
     estimated scf accuracy    <       0.00909093 Ry

     iteration # 11     ecut=    50.00 Ry     beta= 0.70
     Davidson diagonalization with overlap
     ethr =  1.57E-05,  avg # of iterations =  3.7

     negative rho (up, down):  7.603E-04 0.000E+00

     total cpu time spent up to now is       94.9 secs

     WARNING: integrated charge=    57.99995165, expected=    58.00000000

     total energy              =   -1372.96385076 Ry
     estimated scf accuracy    <       0.00097216 Ry

     iteration # 12     ecut=    50.00 Ry     beta= 0.70
     Davidson diagonalization with overlap
     ethr =  1.68E-06,  avg # of iterations =  5.7

     negative rho (up, down):  7.765E-04 0.000E+00

     total cpu time spent up to now is      103.2 secs

     WARNING: integrated charge=    57.99994062, expected=    58.00000000

     total energy              =   -1372.96391748 Ry
     estimated scf accuracy    <       0.00003623 Ry

     iteration # 13     ecut=    50.00 Ry     beta= 0.70
     Davidson diagonalization with overlap
     ethr =  6.25E-08,  avg # of iterations =  2.5

     negative rho (up, down):  7.998E-04 0.000E+00

     total cpu time spent up to now is      111.1 secs

     WARNING: integrated charge=    57.99999055, expected=    58.00000000

     total energy              =   -1372.96392636 Ry
     estimated scf accuracy    <       0.00000767 Ry

     iteration # 14     ecut=    50.00 Ry     beta= 0.70
     Davidson diagonalization with overlap
     ethr =  1.32E-08,  avg # of iterations =  2.0

     negative rho (up, down):  7.910E-04 0.000E+00

     total cpu time spent up to now is      119.1 secs

     WARNING: integrated charge=    57.99998428, expected=    58.00000000

     total energy              =   -1372.96392696 Ry
     estimated scf accuracy    <       0.00000513 Ry

     iteration # 15     ecut=    50.00 Ry     beta= 0.70
     Davidson diagonalization with overlap
     ethr =  8.85E-09,  avg # of iterations =  2.0

     negative rho (up, down):  8.144E-04 0.000E+00

     total cpu time spent up to now is      126.1 secs

     total energy              =   -1372.96392734 Ry
     estimated scf accuracy    <       0.00001328 Ry

     iteration # 16     ecut=    50.00 Ry     beta= 0.70
     Davidson diagonalization with overlap
     ethr =  8.85E-09,  avg # of iterations =  1.0

     negative rho (up, down):  8.179E-04 0.000E+00

     total cpu time spent up to now is      132.5 secs

     total energy              =   -1372.96392780 Ry
     estimated scf accuracy    <       0.00000010 Ry

     iteration # 17     ecut=    50.00 Ry     beta= 0.70
     Davidson diagonalization with overlap
     ethr =  1.71E-10,  avg # of iterations =  2.0

     negative rho (up, down):  8.191E-04 0.000E+00

     total cpu time spent up to now is      140.2 secs

     total energy              =   -1372.96392781 Ry
     estimated scf accuracy    <       0.00000001 Ry

     iteration # 18     ecut=    50.00 Ry     beta= 0.70
     Davidson diagonalization with overlap
     ethr =  2.03E-11,  avg # of iterations =  2.5

     negative rho (up, down):  8.202E-04 0.000E+00

     total cpu time spent up to now is      147.8 secs

     total energy              =   -1372.96392781 Ry
     estimated scf accuracy    <          9.2E-10 Ry

     iteration # 19     ecut=    50.00 Ry     beta= 0.70
     Davidson diagonalization with overlap
     ethr =  1.59E-12,  avg # of iterations =  3.5

     negative rho (up, down):  8.198E-04 0.000E+00

     total cpu time spent up to now is      155.6 secs

     total energy              =   -1372.96392781 Ry
     estimated scf accuracy    <          3.2E-10 Ry

     iteration # 20     ecut=    50.00 Ry     beta= 0.70
     Davidson diagonalization with overlap
     ethr =  5.48E-13,  avg # of iterations =  2.0

     negative rho (up, down):  8.199E-04 0.000E+00

     total cpu time spent up to now is      162.7 secs

     total energy              =   -1372.96392781 Ry
     estimated scf accuracy    <          2.8E-11 Ry

     iteration # 21     ecut=    50.00 Ry     beta= 0.70
     Davidson diagonalization with overlap
     ethr =  1.00E-13,  avg # of iterations =  2.0

     negative rho (up, down):  8.199E-04 0.000E+00

     total cpu time spent up to now is      169.9 secs

     total energy              =   -1372.96392781 Ry
     estimated scf accuracy    <          2.6E-12 Ry

     iteration # 22     ecut=    50.00 Ry     beta= 0.70
     Davidson diagonalization with overlap
     ethr =  1.00E-13,  avg # of iterations =  1.0

     negative rho (up, down):  8.199E-04 0.000E+00

     total cpu time spent up to now is      176.2 secs

     End of self-consistent calculation

          k = 0.0000 0.0000 0.0000 (  9701 PWs)   bands (ev):

   -67.8244 -67.6497 -35.0200 -34.3483 -34.1024 -33.9759 -33.9252 -33.7441
   -19.6789 -19.6637 -19.6487 -19.6463 -19.6331 -19.6217 -19.5731 -19.4960
   -19.4771 -19.4594 -19.4517 -19.4306 -19.4262 -19.3829 -12.5025  -7.3829
    -4.3836  -3.6002  -2.1139  -1.1695  -0.8711  -0.2733   0.1973   0.7112
     1.6901   3.0361   3.4715

          k = 0.0000 0.0925 0.0000 (  9645 PWs)   bands (ev):

   -67.8211 -67.6469 -35.0087 -34.3718 -34.1329 -34.0067 -33.9412 -33.7603
   -19.6773 -19.6637 -19.6488 -19.6463 -19.6316 -19.6211 -19.5757 -19.4945
   -19.4769 -19.4593 -19.4517 -19.4306 -19.4245 -19.3856 -12.3817  -7.1479
    -4.6289  -3.7164  -1.9678  -1.2529  -0.7068  -0.2821   0.2659   0.8495
     1.5229   2.9852   3.5376

          k = 0.0000 0.1850 0.0000 (  9611 PWs)   bands (ev):

   -67.8121 -67.6391 -34.9794 -34.4481 -34.2241 -34.0818 -33.9760 -33.7982
   -19.6732 -19.6649 -19.6491 -19.6455 -19.6291 -19.6179 -19.5828 -19.4907
   -19.4776 -19.4588 -19.4516 -19.4307 -19.4198 -19.3927 -12.0638  -6.5111
    -5.1554  -4.0212  -1.8241  -1.1697  -0.6715  -0.1033   0.5068   1.2291
     1.5165   2.9057   3.5696

          k = 0.0000 0.2774 0.0000 (  9623 PWs)   bands (ev):

   -67.7997 -67.6285 -34.9475 -34.5690 -34.3623 -34.1563 -34.0136 -33.8410
   -19.6690 -19.6666 -19.6503 -19.6428 -19.6277 -19.6114 -19.5918 -19.4867
   -19.4800 -19.4578 -19.4503 -19.4308 -19.4133 -19.4015 -11.6648  -5.9655
    -5.4587  -4.3049  -1.8995  -1.0185  -0.6072   0.3256   0.9593   1.6315
     2.0910   3.0491   3.5871

          k = 0.0000 0.3699 0.0000 (  9557 PWs)   bands (ev):

   -67.7874 -67.6178 -34.9450 -34.6770 -34.5040 -34.2104 -34.0461 -33.8780
   -19.6716 -19.6623 -19.6517 -19.6400 -19.6262 -19.6051 -19.5982 -19.4863
   -19.4809 -19.4574 -19.4471 -19.4304 -19.4119 -19.4036 -11.3183  -6.2964
    -5.2964  -4.1527  -1.6987  -0.9847  -0.2314   0.4987   1.5612   2.2751
     2.7193   3.5794   3.9944

          k = 0.0000 0.4624 0.0000 (  9546 PWs)   bands (ev):

   -67.7783 -67.6100 -34.9864 -34.7269 -34.5966 -34.2450 -34.0684 -33.9031
   -19.6742 -19.6591 -19.6529 -19.6387 -19.6244 -19.6070 -19.5953 -19.4888
   -19.4801 -19.4572 -19.4443 -19.4296 -19.4167 -19.3986 -11.1060  -6.5720
    -5.4329  -3.9870  -1.0953  -0.6598   0.0807   0.4420   1.8829   2.7948
     3.4568   4.3733   4.8007

          k = 0.0000-0.5549 0.0000 (  9494 PWs)   bands (ev):

   -67.7749 -67.6072 -35.0118 -34.7429 -34.6218 -34.2569 -34.0763 -33.9119
   -19.6750 -19.6580 -19.6533 -19.6383 -19.6234 -19.6083 -19.5932 -19.4898
   -19.4798 -19.4571 -19.4432 -19.4290 -19.4184 -19.3966 -11.0380  -6.6666
    -5.5021  -3.9772  -0.9635  -0.0398   0.0547   0.4153   1.8156   3.1761
     3.8460   4.6508   5.3144

          k = 0.0801 0.1387 0.0000 (  9629 PWs)   bands (ev):

   -67.8145 -67.6421 -34.9831 -34.4326 -34.1970 -34.0207 -33.9518 -33.8270
   -19.6749 -19.6639 -19.6485 -19.6445 -19.6311 -19.6183 -19.5809 -19.4941
   -19.4776 -19.4590 -19.4513 -19.4307 -19.4226 -19.3888 -12.1742  -6.7834
    -4.8172  -4.1495  -1.7754  -1.4553  -0.5423  -0.3233   0.4359   1.1967
     1.6015   3.1576   3.6725

          k = 0.0801 0.2312 0.0000 (  9638 PWs)   bands (ev):

   -67.8037 -67.6331 -34.9492 -34.5356 -34.3068 -34.0913 -33.9927 -33.8701
   -19.6708 -19.6656 -19.6493 -19.6417 -19.6298 -19.6131 -19.5891 -19.4902
   -19.4800 -19.4579 -19.4510 -19.4313 -19.4168 -19.3964 -11.8132  -6.1234
    -5.3052  -4.4278  -1.9240  -1.1869  -0.5721  -0.0407   0.9441   1.4895
     1.9916   3.1435   3.6883

          k = 0.0801 0.3237 0.0000 (  9596 PWs)   bands (ev):

   -67.7913 -67.6225 -34.9293 -34.6453 -34.4417 -34.1651 -34.0361 -33.9045
   -19.6698 -19.6649 -19.6506 -19.6387 -19.6281 -19.6065 -19.5971 -19.4862
   -19.4833 -19.4568 -19.4492 -19.4316 -19.4108 -19.4037 -11.4353  -6.0725
    -5.2965  -4.4401  -1.9642  -0.9545  -0.6247   0.5121   1.3496   1.9924
     2.6868   3.4011   3.9520

          k = 0.0801 0.4161 0.0000 (  9523 PWs)   bands (ev):

   -67.7808 -67.6131 -34.9539 -34.7091 -34.5553 -34.2264 -34.0689 -33.9270
   -19.6725 -19.6610 -19.6520 -19.6376 -19.6256 -19.6064 -19.5966 -19.4878
   -19.4819 -19.4564 -19.4463 -19.4312 -19.4137 -19.4009 -11.1561  -6.3893
    -5.3874  -4.0701  -1.5387  -0.9179  -0.2170   0.5895   1.8777   2.4430
     3.2845   4.0200   4.8313

          k = 0.0801 0.5086 0.0000 (  9518 PWs)   bands (ev):

   -67.7748 -67.6074 -34.9939 -34.7321 -34.6093 -34.2679 -34.0863 -33.9333
   -19.6745 -19.6583 -19.6529 -19.6379 -19.6242 -19.6092 -19.5931 -19.4895
   -19.4804 -19.4563 -19.4442 -19.4304 -19.4178 -19.3970 -11.0231  -6.5691
    -5.4788  -3.9491  -1.0817  -0.5852   0.1424   0.4125   2.1293   2.8501
     3.8329   4.6760   5.4603

          k = 0.1602 0.2774 0.0000 (  9599 PWs)   bands (ev):

   -67.7925 -67.6248 -34.9212 -34.6250 -34.3969 -34.1297 -34.0279 -33.9620
   -19.6705 -19.6653 -19.6494 -19.6366 -19.6302 -19.6060 -19.5970 -19.4907
   -19.4826 -19.4562 -19.4496 -19.4336 -19.4118 -19.4005 -11.4987  -5.9943
    -5.1504  -4.8473  -1.9636  -1.3030  -0.7367   0.4628   1.6439   1.9539
     2.6791   3.5291   4.1797

          k = 0.1602 0.3699 0.0000 (  9544 PWs)   bands (ev):

   -67.7819 -67.6154 -34.9252 -34.6864 -34.5041 -34.2121 -34.0766 -33.9819
   -19.6709 -19.6635 -19.6503 -19.6357 -19.6275 -19.6064 -19.5973 -19.4879
   -19.4843 -19.4549 -19.4481 -19.4342 -19.4104 -19.4026 -11.1892  -6.1481
    -5.3165  -4.4244  -1.7594  -1.0153  -0.7814   0.8226   1.6337   2.6052
     3.3521   3.9392   4.9773

          k = 0.1602 0.4624 0.0000 (  9521 PWs)   bands (ev):

   -67.7745 -67.6081 -34.9539 -34.7099 -34.5745 -34.2879 -34.1109 -33.9846
   -19.6729 -19.6603 -19.6512 -19.6364 -19.6259 -19.6107 -19.5927 -19.4888
   -19.4824 -19.4545 -19.4463 -19.4340 -19.4154 -19.3981 -10.9946  -6.3432
    -5.4745  -3.9762  -1.3820  -0.8654  -0.3941   0.5859   2.1829   2.8395
     3.7836   4.6787   5.7439

          k = 0.1602 0.5549 0.0000 (  9538 PWs)   bands (ev):

   -67.7722 -67.6049 -34.9712 -34.7117 -34.5939 -34.3403 -34.1241 -33.9683
   -19.6742 -19.6580 -19.6517 -19.6384 -19.6257 -19.6121 -19.5913 -19.4890
   -19.4808 -19.4548 -19.4451 -19.4330 -19.4186 -19.3959 -10.9392  -6.4178
    -5.4739  -3.8288  -1.2039  -0.6079  -0.1685   0.2923   2.6963   2.8991
     3.9600   4.9903   5.4985

          k = 0.2403 0.4161 0.0000 (  9502 PWs)   bands (ev):

   -67.7740 -67.6090 -34.9270 -34.6950 -34.5375 -34.2795 -34.1424 -34.0310
   -19.6714 -19.6633 -19.6499 -19.6335 -19.6275 -19.6116 -19.5918 -19.4892
   -19.4849 -19.4538 -19.4472 -19.4376 -19.4115 -19.3990 -10.9885  -6.2373
    -5.4811  -4.2712  -1.3317  -1.2405  -0.5614   0.9476   1.9496   3.0867
     3.9109   4.7226   5.9009

          k = 0.2403 0.5086 0.0000 (  9554 PWs)   bands (ev):

   -67.7702 -67.6043 -34.9307 -34.6958 -34.5642 -34.3733 -34.1754 -34.0147
   -19.6726 -19.6607 -19.6502 -19.6365 -19.6269 -19.6145 -19.5895 -19.4884
   -19.4831 -19.4540 -19.4460 -19.4374 -19.4160 -19.3960 -10.8722  -6.2862
    -5.5716  -3.8232  -1.2217  -0.7938  -0.4458   0.4265   2.5154   3.1074
     3.9820   4.9624   5.8995

          k = 0.3204 0.5549 0.0000 (  9546 PWs)   bands (ev):

   -67.7691 -67.6025 -34.9030 -34.6768 -34.5430 -34.4288 -34.2357 -34.0111
   -19.6719 -19.6616 -19.6505 -19.6396 -19.6249 -19.6156 -19.5879 -19.4878
   -19.4824 -19.4563 -19.4446 -19.4394 -19.4153 -19.3953 -10.8219  -6.3143
    -5.6223  -3.7858  -1.0527  -0.9428  -0.1840   0.2457   2.6994   3.0069
     3.9710   4.9769   5.8795

          k =-0.0801 0.0462 0.0000 (  9645 PWs)   bands (ev):

   -67.8213 -67.6468 -35.0115 -34.3550 -34.1219 -34.0185 -33.9547 -33.7579
   -19.6781 -19.6640 -19.6494 -19.6455 -19.6317 -19.6207 -19.5756 -19.4948
   -19.4770 -19.4592 -19.4508 -19.4308 -19.4248 -19.3856 -12.3861  -7.1815
    -4.5568  -3.7285  -2.0968  -1.1321  -0.8856  -0.2066   0.3675   0.6712
     1.6962   3.0311   3.6012

          k = 0.0801 0.0462 0.0000 (  9645 PWs)   bands (ev):

   -67.8210 -67.6471 -35.0073 -34.3706 -34.1327 -33.9900 -33.9353 -33.7816
   -19.6777 -19.6638 -19.6488 -19.6453 -19.6323 -19.6204 -19.5758 -19.4959
   -19.4772 -19.4592 -19.4510 -19.4303 -19.4256 -19.3846 -12.3906  -7.1971
    -4.4278  -3.9397  -1.9142  -1.4117  -0.6511  -0.4186   0.3233   0.8445
     1.7000   3.1715   3.6275

          k =-0.1602 0.0925 0.0000 (  9611 PWs)   bands (ev):

   -67.8128 -67.6387 -34.9899 -34.3801 -34.2048 -34.1037 -34.0320 -33.7894
   -19.6762 -19.6646 -19.6514 -19.6442 -19.6286 -19.6168 -19.5824 -19.4923
   -19.4762 -19.4592 -19.4487 -19.4320 -19.4204 -19.3928 -12.0798  -6.6685
    -4.9894  -4.0347  -1.9803  -1.2008  -0.8088   0.1203   0.5401   0.8282
     1.9377   3.0964   3.7351

          k = 0.1602 0.0925 0.0000 (  9611 PWs)   bands (ev):

   -67.8116 -67.6400 -34.9737 -34.4434 -34.2110 -34.0277 -33.9652 -33.8721
   -19.6752 -19.6639 -19.6491 -19.6426 -19.6314 -19.6158 -19.5831 -19.4958
   -19.4778 -19.4588 -19.4500 -19.4317 -19.4219 -19.3891 -12.0959  -6.7201
    -4.8817  -4.2251  -1.8154  -1.6471  -0.8790   0.0106   0.6365   1.3037
     1.9239   3.3644   3.9205

          k =-0.2403 0.1387 0.0000 (  9623 PWs)   bands (ev):

   -67.8012 -67.6276 -34.9666 -34.4430 -34.3502 -34.1835 -34.1070 -33.8245
   -19.6748 -19.6651 -19.6538 -19.6433 -19.6253 -19.6096 -19.5912 -19.4911
   -19.4743 -19.4598 -19.4459 -19.4339 -19.4135 -19.4015 -11.6937  -6.2518
    -5.3988  -4.2235  -1.8613  -1.2290  -0.6277   0.4914   0.8176   1.4157
     2.5524   3.3037   3.7630

          k = 0.2403 0.1387 0.0000 (  9623 PWs)   bands (ev):

   -67.7988 -67.6303 -34.9344 -34.5617 -34.3070 -34.0893 -34.0216 -33.9474
   -19.6737 -19.6639 -19.6499 -19.6391 -19.6299 -19.6078 -19.5926 -19.4962
   -19.4796 -19.4579 -19.4493 -19.4339 -19.4156 -19.3942 -11.7235  -6.2362
    -5.5437  -4.2745  -2.1698  -1.4370  -1.0100   0.7806   1.1958   2.0173
     2.4984   3.3947   4.3930

          k =-0.3204 0.1850 0.0000 (  9557 PWs)   bands (ev):

   -67.7895 -67.6165 -34.9581 -34.5600 -34.4632 -34.2505 -34.1525 -33.8543
   -19.6752 -19.6654 -19.6549 -19.6429 -19.6219 -19.6013 -19.5988 -19.4916
   -19.4714 -19.4610 -19.4425 -19.4361 -19.4090 -19.4050 -11.3533  -6.4514
    -5.5118  -4.1321  -1.6756  -0.8830  -0.4195   0.6348   1.3872   2.3294
     3.2907   3.7315   3.9388

          k = 0.3204 0.1850 0.0000 (  9557 PWs)   bands (ev):

   -67.7859 -67.6206 -34.9210 -34.6707 -34.4034 -34.1655 -34.0718 -33.9868
   -19.6740 -19.6641 -19.6510 -19.6350 -19.6268 -19.6020 -19.5981 -19.4972
   -19.4821 -19.4566 -19.4501 -19.4348 -19.4086 -19.3977 -11.3924  -6.3457
    -5.7376  -4.3343  -2.4435  -1.0263  -0.6315   1.6418   1.9653   2.6525
     3.1329   3.7627   4.8748

          k =-0.4004 0.2312 0.0000 (  9546 PWs)   bands (ev):

   -67.7810 -67.6083 -34.9713 -34.6602 -34.5267 -34.2884 -34.1789 -33.8739
   -19.6763 -19.6660 -19.6550 -19.6429 -19.6196 -19.6039 -19.5947 -19.4927
   -19.4694 -19.4626 -19.4399 -19.4380 -19.4120 -19.3995 -11.1382  -6.7490
    -5.6195  -4.0577  -1.4910  -0.2788  -0.0022   0.7447   1.7242   3.2240
     3.7698   4.2988   4.6383

          k = 0.4004 0.2312 0.0000 (  9546 PWs)   bands (ev):

   -67.7765 -67.6136 -34.9548 -34.7162 -34.4746 -34.2161 -34.1028 -34.0115
   -19.6751 -19.6646 -19.6522 -19.6315 -19.6239 -19.6075 -19.5918 -19.4983
   -19.4844 -19.4554 -19.4517 -19.4347 -19.4040 -19.3988 -11.1801  -6.6865
    -5.7317  -4.4148  -2.6643  -0.3530   0.0789   2.1227   2.6867   2.8275
     3.8249   4.7003   5.0356

          k = 0.4805-0.2774 0.0000 (  9494 PWs)   bands (ev):

   -67.7779 -67.6053 -34.9822 -34.6960 -34.5460 -34.3006 -34.1877 -33.8805
   -19.6768 -19.6663 -19.6548 -19.6428 -19.6187 -19.6052 -19.5923 -19.4931
   -19.4687 -19.4631 -19.4395 -19.4379 -19.4128 -19.3974 -11.0675  -6.8613
    -5.6716  -4.0530  -1.4651   0.0719   0.3273   0.6880   1.8743   3.6853
     3.9251   4.6809   4.9493

          k =-0.4805-0.2774 0.0000 (  9494 PWs)   bands (ev):

   -67.7730 -67.6110 -34.9785 -34.7248 -34.4984 -34.2322 -34.1138 -34.0205
   -19.6754 -19.6648 -19.6525 -19.6301 -19.6226 -19.6094 -19.5893 -19.4987
   -19.4851 -19.4549 -19.4523 -19.4345 -19.4029 -19.3983 -11.1092  -6.8129
    -5.7468  -4.4518  -2.7492  -0.0302   0.5563   2.0507   2.7567   3.1728
     4.5082   4.7509   5.3768

          k =-0.0801 0.1387 0.0000 (  9629 PWs)   bands (ev):

   -67.8154 -67.6411 -34.9950 -34.3907 -34.1739 -34.1007 -33.9870 -33.7699
   -19.6755 -19.6645 -19.6500 -19.6458 -19.6290 -19.6193 -19.5804 -19.4917
   -19.4763 -19.4590 -19.4507 -19.4314 -19.4209 -19.3914 -12.1650  -6.7359
    -4.9688  -3.8575  -2.0431  -1.0953  -0.6761  -0.0871   0.4375   0.9027
     1.6210   2.8768   3.6047

          k = 0.1602-0.0000 0.0000 (  9629 PWs)   bands (ev):

   -67.8151 -67.6418 -34.9906 -34.3879 -34.1747 -34.0483 -33.9892 -33.8159
   -19.6764 -19.6644 -19.6502 -19.6437 -19.6308 -19.6174 -19.5806 -19.4948
   -19.4774 -19.4590 -19.4494 -19.4314 -19.4231 -19.3888 -12.1846  -6.8708
    -4.7305  -4.1432  -1.9009  -1.4332  -0.6525  -0.4109   0.5373   1.0730
     1.9184   3.2489   3.8512

          k =-0.0801 0.2312 0.0000 (  9638 PWs)   bands (ev):

   -67.8049 -67.6318 -34.9665 -34.4872 -34.2864 -34.1891 -34.0158 -33.8072
   -19.6712 -19.6662 -19.6502 -19.6455 -19.6269 -19.6144 -19.5885 -19.4884
   -19.4767 -19.4582 -19.4501 -19.4317 -19.4148 -19.3999 -11.8088  -6.0664
    -5.3351  -4.2622  -1.9892  -1.0108  -0.4960   0.0440   0.7243   1.5316
     1.8293   2.8743   3.6362

          k =-0.1602 0.1850 0.0000 (  9638 PWs)   bands (ev):

   -67.8054 -67.6314 -34.9741 -34.4348 -34.2743 -34.2133 -34.0482 -33.8019
   -19.6738 -19.6654 -19.6518 -19.6447 -19.6263 -19.6137 -19.5883 -19.4901
   -19.4747 -19.4588 -19.4483 -19.4329 -19.4151 -19.3999 -11.8211  -6.2172
    -5.2201  -4.2622  -2.0115  -1.1170  -0.5552   0.3991   0.5411   1.2878
     2.0665   3.0122   3.7073

          k = 0.2403 0.0462 0.0000 (  9638 PWs)   bands (ev):

   -67.8041 -67.6333 -34.9540 -34.4822 -34.2557 -34.1092 -34.0293 -33.8976
   -19.6739 -19.6648 -19.6511 -19.6420 -19.6290 -19.6106 -19.5890 -19.4949
   -19.4785 -19.4588 -19.4487 -19.4331 -19.4179 -19.3936 -11.8480  -6.3563
    -5.3292  -4.3173  -1.9508  -1.4787  -1.0059   0.1995   0.9031   1.8509
     2.3550   3.3291   4.2310

          k =-0.1602-0.1850 0.0000 (  9638 PWs)   bands (ev):

   -67.8034 -67.6338 -34.9452 -34.5319 -34.2898 -34.0586 -33.9830 -33.9267
   -19.6729 -19.6643 -19.6489 -19.6400 -19.6313 -19.6118 -19.5894 -19.4943
   -19.4795 -19.4579 -19.4501 -19.4327 -19.4177 -19.3937 -11.8389  -6.2862
    -5.1924  -4.4724  -2.0076  -1.4244  -0.8099   0.2137   1.0401   1.6819
     2.1175   3.3157   3.9998

          k = 0.2403-0.0462 0.0000 (  9638 PWs)   bands (ev):

   -67.8050 -67.6323 -34.9659 -34.4340 -34.2737 -34.1251 -34.0870 -33.8471
   -19.6744 -19.6652 -19.6528 -19.6430 -19.6274 -19.6113 -19.5885 -19.4925
   -19.4772 -19.4595 -19.4473 -19.4331 -19.4172 -19.3963 -11.8345  -6.3458
    -5.3002  -4.3017  -1.8924  -1.4391  -0.4537  -0.1780   0.6573   1.6728
     2.4044   3.2742   3.9815

          k =-0.0801 0.3237 0.0000 (  9596 PWs)   bands (ev):

   -67.7925 -67.6211 -34.9463 -34.6097 -34.4321 -34.2428 -34.0446 -33.8525
   -19.6709 -19.6639 -19.6509 -19.6436 -19.6261 -19.6070 -19.5969 -19.4867
   -19.4781 -19.4573 -19.4479 -19.4314 -19.4103 -19.4058 -11.4420  -6.0794
    -5.1276  -4.4211  -1.9157  -1.0097  -0.3610   0.3857   1.3155   2.1254
     2.3502   3.2962   3.9002

          k =-0.2403 0.2312 0.0000 (  9596 PWs)   bands (ev):

   -67.7938 -67.6203 -34.9601 -34.5092 -34.4168 -34.2843 -34.1052 -33.8396
   -19.6739 -19.6655 -19.6530 -19.6436 -19.6239 -19.6056 -19.5966 -19.4905
   -19.4722 -19.4591 -19.4447 -19.4348 -19.4090 -19.4067 -11.4672  -6.1911
    -5.3207  -4.2918  -1.8785  -1.0592  -0.4341   0.5822   1.2147   1.9661
     2.6698   3.3987   3.9967

          k = 0.3204 0.0925 0.0000 (  9596 PWs)   bands (ev):

   -67.7912 -67.6236 -34.9204 -34.6093 -34.3431 -34.1846 -34.0709 -33.9624
   -19.6727 -19.6647 -19.6516 -19.6400 -19.6260 -19.6022 -19.5980 -19.4953
   -19.4804 -19.4582 -19.4494 -19.4342 -19.4111 -19.3978 -11.4909  -6.0977
    -5.7667  -4.4105  -2.1547  -1.2570  -1.0206   1.0749   1.5184   2.6230
     2.9606   3.4935   4.7304

          k =-0.2403-0.2312 0.0000 (  9596 PWs)   bands (ev):

   -67.7905 -67.6241 -34.9188 -34.6378 -34.3872 -34.1151 -34.0515 -33.9874
   -19.6729 -19.6643 -19.6496 -19.6345 -19.6305 -19.6035 -19.5981 -19.4951
   -19.4820 -19.4563 -19.4491 -19.4351 -19.4113 -19.3980 -11.4893  -6.1461
    -5.5229  -4.5093  -2.2184  -1.2353  -0.8330   0.9533   1.8927   2.2172
     2.8163   3.6300   4.5354

          k = 0.3204-0.0925 0.0000 (  9596 PWs)   bands (ev):

   -67.7933 -67.6212 -34.9463 -34.5222 -34.3976 -34.2016 -34.1604 -33.8740
   -19.6735 -19.6652 -19.6553 -19.6430 -19.6233 -19.6034 -19.5969 -19.4911
   -19.4754 -19.4606 -19.4450 -19.4348 -19.4097 -19.4040 -11.4615  -6.2441
    -5.5370  -4.3064  -1.9125  -1.1628  -0.3776   0.2773   1.0222   2.3981
     3.0587   3.5837   4.0729

          k =-0.0801 0.4161 0.0000 (  9523 PWs)   bands (ev):

   -67.7816 -67.6120 -34.9623 -34.6926 -34.5521 -34.2743 -34.0705 -33.8929
   -19.6733 -19.6596 -19.6520 -19.6410 -19.6253 -19.6057 -19.5974 -19.4876
   -19.4791 -19.4569 -19.4452 -19.4304 -19.4157 -19.4003 -11.1689  -6.3842
    -5.2665  -4.0700  -1.5123  -0.7851  -0.1428   0.3505   1.9564   2.6237
     3.2222   3.9992   4.4695

          k =-0.3204 0.2774 0.0000 (  9523 PWs)   bands (ev):

   -67.7836 -67.6108 -34.9640 -34.6011 -34.5124 -34.3249 -34.1513 -33.8711
   -19.6751 -19.6654 -19.6537 -19.6430 -19.6216 -19.6032 -19.5973 -19.4916
   -19.4703 -19.4604 -19.4412 -19.4371 -19.4125 -19.4010 -11.1982  -6.4890
    -5.5077  -4.0658  -1.6074  -0.7128  -0.1506   0.6651   1.7646   2.8582
     3.3395   3.9769   4.5451

          k = 0.4004 0.1387 0.0000 (  9523 PWs)   bands (ev):

   -67.7800 -67.6153 -34.9233 -34.6973 -34.4316 -34.2341 -34.1082 -34.0039
   -19.6733 -19.6649 -19.6520 -19.6363 -19.6233 -19.6057 -19.5939 -19.4962
   -19.4829 -19.4570 -19.4509 -19.4344 -19.4051 -19.4000 -11.2171  -6.4969
    -5.6513  -4.4904  -2.3831  -0.8154  -0.3907   1.9294   2.1557   2.6444
     3.6821   4.2986   5.1725

          k =-0.3204-0.2774 0.0000 (  9523 PWs)   bands (ev):

   -67.7794 -67.6157 -34.9343 -34.6983 -34.4650 -34.1836 -34.1059 -34.0162
   -19.6738 -19.6645 -19.6508 -19.6308 -19.6274 -19.6063 -19.5944 -19.4964
   -19.4841 -19.4550 -19.4497 -19.4361 -19.4057 -19.3997 -11.2220  -6.4647
    -5.5984  -4.4885  -2.4192  -0.7558  -0.2983   1.7129   2.3290   2.7075
     3.6935   4.3143   5.0401

          k = 0.4004-0.1387 0.0000 (  9523 PWs)   bands (ev):

   -67.7833 -67.6115 -34.9471 -34.6249 -34.4871 -34.2759 -34.1884 -33.8924
   -19.6744 -19.6648 -19.6562 -19.6432 -19.6201 -19.6033 -19.5960 -19.4915
   -19.4726 -19.4620 -19.4423 -19.4366 -19.4098 -19.4021 -11.1796  -6.5771
    -5.5597  -4.1446  -1.7006  -0.6445  -0.2204   0.5698   1.5495   2.8414
     3.6041   4.2318   4.7193

          k =-0.0801 0.5086 0.0000 (  9518 PWs)   bands (ev):

   -67.7752 -67.6070 -34.9957 -34.7279 -34.6090 -34.2839 -34.0864 -33.9214
   -19.6748 -19.6577 -19.6529 -19.6390 -19.6244 -19.6089 -19.5934 -19.4893
   -19.4797 -19.4565 -19.4438 -19.4298 -19.4186 -19.3967 -11.0295  -6.5659
    -5.4359  -3.9490  -1.1638  -0.1768  -0.0541   0.2540   2.1600   3.0547
     3.8553   4.6207   5.1163

          k =-0.4004 0.3237 0.0000 (  9518 PWs)   bands (ev):

   -67.7777 -67.6054 -34.9736 -34.6706 -34.5436 -34.3378 -34.1825 -33.8914
   -19.6759 -19.6654 -19.6546 -19.6429 -19.6198 -19.6063 -19.5926 -19.4925
   -19.4697 -19.4622 -19.4399 -19.4381 -19.4136 -19.3974 -11.0541  -6.7235
    -5.6240  -4.0230  -1.5214  -0.1368   0.1928   0.6379   2.0518   3.2817
     4.0533   4.4577   5.2180

          k = 0.4805 0.1850 0.0000 (  9518 PWs)   bands (ev):

   -67.7733 -67.6106 -34.9581 -34.7201 -34.4897 -34.2488 -34.1310 -34.0270
   -19.6743 -19.6651 -19.6524 -19.6323 -19.6224 -19.6099 -19.5895 -19.4971
   -19.4849 -19.4556 -19.4518 -19.4348 -19.4035 -19.3991 -11.0784  -6.7279
    -5.6427  -4.5327  -2.5552  -0.2619   0.3195   2.0098   2.5557   2.9482
     4.2154   5.0434   5.3899

          k =-0.4004-0.3237 0.0000 (  9518 PWs)   bands (ev):

   -67.7731 -67.6107 -34.9647 -34.7168 -34.5010 -34.2319 -34.1312 -34.0308
   -19.6745 -19.6650 -19.6520 -19.6302 -19.6239 -19.6101 -19.5897 -19.4972
   -19.4852 -19.4548 -19.4513 -19.4356 -19.4039 -19.3989 -11.0817  -6.7095
    -5.6406  -4.5198  -2.5657  -0.2462   0.3672   1.9580   2.4849   3.1056
     4.5424   4.8061   5.2815

          k = 0.4805-0.1850 0.0000 (  9518 PWs)   bands (ev):

   -67.7776 -67.6057 -34.9654 -34.6812 -34.5340 -34.3218 -34.1952 -33.8986
   -19.6756 -19.6652 -19.6555 -19.6430 -19.6191 -19.6064 -19.5921 -19.4924
   -19.4704 -19.4628 -19.4405 -19.4378 -19.4126 -19.3978 -11.0439  -6.7635
    -5.6293  -4.0582  -1.5440  -0.0618   0.1021   0.6262   1.9171   3.1592
     4.0173   4.7237   5.4295

          k =-0.1602 0.2774 0.0000 (  9599 PWs)   bands (ev):

   -67.7949 -67.6220 -34.9545 -34.5376 -34.3676 -34.3075 -34.0661 -33.8418
   -19.6716 -19.6652 -19.6512 -19.6449 -19.6252 -19.6076 -19.5961 -19.4886
   -19.4746 -19.4575 -19.4472 -19.4331 -19.4091 -19.4073 -11.4969  -5.9907
    -5.0196  -4.6260  -2.0284  -0.9348  -0.5775   0.5746   1.0242   1.9790
     2.3791   3.2614   4.0030

          k = 0.3204-0.0000 0.0000 (  9599 PWs)   bands (ev):

   -67.7939 -67.6239 -34.9321 -34.5435 -34.3338 -34.2060 -34.1139 -33.9191
   -19.6715 -19.6660 -19.6534 -19.6426 -19.6248 -19.6036 -19.5968 -19.4923
   -19.4789 -19.4595 -19.4475 -19.4341 -19.4115 -19.4003 -11.5103  -6.0171
    -5.6564  -4.4883  -1.9648  -1.3978  -0.7729   0.4364   1.1655   2.5512
     2.9431   3.5120   4.4004

          k =-0.1602 0.3699 0.0000 (  9544 PWs)   bands (ev):

   -67.7840 -67.6130 -34.9490 -34.6307 -34.4873 -34.3468 -34.0917 -33.8911
   -19.6727 -19.6610 -19.6512 -19.6438 -19.6252 -19.6051 -19.5990 -19.4879
   -19.4764 -19.4564 -19.4457 -19.4327 -19.4147 -19.4017 -11.2064  -6.1317
    -5.1468  -4.2634  -1.7266  -1.0017  -0.4892   0.5167   1.9222   2.2965
     3.2006   3.9200   4.5390

          k =-0.2403 0.3237 0.0000 (  9544 PWs)   bands (ev):

   -67.7847 -67.6125 -34.9529 -34.5771 -34.4692 -34.3853 -34.1224 -33.8824
   -19.6732 -19.6635 -19.6522 -19.6438 -19.6238 -19.6041 -19.5990 -19.4897
   -19.4729 -19.4578 -19.4440 -19.4351 -19.4136 -19.4019 -11.2180  -6.1479
    -5.3282  -4.1918  -1.7668  -0.9288  -0.4897   0.6349   1.7354   2.4728
     3.1709   3.9350   4.5996

          k = 0.4004 0.0462 0.0000 (  9544 PWs)   bands (ev):

   -67.7827 -67.6155 -34.9074 -34.6515 -34.3993 -34.2718 -34.1500 -33.9807
   -19.6703 -19.6664 -19.6527 -19.6415 -19.6224 -19.6048 -19.5957 -19.4923
   -19.4814 -19.4589 -19.4489 -19.4348 -19.4056 -19.4030 -11.2109  -6.2636
    -5.5548  -4.5525  -1.8963  -1.3325  -0.7156   1.2023   1.8379   2.5506
     3.6974   4.3558   4.9797

          k =-0.2403-0.3237 0.0000 (  9544 PWs)   bands (ev):

   -67.7814 -67.6163 -34.9189 -34.6812 -34.4716 -34.1856 -34.0930 -34.0223
   -19.6715 -19.6647 -19.6497 -19.6324 -19.6291 -19.6062 -19.5966 -19.4921
   -19.4843 -19.4546 -19.4484 -19.4366 -19.4077 -19.4019 -11.2151  -6.1847
    -5.3250  -4.6881  -1.8738  -1.2652  -0.6301   1.1755   1.7965   2.6927
     3.5344   4.0842   5.0696

          k = 0.4004-0.0462 0.0000 (  9544 PWs)   bands (ev):

   -67.7839 -67.6141 -34.9200 -34.6104 -34.4346 -34.2766 -34.1892 -33.9363
   -19.6709 -19.6656 -19.6553 -19.6433 -19.6213 -19.6040 -19.5965 -19.4905
   -19.4779 -19.4607 -19.4457 -19.4355 -19.4068 -19.4043 -11.1960  -6.3077
    -5.5374  -4.3536  -1.8541  -1.1485  -0.5098   0.6039   1.6318   2.6347
     3.5676   4.5461   4.6701

          k =-0.1602 0.4624 0.0000 (  9521 PWs)   bands (ev):

   -67.7757 -67.6067 -34.9629 -34.6863 -34.5675 -34.3597 -34.1154 -33.9356
   -19.6740 -19.6578 -19.6518 -19.6412 -19.6255 -19.6099 -19.5937 -19.4883
   -19.4788 -19.4555 -19.4449 -19.4323 -19.4183 -19.3972 -11.0133  -6.3278
    -5.3580  -3.9120  -1.3247  -0.7252  -0.3630   0.3028   2.5608   2.7801
     3.9469   4.5247   4.9124

          k =-0.3204 0.3699 0.0000 (  9521 PWs)   bands (ev):

   -67.7772 -67.6058 -34.9554 -34.6107 -34.5419 -34.4149 -34.1752 -33.9150
   -19.6742 -19.6628 -19.6536 -19.6430 -19.6223 -19.6084 -19.5932 -19.4907
   -19.4724 -19.4594 -19.4419 -19.4372 -19.4154 -19.3976 -11.0265  -6.3850
    -5.5560  -3.9439  -1.5241  -0.6072  -0.1518   0.4883   2.2737   2.9520
     4.0883   4.2900   5.1965

          k = 0.4805 0.0925 0.0000 (  9521 PWs)   bands (ev):

   -67.7742 -67.6095 -34.9149 -34.7059 -34.4679 -34.2954 -34.1818 -34.0223
   -19.6711 -19.6661 -19.6519 -19.6377 -19.6219 -19.6106 -19.5902 -19.4927
   -19.4840 -19.4574 -19.4500 -19.4357 -19.4057 -19.4000 -11.0154  -6.5300
    -5.4888  -4.5646  -2.0288  -0.8502  -0.1638   1.4871   2.3795   2.7319
     4.0296   5.2085   5.4963

          k =-0.3204-0.3699 0.0000 (  9521 PWs)   bands (ev):

   -67.7735 -67.6100 -34.9366 -34.7006 -34.5129 -34.2424 -34.1584 -34.0441
   -19.6722 -19.6650 -19.6506 -19.6308 -19.6268 -19.6112 -19.5908 -19.4932
   -19.4854 -19.4544 -19.4486 -19.4379 -19.4071 -19.3994 -11.0250  -6.4505
    -5.4594  -4.5652  -2.0389  -0.7734  -0.0762   1.4756   2.0867   3.1042
     4.3214   4.6804   5.6607

          k = 0.4805-0.0925 0.0000 (  9521 PWs)   bands (ev):

   -67.7767 -67.6067 -34.9268 -34.6565 -34.5071 -34.3483 -34.2194 -33.9425
   -19.6727 -19.6636 -19.6560 -19.6434 -19.6199 -19.6086 -19.5916 -19.4905
   -19.4754 -19.4615 -19.4432 -19.4375 -19.4114 -19.3989 -10.9973  -6.5368
    -5.5775  -4.0895  -1.6135  -0.6801  -0.1924   0.5426   2.0834   2.7920
     3.9308   5.0131   5.6439

          k =-0.4004 0.4161 0.0000 (  9538 PWs)   bands (ev):

   -67.7742 -67.6037 -34.9457 -34.6543 -34.5426 -34.4012 -34.2112 -33.9353
   -19.6740 -19.6627 -19.6552 -19.6431 -19.6208 -19.6102 -19.5904 -19.4910
   -19.4732 -19.4611 -19.4416 -19.4384 -19.4145 -19.3964 -10.9458  -6.5562
    -5.6134  -3.9480  -1.5135  -0.1926  -0.0631   0.3796   2.4410   2.9909
     3.9813   4.9825   5.8345

          k = 0.5606 0.1387 0.0000 (  9538 PWs)   bands (ev):

   -67.7709 -67.6075 -34.9376 -34.7096 -34.5116 -34.2827 -34.1884 -34.0439
   -19.6721 -19.6657 -19.6515 -19.6333 -19.6236 -19.6130 -19.5883 -19.4933
   -19.4855 -19.4557 -19.4498 -19.4371 -19.4068 -19.3981 -10.9542  -6.5960
    -5.4880  -4.5574  -2.1233  -0.4863   0.2539   1.3492   2.5655   3.0298
     4.2929   5.2598   5.7381

          k =-0.2403 0.4161 0.0000 (  9502 PWs)   bands (ev):

   -67.7764 -67.6062 -34.9463 -34.6255 -34.5138 -34.4517 -34.1530 -33.9338
   -19.6735 -19.6595 -19.6519 -19.6430 -19.6246 -19.6100 -19.5936 -19.4888
   -19.4760 -19.4564 -19.4443 -19.4350 -19.4172 -19.3974 -11.0089  -6.1658
    -5.4695  -3.8910  -1.2883  -1.0448  -0.4750   0.3960   2.4042   2.8009
     4.0631   4.4606   4.9430

          k = 0.4805-0.0000 0.0000 (  9502 PWs)   bands (ev):

   -67.7755 -67.6081 -34.8986 -34.6731 -34.4734 -34.3330 -34.2305 -33.9901
   -19.6696 -19.6658 -19.6531 -19.6425 -19.6209 -19.6103 -19.5909 -19.4895
   -19.4812 -19.4596 -19.4468 -19.4367 -19.4089 -19.3997 -10.9787  -6.4020
    -5.5398  -4.2857  -1.4660  -1.2631  -0.4811   0.8922   2.2201   2.6649
     3.9998   5.2258   5.5732

          k =-0.2403 0.5086 0.0000 (  9554 PWs)   bands (ev):

   -67.7711 -67.6032 -34.9371 -34.6711 -34.5526 -34.4398 -34.1776 -33.9801
   -19.6735 -19.6586 -19.6509 -19.6405 -19.6259 -19.6140 -19.5901 -19.4883
   -19.4800 -19.4550 -19.4451 -19.4360 -19.4182 -19.3954 -10.8839  -6.2579
    -5.5483  -3.6945  -1.1529  -0.7487  -0.4232   0.2088   2.7753   3.0189
     4.0345   4.9062   5.3212

          k =-0.3204 0.4624 0.0000 (  9554 PWs)   bands (ev):

   -67.7719 -67.6028 -34.9279 -34.6223 -34.5508 -34.4696 -34.2144 -33.9662
   -19.6733 -19.6601 -19.6528 -19.6425 -19.6236 -19.6133 -19.5898 -19.4892
   -19.4770 -19.4580 -19.4433 -19.4380 -19.4166 -19.3956 -10.8843  -6.2955
    -5.6250  -3.7543  -1.2740  -0.6547  -0.2203   0.1816   2.7135   2.9922
     3.9134   5.0769   5.4158

          k = 0.5606 0.0462 0.0000 (  9554 PWs)   bands (ev):

   -67.7703 -67.6049 -34.8980 -34.6982 -34.5139 -34.3526 -34.2477 -34.0257
   -19.6703 -19.6652 -19.6512 -19.6390 -19.6228 -19.6144 -19.5881 -19.4888
   -19.4846 -19.4574 -19.4471 -19.4384 -19.4107 -19.3971 -10.8654  -6.4494
    -5.5405  -4.2162  -1.4742  -0.9171  -0.1067   0.7513   2.5505   2.9656
     4.0131   5.5097   5.9270

          k =-0.3204-0.4624 0.0000 (  9554 PWs)   bands (ev):

   -67.7697 -67.6052 -34.9159 -34.6966 -34.5399 -34.3350 -34.2125 -34.0411
   -19.6713 -19.6641 -19.6503 -19.6345 -19.6260 -19.6148 -19.5884 -19.4891
   -19.4857 -19.4550 -19.4467 -19.4394 -19.4117 -19.3969 -10.8725  -6.3799
    -5.5380  -4.1957  -1.4754  -0.8784  -0.0886   0.7485   2.4433   3.1265
     4.1319   5.0565   6.0143

          k = 0.5606-0.0462 0.0000 (  9554 PWs)   bands (ev):

   -67.7715 -67.6034 -34.9044 -34.6615 -34.5333 -34.4071 -34.2504 -33.9853
   -19.6717 -19.6625 -19.6532 -19.6427 -19.6219 -19.6134 -19.5888 -19.4890
   -19.4791 -19.4595 -19.4439 -19.4389 -19.4136 -19.3964 -10.8653  -6.4142
    -5.6171  -3.9208  -1.3339  -0.7095  -0.3068   0.4048   2.5304   2.9290
     3.9443   5.3351   5.8650

     the Fermi energy is     0.0118 ev

!    total energy              =   -1372.96392781 Ry
     estimated scf accuracy    <          4.0E-13 Ry
     smearing contrib. (-TS)   =      -0.00000143 Ry
     internal energy E=F+TS    =   -1372.96392638 Ry

     The total energy is F=E-TS. E is the sum of the following terms:
     one-electron contribution =  -10834.69786119 Ry
     hartree contribution      =    5446.58346870 Ry
     xc contribution           =    -138.97799470 Ry
     ewald contribution        =    4154.12846080 Ry

     convergence has been achieved in  22 iterations

     negative rho (up, down):  8.199E-04 0.000E+00

     Forces acting on atoms (cartesian axes, Ry/au):

     atom    1 type  2   force =    -0.31046737    0.12156701   -0.15707908
     atom    2 type  1   force =     0.14345531    0.08525978   -0.14277675
     atom    3 type  1   force =     0.16701205   -0.20682679    0.29985583

     Total force =     0.456966     Total SCF correction =     0.000008


     Computing stress (Cartesian axis) and pressure


     negative rho (up, down):  8.199E-04 0.000E+00
          total   stress  (Ry/bohr**3)                   (kbar)     P=       56.27
   0.00023178   0.00002148   0.00003327           34.10        3.16        4.89
   0.00002148   0.00032519  -0.00041421            3.16       47.84      -60.93
   0.00003327  -0.00041421   0.00059059            4.89      -60.93       86.88


     BFGS Geometry Optimization
     Energy error            =      0.0E+00 Ry
     Gradient error          =      3.0E-01 Ry/Bohr
     Cell gradient error     =      4.8E+01 kbar

     number of scf cycles    =   1
     number of bfgs steps    =   0

     enthalpy           new  =   -1372.9639278078 Ry

     new trust radius        =       0.4007291661 bohr
     new conv_thr            =            1.0E-12 Ry

     new unit-cell volume =   1625.32242 a.u.^3 (   240.84793 Ang^3 )
     density =      2.57792 g/cm^3

CELL_PARAMETERS (alat=  5.55000000)
   1.046553473   0.000558683   0.000000000
  -0.522792902   0.908166995   0.000000000
   0.000000000   0.000000000  10.000000000

ATOMIC_POSITIONS (crystal)
C             0.0000000000        0.0000000000        0.0000000000    0   0   0
Ta            0.5536271360        0.3174213010       -0.0436001241
Ta            0.0082426487        0.5593917209        0.0464303778



     Writing output data file /scratch/as3359/Ta2C_looping/Ta.save/
     NEW-OLD atomic charge density approx. for the potential

     Check: negative core charge=   -0.000001

     negative rho (up, down):  7.310E-04 0.000E+00
     extrapolated charge   58.79913, renormalised to   58.00000

     total cpu time spent up to now is      190.5 secs

     Self-consistent Calculation

     iteration #  1     ecut=    50.00 Ry     beta= 0.70
     Davidson diagonalization with overlap
     c_bands:  2 eigenvalues not converged
     c_bands:  2 eigenvalues not converged
     c_bands:  1 eigenvalues not converged
     c_bands:  2 eigenvalues not converged
     c_bands:  1 eigenvalues not converged
     c_bands:  1 eigenvalues not converged
     c_bands:  4 eigenvalues not converged
     c_bands:  3 eigenvalues not converged
     c_bands:  2 eigenvalues not converged
     c_bands:  2 eigenvalues not converged
     c_bands:  1 eigenvalues not converged
     c_bands:  4 eigenvalues not converged
     c_bands:  1 eigenvalues not converged
     c_bands:  1 eigenvalues not converged
     c_bands:  1 eigenvalues not converged
     c_bands:  1 eigenvalues not converged
     c_bands:  2 eigenvalues not converged
     c_bands:  4 eigenvalues not converged
     c_bands:  4 eigenvalues not converged
     c_bands:  1 eigenvalues not converged
     c_bands:  1 eigenvalues not converged
     c_bands:  2 eigenvalues not converged
     c_bands:  3 eigenvalues not converged
     c_bands:  3 eigenvalues not converged
     c_bands:  3 eigenvalues not converged
     c_bands:  2 eigenvalues not converged
     c_bands:  3 eigenvalues not converged
     c_bands:  2 eigenvalues not converged
     c_bands:  2 eigenvalues not converged
     c_bands:  2 eigenvalues not converged
     c_bands:  2 eigenvalues not converged
     c_bands:  2 eigenvalues not converged
     c_bands:  3 eigenvalues not converged
     c_bands:  5 eigenvalues not converged
     c_bands:  3 eigenvalues not converged
     c_bands:  1 eigenvalues not converged
     c_bands:  4 eigenvalues not converged
     c_bands:  3 eigenvalues not converged
     c_bands:  1 eigenvalues not converged
     c_bands:  4 eigenvalues not converged
     c_bands:  1 eigenvalues not converged
     c_bands:  1 eigenvalues not converged
     c_bands:  5 eigenvalues not converged
     c_bands:  2 eigenvalues not converged
     c_bands:  1 eigenvalues not converged
     c_bands:  3 eigenvalues not converged
     c_bands:  1 eigenvalues not converged
     c_bands:  3 eigenvalues not converged
     c_bands:  2 eigenvalues not converged
     c_bands:  3 eigenvalues not converged
     c_bands:  1 eigenvalues not converged
     c_bands:  2 eigenvalues not converged
     c_bands:  1 eigenvalues not converged
     c_bands:  1 eigenvalues not converged
     c_bands:  1 eigenvalues not converged
     ethr =  1.00E-06,  avg # of iterations = 40.5

     total cpu time spent up to now is      263.9 secs

     total energy              =    4899.23979377 Ry
     estimated scf accuracy    <    6837.16614136 Ry

     iteration #  2     ecut=    50.00 Ry     beta= 0.70
     Davidson diagonalization with overlap
     c_bands:  1 eigenvalues not converged
     c_bands:  1 eigenvalues not converged
     c_bands:  1 eigenvalues not converged
     c_bands:  2 eigenvalues not converged
     c_bands:  1 eigenvalues not converged
     c_bands:  1 eigenvalues not converged
     c_bands:  1 eigenvalues not converged
     ethr =  1.00E-02,  avg # of iterations = 34.8

     negative rho (up, down):  7.745E-05 0.000E+00

     total cpu time spent up to now is      309.4 secs

     total energy              =   -2529.24737496 Ry
     estimated scf accuracy    <    3758.52695911 Ry

     iteration #  3     ecut=    50.00 Ry     beta= 0.70
     Davidson diagonalization with overlap
     c_bands:  1 eigenvalues not converged
     c_bands:  1 eigenvalues not converged
     c_bands:  2 eigenvalues not converged
     c_bands:  1 eigenvalues not converged
     c_bands:  2 eigenvalues not converged
     c_bands:  1 eigenvalues not converged
     c_bands:  1 eigenvalues not converged
     c_bands:  1 eigenvalues not converged
     c_bands:  2 eigenvalues not converged
     c_bands:  1 eigenvalues not converged
     c_bands:  1 eigenvalues not converged
     c_bands:  1 eigenvalues not converged
     c_bands:  1 eigenvalues not converged
     c_bands:  2 eigenvalues not converged
     c_bands:  2 eigenvalues not converged
     ethr =  1.00E-02,  avg # of iterations = 14.4

     negative rho (up, down):  5.499E-05 0.000E+00

     total cpu time spent up to now is      325.8 secs

     total energy              =   -1996.64808418 Ry
     estimated scf accuracy    <    1264.53553345 Ry

     iteration #  4     ecut=    50.00 Ry     beta= 0.70
     Davidson diagonalization with overlap
     c_bands:  1 eigenvalues not converged
     c_bands:  1 eigenvalues not converged
     c_bands:  1 eigenvalues not converged
     c_bands:  1 eigenvalues not converged
     c_bands:  1 eigenvalues not converged
     c_bands:  3 eigenvalues not converged
     c_bands:  1 eigenvalues not converged
     c_bands:  1 eigenvalues not converged
     c_bands:  1 eigenvalues not converged
     ethr =  1.00E-02,  avg # of iterations = 17.1

     negative rho (up, down):  9.331E-05 0.000E+00

     total cpu time spent up to now is      344.5 secs

     total energy              =   -1806.24122241 Ry
     estimated scf accuracy    <     735.35953128 Ry

     iteration #  5     ecut=    50.00 Ry     beta= 0.70
     Davidson diagonalization with overlap
     ethr =  1.00E-02,  avg # of iterations =  5.8

     negative rho (up, down):  3.384E-05 0.000E+00

     total cpu time spent up to now is      354.2 secs

     total energy              =   -1703.83297850 Ry
     estimated scf accuracy    <     470.26545582 Ry

     iteration #  6     ecut=    50.00 Ry     beta= 0.70
     Davidson diagonalization with overlap
     c_bands:  2 eigenvalues not converged
     c_bands:  1 eigenvalues not converged
     ethr =  1.00E-02,  avg # of iterations = 10.9

     negative rho (up, down):  1.996E-05 0.000E+00

     total cpu time spent up to now is      364.2 secs

     WARNING: integrated charge=    58.00081191, expected=    58.00000000

     total energy              =   -1585.08637056 Ry
     estimated scf accuracy    <     358.34692055 Ry

     iteration #  7     ecut=    50.00 Ry     beta= 0.70
     Davidson diagonalization with overlap
     ethr =  1.00E-02,  avg # of iterations =  2.1

     negative rho (up, down):  2.060E-04 0.000E+00

     total cpu time spent up to now is      371.4 secs

     WARNING: integrated charge=    57.99919644, expected=    58.00000000

     total energy              =   -1438.69775689 Ry
     estimated scf accuracy    <     230.70744894 Ry

     iteration #  8     ecut=    50.00 Ry     beta= 0.70
     Davidson diagonalization with overlap
     ethr =  1.00E-02,  avg # of iterations =  4.6

     negative rho (up, down):  2.517E-05 0.000E+00

     total cpu time spent up to now is      381.5 secs

     WARNING: integrated charge=    57.99974217, expected=    58.00000000

     total energy              =   -1466.95328771 Ry
     estimated scf accuracy    <      75.78339790 Ry

     iteration #  9     ecut=    50.00 Ry     beta= 0.70
     Davidson diagonalization with overlap
     ethr =  1.00E-02,  avg # of iterations =  1.3

     negative rho (up, down):  1.267E-05 0.000E+00

     total cpu time spent up to now is      388.0 secs

     WARNING: integrated charge=    57.99981016, expected=    58.00000000

     total energy              =   -1461.16314709 Ry
     estimated scf accuracy    <     101.62198135 Ry

     iteration # 10     ecut=    50.00 Ry     beta= 0.70
     Davidson diagonalization with overlap
     ethr =  1.00E-02,  avg # of iterations =  1.0

     negative rho (up, down):  4.636E-03 0.000E+00

     total cpu time spent up to now is      394.4 secs

     WARNING: integrated charge=    57.99986991, expected=    58.00000000

     total energy              =   -1367.27082228 Ry
     estimated scf accuracy    <      96.20716516 Ry

     iteration # 11     ecut=    50.00 Ry     beta= 0.70
     Davidson diagonalization with overlap
     ethr =  1.00E-02,  avg # of iterations = 13.1

     negative rho (up, down):  6.590E-02 0.000E+00

     total cpu time spent up to now is      415.4 secs

     WARNING: integrated charge=    57.99990376, expected=    58.00000000

     total energy              =   -1393.08569662 Ry
     estimated scf accuracy    <    1143.47658823 Ry

     iteration # 12     ecut=    50.00 Ry     beta= 0.70
     Davidson diagonalization with overlap
     ethr =  1.00E-02,  avg # of iterations =  3.8

     negative rho (up, down):  7.960E-02 0.000E+00

     total cpu time spent up to now is      423.3 secs

     WARNING: integrated charge=    58.00043714, expected=    58.00000000

     total energy              =   -1327.58734269 Ry
     estimated scf accuracy    <    1558.57326828 Ry

     iteration # 13     ecut=    50.00 Ry     beta= 0.70
     Davidson diagonalization with overlap
     ethr =  1.00E-02,  avg # of iterations =  7.5

     negative rho (up, down):  8.144E-02 0.000E+00

     total cpu time spent up to now is      435.8 secs

     WARNING: integrated charge=    58.00041924, expected=    58.00000000

     total energy              =   -1376.22979324 Ry
     estimated scf accuracy    <      24.81863082 Ry

     iteration # 14     ecut=    50.00 Ry     beta= 0.70
     Davidson diagonalization with overlap
     ethr =  1.00E-02,  avg # of iterations =  1.2

     negative rho (up, down):  1.139E-01 0.000E+00

     total cpu time spent up to now is      442.3 secs

     WARNING: integrated charge=    58.00038913, expected=    58.00000000

     total energy              =   -1369.58188906 Ry
     estimated scf accuracy    <      38.89113328 Ry

     iteration # 15     ecut=    50.00 Ry     beta= 0.70
     Davidson diagonalization with overlap
     ethr =  1.00E-02,  avg # of iterations =  7.4

     negative rho (up, down):  2.379E-01 0.000E+00

     total cpu time spent up to now is      452.3 secs

     WARNING: integrated charge=    57.99962733, expected=    58.00000000

     total energy              =   -1373.94447834 Ry
     estimated scf accuracy    <       7.54960201 Ry

     iteration # 16     ecut=    50.00 Ry     beta= 0.70
     Davidson diagonalization with overlap
     ethr =  1.00E-02,  avg # of iterations =  2.2

     negative rho (up, down):  4.729E-01 0.000E+00

     total cpu time spent up to now is      459.7 secs

     WARNING: integrated charge=    57.99985821, expected=    58.00000000

     total energy              =   -1378.02157446 Ry
     estimated scf accuracy    <      10.35585910 Ry

     iteration # 17     ecut=    50.00 Ry     beta= 0.70
     Davidson diagonalization with overlap
     ethr =  1.00E-02,  avg # of iterations =  3.7

     negative rho (up, down):  4.855E-01 0.000E+00

     total cpu time spent up to now is      467.2 secs

     WARNING: integrated charge=    57.99992072, expected=    58.00000000

     total energy              =   -1384.45732522 Ry
     estimated scf accuracy    <       8.38705436 Ry

     iteration # 18     ecut=    50.00 Ry     beta= 0.70
     Davidson diagonalization with overlap
     ethr =  1.00E-02,  avg # of iterations =  3.7

     negative rho (up, down):  4.348E-01 0.000E+00

     total cpu time spent up to now is      474.9 secs

     WARNING: integrated charge=    57.99993836, expected=    58.00000000

     total energy              =   -1384.45514236 Ry
     estimated scf accuracy    <      13.86670365 Ry

     iteration # 19     ecut=    50.00 Ry     beta= 0.70
     Davidson diagonalization with overlap
     ethr =  1.00E-02,  avg # of iterations =  1.2

     negative rho (up, down):  4.257E-01 0.000E+00

     total cpu time spent up to now is      481.5 secs

     WARNING: integrated charge=    57.99996957, expected=    58.00000000

     total energy              =   -1383.10376685 Ry
     estimated scf accuracy    <      12.91616408 Ry

     iteration # 20     ecut=    50.00 Ry     beta= 0.70
     Davidson diagonalization with overlap
     ethr =  1.00E-02,  avg # of iterations =  1.0

     negative rho (up, down):  4.387E-01 0.000E+00

     total cpu time spent up to now is      488.0 secs

     WARNING: integrated charge=    58.00002050, expected=    58.00000000

     total energy              =   -1380.11109290 Ry
     estimated scf accuracy    <      11.82170986 Ry

     iteration # 21     ecut=    50.00 Ry     beta= 0.70
     Davidson diagonalization with overlap
     ethr =  1.00E-02,  avg # of iterations =  1.0

     negative rho (up, down):  2.794E-01 0.000E+00

     total cpu time spent up to now is      494.5 secs

     total energy              =   -1372.32509217 Ry
     estimated scf accuracy    <       8.33406325 Ry

     iteration # 22     ecut=    50.00 Ry     beta= 0.70
     Davidson diagonalization with overlap
     ethr =  1.00E-02,  avg # of iterations =  6.2

     negative rho (up, down):  4.260E-01 0.000E+00

     total cpu time spent up to now is      505.1 secs

     WARNING: integrated charge=    57.99988862, expected=    58.00000000

     total energy              =   -1371.52528583 Ry
     estimated scf accuracy    <      35.79422341 Ry

     iteration # 23     ecut=    50.00 Ry     beta= 0.70
     Davidson diagonalization with overlap
     ethr =  1.00E-02,  avg # of iterations =  3.8

     negative rho (up, down):  1.228E-01 0.000E+00

     total cpu time spent up to now is      512.6 secs

     WARNING: integrated charge=    58.00011400, expected=    58.00000000

     total energy              =   -1372.75043609 Ry
     estimated scf accuracy    <       6.06735124 Ry

     iteration # 24     ecut=    50.00 Ry     beta= 0.70
     Davidson diagonalization with overlap
     ethr =  1.00E-02,  avg # of iterations =  2.8

     negative rho (up, down):  6.501E-02 0.000E+00

     total cpu time spent up to now is      520.0 secs

     WARNING: integrated charge=    58.00008124, expected=    58.00000000

     total energy              =   -1372.96374242 Ry
     estimated scf accuracy    <       2.21729518 Ry

     iteration # 25     ecut=    50.00 Ry     beta= 0.70
     Davidson diagonalization with overlap
     ethr =  3.82E-03,  avg # of iterations =  4.3

     negative rho (up, down):  5.252E-02 0.000E+00

     total cpu time spent up to now is      527.5 secs

     WARNING: integrated charge=    58.00003718, expected=    58.00000000

     total energy              =   -1372.99546333 Ry
     estimated scf accuracy    <       0.49351665 Ry

     iteration # 26     ecut=    50.00 Ry     beta= 0.70
     Davidson diagonalization with overlap
     ethr =  8.51E-04,  avg # of iterations =  8.5

     negative rho (up, down):  6.515E-03 0.000E+00

     total cpu time spent up to now is      537.1 secs

     WARNING: integrated charge=    58.00001542, expected=    58.00000000

     total energy              =   -1373.06077078 Ry
     estimated scf accuracy    <       0.36117901 Ry

     iteration # 27     ecut=    50.00 Ry     beta= 0.70
     Davidson diagonalization with overlap
     ethr =  6.23E-04,  avg # of iterations =  1.8

     negative rho (up, down):  1.510E-03 0.000E+00

     total cpu time spent up to now is      543.9 secs

     WARNING: integrated charge=    58.00000751, expected=    58.00000000

     total energy              =   -1373.08028946 Ry
     estimated scf accuracy    <       0.01424583 Ry

     iteration # 28     ecut=    50.00 Ry     beta= 0.70
     Davidson diagonalization with overlap
     ethr =  2.46E-05,  avg # of iterations =  5.4

     negative rho (up, down):  6.722E-04 0.000E+00

     total cpu time spent up to now is      552.8 secs

     total energy              =   -1373.08267501 Ry
     estimated scf accuracy    <       0.00291300 Ry

     iteration # 29     ecut=    50.00 Ry     beta= 0.70
     Davidson diagonalization with overlap
     ethr =  5.02E-06,  avg # of iterations =  2.8

     negative rho (up, down):  3.943E-04 0.000E+00

     total cpu time spent up to now is      560.2 secs

     total energy              =   -1373.08285354 Ry
     estimated scf accuracy    <       0.00266930 Ry

     iteration # 30     ecut=    50.00 Ry     beta= 0.70
     Davidson diagonalization with overlap
     ethr =  4.60E-06,  avg # of iterations =  1.2

     negative rho (up, down):  3.939E-04 0.000E+00

     total cpu time spent up to now is      566.8 secs

     total energy              =   -1373.08290677 Ry
     estimated scf accuracy    <       0.00096283 Ry

     iteration # 31     ecut=    50.00 Ry     beta= 0.70
     Davidson diagonalization with overlap
     ethr =  1.66E-06,  avg # of iterations =  1.4

     negative rho (up, down):  6.232E-04 0.000E+00

     total cpu time spent up to now is      573.5 secs

     total energy              =   -1373.08271192 Ry
     estimated scf accuracy    <       0.00093787 Ry

     iteration # 32     ecut=    50.00 Ry     beta= 0.70
     Davidson diagonalization with overlap
     ethr =  1.62E-06,  avg # of iterations =  2.5

     negative rho (up, down):  7.146E-04 0.000E+00

     total cpu time spent up to now is      580.8 secs

     total energy              =   -1373.08279006 Ry
     estimated scf accuracy    <       0.00038540 Ry

     iteration # 33     ecut=    50.00 Ry     beta= 0.70
     Davidson diagonalization with overlap
     ethr =  6.64E-07,  avg # of iterations =  1.1

     negative rho (up, down):  6.986E-04 0.000E+00

     total cpu time spent up to now is      587.4 secs

     total energy              =   -1373.08280776 Ry
     estimated scf accuracy    <       0.00001246 Ry

     iteration # 34     ecut=    50.00 Ry     beta= 0.70
     Davidson diagonalization with overlap
     ethr =  2.15E-08,  avg # of iterations =  2.7

     negative rho (up, down):  7.099E-04 0.000E+00

     total cpu time spent up to now is      595.0 secs

     total energy              =   -1373.08281014 Ry
     estimated scf accuracy    <       0.00000200 Ry

     iteration # 35     ecut=    50.00 Ry     beta= 0.70
     Davidson diagonalization with overlap
     ethr =  3.45E-09,  avg # of iterations =  2.1

     negative rho (up, down):  7.129E-04 0.000E+00

     total cpu time spent up to now is      602.4 secs

     total energy              =   -1373.08281041 Ry
     estimated scf accuracy    <       0.00000005 Ry

     iteration # 36     ecut=    50.00 Ry     beta= 0.70
     Davidson diagonalization with overlap
     ethr =  8.25E-11,  avg # of iterations =  4.2

     negative rho (up, down):  7.137E-04 0.000E+00

     total cpu time spent up to now is      610.6 secs

     total energy              =   -1373.08281042 Ry
     estimated scf accuracy    <       0.00000001 Ry

     iteration # 37     ecut=    50.00 Ry     beta= 0.70
     Davidson diagonalization with overlap
     ethr =  2.01E-11,  avg # of iterations =  2.0

     negative rho (up, down):  7.136E-04 0.000E+00

     total cpu time spent up to now is      617.7 secs

     total energy              =   -1373.08281042 Ry
     estimated scf accuracy    <          2.0E-09 Ry

     iteration # 38     ecut=    50.00 Ry     beta= 0.70
     Davidson diagonalization with overlap
     ethr =  3.49E-12,  avg # of iterations =  2.1

     negative rho (up, down):  7.134E-04 0.000E+00

     total cpu time spent up to now is      624.9 secs

     total energy              =   -1373.08281043 Ry
     estimated scf accuracy    <          1.5E-10 Ry

     iteration # 39     ecut=    50.00 Ry     beta= 0.70
     Davidson diagonalization with overlap
     ethr =  2.52E-13,  avg # of iterations =  2.9

     negative rho (up, down):  7.134E-04 0.000E+00

     total cpu time spent up to now is      632.5 secs

     total energy              =   -1373.08281043 Ry
     estimated scf accuracy    <          2.5E-11 Ry

     iteration # 40     ecut=    50.00 Ry     beta= 0.70
     Davidson diagonalization with overlap
     ethr =  1.00E-13,  avg # of iterations =  2.0

     negative rho (up, down):  7.134E-04 0.000E+00

     total cpu time spent up to now is      639.5 secs

     total energy              =   -1373.08281043 Ry
     estimated scf accuracy    <          4.5E-12 Ry

     iteration # 41     ecut=    50.00 Ry     beta= 0.70
     Davidson diagonalization with overlap
     ethr =  1.00E-13,  avg # of iterations =  1.0

     negative rho (up, down):  7.133E-04 0.000E+00

     total cpu time spent up to now is      646.1 secs

     total energy              =   -1373.08281043 Ry
     estimated scf accuracy    <          5.8E-12 Ry

     iteration # 42     ecut=    50.00 Ry     beta= 0.70
     Davidson diagonalization with overlap
     ethr =  1.00E-13,  avg # of iterations =  1.0

     negative rho (up, down):  7.133E-04 0.000E+00

     total cpu time spent up to now is      652.7 secs

     total energy              =   -1373.08281043 Ry
     estimated scf accuracy    <          2.7E-12 Ry

     iteration # 43     ecut=    50.00 Ry     beta= 0.70
     Davidson diagonalization with overlap
     ethr =  1.00E-13,  avg # of iterations =  1.0

     negative rho (up, down):  7.133E-04 0.000E+00

     total cpu time spent up to now is      659.2 secs

     End of self-consistent calculation

          k = 0.0000 0.0000 0.0000 (  9701 PWs)   bands (ev):

   -68.2169 -68.0930 -35.0864 -34.6272 -34.4033 -34.3368 -34.2563 -34.2189
   -20.1172 -20.1043 -20.0923 -20.0739 -20.0663 -20.0512 -20.0107 -19.9912
   -19.9739 -19.9681 -19.9611 -19.9514 -19.9431 -19.8957 -12.6127  -7.1565
    -3.6969  -3.0022  -2.3152  -1.2684  -0.8452  -0.4017   0.1135   0.8057
     1.2728   2.8124   3.0403

          k =-0.0000 0.0917 0.0000 (  9645 PWs)   bands (ev):

   -68.2142 -68.0904 -35.0771 -34.6284 -34.4405 -34.3537 -34.2842 -34.2375
   -20.1163 -20.1045 -20.0922 -20.0734 -20.0664 -20.0494 -20.0130 -19.9902
   -19.9747 -19.9670 -19.9611 -19.9519 -19.9413 -19.8979 -12.5024  -6.9317
    -4.0118  -3.0182  -2.3039  -1.2009  -0.7541  -0.3499   0.1324   0.8280
     1.2276   2.7067   2.9648

          k =-0.0001 0.1835 0.0000 (  9611 PWs)   bands (ev):

   -68.2068 -68.0833 -35.0519 -34.6449 -34.5346 -34.4226 -34.3489 -34.2696
   -20.1141 -20.1054 -20.0927 -20.0717 -20.0666 -20.0447 -20.0192 -19.9875
   -19.9770 -19.9648 -19.9612 -19.9529 -19.9364 -19.9038 -12.2062  -6.3130
    -4.6759  -3.2370  -2.1760  -1.2650  -0.5616  -0.1115   0.2892   0.8762
     1.5039   2.5540   2.8202

          k =-0.0001 0.2752 0.0000 (  9623 PWs)   bands (ev):

   -68.1967 -68.0735 -35.0195 -34.7430 -34.6001 -34.5460 -34.3942 -34.3060
   -20.1116 -20.1071 -20.0942 -20.0693 -20.0658 -20.0382 -20.0272 -19.9845
   -19.9800 -19.9650 -19.9592 -19.9537 -19.9292 -19.9114 -11.8154  -5.5227
    -5.3835  -3.5626  -2.1080  -1.1440  -0.6479   0.1814   0.8478   1.2723
     1.9660   2.6522   2.8127

          k =-0.0002 0.3669 0.0000 (  9557 PWs)   bands (ev):

   -68.1865 -68.0637 -34.9988 -34.8753 -34.7091 -34.5833 -34.4297 -34.3396
   -20.1114 -20.1072 -20.0960 -20.0684 -20.0623 -20.0346 -20.0310 -19.9853
   -19.9797 -19.9670 -19.9569 -19.9530 -19.9216 -19.9178 -11.4427  -5.9976
    -4.9986  -3.7972  -1.8247  -0.9011  -0.5094   0.1564   1.4275   1.8530
     2.4330   3.1775   3.3908

          k =-0.0002 0.4587 0.0000 (  9546 PWs)   bands (ev):

   -68.1790 -68.0565 -35.0315 -34.9365 -34.7967 -34.5893 -34.4538 -34.3629
   -20.1131 -20.1060 -20.0976 -20.0684 -20.0592 -20.0387 -20.0262 -19.9877
   -19.9781 -19.9690 -19.9561 -19.9514 -19.9220 -19.9157 -11.1829  -6.3984
    -4.9247  -3.9585  -1.1107  -0.8372  -0.1374   0.1374   1.3928   2.5361
     3.0342   3.9392   4.3198

          k = 0.0003-0.5504 0.0000 (  9494 PWs)   bands (ev):

   -68.1763 -68.0539 -35.0614 -34.9475 -34.8217 -34.5912 -34.4621 -34.3711
   -20.1137 -20.1055 -20.0981 -20.0683 -20.0580 -20.0400 -20.0243 -19.9885
   -19.9775 -19.9697 -19.9558 -19.9507 -19.9231 -19.9135 -11.0906  -6.5386
    -4.9450  -4.0274  -0.9628  -0.5559  -0.0588   0.2539   1.3155   2.8526
     3.3322   4.2847   4.8356

          k = 0.0796 0.1376 0.0000 (  9629 PWs)   bands (ev):

   -68.2093 -68.0855 -35.0582 -34.6427 -34.4696 -34.4194 -34.3507 -34.2498
   -20.1150 -20.1060 -20.0913 -20.0734 -20.0668 -20.0470 -20.0161 -19.9890
   -19.9747 -19.9662 -19.9601 -19.9538 -19.9379 -19.9018 -12.3039  -6.5617
    -4.2508  -3.4649  -2.1253  -1.4522  -0.5700  -0.2529   0.3458   0.9557
     1.4308   2.7615   2.9542

          k = 0.0795 0.2293 0.0000 (  9638 PWs)   bands (ev):

   -68.2005 -68.0770 -35.0288 -34.6914 -34.5619 -34.5121 -34.3983 -34.2912
   -20.1133 -20.1070 -20.0920 -20.0716 -20.0669 -20.0416 -20.0229 -19.9862
   -19.9773 -19.9655 -19.9589 -19.9550 -19.9316 -19.9085 -11.9583  -5.8558
    -4.9627  -3.6914  -2.0520  -1.5074  -0.4463   0.1109   0.5490   1.2294
     1.8702   2.6374   2.9140

          k = 0.0795 0.3210 0.0000 (  9596 PWs)   bands (ev):

   -68.1904 -68.0672 -35.0001 -34.8066 -34.6621 -34.5741 -34.4358 -34.3363
   -20.1130 -20.1066 -20.0937 -20.0691 -20.0657 -20.0353 -20.0301 -19.9840
   -19.9798 -19.9668 -19.9573 -19.9545 -19.9240 -19.9154 -11.5720  -5.6422
    -5.1671  -3.8587  -2.1119  -1.1527  -0.5586   0.3487   1.0610   1.6009
     2.4385   2.8577   3.3605

          k = 0.0794 0.4128 0.0000 (  9523 PWs)   bands (ev):

   -68.1815 -68.0587 -34.9989 -34.9090 -34.7602 -34.5919 -34.4635 -34.3726
   -20.1138 -20.1055 -20.0957 -20.0686 -20.0621 -20.0369 -20.0282 -19.9856
   -19.9787 -19.9686 -19.9568 -19.9525 -19.9208 -19.9171 -11.2532  -6.1472
    -4.9373  -3.9109  -1.6787  -0.8819  -0.3567   0.1746   1.5730   1.9210
     2.9408   3.5992   4.3440

          k = 0.0794 0.5045 0.0000 (  9518 PWs)   bands (ev):

   -68.1763 -68.0538 -35.0397 -34.9391 -34.8079 -34.6009 -34.4778 -34.3918
   -20.1141 -20.1052 -20.0972 -20.0690 -20.0592 -20.0399 -20.0247 -19.9878
   -19.9774 -19.9695 -19.9565 -19.9513 -19.9236 -19.9135 -11.0800  -6.4173
    -4.9282  -3.9891  -1.1624  -0.7397  -0.0248   0.0849   1.5679   2.4877
     3.3952   4.2303   5.0140

          k = 0.1591 0.2751 0.0000 (  9599 PWs)   bands (ev):

   -68.1919 -68.0685 -35.0010 -34.7599 -34.6441 -34.5577 -34.4658 -34.3384
   -20.1152 -20.1055 -20.0911 -20.0719 -20.0675 -20.0372 -20.0269 -19.9849
   -19.9778 -19.9660 -19.9586 -19.9556 -19.9246 -19.9142 -11.6264  -5.4750
    -5.1054  -4.2160  -1.9587  -1.5749  -0.6407   0.3789   1.1816   1.6949
     2.4669   2.9037   3.4117

          k = 0.1591 0.3668 0.0000 (  9544 PWs)   bands (ev):

   -68.1831 -68.0600 -34.9839 -34.8519 -34.7252 -34.6016 -34.4905 -34.3988
   -20.1155 -20.1045 -20.0929 -20.0704 -20.0658 -20.0350 -20.0296 -19.9834
   -19.9795 -19.9673 -19.9587 -19.9538 -19.9201 -19.9177 -11.2917  -5.7700
    -4.9603  -4.1733  -1.8570  -1.1601  -0.6929   0.4280   1.4145   1.8998
     2.9090   3.5436   4.4135

          k = 0.1590 0.4586 0.0000 (  9521 PWs)   bands (ev):

   -68.1765 -68.0538 -34.9937 -34.9121 -34.7735 -34.6325 -34.5075 -34.4402
   -20.1151 -20.1044 -20.0947 -20.0707 -20.0622 -20.0390 -20.0256 -19.9854
   -19.9780 -19.9683 -19.9586 -19.9526 -19.9240 -19.9132 -11.0573  -6.1073
    -4.9832  -3.9741  -1.4413  -0.9039  -0.4350   0.0991   1.8866   2.0771
     3.2791   4.2714   5.2434

          k = 0.1590 0.5503 0.0000 (  9538 PWs)   bands (ev):

   -68.1740 -68.0515 -35.0159 -34.9226 -34.7863 -34.6438 -34.5205 -34.4481
   -20.1137 -20.1055 -20.0957 -20.0714 -20.0595 -20.0409 -20.0237 -19.9872
   -19.9767 -19.9679 -19.9589 -19.9519 -19.9261 -19.9118 -10.9818  -6.2281
    -4.9572  -3.9450  -1.2137  -0.7946  -0.2181  -0.0601   1.9967   2.4838
     3.4627   4.4420   4.9920

          k = 0.2387 0.4127 0.0000 (  9502 PWs)   bands (ev):

   -68.1767 -68.0536 -34.9735 -34.8678 -34.7559 -34.6639 -34.5235 -34.4717
   -20.1170 -20.1033 -20.0918 -20.0726 -20.0660 -20.0367 -20.0263 -19.9830
   -19.9798 -19.9666 -19.9605 -19.9539 -19.9235 -19.9126 -11.0434  -5.8618
    -5.0973  -4.2170  -1.2997  -1.1928  -0.7089   0.4251   1.7012   2.2923
     3.1946   4.3703   5.3729

          k = 0.2386 0.5044 0.0000 (  9554 PWs)   bands (ev):

   -68.1728 -68.0501 -34.9679 -34.8921 -34.7540 -34.7101 -34.5603 -34.4967
   -20.1152 -20.1047 -20.0929 -20.0736 -20.0624 -20.0401 -20.0238 -19.9850
   -19.9779 -19.9661 -19.9616 -19.9533 -19.9269 -19.9104 -10.9038  -5.9716
    -5.2098  -3.9048  -1.0846  -0.8552  -0.5527  -0.0174   2.0014   2.4816
     3.3251   4.4974   5.2796

          k = 0.3182 0.5502 0.0000 (  9546 PWs)   bands (ev):

   -68.1714 -68.0487 -34.9441 -34.8592 -34.7844 -34.7075 -34.6235 -34.5063
   -20.1143 -20.1060 -20.0915 -20.0754 -20.0627 -20.0400 -20.0232 -19.9848
   -19.9778 -19.9658 -19.9625 -19.9532 -19.9283 -19.9093 -10.8367  -5.9095
    -5.3676  -3.8931  -0.9047  -0.8728  -0.4320  -0.1163   2.0141   2.7155
     3.2265   4.2977   5.2537

          k =-0.0797 0.0459 0.0000 (  9645 PWs)   bands (ev):

[...]
     1.4602   3.0395   3.2631

          k =-0.0806 0.2319 0.0000 (  9548 PWs)   bands (ev):

   -68.3069 -68.2689 -35.2761 -34.8291 -34.6704 -34.6445 -34.5146 -34.4333
   -20.1972 -20.1873 -20.1747 -20.1718 -20.1639 -20.1581 -20.1439 -20.1351
   -20.1305 -20.1261 -20.0998 -20.0957 -20.0693 -20.0684 -12.6444  -6.4495
    -5.7666  -4.4286  -2.0469  -1.5418  -1.2183   0.2057   0.4071   1.5836
     1.9028   2.9948   3.7723

          k =-0.1612 0.1856 0.0000 (  9546 PWs)   bands (ev):

   -68.3067 -68.2687 -35.2757 -34.8289 -34.6698 -34.6449 -34.5166 -34.4361
   -20.1969 -20.1874 -20.1754 -20.1711 -20.1642 -20.1580 -20.1444 -20.1348
   -20.1307 -20.1259 -20.0997 -20.0957 -20.0694 -20.0686 -12.6423  -6.4454
    -5.7555  -4.4492  -2.0303  -1.5476  -1.2252   0.2117   0.4050   1.5608
     1.9095   3.0028   3.7682

          k = 0.2417 0.0461 0.0000 (  9542 PWs)   bands (ev):

   -68.3066 -68.2686 -35.2754 -34.8301 -34.6700 -34.6454 -34.5167 -34.4365
   -20.1970 -20.1873 -20.1751 -20.1716 -20.1636 -20.1583 -20.1445 -20.1348
   -20.1305 -20.1258 -20.0996 -20.0956 -20.0695 -20.0686 -12.6409  -6.4452
    -5.7572  -4.4499  -2.0391  -1.5434  -1.2222   0.1917   0.4213   1.5703
     1.8965   3.0082   3.7773

          k =-0.1611-0.1853 0.0000 (  9542 PWs)   bands (ev):

   -68.3069 -68.2688 -35.2759 -34.8282 -34.6685 -34.6431 -34.5168 -34.4365
   -20.1972 -20.1875 -20.1747 -20.1714 -20.1640 -20.1583 -20.1439 -20.1350
   -20.1307 -20.1259 -20.0997 -20.0957 -20.0694 -20.0685 -12.6439  -6.4486
    -5.7596  -4.4414  -2.0347  -1.5466  -1.2235   0.2154   0.4030   1.5690
     1.9135   2.9978   3.7672

          k = 0.2418-0.0466 0.0000 (  9544 PWs)   bands (ev):

   -68.3065 -68.2686 -35.2753 -34.8302 -34.6703 -34.6456 -34.5173 -34.4367
   -20.1968 -20.1873 -20.1755 -20.1712 -20.1639 -20.1581 -20.1447 -20.1347
   -20.1306 -20.1258 -20.0996 -20.0956 -20.0695 -20.0686 -12.6402  -6.4434
    -5.7540  -4.4557  -2.0332  -1.5461  -1.2241   0.1930   0.4202   1.5634
     1.8981   3.0090   3.7768

          k =-0.0806 0.3246 0.0000 (  9521 PWs)   bands (ev):

   -68.2916 -68.2608 -35.2376 -34.9629 -34.7835 -34.7118 -34.5803 -34.4680
   -20.1936 -20.1840 -20.1780 -20.1735 -20.1657 -20.1571 -20.1464 -20.1337
   -20.1299 -20.1236 -20.0894 -20.0862 -20.0786 -20.0772 -12.2845  -6.5443
    -5.4817  -4.5505  -2.6945  -1.2678  -1.1361   0.6294   0.9348   2.2073
     2.6462   3.1075   4.0887

          k =-0.2418 0.2320 0.0000 (  9523 PWs)   bands (ev):

   -68.2911 -68.2604 -35.2368 -34.9629 -34.7844 -34.7116 -34.5850 -34.4724
   -20.1928 -20.1842 -20.1789 -20.1726 -20.1661 -20.1569 -20.1472 -20.1335
   -20.1302 -20.1231 -20.0892 -20.0861 -20.0787 -20.0775 -12.2802  -6.5335
    -5.4762  -4.5800  -2.6818  -1.2697  -1.1431   0.6376   0.9493   2.1943
     2.6577   3.0897   4.0885

          k = 0.3223 0.0924 0.0000 (  9513 PWs)   bands (ev):

   -68.2910 -68.2604 -35.2368 -34.9645 -34.7851 -34.7118 -34.5834 -34.4716
   -20.1932 -20.1840 -20.1784 -20.1734 -20.1654 -20.1572 -20.1471 -20.1338
   -20.1297 -20.1231 -20.0892 -20.0860 -20.0787 -20.0775 -12.2795  -6.5402
    -5.4775  -4.5740  -2.6933  -1.2682  -1.1381   0.6349   0.9345   2.2095
     2.6583   3.1066   4.0889

          k =-0.2417-0.2316 0.0000 (  9523 PWs)   bands (ev):

   -68.2913 -68.2606 -35.2368 -34.9613 -34.7821 -34.7110 -34.5851 -34.4725
   -20.1933 -20.1842 -20.1783 -20.1728 -20.1660 -20.1573 -20.1467 -20.1335
   -20.1303 -20.1232 -20.0893 -20.0861 -20.0786 -20.0774 -12.2824  -6.5364
    -5.4797  -4.5712  -2.6828  -1.2696  -1.1415   0.6380   0.9478   2.1943
     2.6552   3.0919   4.0896

          k = 0.3224-0.0930 0.0000 (  9516 PWs)   bands (ev):

   -68.2909 -68.2603 -35.2367 -34.9650 -34.7857 -34.7121 -34.5845 -34.4723
   -20.1928 -20.1841 -20.1790 -20.1729 -20.1658 -20.1569 -20.1475 -20.1338
   -20.1298 -20.1230 -20.0892 -20.0859 -20.0788 -20.0775 -12.2781  -6.5365
    -5.4749  -4.5823  -2.6891  -1.2692  -1.1404   0.6359   0.9386   2.2053
     2.6623   3.0998   4.0882

          k =-0.0807 0.4173 0.0000 (  9456 PWs)   bands (ev):

   -68.2774 -68.2546 -35.2228 -35.1006 -34.8579 -34.7500 -34.6313 -34.4986
   -20.1925 -20.1804 -20.1798 -20.1742 -20.1682 -20.1571 -20.1473 -20.1328
   -20.1287 -20.1209 -20.0863 -20.0841 -20.0801 -20.0779 -12.0126  -6.9403
    -5.0634  -4.6431  -3.1359  -0.8187  -0.6704   1.0870   1.7477   2.2956
     3.2523   3.9164   4.2726

          k =-0.3224 0.2785 0.0000 (  9460 PWs)   bands (ev):

   -68.2765 -68.2542 -35.2232 -35.1009 -34.8589 -34.7508 -34.6373 -34.5041
   -20.1916 -20.1810 -20.1803 -20.1732 -20.1689 -20.1567 -20.1483 -20.1330
   -20.1288 -20.1202 -20.0865 -20.0845 -20.0798 -20.0775 -12.0068  -6.9326
    -5.0641  -4.6785  -3.1289  -0.8148  -0.6601   1.1027   1.7700   2.3047
     3.2404   3.9055   4.2716

          k = 0.4029 0.1387 0.0000 (  9460 PWs)   bands (ev):

   -68.2766 -68.2543 -35.2234 -35.1018 -34.8591 -34.7504 -34.6354 -34.5030
   -20.1921 -20.1805 -20.1801 -20.1743 -20.1680 -20.1571 -20.1480 -20.1332
   -20.1283 -20.1204 -20.0865 -20.0845 -20.0798 -20.0776 -12.0070  -6.9389
    -5.0664  -4.6671  -3.1386  -0.8106  -0.6673   1.0941   1.7496   2.3081
     3.2711   3.9094   4.2758

          k =-0.3223-0.2779 0.0000 (  9456 PWs)   bands (ev):

   -68.2768 -68.2544 -35.2223 -35.0994 -34.8568 -34.7506 -34.6368 -34.5037
   -20.1921 -20.1806 -20.1801 -20.1734 -20.1687 -20.1572 -20.1477 -20.1328
   -20.1288 -20.1204 -20.0864 -20.0844 -20.0799 -20.0776 -12.0090  -6.9346
    -5.0656  -4.6690  -3.1280  -0.8178  -0.6612   1.1012   1.7675   2.3016
     3.2335   3.9098   4.2718

          k = 0.4029-0.1395 0.0000 (  9456 PWs)   bands (ev):

   -68.2764 -68.2541 -35.2239 -35.1025 -34.8599 -34.7509 -34.6366 -34.5038
   -20.1916 -20.1809 -20.1802 -20.1736 -20.1685 -20.1567 -20.1485 -20.1333
   -20.1284 -20.1202 -20.0865 -20.0845 -20.0797 -20.0775 -12.0053  -6.9359
    -5.0650  -4.6769  -3.1364  -0.8101  -0.6645   1.0966   1.7565   2.3113
     3.2676   3.9061   4.2741

          k =-0.0807 0.5101 0.0000 (  9448 PWs)   bands (ev):

   -68.2683 -68.2520 -35.2323 -35.1802 -34.8762 -34.7779 -34.6580 -34.5168
   -20.1927 -20.1805 -20.1782 -20.1739 -20.1705 -20.1573 -20.1473 -20.1324
   -20.1278 -20.1191 -20.0907 -20.0876 -20.0748 -20.0734 -11.8757  -7.1525
    -4.9601  -4.7053  -3.3403  -0.2464  -0.1746   1.4725   2.0610   2.3832
     3.7888   3.9566   5.0557

          k =-0.4030 0.3249 0.0000 (  9425 PWs)   bands (ev):

   -68.2671 -68.2515 -35.2366 -35.1794 -34.8763 -34.7797 -34.6640 -34.5226
   -20.1919 -20.1812 -20.1783 -20.1731 -20.1709 -20.1569 -20.1485 -20.1329
   -20.1277 -20.1183 -20.0908 -20.0880 -20.0743 -20.0729 -11.8688  -7.1483
    -4.9671  -4.7420  -3.3409  -0.2275  -0.1553   1.4920   2.0648   2.4078
     3.7892   3.9524   5.0673

          k = 0.4835 0.1850 0.0000 (  9444 PWs)   bands (ev):

   -68.2674 -68.2517 -35.2353 -35.1795 -34.8758 -34.7793 -34.6627 -34.5216
   -20.1923 -20.1808 -20.1783 -20.1740 -20.1703 -20.1574 -20.1479 -20.1328
   -20.1276 -20.1186 -20.0908 -20.0880 -20.0744 -20.0730 -11.8702  -7.1518
    -4.9693  -4.7286  -3.3438  -0.2334  -0.1614   1.4823   2.0676   2.3928
     3.8021   3.9506   5.0735

          k =-0.4029-0.3242 0.0000 (  9431 PWs)   bands (ev):

   -68.2675 -68.2517 -35.2343 -35.1788 -34.8751 -34.7795 -34.6631 -34.5219
   -20.1923 -20.1809 -20.1782 -20.1736 -20.1707 -20.1574 -20.1478 -20.1327
   -20.1277 -20.1185 -20.0907 -20.0879 -20.0745 -20.0731 -11.8709  -7.1501
    -4.9662  -4.7325  -3.3396  -0.2329  -0.1607   1.4891   2.0636   2.4024
     3.7800   3.9589   5.0606

          k = 0.4835-0.1859 0.0000 (  9436 PWs)   bands (ev):

   -68.2670 -68.2515 -35.2371 -35.1799 -34.8766 -34.7797 -34.6638 -34.5225
   -20.1919 -20.1812 -20.1784 -20.1734 -20.1707 -20.1569 -20.1486 -20.1330
   -20.1275 -20.1183 -20.0908 -20.0880 -20.0743 -20.0729 -11.8683  -7.1496
    -4.9696  -4.7389  -3.3439  -0.2281  -0.1557   1.4858   2.0694   2.4006
     3.8052   3.9464   5.0762

          k =-0.1612 0.2783 0.0000 (  9509 PWs)   bands (ev):

   -68.2935 -68.2616 -35.2397 -34.9132 -34.7899 -34.6980 -34.5621 -34.4969
   -20.1923 -20.1853 -20.1767 -20.1748 -20.1643 -20.1576 -20.1466 -20.1344
   -20.1286 -20.1250 -20.0908 -20.0875 -20.0773 -20.0768 -12.3213  -6.1699
    -5.7391  -4.7892  -2.1905  -1.7058  -0.6649  -0.2342   0.7601   2.2895
     2.6062   2.9876   4.5933

          k = 0.3223-0.0003 0.0000 (  9507 PWs)   bands (ev):

   -68.2931 -68.2614 -35.2393 -34.9166 -34.7910 -34.6989 -34.5631 -34.4979
   -20.1922 -20.1852 -20.1770 -20.1749 -20.1640 -20.1577 -20.1471 -20.1345
   -20.1284 -20.1247 -20.0906 -20.0873 -20.0775 -20.0769 -12.3173  -6.1717
    -5.7359  -4.7994  -2.1956  -1.7083  -0.6679  -0.2323   0.7608   2.2974
     2.6087   2.9930   4.6015

          k =-0.1612 0.3711 0.0000 (  9470 PWs)   bands (ev):

   -68.2795 -68.2554 -35.2124 -35.0210 -34.8709 -34.7391 -34.6298 -34.5489
   -20.1890 -20.1828 -20.1779 -20.1763 -20.1659 -20.1580 -20.1481 -20.1335
   -20.1268 -20.1238 -20.0857 -20.0848 -20.0813 -20.0791 -12.0298  -6.5137
    -5.1817  -5.0157  -2.4564  -1.3856  -0.6853   0.1667   1.3948   2.3166
     3.3767   3.7115   5.2176

          k =-0.2418 0.3248 0.0000 (  9470 PWs)   bands (ev):

   -68.2791 -68.2552 -35.2122 -35.0206 -34.8718 -34.7390 -34.6324 -34.5511
   -20.1884 -20.1832 -20.1788 -20.1754 -20.1662 -20.1578 -20.1485 -20.1334
   -20.1273 -20.1232 -20.0857 -20.0849 -20.0813 -20.0789 -12.0276  -6.5074
    -5.1929  -5.0195  -2.4529  -1.3809  -0.6936   0.1790   1.4030   2.3203
     3.3703   3.7070   5.2163

          k = 0.4029 0.0460 0.0000 (  9478 PWs)   bands (ev):

   -68.2788 -68.2551 -35.2129 -35.0245 -34.8723 -34.7397 -34.6315 -34.5505
   -20.1886 -20.1828 -20.1783 -20.1763 -20.1657 -20.1581 -20.1487 -20.1337
   -20.1266 -20.1233 -20.0859 -20.0850 -20.0812 -20.0789 -12.0249  -6.5168
    -5.1862  -5.0256  -2.4637  -1.3896  -0.6824   0.1711   1.3976   2.3298
     3.3821   3.7257   5.2229

          k =-0.2417-0.3243 0.0000 (  9466 PWs)   bands (ev):

   -68.2794 -68.2554 -35.2116 -35.0182 -34.8699 -34.7382 -34.6329 -34.5522
   -20.1888 -20.1831 -20.1784 -20.1754 -20.1662 -20.1583 -20.1480 -20.1333
   -20.1273 -20.1233 -20.0856 -20.0849 -20.0814 -20.0790 -12.0295  -6.5076
    -5.1912  -5.0173  -2.4502  -1.3796  -0.6931   0.1764   1.3996   2.3176
     3.3683   3.7037   5.2172

          k = 0.4029-0.0467 0.0000 (  9478 PWs)   bands (ev):

   -68.2788 -68.2550 -35.2129 -35.0248 -34.8725 -34.7400 -34.6321 -34.5507
   -20.1883 -20.1830 -20.1788 -20.1758 -20.1659 -20.1579 -20.1489 -20.1338
   -20.1268 -20.1231 -20.0859 -20.0851 -20.0811 -20.0789 -12.0242  -6.5147
    -5.1888  -5.0264  -2.4624  -1.3885  -0.6852   0.1741   1.4001   2.3311
     3.3803   3.7244   5.2208

          k =-0.1613 0.4638 0.0000 (  9454 PWs)   bands (ev):

   -68.2681 -68.2519 -35.2006 -35.1146 -34.8850 -34.7957 -34.6744 -34.5840
   -20.1888 -20.1808 -20.1781 -20.1749 -20.1686 -20.1588 -20.1486 -20.1321
   -20.1274 -20.1218 -20.0915 -20.0898 -20.0748 -20.0733 -11.8392  -6.7695
    -5.2025  -4.8350  -2.6243  -0.7768  -0.5738   0.6315   2.0662   2.3022
     3.6916   4.1692   5.7036

          k =-0.3224 0.3712 0.0000 (  9441 PWs)   bands (ev):

   -68.2674 -68.2516 -35.2020 -35.1144 -34.8861 -34.7969 -34.6777 -34.5872
   -20.1881 -20.1811 -20.1785 -20.1741 -20.1691 -20.1584 -20.1493 -20.1321
   -20.1278 -20.1211 -20.0915 -20.0901 -20.0745 -20.0730 -11.8352  -6.7649
    -5.2236  -4.8408  -2.6303  -0.7584  -0.5628   0.6422   2.0780   2.3115
     3.6970   4.1570   5.7024

          k = 0.4835 0.0923 0.0000 (  9455 PWs)   bands (ev):

   -68.2673 -68.2516 -35.2026 -35.1161 -34.8862 -34.7961 -34.6770 -34.5864
   -20.1884 -20.1809 -20.1783 -20.1750 -20.1684 -20.1588 -20.1491 -20.1325
   -20.1271 -20.1212 -20.0916 -20.0902 -20.0746 -20.0731 -11.8344  -6.7721
    -5.2186  -4.8411  -2.6343  -0.7737  -0.5616   0.6369   2.0722   2.3129
     3.6888   4.1969   5.7121

          k =-0.3223-0.3706 0.0000 (  9442 PWs)   bands (ev):

   -68.2677 -68.2518 -35.2002 -35.1128 -34.8845 -34.7967 -34.6776 -34.5877
   -20.1884 -20.1810 -20.1783 -20.1742 -20.1690 -20.1589 -20.1488 -20.1320
   -20.1278 -20.1212 -20.0915 -20.0900 -20.0746 -20.0731 -11.8369  -6.7654
    -5.2170  -4.8403  -2.6267  -0.7604  -0.5664   0.6389   2.0735   2.3104
     3.6964   4.1478   5.7015

          k = 0.4835-0.0932 0.0000 (  9451 PWs)   bands (ev):

   -68.2671 -68.2515 -35.2034 -35.1167 -34.8864 -34.7971 -34.6774 -34.5866
   -20.1881 -20.1810 -20.1785 -20.1745 -20.1688 -20.1585 -20.1495 -20.1325
   -20.1273 -20.1210 -20.0916 -20.0902 -20.0745 -20.0730 -11.8333  -6.7701
    -5.2246  -4.8415  -2.6358  -0.7682  -0.5592   0.6392   2.0761   2.3157
     3.6911   4.1927   5.7102

          k =-0.4030 0.4176 0.0000 (  9444 PWs)   bands (ev):

   -68.2623 -68.2510 -35.1982 -35.1552 -34.8565 -34.8519 -34.6894 -34.6004
   -20.1885 -20.1807 -20.1773 -20.1733 -20.1708 -20.1587 -20.1496 -20.1315
   -20.1283 -20.1201 -20.0939 -20.0920 -20.0719 -20.0709 -11.7695  -6.8615
    -5.2528  -4.7966  -2.7023  -0.4085  -0.3520   0.7673   2.2957   2.4652
     3.7589   3.9820   5.9684

          k = 0.5641 0.1386 0.0000 (  9442 PWs)   bands (ev):

   -68.2626 -68.2511 -35.1959 -35.1550 -34.8555 -34.8514 -34.6891 -34.6004
   -20.1887 -20.1807 -20.1771 -20.1737 -20.1704 -20.1592 -20.1490 -20.1314
   -20.1282 -20.1203 -20.0939 -20.0920 -20.0720 -20.0710 -11.7710  -6.8627
    -5.2461  -4.7952  -2.6987  -0.4146  -0.3580   0.7644   2.2954   2.4586
     3.7544   3.9832   5.9681

          k =-0.2418 0.4175 0.0000 (  9438 PWs)   bands (ev):

   -68.2677 -68.2517 -35.1864 -35.0536 -34.9352 -34.7716 -34.6876 -34.6294
   -20.1841 -20.1836 -20.1773 -20.1758 -20.1674 -20.1595 -20.1495 -20.1323
   -20.1256 -20.1242 -20.0917 -20.0911 -20.0748 -20.0731 -11.8195  -6.4694
    -5.5341  -4.7705  -1.8951  -1.4689  -0.7682   0.3398   1.9415   2.3621
     3.6805   4.1659   5.9912

          k = 0.4835-0.0005 0.0000 (  9442 PWs)   bands (ev):

   -68.2672 -68.2516 -35.1881 -35.0585 -34.9337 -34.7730 -34.6882 -34.6289
   -20.1840 -20.1835 -20.1774 -20.1762 -20.1672 -20.1595 -20.1499 -20.1326
   -20.1252 -20.1239 -20.0918 -20.0913 -20.0746 -20.0730 -11.8160  -6.4773
    -5.5380  -4.7751  -1.9032  -1.4785  -0.7607   0.3429   1.9445   2.3716
     3.6732   4.2078   5.9861

          k =-0.2419 0.5102 0.0000 (  9448 PWs)   bands (ev):

   -68.2598 -68.2512 -35.1478 -35.0925 -34.9540 -34.8186 -34.7095 -34.6775
   -20.1852 -20.1805 -20.1767 -20.1734 -20.1695 -20.1610 -20.1501 -20.1302
   -20.1275 -20.1236 -20.0957 -20.0947 -20.0709 -20.0700 -11.7048  -6.4744
    -5.7142  -4.6109  -1.8100  -0.9732  -0.7350   0.3963   2.3786   2.4449
     3.5561   3.7201   6.0856

          k =-0.3224 0.4639 0.0000 (  9463 PWs)   bands (ev):

   -68.2593 -68.2512 -35.1499 -35.0924 -34.9546 -34.8198 -34.7104 -34.6780
   -20.1853 -20.1802 -20.1770 -20.1732 -20.1699 -20.1607 -20.1505 -20.1302
   -20.1281 -20.1230 -20.0957 -20.0949 -20.0709 -20.0699 -11.7028  -6.4726
    -5.7242  -4.6156  -1.8326  -0.9460  -0.7257   0.3996   2.3823   2.4530
     3.5643   3.7133   6.0855

          k = 0.5641 0.0458 0.0000 (  9448 PWs)   bands (ev):

   -68.2592 -68.2512 -35.1501 -35.0941 -34.9536 -34.8193 -34.7109 -34.6776
   -20.1852 -20.1804 -20.1768 -20.1737 -20.1694 -20.1610 -20.1504 -20.1307
   -20.1274 -20.1230 -20.0957 -20.0949 -20.0708 -20.0698 -11.7020  -6.4780
    -5.7213  -4.6172  -1.8269  -0.9689  -0.7195   0.3999   2.3854   2.4525
     3.5433   3.7520   6.0938

          k =-0.3222-0.4633 0.0000 (  9461 PWs)   bands (ev):

   -68.2595 -68.2512 -35.1479 -35.0912 -34.9550 -34.8186 -34.7103 -34.6794
   -20.1851 -20.1805 -20.1770 -20.1731 -20.1697 -20.1611 -20.1502 -20.1300
   -20.1281 -20.1231 -20.0957 -20.0949 -20.0709 -20.0699 -11.7037  -6.4728
    -5.7205  -4.6141  -1.8262  -0.9482  -0.7315   0.3970   2.3783   2.4529
     3.5682   3.7015   6.0827

          k = 0.5641-0.0469 0.0000 (  9451 PWs)   bands (ev):

   -68.2591 -68.2512 -35.1509 -35.0946 -34.9533 -34.8204 -34.7106 -34.6773
   -20.1853 -20.1801 -20.1770 -20.1735 -20.1696 -20.1607 -20.1507 -20.1307
   -20.1276 -20.1229 -20.0957 -20.0949 -20.0708 -20.0698 -11.7015  -6.4770
    -5.7244  -4.6181  -1.8332  -0.9609  -0.7171   0.4009   2.3858   2.4552
     3.5460   3.7495   6.0932

     the Fermi energy is    -0.2214 ev

!    total energy              =   -1373.23202626 Ry
     estimated scf accuracy    <          2.9E-15 Ry
     smearing contrib. (-TS)   =       0.00001300 Ry
     internal energy E=F+TS    =   -1373.23203927 Ry

     The total energy is F=E-TS. E is the sum of the following terms:
     one-electron contribution =  -10891.24694968 Ry
     hartree contribution      =    5473.60359463 Ry
     xc contribution           =    -138.72740570 Ry
     ewald contribution        =    4183.13872148 Ry

     convergence has been achieved in  24 iterations

     negative rho (up, down):  8.202E-04 0.000E+00

     Forces acting on atoms (cartesian axes, Ry/au):

     atom    1 type  2   force =     0.00031362    0.00028506   -0.00016925
     atom    2 type  1   force =    -0.00034962    0.00001841    0.00057576
     atom    3 type  1   force =     0.00003601   -0.00030347   -0.00040651

     Total force =     0.000844     Total SCF correction =     0.000000


     Computing stress (Cartesian axis) and pressure


     negative rho (up, down):  8.202E-04 0.000E+00
          total   stress  (Ry/bohr**3)                   (kbar)     P=       -1.96
  -0.00000187   0.00000090   0.00000055           -0.28        0.13        0.08
   0.00000090  -0.00000117  -0.00000046            0.13       -0.17       -0.07
   0.00000055  -0.00000046  -0.00003687            0.08       -0.07       -5.42


     Writing output data file /scratch/as3359/Ta2C_looping/Ta.save/
 
     init_run     :     24.40s CPU     14.65s WALL (       2 calls)
     electrons    :  13241.21s CPU   6783.65s WALL (      26 calls)
     update_pot   :    147.02s CPU     88.26s WALL (      24 calls)
     forces       :    126.11s CPU     64.25s WALL (      26 calls)
     stress       :    395.22s CPU    201.33s WALL (      26 calls)

     Called by init_run:
     wfcinit      :     10.93s CPU      5.62s WALL (       2 calls)
     potinit      :      3.28s CPU      1.65s WALL (       2 calls)
     hinit0       :      9.17s CPU      6.73s WALL (       2 calls)

     Called by electrons:
     c_bands      :  10998.53s CPU   5567.79s WALL (     771 calls)
     sum_band     :   1839.01s CPU    980.91s WALL (     771 calls)
     v_of_rho     :     59.92s CPU     30.40s WALL (     797 calls)
     newd         :    334.93s CPU    200.38s WALL (     797 calls)
     mix_rho      :     14.48s CPU      7.40s WALL (     771 calls)

     Called by c_bands:
     init_us_2    :    208.15s CPU    104.97s WALL (  118104 calls)
     cegterg      :  10148.59s CPU   5139.45s WALL (   57950 calls)

     Called by *egterg:
     cdiaghg      :    622.54s CPU    318.24s WALL (  290651 calls)
     h_psi        :   7559.54s CPU   3834.72s WALL (  293064 calls)
     s_psi        :    309.81s CPU    155.71s WALL (  293064 calls)
     g_psi        :     70.45s CPU     35.42s WALL (  234966 calls)

     Called by h_psi:
     h_psi:calbec :    309.68s CPU    156.08s WALL (  293064 calls)
     vloc_psi     :   6872.64s CPU   3489.09s WALL (  293064 calls)
     add_vuspsi   :    317.56s CPU    159.66s WALL (  293064 calls)

     General routines
     calbec       :    414.44s CPU    209.00s WALL (  359738 calls)
     fft          :     30.95s CPU     15.99s WALL (   10983 calls)
     ffts         :      1.92s CPU      0.98s WALL (    1568 calls)
     fftw         :   7121.34s CPU   3617.80s WALL (13443450 calls)
     interpolate  :      3.91s CPU      2.00s WALL (     797 calls)
 
     Parallel routines
 
     PWSCF        :      3h52m CPU      1h59m WALL

 
   This run was terminated on:  11:47:35   6Apr2022            

=------------------------------------------------------------------------------=
   JOB DONE.
=------------------------------------------------------------------------------=
