
     Program PWSCF v.6.8 starts on  6Apr2022 at 11:50:26 

     This program is part of the open-source Quantum ESPRESSO suite
     for quantum simulation of materials; please cite
         "P. Giannozzi et al., J. Phys.:Condens. Matter 21 395502 (2009);
         "P. Giannozzi et al., J. Phys.:Condens. Matter 29 465901 (2017);
         "P. Giannozzi et al., J. Chem. Phys. 152 154105 (2020);
          URL http://www.quantum-espresso.org", 
     in publications or presentations arising from this work. More details at
     http://www.quantum-espresso.org/quote

     Parallel version (MPI & OpenMP), running on       4 processor cores
     Number of MPI processes:                 2
     Threads/MPI process:                     2

     MPI processes distributed on     1 nodes
     R & G space division:  proc/nbgrp/npool/nimage =       2
     124630 MiB available memory on the printing compute node when the environment starts
 
     Reading input from Ta2C.scf.vcrelax1.in

     Current dimensions of program PWSCF are:
     Max number of different atomic species (ntypx) = 10
     Max number of k-points (npk) =  40000
     Max angular momentum in pseudopotentials (lmaxx) =  4
     file Ta.pbesol-spfn-rrkjus_psl.1.0.0.UPF: wavefunction(s)  5S 5P renormalized

     Subspace diagonalization in iterative solution of the eigenvalue problem:
     a serial algorithm will be used

 
     Parallelization info
     --------------------
     sticks:   dense  smooth     PW     G-vecs:    dense   smooth      PW
     Min         337     225     75                69622    37871    7291
     Max         338     226     76                69657    37888    7324
     Sum         675     451    151               139279    75759   14615
 
     Using Slab Decomposition
 


     bravais-lattice index     =            0
     lattice parameter (alat)  =       5.5500  a.u.
     unit-cell volume          =    1588.7844 (a.u.)^3
     number of atoms/cell      =            3
     number of atomic types    =            2
     number of electrons       =        58.00
     number of Kohn-Sham states=           35
     kinetic-energy cutoff     =      50.0000  Ry
     charge density cutoff     =     300.0000  Ry
     scf convergence threshold =      1.0E-12
     mixing beta               =       0.7000
     number of iterations used =            8  plain     mixing
     energy convergence thresh.=      1.0E-04
     force convergence thresh. =      1.0E-03
     press convergence thresh. =      5.0E-01
     Exchange-correlation= PBESOL
                           (   1   4  10   8   0   0   0)
     nstep                     =           50


     celldm(1)=   5.550000  celldm(2)=   0.000000  celldm(3)=   0.000000
     celldm(4)=   0.000000  celldm(5)=   0.000000  celldm(6)=   0.000000

     crystal axes: (cart. coord. in units of alat)
               a(1) = (   1.034114   0.000203   0.000000 )  
               a(2) = (  -0.516207   0.898604   0.000000 )  
               a(3) = (   0.000000   0.000000  10.000000 )  

     reciprocal axes: (cart. coord. in units 2 pi/alat)
               b(1) = (  0.966902  0.555441  0.000000 )  
               b(2) = ( -0.000219  1.112711  0.000000 )  
               b(3) = (  0.000000  0.000000  0.100000 )  


     PseudoPot. # 1 for Ta read from file:
     /shared/home/as3359/pseudo/Ta.pbesol-spfn-rrkjus_psl.1.0.0.UPF
     MD5 check sum: f099565ffaca9b150a52e9412a28e20b
     Pseudo is Ultrasoft + core correction, Zval = 27.0
     Generated using &quot;atomic&quot; code by A. Dal Corso  v.6.3
     Using radial grid of 1273 points,  8 beta functions with: 
                l(1) =   0
                l(2) =   0
                l(3) =   1
                l(4) =   1
                l(5) =   2
                l(6) =   2
                l(7) =   3
                l(8) =   3
     Q(r) pseudized with 0 coefficients 


     PseudoPot. # 2 for C  read from file:
     /shared/home/as3359/pseudo/C.pbesol-n-rrkjus_psl.1.0.0.UPF
     MD5 check sum: 05995be603a8a7c99da3dc4413f31573
     Pseudo is Ultrasoft + core correction, Zval =  4.0
     Generated using &quot;atomic&quot; code by A. Dal Corso  v.6.3MaX
     Using radial grid of 1073 points,  4 beta functions with: 
                l(1) =   0
                l(2) =   0
                l(3) =   1
                l(4) =   1
     Q(r) pseudized with 0 coefficients 


     atomic species   valence    mass     pseudopotential
        Ta            27.00   180.94788     Ta( 1.00)
        C              4.00    12.01070     C ( 1.00)

     No symmetry found



   Cartesian axes

     site n.     atom                  positions (alat units)
         1           C   tau(   1) = (   0.0000000   0.0000000   0.0000000  )
         2           Ta  tau(   2) = (   0.5174615   0.3004190  -0.4127129  )
         3           Ta  tau(   3) = (   0.0007158   0.5986355   0.4125272  )

     number of k points=    74  Marzari-Vanderbilt smearing, width (Ry)=  0.0010
                       cart. coord. in units 2pi/alat
        k(    1) = (   0.0000000   0.0000000   0.0000000), wk =   0.0138889
        k(    2) = (  -0.0000182   0.0927259   0.0000000), wk =   0.0277778
        k(    3) = (  -0.0000364   0.1854519   0.0000000), wk =   0.0277778
        k(    4) = (  -0.0000547   0.2781778   0.0000000), wk =   0.0277778
        k(    5) = (  -0.0000729   0.3709037   0.0000000), wk =   0.0277778
        k(    6) = (  -0.0000911   0.4636296   0.0000000), wk =   0.0277778
        k(    7) = (   0.0001093  -0.5563556   0.0000000), wk =   0.0138889
        k(    8) = (   0.0805752   0.0462867   0.0000000), wk =   0.0277778
        k(    9) = (   0.0805570   0.1390127   0.0000000), wk =   0.0277778
        k(   10) = (   0.0805388   0.2317386   0.0000000), wk =   0.0277778
        k(   11) = (   0.0805205   0.3244645   0.0000000), wk =   0.0277778
        k(   12) = (   0.0805023   0.4171904   0.0000000), wk =   0.0277778
        k(   13) = (   0.0804841   0.5099164   0.0000000), wk =   0.0277778
        k(   14) = (   0.0806845  -0.5100688   0.0000000), wk =   0.0277778
        k(   15) = (   0.0806663  -0.4173429   0.0000000), wk =   0.0277778
        k(   16) = (   0.0806481  -0.3246170   0.0000000), wk =   0.0277778
        k(   17) = (   0.0806298  -0.2318910   0.0000000), wk =   0.0277778
        k(   18) = (   0.0806116  -0.1391651   0.0000000), wk =   0.0277778
        k(   19) = (   0.0805934  -0.0464392   0.0000000), wk =   0.0277778
        k(   20) = (   0.1611504   0.0925735   0.0000000), wk =   0.0277778
        k(   21) = (   0.1611322   0.1852994   0.0000000), wk =   0.0277778
        k(   22) = (   0.1611139   0.2780253   0.0000000), wk =   0.0277778
        k(   23) = (   0.1610957   0.3707513   0.0000000), wk =   0.0277778
        k(   24) = (   0.1610775   0.4634772   0.0000000), wk =   0.0277778
        k(   25) = (   0.1610593   0.5562031   0.0000000), wk =   0.0277778
        k(   26) = (   0.1612597  -0.4637821   0.0000000), wk =   0.0277778
        k(   27) = (   0.1612415  -0.3710561   0.0000000), wk =   0.0277778
        k(   28) = (   0.1612232  -0.2783302   0.0000000), wk =   0.0277778
        k(   29) = (   0.1612050  -0.1856043   0.0000000), wk =   0.0277778
        k(   30) = (   0.1611868  -0.0928784   0.0000000), wk =   0.0277778
        k(   31) = (   0.1611686  -0.0001524   0.0000000), wk =   0.0277778
        k(   32) = (   0.2417256   0.1388602   0.0000000), wk =   0.0277778
        k(   33) = (   0.2417073   0.2315862   0.0000000), wk =   0.0277778
        k(   34) = (   0.2416891   0.3243121   0.0000000), wk =   0.0277778
        k(   35) = (   0.2416709   0.4170380   0.0000000), wk =   0.0277778
        k(   36) = (   0.2416527   0.5097639   0.0000000), wk =   0.0277778
        k(   37) = (   0.2416345   0.6024899   0.0000000), wk =   0.0277778
        k(   38) = (   0.2418349  -0.4174953   0.0000000), wk =   0.0277778
        k(   39) = (   0.2418166  -0.3247694   0.0000000), wk =   0.0277778
        k(   40) = (   0.2417984  -0.2320435   0.0000000), wk =   0.0277778
        k(   41) = (   0.2417802  -0.1393175   0.0000000), wk =   0.0277778
        k(   42) = (   0.2417620  -0.0465916   0.0000000), wk =   0.0277778
        k(   43) = (   0.2417438   0.0461343   0.0000000), wk =   0.0277778
        k(   44) = (   0.3223007   0.1851470   0.0000000), wk =   0.0277778
        k(   45) = (   0.3222825   0.2778729   0.0000000), wk =   0.0277778
        k(   46) = (   0.3222643   0.3705988   0.0000000), wk =   0.0277778
        k(   47) = (   0.3222461   0.4633248   0.0000000), wk =   0.0277778
        k(   48) = (   0.3222279   0.5560507   0.0000000), wk =   0.0277778
        k(   49) = (   0.3222097   0.6487766   0.0000000), wk =   0.0277778
        k(   50) = (   0.3224100  -0.3712086   0.0000000), wk =   0.0277778
        k(   51) = (   0.3223918  -0.2784827   0.0000000), wk =   0.0277778
        k(   52) = (   0.3223736  -0.1857567   0.0000000), wk =   0.0277778
        k(   53) = (   0.3223554  -0.0930308   0.0000000), wk =   0.0277778
        k(   54) = (   0.3223372  -0.0003049   0.0000000), wk =   0.0277778
        k(   55) = (   0.3223190   0.0924210   0.0000000), wk =   0.0277778
        k(   56) = (   0.4028759   0.2314337   0.0000000), wk =   0.0277778
        k(   57) = (   0.4028577   0.3241596   0.0000000), wk =   0.0277778
        k(   58) = (   0.4028395   0.4168856   0.0000000), wk =   0.0277778
        k(   59) = (   0.4028213   0.5096115   0.0000000), wk =   0.0277778
        k(   60) = (   0.4028031   0.6023374   0.0000000), wk =   0.0277778
        k(   61) = (   0.4027848   0.6950633   0.0000000), wk =   0.0277778
        k(   62) = (   0.4029852  -0.3249218   0.0000000), wk =   0.0277778
        k(   63) = (   0.4029670  -0.2321959   0.0000000), wk =   0.0277778
        k(   64) = (   0.4029488  -0.1394700   0.0000000), wk =   0.0277778
        k(   65) = (   0.4029306  -0.0467441   0.0000000), wk =   0.0277778
        k(   66) = (   0.4029124   0.0459819   0.0000000), wk =   0.0277778
        k(   67) = (   0.4028941   0.1387078   0.0000000), wk =   0.0277778
        k(   68) = (  -0.4834511  -0.2777205   0.0000000), wk =   0.0138889
        k(   69) = (  -0.4834693  -0.1849945   0.0000000), wk =   0.0277778
        k(   70) = (  -0.4834875  -0.0922686   0.0000000), wk =   0.0277778
        k(   71) = (  -0.4835058   0.0004573   0.0000000), wk =   0.0277778
        k(   72) = (  -0.4835240   0.0931832   0.0000000), wk =   0.0277778
        k(   73) = (  -0.4835422   0.1859092   0.0000000), wk =   0.0277778
        k(   74) = (  -0.4833418  -0.8340760   0.0000000), wk =   0.0138889

     Dense  grid:   139279 G-vectors     FFT dimensions: (  32,  32, 320)

     Smooth grid:    75759 G-vectors     FFT dimensions: (  25,  25, 250)

     Estimated max dynamical RAM per process >     869.23 MB

     Estimated total dynamical RAM >       1.70 GB

     Check: negative core charge=   -0.000001

     Initial potential from superposition of free atoms

     starting charge   57.99842, renormalised to   58.00000

     negative rho (up, down):  8.408E-04 0.000E+00
     Starting wfcs are   38 randomized atomic wfcs

     total cpu time spent up to now is        8.0 secs

     Self-consistent Calculation

     iteration #  1     ecut=    50.00 Ry     beta= 0.70
     Davidson diagonalization with overlap
     ethr =  1.00E-02,  avg # of iterations =  2.2

     negative rho (up, down):  7.700E-04 0.000E+00

     total cpu time spent up to now is       15.3 secs

     total energy              =   -1372.40495147 Ry
     estimated scf accuracy    <       1.34098834 Ry

     iteration #  2     ecut=    50.00 Ry     beta= 0.70
     Davidson diagonalization with overlap
     ethr =  2.31E-03,  avg # of iterations = 12.1

     total cpu time spent up to now is       27.0 secs

     total energy              =   -1370.22074179 Ry
     estimated scf accuracy    <      20.62043110 Ry

     iteration #  3     ecut=    50.00 Ry     beta= 0.70
     Davidson diagonalization with overlap
     ethr =  2.31E-03,  avg # of iterations =  8.3

     total cpu time spent up to now is       37.4 secs

     total energy              =   -1373.19037870 Ry
     estimated scf accuracy    <       0.40505731 Ry

     iteration #  4     ecut=    50.00 Ry     beta= 0.70
     Davidson diagonalization with overlap
     ethr =  6.98E-04,  avg # of iterations =  3.4

     total cpu time spent up to now is       45.0 secs

     total energy              =   -1373.21309515 Ry
     estimated scf accuracy    <       0.68952210 Ry

     iteration #  5     ecut=    50.00 Ry     beta= 0.70
     Davidson diagonalization with overlap
     ethr =  6.98E-04,  avg # of iterations =  1.2

     total cpu time spent up to now is       51.5 secs

     total energy              =   -1373.24013595 Ry
     estimated scf accuracy    <       0.36302086 Ry

     iteration #  6     ecut=    50.00 Ry     beta= 0.70
     Davidson diagonalization with overlap
     ethr =  6.26E-04,  avg # of iterations =  1.0

     total cpu time spent up to now is       57.9 secs

     total energy              =   -1373.24072179 Ry
     estimated scf accuracy    <       0.04126068 Ry

     iteration #  7     ecut=    50.00 Ry     beta= 0.70
     Davidson diagonalization with overlap
     ethr =  7.11E-05,  avg # of iterations =  2.6

     total cpu time spent up to now is       64.6 secs

     total energy              =   -1373.23398914 Ry
     estimated scf accuracy    <       0.02868480 Ry

     iteration #  8     ecut=    50.00 Ry     beta= 0.70
     Davidson diagonalization with overlap
     ethr =  4.95E-05,  avg # of iterations =  2.1

     total cpu time spent up to now is       71.4 secs

     total energy              =   -1373.23363631 Ry
     estimated scf accuracy    <       0.00949493 Ry

     iteration #  9     ecut=    50.00 Ry     beta= 0.70
     Davidson diagonalization with overlap
     ethr =  1.64E-05,  avg # of iterations =  2.3

     total cpu time spent up to now is       78.1 secs

     total energy              =   -1373.23313295 Ry
     estimated scf accuracy    <       0.00370731 Ry

     iteration # 10     ecut=    50.00 Ry     beta= 0.70
     Davidson diagonalization with overlap
     ethr =  6.39E-06,  avg # of iterations =  2.6

     negative rho (up, down):  2.776E-03 0.000E+00

     total cpu time spent up to now is       85.0 secs

     total energy              =   -1373.23170702 Ry
     estimated scf accuracy    <       0.00254788 Ry

     iteration # 11     ecut=    50.00 Ry     beta= 0.70
     Davidson diagonalization with overlap
     ethr =  4.39E-06,  avg # of iterations =  3.8

     negative rho (up, down):  7.091E-04 0.000E+00

     total cpu time spent up to now is       92.5 secs

     total energy              =   -1373.23200466 Ry
     estimated scf accuracy    <       0.00037617 Ry

     iteration # 12     ecut=    50.00 Ry     beta= 0.70
     Davidson diagonalization with overlap
     ethr =  6.49E-07,  avg # of iterations =  1.9

     negative rho (up, down):  7.597E-04 0.000E+00

     total cpu time spent up to now is       99.1 secs

     total energy              =   -1373.23202017 Ry
     estimated scf accuracy    <       0.00020460 Ry

     iteration # 13     ecut=    50.00 Ry     beta= 0.70
     Davidson diagonalization with overlap
     ethr =  3.53E-07,  avg # of iterations =  1.0

     negative rho (up, down):  8.040E-04 0.000E+00

     total cpu time spent up to now is      105.5 secs

     total energy              =   -1373.23202568 Ry
     estimated scf accuracy    <       0.00003114 Ry

     iteration # 14     ecut=    50.00 Ry     beta= 0.70
     Davidson diagonalization with overlap
     ethr =  5.37E-08,  avg # of iterations =  1.0

     negative rho (up, down):  8.209E-04 0.000E+00

     total cpu time spent up to now is      111.9 secs

     total energy              =   -1373.23202615 Ry
     estimated scf accuracy    <       0.00000105 Ry

     iteration # 15     ecut=    50.00 Ry     beta= 0.70
     Davidson diagonalization with overlap
     ethr =  1.80E-09,  avg # of iterations =  3.4

     negative rho (up, down):  8.202E-04 0.000E+00

     total cpu time spent up to now is      119.1 secs

     total energy              =   -1373.23202625 Ry
     estimated scf accuracy    <       0.00000005 Ry

     iteration # 16     ecut=    50.00 Ry     beta= 0.70
     Davidson diagonalization with overlap
     ethr =  9.37E-11,  avg # of iterations =  3.1

     negative rho (up, down):  8.196E-04 0.000E+00

     total cpu time spent up to now is      126.4 secs

     total energy              =   -1373.23202626 Ry
     estimated scf accuracy    <       0.00000002 Ry

     iteration # 17     ecut=    50.00 Ry     beta= 0.70
     Davidson diagonalization with overlap
     ethr =  3.61E-11,  avg # of iterations =  1.9

     negative rho (up, down):  8.202E-04 0.000E+00

     total cpu time spent up to now is      133.1 secs

     total energy              =   -1373.23202626 Ry
     estimated scf accuracy    <          3.0E-09 Ry

     iteration # 18     ecut=    50.00 Ry     beta= 0.70
     Davidson diagonalization with overlap
     ethr =  5.15E-12,  avg # of iterations =  2.0

     negative rho (up, down):  8.201E-04 0.000E+00

     total cpu time spent up to now is      140.1 secs

     total energy              =   -1373.23202626 Ry
     estimated scf accuracy    <          4.1E-10 Ry

     iteration # 19     ecut=    50.00 Ry     beta= 0.70
     Davidson diagonalization with overlap
     ethr =  7.00E-13,  avg # of iterations =  3.7

     negative rho (up, down):  8.202E-04 0.000E+00

     total cpu time spent up to now is      147.7 secs

     total energy              =   -1373.23202626 Ry
     estimated scf accuracy    <          1.8E-10 Ry

     iteration # 20     ecut=    50.00 Ry     beta= 0.70
     Davidson diagonalization with overlap
     ethr =  3.02E-13,  avg # of iterations =  2.7

     negative rho (up, down):  8.202E-04 0.000E+00

     total cpu time spent up to now is      154.9 secs

     total energy              =   -1373.23202626 Ry
     estimated scf accuracy    <          1.7E-12 Ry

     iteration # 21     ecut=    50.00 Ry     beta= 0.70
     Davidson diagonalization with overlap
     ethr =  1.00E-13,  avg # of iterations =  1.1

     negative rho (up, down):  8.202E-04 0.000E+00

     total cpu time spent up to now is      161.3 secs

     End of self-consistent calculation

          k = 0.0000 0.0000 0.0000 (  9589 PWs)   bands (ev):

   -68.3308 -68.2833 -35.3521 -34.7505 -34.4410 -34.4382 -34.3762 -34.3718
   -20.2057 -20.1924 -20.1684 -20.1673 -20.1627 -20.1624 -20.1378 -20.1370
   -20.1298 -20.1297 -20.1163 -20.1115 -20.0538 -20.0522 -13.3127  -7.7392
    -4.4214  -4.3773  -2.0258  -1.0091  -0.8060  -0.2648  -0.1998   1.7157
     1.7291   2.7986   2.8483

          k =-0.0000 0.0927 0.0000 (  9554 PWs)   bands (ev):

   -68.3270 -68.2809 -35.3394 -34.7556 -34.4885 -34.4542 -34.4203 -34.3779
   -20.2042 -20.1915 -20.1691 -20.1683 -20.1628 -20.1614 -20.1384 -20.1373
   -20.1301 -20.1292 -20.1134 -20.1087 -20.0564 -20.0549 -13.1978  -7.5182
    -4.7483  -4.3418  -1.9255  -1.1762  -0.6185  -0.5198  -0.0210   1.3911
     1.6144   2.8016   3.0717

          k =-0.0000 0.1855 0.0000 (  9555 PWs)   bands (ev):

   -68.3164 -68.2744 -35.3051 -34.7831 -34.6037 -34.5376 -34.4956 -34.3972
   -20.2004 -20.1892 -20.1725 -20.1695 -20.1638 -20.1592 -20.1415 -20.1361
   -20.1309 -20.1274 -20.1061 -20.1017 -20.0633 -20.0623 -12.8951  -6.9339
    -5.4108  -4.2762  -1.9057  -1.5426  -1.0679  -0.0941   0.4709   1.2009
     1.6557   2.8741   3.4007

          k =-0.0001 0.2782 0.0000 (  9539 PWs)   bands (ev):

   -68.3015 -68.2659 -35.2615 -34.8864 -34.7020 -34.6789 -34.5485 -34.4264
   -20.1963 -20.1860 -20.1766 -20.1709 -20.1657 -20.1573 -20.1448 -20.1338
   -20.1317 -20.1246 -20.0960 -20.0923 -20.0727 -20.0713 -12.5124  -6.5049
    -5.7305  -4.2622  -2.5202  -1.6218  -1.1183   0.5455   1.1534   1.3687
     2.2266   2.9656   3.5766

          k =-0.0001 0.3709 0.0000 (  9495 PWs)   bands (ev):

   -68.2858 -68.2581 -35.2316 -35.0433 -34.8172 -34.7261 -34.5989 -34.4573
   -20.1942 -20.1821 -20.1796 -20.1722 -20.1681 -20.1566 -20.1466 -20.1323
   -20.1309 -20.1216 -20.0856 -20.0827 -20.0816 -20.0795 -12.1748  -6.8776
    -5.2664  -4.3202  -3.1543  -1.2938  -0.7654   1.2051   1.8088   1.9731
     2.8769   3.2372   3.6581

          k =-0.0001 0.4636 0.0000 (  9450 PWs)   bands (ev):

   -68.2734 -68.2533 -35.2361 -35.1623 -34.8749 -34.7510 -34.6347 -34.4805
   -20.1940 -20.1807 -20.1790 -20.1734 -20.1703 -20.1567 -20.1469 -20.1327
   -20.1284 -20.1191 -20.0879 -20.0847 -20.0777 -20.0758 -11.9627  -7.1939
    -5.0430  -4.3959  -3.5517  -0.5241  -0.2645   1.7393   2.1483   2.7421
     2.7882   3.7012   4.4128

          k = 0.0001-0.5564 0.0000 (  9418 PWs)   bands (ev):

   -68.2684 -68.2520 -35.2498 -35.2025 -34.8837 -34.7623 -34.6476 -34.4891
   -20.1942 -20.1806 -20.1783 -20.1738 -20.1710 -20.1568 -20.1467 -20.1327
   -20.1274 -20.1181 -20.0900 -20.0864 -20.0747 -20.0734 -11.8936  -7.3023
    -5.0112  -4.4289  -3.6841  -0.0377  -0.0088   1.8679   2.1756   2.9277
     3.0081   3.8892   4.9617

          k = 0.0806 0.0463 0.0000 (  9560 PWs)   bands (ev):

   -68.3269 -68.2809 -35.3393 -34.7556 -34.4864 -34.4568 -34.4174 -34.3813
   -20.2042 -20.1915 -20.1694 -20.1681 -20.1626 -20.1616 -20.1388 -20.1369
   -20.1302 -20.1291 -20.1134 -20.1087 -20.0564 -20.0550 -13.1973  -7.5173
    -4.7263  -4.3672  -1.9239  -1.1754  -0.6194  -0.4900  -0.0554   1.3920
     1.6020   2.8400   3.0470

          k = 0.0806 0.1390 0.0000 (  9551 PWs)   bands (ev):

   -68.3197 -68.2764 -35.3157 -34.7705 -34.5582 -34.5302 -34.4566 -34.4016
   -20.2015 -20.1899 -20.1709 -20.1699 -20.1631 -20.1601 -20.1405 -20.1366
   -20.1304 -20.1281 -20.1085 -20.1039 -20.0611 -20.0600 -12.9886  -7.1063
    -5.2059  -4.3483  -1.8224  -1.3637  -0.9953  -0.2977   0.2569   1.3102
     1.4698   3.0375   3.2452

          k = 0.0805 0.2317 0.0000 (  9542 PWs)   bands (ev):

   -68.3070 -68.2689 -35.2762 -34.8285 -34.6694 -34.6429 -34.5154 -34.4339
   -20.1973 -20.1874 -20.1744 -20.1717 -20.1641 -20.1583 -20.1436 -20.1352
   -20.1306 -20.1261 -20.0998 -20.0957 -20.0693 -20.0684 -12.6453  -6.4509
    -5.7675  -4.4266  -2.0453  -1.5434  -1.2185   0.2108   0.4040   1.5849
     1.9084   2.9906   3.7707

          k = 0.0805 0.3245 0.0000 (  9523 PWs)   bands (ev):

   -68.2917 -68.2608 -35.2375 -34.9618 -34.7818 -34.7115 -34.5814 -34.4686
   -20.1936 -20.1841 -20.1780 -20.1731 -20.1660 -20.1573 -20.1463 -20.1336
   -20.1300 -20.1235 -20.0895 -20.0863 -20.0785 -20.0772 -12.2853  -6.5435
    -5.4826  -4.5499  -2.6913  -1.2688  -1.1369   0.6307   0.9375   2.2031
     2.6477   3.1030   4.0893

          k = 0.0805 0.4172 0.0000 (  9458 PWs)   bands (ev):

   -68.2774 -68.2547 -35.2224 -35.0998 -34.8566 -34.7503 -34.6320 -34.4991
   -20.1925 -20.1805 -20.1799 -20.1737 -20.1686 -20.1572 -20.1472 -20.1327
   -20.1287 -20.1209 -20.0863 -20.0841 -20.0801 -20.0779 -12.0131  -6.9393
    -5.0634  -4.6435  -3.1328  -0.8212  -0.6686   1.0881   1.7521   2.2955
     3.2420   3.9174   4.2711

          k = 0.0805 0.5099 0.0000 (  9444 PWs)   bands (ev):

   -68.2683 -68.2520 -35.2319 -35.1800 -34.8758 -34.7781 -34.6582 -34.5170
   -20.1927 -20.1806 -20.1781 -20.1737 -20.1707 -20.1574 -20.1473 -20.1323
   -20.1279 -20.1191 -20.0906 -20.0876 -20.0748 -20.0734 -11.8758  -7.1521
    -4.9595  -4.7061  -3.3391  -0.2466  -0.1743   1.4731   2.0616   2.3857
     3.7823   3.9594   5.0517

          k = 0.0807-0.5101 0.0000 (  9448 PWs)   bands (ev):

   -68.2683 -68.2520 -35.2323 -35.1802 -34.8762 -34.7779 -34.6580 -34.5168
   -20.1927 -20.1805 -20.1782 -20.1739 -20.1705 -20.1573 -20.1473 -20.1324
   -20.1278 -20.1191 -20.0907 -20.0876 -20.0748 -20.0734 -11.8757  -7.1525
    -4.9601  -4.7053  -3.3403  -0.2464  -0.1746   1.4725   2.0610   2.3832
     3.7888   3.9566   5.0557

          k = 0.0807-0.4173 0.0000 (  9456 PWs)   bands (ev):

   -68.2774 -68.2546 -35.2228 -35.1006 -34.8579 -34.7500 -34.6313 -34.4986
   -20.1925 -20.1804 -20.1798 -20.1742 -20.1682 -20.1571 -20.1473 -20.1328
   -20.1287 -20.1209 -20.0863 -20.0841 -20.0801 -20.0779 -12.0126  -6.9403
    -5.0634  -4.6431  -3.1359  -0.8187  -0.6704   1.0870   1.7477   2.2956
     3.2523   3.9164   4.2726

          k = 0.0806-0.3246 0.0000 (  9521 PWs)   bands (ev):

   -68.2916 -68.2608 -35.2376 -34.9629 -34.7835 -34.7118 -34.5803 -34.4680
   -20.1936 -20.1840 -20.1780 -20.1735 -20.1657 -20.1571 -20.1464 -20.1337
   -20.1299 -20.1236 -20.0894 -20.0862 -20.0786 -20.0772 -12.2845  -6.5443
    -5.4817  -4.5505  -2.6945  -1.2678  -1.1361   0.6294   0.9348   2.2073
     2.6462   3.1075   4.0887

          k = 0.0806-0.2319 0.0000 (  9548 PWs)   bands (ev):

   -68.3069 -68.2689 -35.2761 -34.8291 -34.6704 -34.6445 -34.5146 -34.4333
   -20.1972 -20.1873 -20.1747 -20.1718 -20.1639 -20.1581 -20.1439 -20.1351
   -20.1305 -20.1261 -20.0998 -20.0957 -20.0693 -20.0684 -12.6444  -6.4495
    -5.7666  -4.4287  -2.0469  -1.5418  -1.2183   0.2057   0.4071   1.5836
     1.9028   2.9948   3.7723

          k = 0.0806-0.1392 0.0000 (  9557 PWs)   bands (ev):

   -68.3197 -68.2764 -35.3156 -34.7705 -34.5594 -34.5308 -34.4567 -34.4011
   -20.2015 -20.1899 -20.1716 -20.1694 -20.1632 -20.1599 -20.1409 -20.1362
   -20.1304 -20.1281 -20.1085 -20.1039 -20.0612 -20.0601 -12.9878  -7.1049
    -5.2004  -4.3557  -1.8211  -1.3627  -0.9902  -0.2988   0.2490   1.3036
     1.4678   3.0389   3.2494

          k = 0.0806-0.0464 0.0000 (  9569 PWs)   bands (ev):

   -68.3269 -68.2808 -35.3393 -34.7556 -34.4868 -34.4567 -34.4179 -34.3812
   -20.2042 -20.1915 -20.1698 -20.1677 -20.1628 -20.1614 -20.1392 -20.1366
   -20.1302 -20.1291 -20.1135 -20.1087 -20.0564 -20.0550 -13.1970  -7.5167
    -4.7165  -4.3784  -1.9230  -1.1747  -0.6170  -0.4785  -0.0720   1.3937
     1.5940   2.8519   3.0401

          k = 0.1612 0.0926 0.0000 (  9551 PWs)   bands (ev):

   -68.3162 -68.2743 -35.3046 -34.7831 -34.6023 -34.5360 -34.4989 -34.4009
   -20.2003 -20.1892 -20.1729 -20.1692 -20.1637 -20.1593 -20.1420 -20.1357
   -20.1310 -20.1272 -20.1061 -20.1016 -20.0634 -20.0624 -12.8930  -6.9308
    -5.3938  -4.3029  -1.8969  -1.5424  -1.0615  -0.0893   0.4430   1.2042
     1.6371   2.9129   3.3811

          k = 0.1611 0.1853 0.0000 (  9542 PWs)   bands (ev):

   -68.3069 -68.2688 -35.2759 -34.8282 -34.6685 -34.6431 -34.5168 -34.4365
   -20.1972 -20.1875 -20.1747 -20.1714 -20.1640 -20.1583 -20.1439 -20.1350
   -20.1307 -20.1259 -20.0997 -20.0957 -20.0694 -20.0685 -12.6439  -6.4486
    -5.7596  -4.4414  -2.0347  -1.5466  -1.2235   0.2154   0.4030   1.5690
     1.9135   2.9978   3.7672

          k = 0.1611 0.2780 0.0000 (  9519 PWs)   bands (ev):

   -68.2936 -68.2618 -35.2397 -34.9113 -34.7880 -34.6969 -34.5628 -34.4982
   -20.1925 -20.1854 -20.1760 -20.1751 -20.1644 -20.1580 -20.1462 -20.1344
   -20.1287 -20.1250 -20.0908 -20.0876 -20.0773 -20.0767 -12.3229  -6.1700
    -5.7417  -4.7857  -2.1880  -1.7058  -0.6646  -0.2322   0.7578   2.2871
     2.6085   2.9863   4.5915

          k = 0.1611 0.3708 0.0000 (  9465 PWs)   bands (ev):

   -68.2796 -68.2555 -35.2118 -35.0188 -34.8691 -34.7386 -34.6309 -34.5502
   -20.1891 -20.1829 -20.1780 -20.1757 -20.1662 -20.1583 -20.1478 -20.1334
   -20.1269 -20.1238 -20.0856 -20.0847 -20.0814 -20.0791 -12.0310  -6.5118
    -5.1827  -5.0143  -2.4524  -1.3831  -0.6876   0.1670   1.3939   2.3152
     3.3728   3.7069   5.2164

          k = 0.1611 0.4635 0.0000 (  9448 PWs)   bands (ev):

   -68.2682 -68.2519 -35.1995 -35.1136 -34.8835 -34.7965 -34.6748 -34.5848
   -20.1887 -20.1808 -20.1782 -20.1744 -20.1689 -20.1589 -20.1485 -20.1320
   -20.1275 -20.1218 -20.0914 -20.0898 -20.0749 -20.0733 -11.8398  -6.7681
    -5.2020  -4.8349  -2.6222  -0.7732  -0.5749   0.6305   2.0656   2.3040
     3.6934   4.1557   5.7008

          k = 0.1611 0.5562 0.0000 (  9450 PWs)   bands (ev):

   -68.2633 -68.2512 -35.1925 -35.1565 -34.8558 -34.8496 -34.6864 -34.5974
   -20.1890 -20.1806 -20.1771 -20.1737 -20.1705 -20.1591 -20.1486 -20.1309
   -20.1284 -20.1209 -20.0938 -20.0916 -20.0723 -20.0713 -11.7750  -6.8623
    -5.2298  -4.7872  -2.6889  -0.4274  -0.3748   0.7572   2.2922   2.4446
     3.7545   3.9737   5.9636

          k = 0.1613-0.4638 0.0000 (  9454 PWs)   bands (ev):

   -68.2681 -68.2519 -35.2006 -35.1146 -34.8850 -34.7957 -34.6744 -34.5840
   -20.1888 -20.1808 -20.1781 -20.1749 -20.1686 -20.1588 -20.1486 -20.1321
   -20.1274 -20.1218 -20.0915 -20.0898 -20.0748 -20.0733 -11.8392  -6.7695
    -5.2025  -4.8350  -2.6243  -0.7768  -0.5738   0.6315   2.0662   2.3022
     3.6916   4.1692   5.7037

          k = 0.1612-0.3711 0.0000 (  9470 PWs)   bands (ev):

   -68.2794 -68.2554 -35.2124 -35.0210 -34.8709 -34.7391 -34.6298 -34.5489
   -20.1890 -20.1828 -20.1779 -20.1763 -20.1659 -20.1580 -20.1481 -20.1335
   -20.1268 -20.1238 -20.0857 -20.0848 -20.0813 -20.0791 -12.0298  -6.5137
    -5.1817  -5.0157  -2.4564  -1.3856  -0.6853   0.1667   1.3948   2.3166
     3.3767   3.7115   5.2176

          k = 0.1612-0.2783 0.0000 (  9509 PWs)   bands (ev):

   -68.2935 -68.2616 -35.2397 -34.9132 -34.7899 -34.6980 -34.5621 -34.4969
   -20.1923 -20.1853 -20.1767 -20.1748 -20.1643 -20.1576 -20.1466 -20.1344
   -20.1286 -20.1249 -20.0908 -20.0875 -20.0773 -20.0768 -12.3213  -6.1699
    -5.7391  -4.7892  -2.1905  -1.7058  -0.6649  -0.2342   0.7601   2.2895
     2.6062   2.9876   4.5933

          k = 0.1612-0.1856 0.0000 (  9546 PWs)   bands (ev):

   -68.3067 -68.2687 -35.2757 -34.8289 -34.6698 -34.6449 -34.5166 -34.4361
   -20.1969 -20.1874 -20.1754 -20.1711 -20.1642 -20.1580 -20.1444 -20.1348
   -20.1307 -20.1259 -20.0997 -20.0957 -20.0694 -20.0686 -12.6423  -6.4454
    -5.7555  -4.4492  -2.0303  -1.5476  -1.2252   0.2117   0.4050   1.5608
     1.9095   3.0028   3.7682

          k = 0.1612-0.0929 0.0000 (  9551 PWs)   bands (ev):

   -68.3161 -68.2742 -35.3044 -34.7832 -34.6029 -34.5369 -34.4991 -34.4010
   -20.2002 -20.1891 -20.1735 -20.1687 -20.1640 -20.1590 -20.1424 -20.1354
   -20.1310 -20.1271 -20.1060 -20.1016 -20.0635 -20.0624 -12.8920  -6.9287
    -5.3868  -4.3134  -1.8919  -1.5423  -1.0592  -0.0872   0.4301   1.2042
     1.6268   2.9255   3.3756

          k = 0.1612-0.0002 0.0000 (  9573 PWs)   bands (ev):

   -68.3195 -68.2763 -35.3153 -34.7708 -34.5593 -34.5300 -34.4580 -34.4037
   -20.2014 -20.1899 -20.1720 -20.1692 -20.1629 -20.1601 -20.1414 -20.1359
   -20.1305 -20.1279 -20.1085 -20.1039 -20.0613 -20.0602 -12.9862  -7.1027
    -5.1864  -4.3753  -1.8191  -1.3609  -0.9774  -0.3077   0.2371   1.2992
     1.4602   3.0395   3.2631

          k = 0.2417 0.1389 0.0000 (  9541 PWs)   bands (ev):

   -68.3011 -68.2656 -35.2607 -34.8866 -34.7017 -34.6784 -34.5528 -34.4308
   -20.1960 -20.1860 -20.1770 -20.1707 -20.1655 -20.1574 -20.1454 -20.1335
   -20.1319 -20.1242 -20.0959 -20.0921 -20.0729 -20.0716 -12.5086  -6.4982
    -5.7212  -4.2908  -2.5103  -1.6244  -1.1177   0.5546   1.1364   1.3732
     2.2074   3.0025   3.5583

          k = 0.2417 0.2316 0.0000 (  9523 PWs)   bands (ev):

   -68.2913 -68.2606 -35.2368 -34.9612 -34.7821 -34.7110 -34.5851 -34.4725
   -20.1933 -20.1842 -20.1783 -20.1728 -20.1660 -20.1573 -20.1467 -20.1335
   -20.1303 -20.1232 -20.0893 -20.0861 -20.0786 -20.0774 -12.2824  -6.5364
    -5.4797  -4.5712  -2.6828  -1.2696  -1.1415   0.6380   0.9478   2.1943
     2.6552   3.0919   4.0896

          k = 0.2417 0.3243 0.0000 (  9466 PWs)   bands (ev):

   -68.2794 -68.2554 -35.2116 -35.0182 -34.8699 -34.7382 -34.6329 -34.5522
   -20.1888 -20.1831 -20.1784 -20.1754 -20.1662 -20.1583 -20.1480 -20.1333
   -20.1273 -20.1233 -20.0856 -20.0849 -20.0814 -20.0790 -12.0295  -6.5076
    -5.1912  -5.0173  -2.4502  -1.3796  -0.6931   0.1764   1.3996   2.3176
     3.3683   3.7037   5.2172

          k = 0.2417 0.4170 0.0000 (  9440 PWs)   bands (ev):

   -68.2679 -68.2518 -35.1850 -35.0509 -34.9350 -34.7706 -34.6881 -34.6312
   -20.1840 -20.1837 -20.1776 -20.1753 -20.1675 -20.1599 -20.1492 -20.1321
   -20.1257 -20.1243 -20.0917 -20.0911 -20.0748 -20.0732 -11.8207  -6.4679
    -5.5317  -4.7699  -1.8926  -1.4648  -0.7701   0.3360   1.9382   2.3622
     3.6824   4.1500   5.9975

          k = 0.2417 0.5098 0.0000 (  9452 PWs)   bands (ev):

   -68.2598 -68.2512 -35.1467 -35.0918 -34.9541 -34.8185 -34.7092 -34.6787
   -20.1852 -20.1805 -20.1769 -20.1731 -20.1697 -20.1611 -20.1500 -20.1300
   -20.1277 -20.1236 -20.0957 -20.0947 -20.0710 -20.0700 -11.7052  -6.4735
    -5.7136  -4.6102  -1.8100  -0.9673  -0.7384   0.3948   2.3749   2.4476
     3.5628   3.7057   6.0816

          k = 0.2416 0.6025 0.0000 (  9448 PWs)   bands (ev):

   -68.2598 -68.2512 -35.1478 -35.0925 -34.9540 -34.8186 -34.7095 -34.6775
   -20.1852 -20.1805 -20.1767 -20.1734 -20.1695 -20.1610 -20.1501 -20.1302
   -20.1275 -20.1236 -20.0957 -20.0947 -20.0709 -20.0700 -11.7048  -6.4745
    -5.7142  -4.6109  -1.8100  -0.9732  -0.7350   0.3963   2.3786   2.4449
     3.5561   3.7201   6.0858

          k = 0.2418-0.4175 0.0000 (  9438 PWs)   bands (ev):

   -68.2677 -68.2517 -35.1864 -35.0536 -34.9352 -34.7716 -34.6876 -34.6294
   -20.1841 -20.1836 -20.1773 -20.1758 -20.1674 -20.1595 -20.1495 -20.1323
   -20.1256 -20.1242 -20.0917 -20.0911 -20.0748 -20.0731 -11.8195  -6.4694
    -5.5341  -4.7705  -1.8951  -1.4689  -0.7682   0.3398   1.9415   2.3621
     3.6805   4.1659   5.9917

          k = 0.2418-0.3248 0.0000 (  9470 PWs)   bands (ev):

   -68.2791 -68.2552 -35.2122 -35.0206 -34.8718 -34.7390 -34.6323 -34.5511
   -20.1884 -20.1832 -20.1787 -20.1754 -20.1662 -20.1578 -20.1485 -20.1334
   -20.1273 -20.1232 -20.0857 -20.0849 -20.0813 -20.0789 -12.0276  -6.5074
    -5.1929  -5.0195  -2.4529  -1.3809  -0.6936   0.1790   1.4030   2.3203
     3.3703   3.7070   5.2163

          k = 0.2418-0.2320 0.0000 (  9523 PWs)   bands (ev):

   -68.2911 -68.2604 -35.2368 -34.9629 -34.7844 -34.7116 -34.5850 -34.4724
   -20.1928 -20.1842 -20.1789 -20.1726 -20.1661 -20.1569 -20.1472 -20.1335
   -20.1302 -20.1231 -20.0892 -20.0861 -20.0787 -20.0775 -12.2802  -6.5335
    -5.4762  -4.5800  -2.6818  -1.2697  -1.1431   0.6376   0.9493   2.1943
     2.6577   3.0897   4.0885

          k = 0.2418-0.1393 0.0000 (  9547 PWs)   bands (ev):

   -68.3009 -68.2655 -35.2605 -34.8873 -34.7025 -34.6794 -34.5535 -34.4312
   -20.1957 -20.1860 -20.1776 -20.1701 -20.1660 -20.1571 -20.1459 -20.1333
   -20.1320 -20.1242 -20.0958 -20.0920 -20.0729 -20.0717 -12.5069  -6.4941
    -5.7167  -4.3016  -2.5053  -1.6258  -1.1183   0.5585   1.1281   1.3727
     2.1978   3.0148   3.5523

          k = 0.2418-0.0466 0.0000 (  9544 PWs)   bands (ev):

   -68.3065 -68.2686 -35.2753 -34.8302 -34.6703 -34.6456 -34.5173 -34.4367
   -20.1968 -20.1873 -20.1755 -20.1712 -20.1639 -20.1581 -20.1447 -20.1347
   -20.1306 -20.1258 -20.0996 -20.0956 -20.0695 -20.0686 -12.6402  -6.4434
    -5.7540  -4.4557  -2.0332  -1.5461  -1.2241   0.1930   0.4202   1.5634
     1.8981   3.0090   3.7768

          k = 0.2417 0.0461 0.0000 (  9542 PWs)   bands (ev):

   -68.3066 -68.2686 -35.2754 -34.8301 -34.6700 -34.6454 -34.5167 -34.4365
   -20.1970 -20.1873 -20.1751 -20.1716 -20.1636 -20.1583 -20.1445 -20.1348
   -20.1305 -20.1258 -20.0996 -20.0956 -20.0695 -20.0686 -12.6409  -6.4452
    -5.7572  -4.4499  -2.0391  -1.5434  -1.2222   0.1917   0.4213   1.5703
     1.8965   3.0082   3.7773

          k = 0.3223 0.1851 0.0000 (  9490 PWs)   bands (ev):

   -68.2852 -68.2578 -35.2310 -35.0437 -34.8177 -34.7261 -34.6041 -34.4624
   -20.1938 -20.1821 -20.1799 -20.1721 -20.1680 -20.1566 -20.1472 -20.1327
   -20.1306 -20.1211 -20.0853 -20.0825 -20.0818 -20.0799 -12.1698  -6.8721
    -5.2645  -4.3513  -3.1477  -1.2912  -0.7615   1.2198   1.8132   1.9652
     2.9071   3.2274   3.6406

          k = 0.3223 0.2779 0.0000 (  9456 PWs)   bands (ev):

   -68.2768 -68.2544 -35.2223 -35.0994 -34.8568 -34.7506 -34.6368 -34.5037
   -20.1921 -20.1806 -20.1801 -20.1734 -20.1687 -20.1572 -20.1477 -20.1328
   -20.1288 -20.1204 -20.0864 -20.0844 -20.0799 -20.0776 -12.0090  -6.9346
    -5.0656  -4.6690  -3.1280  -0.8178  -0.6612   1.1012   1.7675   2.3016
     3.2335   3.9098   4.2718

          k = 0.3223 0.3706 0.0000 (  9442 PWs)   bands (ev):

   -68.2677 -68.2518 -35.2002 -35.1128 -34.8845 -34.7967 -34.6776 -34.5877
   -20.1884 -20.1810 -20.1783 -20.1741 -20.1690 -20.1589 -20.1488 -20.1320
   -20.1278 -20.1212 -20.0915 -20.0900 -20.0746 -20.0731 -11.8369  -6.7654
    -5.2170  -4.8403  -2.6267  -0.7604  -0.5664   0.6389   2.0735   2.3104
     3.6964   4.1478   5.7015

          k = 0.3222 0.4633 0.0000 (  9461 PWs)   bands (ev):

   -68.2595 -68.2512 -35.1479 -35.0912 -34.9550 -34.8186 -34.7103 -34.6794
   -20.1851 -20.1805 -20.1770 -20.1731 -20.1697 -20.1611 -20.1502 -20.1300
   -20.1281 -20.1231 -20.0957 -20.0949 -20.0709 -20.0699 -11.7037  -6.4728
    -5.7205  -4.6141  -1.8262  -0.9482  -0.7315   0.3970   2.3783   2.4529
     3.5682   3.7015   6.0823

          k = 0.3222 0.5561 0.0000 (  9478 PWs)   bands (ev):

   -68.2540 -68.2534 -35.0774 -35.0734 -35.0405 -34.8203 -34.7226 -34.7221
   -20.1846 -20.1781 -20.1777 -20.1713 -20.1709 -20.1622 -20.1511 -20.1288
   -20.1282 -20.1245 -20.0972 -20.0968 -20.0694 -20.0690 -11.6531  -6.1306
    -6.1289  -4.5070  -1.1705  -1.0418  -1.0306   0.3105   2.4236   2.4284
     3.3989   3.4260   6.5971

          k = 0.3222 0.6488 0.0000 (  9463 PWs)   bands (ev):

   -68.2593 -68.2512 -35.1499 -35.0924 -34.9546 -34.8198 -34.7104 -34.6780
   -20.1853 -20.1802 -20.1770 -20.1732 -20.1699 -20.1607 -20.1505 -20.1302
   -20.1281 -20.1229 -20.0957 -20.0949 -20.0709 -20.0699 -11.7028  -6.4726
    -5.7242  -4.6157  -1.8326  -0.9460  -0.7257   0.3996   2.3823   2.4530
     3.5643   3.7133   6.0853

          k = 0.3224-0.3712 0.0000 (  9441 PWs)   bands (ev):

   -68.2674 -68.2516 -35.2020 -35.1144 -34.8861 -34.7969 -34.6777 -34.5872
   -20.1881 -20.1811 -20.1785 -20.1741 -20.1691 -20.1584 -20.1493 -20.1321
   -20.1278 -20.1211 -20.0915 -20.0901 -20.0745 -20.0730 -11.8352  -6.7649
    -5.2236  -4.8408  -2.6303  -0.7584  -0.5628   0.6422   2.0780   2.3115
     3.6970   4.1570   5.7024

          k = 0.3224-0.2785 0.0000 (  9460 PWs)   bands (ev):

   -68.2765 -68.2542 -35.2232 -35.1009 -34.8589 -34.7508 -34.6373 -34.5041
   -20.1916 -20.1810 -20.1803 -20.1732 -20.1689 -20.1567 -20.1483 -20.1330
   -20.1288 -20.1202 -20.0865 -20.0845 -20.0798 -20.0775 -12.0068  -6.9326
    -5.0641  -4.6785  -3.1289  -0.8148  -0.6601   1.1027   1.7700   2.3047
     3.2404   3.9055   4.2716

          k = 0.3224-0.1858 0.0000 (  9495 PWs)   bands (ev):

   -68.2849 -68.2576 -35.2311 -35.0448 -34.8193 -34.7264 -34.6052 -34.4632
   -20.1932 -20.1821 -20.1805 -20.1715 -20.1685 -20.1562 -20.1478 -20.1328
   -20.1305 -20.1210 -20.0852 -20.0823 -20.0818 -20.0800 -12.1676  -6.8686
    -5.2614  -4.3631  -3.1449  -1.2909  -0.7602   1.2244   1.8147   1.9603
     2.9170   3.2231   3.6334

          k = 0.3224-0.0930 0.0000 (  9516 PWs)   bands (ev):

   -68.2909 -68.2603 -35.2367 -34.9650 -34.7857 -34.7121 -34.5845 -34.4723
   -20.1928 -20.1841 -20.1790 -20.1729 -20.1658 -20.1569 -20.1475 -20.1338
   -20.1298 -20.1230 -20.0892 -20.0859 -20.0788 -20.0775 -12.2781  -6.5365
    -5.4749  -4.5823  -2.6891  -1.2692  -1.1404   0.6359   0.9386   2.2053
     2.6623   3.0998   4.0882

          k = 0.3223-0.0003 0.0000 (  9507 PWs)   bands (ev):

   -68.2931 -68.2614 -35.2393 -34.9166 -34.7910 -34.6989 -34.5631 -34.4979
   -20.1922 -20.1852 -20.1770 -20.1749 -20.1640 -20.1577 -20.1471 -20.1345
   -20.1284 -20.1247 -20.0906 -20.0873 -20.0775 -20.0769 -12.3173  -6.1717
    -5.7359  -4.7994  -2.1956  -1.7083  -0.6679  -0.2323   0.7608   2.2974
     2.6087   2.9930   4.6015

          k = 0.3223 0.0924 0.0000 (  9513 PWs)   bands (ev):

   -68.2910 -68.2604 -35.2368 -34.9645 -34.7851 -34.7118 -34.5834 -34.4716
   -20.1932 -20.1840 -20.1784 -20.1734 -20.1654 -20.1572 -20.1471 -20.1338
   -20.1297 -20.1231 -20.0892 -20.0860 -20.0787 -20.0775 -12.2795  -6.5402
    -5.4775  -4.5740  -2.6933  -1.2682  -1.1381   0.6349   0.9345   2.2095
     2.6583   3.1066   4.0889

          k = 0.4029 0.2314 0.0000 (  9454 PWs)   bands (ev):

   -68.2725 -68.2530 -35.2375 -35.1619 -34.8747 -34.7517 -34.6405 -34.4861
   -20.1936 -20.1811 -20.1790 -20.1733 -20.1702 -20.1567 -20.1475 -20.1331
   -20.1281 -20.1186 -20.0881 -20.0852 -20.0774 -20.0755 -11.9572  -7.1910
    -5.0485  -4.4289  -3.5463  -0.5131  -0.2542   1.7535   2.1644   2.7292
     2.8076   3.6989   4.4137

          k = 0.4029 0.3242 0.0000 (  9431 PWs)   bands (ev):

   -68.2675 -68.2517 -35.2343 -35.1788 -34.8751 -34.7795 -34.6631 -34.5219
   -20.1923 -20.1809 -20.1782 -20.1736 -20.1707 -20.1574 -20.1478 -20.1327
   -20.1277 -20.1185 -20.0907 -20.0879 -20.0745 -20.0731 -11.8709  -7.1501
    -4.9662  -4.7325  -3.3396  -0.2329  -0.1607   1.4891   2.0636   2.4024
     3.7800   3.9589   5.0606

          k = 0.4028 0.4169 0.0000 (  9442 PWs)   bands (ev):

   -68.2626 -68.2511 -35.1959 -35.1550 -34.8555 -34.8514 -34.6891 -34.6004
   -20.1887 -20.1807 -20.1771 -20.1737 -20.1704 -20.1592 -20.1490 -20.1314
   -20.1282 -20.1203 -20.0939 -20.0920 -20.0720 -20.0710 -11.7710  -6.8627
    -5.2461  -4.7952  -2.6987  -0.4146  -0.3580   0.7644   2.2954   2.4586
     3.7544   3.9832   5.9681

          k = 0.4028 0.5096 0.0000 (  9448 PWs)   bands (ev):

   -68.2592 -68.2512 -35.1501 -35.0941 -34.9536 -34.8193 -34.7109 -34.6776
   -20.1852 -20.1804 -20.1768 -20.1737 -20.1694 -20.1610 -20.1504 -20.1307
   -20.1274 -20.1230 -20.0957 -20.0949 -20.0708 -20.0698 -11.7020  -6.4780
    -5.7213  -4.6172  -1.8269  -0.9689  -0.7195   0.3999   2.3854   2.4525
     3.5433   3.7520   6.0938

          k = 0.4028 0.6023 0.0000 (  9451 PWs)   bands (ev):

   -68.2591 -68.2512 -35.1509 -35.0946 -34.9533 -34.8204 -34.7106 -34.6773
   -20.1853 -20.1801 -20.1770 -20.1735 -20.1696 -20.1607 -20.1507 -20.1307
   -20.1276 -20.1229 -20.0957 -20.0949 -20.0708 -20.0698 -11.7015  -6.4770
    -5.7244  -4.6181  -1.8332  -0.9609  -0.7171   0.4009   2.3858   2.4552
     3.5460   3.7495   6.0929

          k = 0.4028 0.6951 0.0000 (  9444 PWs)   bands (ev):

   -68.2623 -68.2510 -35.1982 -35.1552 -34.8565 -34.8519 -34.6894 -34.6004
   -20.1885 -20.1807 -20.1773 -20.1733 -20.1708 -20.1587 -20.1496 -20.1315
   -20.1283 -20.1201 -20.0939 -20.0920 -20.0719 -20.0709 -11.7695  -6.8615
    -5.2528  -4.7966  -2.7023  -0.4085  -0.3520   0.7673   2.2957   2.4652
     3.7589   3.9820   5.9684

          k = 0.4030-0.3249 0.0000 (  9425 PWs)   bands (ev):

   -68.2671 -68.2515 -35.2366 -35.1794 -34.8763 -34.7797 -34.6640 -34.5226
   -20.1919 -20.1812 -20.1783 -20.1731 -20.1709 -20.1569 -20.1485 -20.1329
   -20.1277 -20.1183 -20.0908 -20.0880 -20.0743 -20.0729 -11.8688  -7.1483
    -4.9671  -4.7420  -3.3409  -0.2275  -0.1553   1.4920   2.0648   2.4078
     3.7892   3.9524   5.0674

          k = 0.4030-0.2322 0.0000 (  9452 PWs)   bands (ev):

   -68.2722 -68.2528 -35.2390 -35.1627 -34.8759 -34.7519 -34.6419 -34.4871
   -20.1931 -20.1815 -20.1791 -20.1727 -20.1707 -20.1563 -20.1482 -20.1333
   -20.1280 -20.1184 -20.0881 -20.0853 -20.0772 -20.0754 -11.9550  -7.1884
    -5.0480  -4.4415  -3.5444  -0.5091  -0.2498   1.7573   2.1696   2.7266
     2.8128   3.6984   4.4138

          k = 0.4029-0.1395 0.0000 (  9456 PWs)   bands (ev):

   -68.2764 -68.2541 -35.2239 -35.1025 -34.8599 -34.7509 -34.6366 -34.5038
   -20.1916 -20.1809 -20.1802 -20.1736 -20.1685 -20.1567 -20.1485 -20.1333
   -20.1284 -20.1202 -20.0865 -20.0845 -20.0797 -20.0775 -12.0053  -6.9359
    -5.0650  -4.6769  -3.1364  -0.8101  -0.6645   1.0966   1.7565   2.3113
     3.2676   3.9061   4.2741

          k = 0.4029-0.0467 0.0000 (  9478 PWs)   bands (ev):

   -68.2788 -68.2550 -35.2129 -35.0248 -34.8725 -34.7400 -34.6321 -34.5507
   -20.1883 -20.1830 -20.1788 -20.1758 -20.1659 -20.1579 -20.1489 -20.1338
   -20.1268 -20.1231 -20.0859 -20.0851 -20.0811 -20.0789 -12.0242  -6.5147
    -5.1888  -5.0264  -2.4624  -1.3885  -0.6852   0.1741   1.4001   2.3311
     3.3803   3.7244   5.2208

          k = 0.4029 0.0460 0.0000 (  9478 PWs)   bands (ev):

   -68.2788 -68.2551 -35.2129 -35.0245 -34.8723 -34.7397 -34.6315 -34.5505
   -20.1886 -20.1828 -20.1783 -20.1763 -20.1657 -20.1581 -20.1487 -20.1337
   -20.1266 -20.1233 -20.0859 -20.0850 -20.0812 -20.0789 -12.0249  -6.5168
    -5.1862  -5.0256  -2.4637  -1.3896  -0.6824   0.1711   1.3976   2.3298
     3.3821   3.7257   5.2229

          k = 0.4029 0.1387 0.0000 (  9460 PWs)   bands (ev):

   -68.2766 -68.2543 -35.2234 -35.1018 -34.8591 -34.7504 -34.6354 -34.5030
   -20.1921 -20.1805 -20.1801 -20.1743 -20.1680 -20.1571 -20.1480 -20.1332
   -20.1283 -20.1204 -20.0865 -20.0845 -20.0798 -20.0776 -12.0070  -6.9389
    -5.0664  -4.6671  -3.1386  -0.8106  -0.6673   1.0941   1.7496   2.3081
     3.2711   3.9094   4.2758

          k =-0.4835-0.2777 0.0000 (  9426 PWs)   bands (ev):

   -68.2674 -68.2517 -35.2530 -35.2011 -34.8828 -34.7635 -34.6536 -34.4948
   -20.1938 -20.1809 -20.1784 -20.1738 -20.1708 -20.1569 -20.1474 -20.1332
   -20.1272 -20.1176 -20.0902 -20.0869 -20.0744 -20.0730 -11.8879  -7.3005
    -5.0197  -4.4624  -3.6791  -0.0214   0.0046   1.8706   2.2062   2.9406
     2.9890   3.9003   4.9742

          k =-0.4835-0.1850 0.0000 (  9444 PWs)   bands (ev):

   -68.2674 -68.2517 -35.2353 -35.1795 -34.8758 -34.7793 -34.6627 -34.5216
   -20.1923 -20.1808 -20.1783 -20.1740 -20.1703 -20.1574 -20.1479 -20.1328
   -20.1276 -20.1186 -20.0908 -20.0880 -20.0744 -20.0730 -11.8702  -7.1518
    -4.9693  -4.7286  -3.3438  -0.2334  -0.1614   1.4823   2.0676   2.3928
     3.8021   3.9506   5.0735

          k =-0.4835-0.0923 0.0000 (  9455 PWs)   bands (ev):

   -68.2673 -68.2516 -35.2026 -35.1161 -34.8862 -34.7961 -34.6770 -34.5864
   -20.1884 -20.1809 -20.1783 -20.1750 -20.1684 -20.1588 -20.1491 -20.1325
   -20.1271 -20.1212 -20.0916 -20.0902 -20.0746 -20.0731 -11.8344  -6.7721
    -5.2186  -4.8411  -2.6343  -0.7737  -0.5616   0.6369   2.0722   2.3129
     3.6888   4.1969   5.7121

          k =-0.4835 0.0005 0.0000 (  9442 PWs)   bands (ev):

   -68.2672 -68.2516 -35.1881 -35.0585 -34.9337 -34.7730 -34.6882 -34.6289
   -20.1840 -20.1835 -20.1774 -20.1762 -20.1672 -20.1595 -20.1499 -20.1326
   -20.1252 -20.1239 -20.0918 -20.0913 -20.0746 -20.0730 -11.8160  -6.4773
    -5.5380  -4.7751  -1.9032  -1.4785  -0.7607   0.3429   1.9445   2.3716
     3.6732   4.2078   5.9862

          k =-0.4835 0.0932 0.0000 (  9451 PWs)   bands (ev):

   -68.2671 -68.2515 -35.2034 -35.1167 -34.8864 -34.7971 -34.6774 -34.5866
   -20.1881 -20.1810 -20.1785 -20.1745 -20.1688 -20.1584 -20.1495 -20.1325
   -20.1273 -20.1210 -20.0916 -20.0902 -20.0745 -20.0730 -11.8333  -6.7701
    -5.2246  -4.8415  -2.6358  -0.7682  -0.5592   0.6392   2.0761   2.3157
     3.6911   4.1927   5.7105

          k =-0.4835 0.1859 0.0000 (  9436 PWs)   bands (ev):

   -68.2670 -68.2515 -35.2371 -35.1799 -34.8766 -34.7797 -34.6638 -34.5225
   -20.1919 -20.1812 -20.1784 -20.1734 -20.1707 -20.1569 -20.1486 -20.1330
   -20.1275 -20.1183 -20.0908 -20.0880 -20.0743 -20.0729 -11.8683  -7.1496
    -4.9696  -4.7389  -3.3439  -0.2281  -0.1557   1.4858   2.0694   2.4006
     3.8052   3.9464   5.0763

          k =-0.4833-0.8341 0.0000 (  9426 PWs)   bands (ev):

   -68.2670 -68.2515 -35.2554 -35.2015 -34.8836 -34.7638 -34.6551 -34.4960
   -20.1934 -20.1814 -20.1785 -20.1732 -20.1712 -20.1564 -20.1481 -20.1335
   -20.1271 -20.1174 -20.0902 -20.0870 -20.0742 -20.0729 -11.8857  -7.2982
    -5.0203  -4.4754  -3.6775  -0.0151   0.0106   1.8719   2.2145   2.9467
     2.9824   3.9061   4.9795

     the Fermi energy is    -0.2214 ev

!    total energy              =   -1373.23202626 Ry
     estimated scf accuracy    <          5.8E-13 Ry
     smearing contrib. (-TS)   =       0.00001300 Ry
     internal energy E=F+TS    =   -1373.23203927 Ry

     The total energy is F=E-TS. E is the sum of the following terms:
     one-electron contribution =  -10891.24723980 Ry
     hartree contribution      =    5473.60374992 Ry
     xc contribution           =    -138.72740621 Ry
     ewald contribution        =    4183.13885683 Ry

     convergence has been achieved in  21 iterations

     negative rho (up, down):  8.202E-04 0.000E+00

     Forces acting on atoms (cartesian axes, Ry/au):

     atom    1 type  2   force =     0.00031372    0.00028501   -0.00016948
     atom    2 type  1   force =    -0.00034962    0.00001831    0.00057381
     atom    3 type  1   force =     0.00003591   -0.00030332   -0.00040433

     Total force =     0.000958     Total SCF correction =     0.000006


     Computing stress (Cartesian axis) and pressure


     negative rho (up, down):  8.202E-04 0.000E+00
          total   stress  (Ry/bohr**3)                   (kbar)     P=       -1.96
  -0.00000187   0.00000090   0.00000055           -0.28        0.13        0.08
   0.00000090  -0.00000116  -0.00000046            0.13       -0.17       -0.07
   0.00000055  -0.00000046  -0.00003687            0.08       -0.07       -5.42


     BFGS Geometry Optimization
     Energy error            =      0.0E+00 Ry
     Gradient error          =      5.7E-04 Ry/Bohr
     Cell gradient error     =      2.8E-01 kbar

     bfgs converged in   1 scf cycles and   0 bfgs steps
     (criteria: energy <  1.0E-04 Ry, force <  1.0E-03Ry/Bohr, cell <  5.0E-01kbar)

     End of BFGS Geometry Optimization

     Final enthalpy           =   -1373.2320262629 Ry
Begin final coordinates
     new unit-cell volume =   1588.78437 a.u.^3 (   235.43355 Ang^3 )
     density =      2.63720 g/cm^3

CELL_PARAMETERS (alat=  5.55000000)
   1.034114046   0.000203161   0.000000000
  -0.516206994   0.898604446   0.000000000
   0.000000000   0.000000000  10.000000000

ATOMIC_POSITIONS (alat)
C             0.0000000000        0.0000000000        0.0000000000
Ta            0.5174615000        0.3004190000       -0.4127129000
Ta            0.0007158000        0.5986355000        0.4125272000
End final coordinates



     Writing output data file /scratch/as3359/Ta2C_looping/Ta.save/

     Final scf calculation at the relaxed structure.
     The G-vectors are recalculated for the final unit cell
     Results may differ from those at the preceding step.
 
     Parallelization info
     --------------------
     sticks:   dense  smooth     PW     G-vecs:    dense   smooth      PW
     Min         337     225     75                69622    37871    7291
     Max         338     226     76                69657    37888    7324
     Sum         675     451    151               139279    75759   14615
 
     Using Slab Decomposition
 


     bravais-lattice index     =            0
     lattice parameter (alat)  =       5.5500  a.u.
     unit-cell volume          =    1588.7844 (a.u.)^3
     number of atoms/cell      =            3
     number of atomic types    =            2
     number of electrons       =        58.00
     number of Kohn-Sham states=           35
     kinetic-energy cutoff     =      50.0000  Ry
     charge density cutoff     =     300.0000  Ry
     scf convergence threshold =      1.0E-12
     mixing beta               =       0.7000
     number of iterations used =            8  plain     mixing
     press convergence thresh. =      5.0E-01
     Exchange-correlation= PBESOL
                           (   1   4  10   8   0   0   0)

     celldm(1)=   5.550000  celldm(2)=   0.000000  celldm(3)=   0.000000
     celldm(4)=   0.000000  celldm(5)=   0.000000  celldm(6)=   0.000000

     crystal axes: (cart. coord. in units of alat)
               a(1) = (   1.034114   0.000203   0.000000 )  
               a(2) = (  -0.516207   0.898604   0.000000 )  
               a(3) = (   0.000000   0.000000  10.000000 )  

     reciprocal axes: (cart. coord. in units 2 pi/alat)
               b(1) = (  0.966902  0.555441  0.000000 )  
               b(2) = ( -0.000219  1.112711  0.000000 )  
               b(3) = (  0.000000  0.000000  0.100000 )  


     PseudoPot. # 1 for Ta read from file:
     /shared/home/as3359/pseudo/Ta.pbesol-spfn-rrkjus_psl.1.0.0.UPF
     MD5 check sum: f099565ffaca9b150a52e9412a28e20b
     Pseudo is Ultrasoft + core correction, Zval = 27.0
     Generated using &quot;atomic&quot; code by A. Dal Corso  v.6.3
     Using radial grid of 1273 points,  8 beta functions with: 
                l(1) =   0
                l(2) =   0
                l(3) =   1
                l(4) =   1
                l(5) =   2
                l(6) =   2
                l(7) =   3
                l(8) =   3
     Q(r) pseudized with 0 coefficients 


     PseudoPot. # 2 for C  read from file:
     /shared/home/as3359/pseudo/C.pbesol-n-rrkjus_psl.1.0.0.UPF
     MD5 check sum: 05995be603a8a7c99da3dc4413f31573
     Pseudo is Ultrasoft + core correction, Zval =  4.0
     Generated using &quot;atomic&quot; code by A. Dal Corso  v.6.3MaX
     Using radial grid of 1073 points,  4 beta functions with: 
                l(1) =   0
                l(2) =   0
                l(3) =   1
                l(4) =   1
     Q(r) pseudized with 0 coefficients 


     atomic species   valence    mass     pseudopotential
        Ta            27.00   180.94788     Ta( 1.00)
        C              4.00    12.01070     C ( 1.00)

     No symmetry found



   Cartesian axes

     site n.     atom                  positions (alat units)
         1           C   tau(   1) = (   0.0000000   0.0000000   0.0000000  )
         2           Ta  tau(   2) = (   0.5174615   0.3004190  -0.4127129  )
         3           Ta  tau(   3) = (   0.0007158   0.5986355   0.4125272  )

     number of k points=    74  Marzari-Vanderbilt smearing, width (Ry)=  0.0010
                       cart. coord. in units 2pi/alat
        k(    1) = (   0.0000000   0.0000000   0.0000000), wk =   0.0138889
        k(    2) = (  -0.0000182   0.0927259   0.0000000), wk =   0.0277778
        k(    3) = (  -0.0000364   0.1854519   0.0000000), wk =   0.0277778
        k(    4) = (  -0.0000547   0.2781778   0.0000000), wk =   0.0277778
        k(    5) = (  -0.0000729   0.3709037   0.0000000), wk =   0.0277778
        k(    6) = (  -0.0000911   0.4636296   0.0000000), wk =   0.0277778
        k(    7) = (   0.0001093  -0.5563556   0.0000000), wk =   0.0138889
        k(    8) = (   0.0805752   0.0462867   0.0000000), wk =   0.0277778
        k(    9) = (   0.0805570   0.1390127   0.0000000), wk =   0.0277778
        k(   10) = (   0.0805388   0.2317386   0.0000000), wk =   0.0277778
        k(   11) = (   0.0805205   0.3244645   0.0000000), wk =   0.0277778
        k(   12) = (   0.0805023   0.4171904   0.0000000), wk =   0.0277778
        k(   13) = (   0.0804841   0.5099164   0.0000000), wk =   0.0277778
        k(   14) = (   0.0806845  -0.5100688   0.0000000), wk =   0.0277778
        k(   15) = (   0.0806663  -0.4173429   0.0000000), wk =   0.0277778
        k(   16) = (   0.0806481  -0.3246170   0.0000000), wk =   0.0277778
        k(   17) = (   0.0806298  -0.2318910   0.0000000), wk =   0.0277778
        k(   18) = (   0.0806116  -0.1391651   0.0000000), wk =   0.0277778
        k(   19) = (   0.0805934  -0.0464392   0.0000000), wk =   0.0277778
        k(   20) = (   0.1611504   0.0925735   0.0000000), wk =   0.0277778
        k(   21) = (   0.1611322   0.1852994   0.0000000), wk =   0.0277778
        k(   22) = (   0.1611139   0.2780253   0.0000000), wk =   0.0277778
        k(   23) = (   0.1610957   0.3707513   0.0000000), wk =   0.0277778
        k(   24) = (   0.1610775   0.4634772   0.0000000), wk =   0.0277778
        k(   25) = (   0.1610593   0.5562031   0.0000000), wk =   0.0277778
        k(   26) = (   0.1612597  -0.4637821   0.0000000), wk =   0.0277778
        k(   27) = (   0.1612415  -0.3710561   0.0000000), wk =   0.0277778
        k(   28) = (   0.1612232  -0.2783302   0.0000000), wk =   0.0277778
        k(   29) = (   0.1612050  -0.1856043   0.0000000), wk =   0.0277778
        k(   30) = (   0.1611868  -0.0928784   0.0000000), wk =   0.0277778
        k(   31) = (   0.1611686  -0.0001524   0.0000000), wk =   0.0277778
        k(   32) = (   0.2417256   0.1388602   0.0000000), wk =   0.0277778
        k(   33) = (   0.2417073   0.2315862   0.0000000), wk =   0.0277778
        k(   34) = (   0.2416891   0.3243121   0.0000000), wk =   0.0277778
        k(   35) = (   0.2416709   0.4170380   0.0000000), wk =   0.0277778
        k(   36) = (   0.2416527   0.5097639   0.0000000), wk =   0.0277778
        k(   37) = (   0.2416345   0.6024899   0.0000000), wk =   0.0277778
        k(   38) = (   0.2418349  -0.4174953   0.0000000), wk =   0.0277778
        k(   39) = (   0.2418166  -0.3247694   0.0000000), wk =   0.0277778
        k(   40) = (   0.2417984  -0.2320435   0.0000000), wk =   0.0277778
        k(   41) = (   0.2417802  -0.1393175   0.0000000), wk =   0.0277778
        k(   42) = (   0.2417620  -0.0465916   0.0000000), wk =   0.0277778
        k(   43) = (   0.2417438   0.0461343   0.0000000), wk =   0.0277778
        k(   44) = (   0.3223007   0.1851470   0.0000000), wk =   0.0277778
        k(   45) = (   0.3222825   0.2778729   0.0000000), wk =   0.0277778
        k(   46) = (   0.3222643   0.3705988   0.0000000), wk =   0.0277778
        k(   47) = (   0.3222461   0.4633248   0.0000000), wk =   0.0277778
        k(   48) = (   0.3222279   0.5560507   0.0000000), wk =   0.0277778
        k(   49) = (   0.3222097   0.6487766   0.0000000), wk =   0.0277778
        k(   50) = (   0.3224100  -0.3712086   0.0000000), wk =   0.0277778
        k(   51) = (   0.3223918  -0.2784827   0.0000000), wk =   0.0277778
        k(   52) = (   0.3223736  -0.1857567   0.0000000), wk =   0.0277778
        k(   53) = (   0.3223554  -0.0930308   0.0000000), wk =   0.0277778
        k(   54) = (   0.3223372  -0.0003049   0.0000000), wk =   0.0277778
        k(   55) = (   0.3223190   0.0924210   0.0000000), wk =   0.0277778
        k(   56) = (   0.4028759   0.2314337   0.0000000), wk =   0.0277778
        k(   57) = (   0.4028577   0.3241596   0.0000000), wk =   0.0277778
        k(   58) = (   0.4028395   0.4168856   0.0000000), wk =   0.0277778
        k(   59) = (   0.4028213   0.5096115   0.0000000), wk =   0.0277778
        k(   60) = (   0.4028031   0.6023374   0.0000000), wk =   0.0277778
        k(   61) = (   0.4027848   0.6950633   0.0000000), wk =   0.0277778
        k(   62) = (   0.4029852  -0.3249218   0.0000000), wk =   0.0277778
        k(   63) = (   0.4029670  -0.2321959   0.0000000), wk =   0.0277778
        k(   64) = (   0.4029488  -0.1394700   0.0000000), wk =   0.0277778
        k(   65) = (   0.4029306  -0.0467441   0.0000000), wk =   0.0277778
        k(   66) = (   0.4029124   0.0459819   0.0000000), wk =   0.0277778
        k(   67) = (   0.4028941   0.1387078   0.0000000), wk =   0.0277778
        k(   68) = (  -0.4834511  -0.2777205   0.0000000), wk =   0.0138889
        k(   69) = (  -0.4834693  -0.1849945   0.0000000), wk =   0.0277778
        k(   70) = (  -0.4834875  -0.0922686   0.0000000), wk =   0.0277778
        k(   71) = (  -0.4835058   0.0004573   0.0000000), wk =   0.0277778
        k(   72) = (  -0.4835240   0.0931832   0.0000000), wk =   0.0277778
        k(   73) = (  -0.4835422   0.1859092   0.0000000), wk =   0.0277778
        k(   74) = (  -0.4833418  -0.8340760   0.0000000), wk =   0.0138889

     Dense  grid:   139279 G-vectors     FFT dimensions: (  32,  32, 320)

     Smooth grid:    75759 G-vectors     FFT dimensions: (  25,  25, 250)

     Estimated max dynamical RAM per process >     870.30 MB

     Estimated total dynamical RAM >       1.70 GB

     Check: negative core charge=   -0.000001

     Initial potential from superposition of free atoms

     starting charge   57.99842, renormalised to   58.00000

     negative rho (up, down):  8.408E-04 0.000E+00
     Starting wfcs are   38 randomized atomic wfcs

     total cpu time spent up to now is      178.3 secs

     Self-consistent Calculation

     iteration #  1     ecut=    50.00 Ry     beta= 0.70
     Davidson diagonalization with overlap
     c_bands:  1 eigenvalues not converged
     c_bands:  1 eigenvalues not converged
     c_bands:  1 eigenvalues not converged
     c_bands:  1 eigenvalues not converged
     c_bands:  1 eigenvalues not converged
     c_bands:  1 eigenvalues not converged
     c_bands:  1 eigenvalues not converged
     c_bands:  1 eigenvalues not converged
     c_bands:  1 eigenvalues not converged
     c_bands:  1 eigenvalues not converged
     c_bands:  1 eigenvalues not converged
     c_bands:  1 eigenvalues not converged
     c_bands:  1 eigenvalues not converged
     c_bands:  1 eigenvalues not converged
     c_bands:  1 eigenvalues not converged
     c_bands:  1 eigenvalues not converged
     c_bands:  1 eigenvalues not converged
     c_bands:  1 eigenvalues not converged
     c_bands:  1 eigenvalues not converged
     c_bands:  1 eigenvalues not converged
     c_bands:  1 eigenvalues not converged
     c_bands:  1 eigenvalues not converged
     ethr =  1.00E-06,  avg # of iterations = 16.0

     negative rho (up, down):  8.564E-04 0.000E+00

     total cpu time spent up to now is      198.7 secs

     total energy              =   -1372.36000759 Ry
     estimated scf accuracy    <       1.41023962 Ry

     iteration #  2     ecut=    50.00 Ry     beta= 0.70
     Davidson diagonalization with overlap
     ethr =  2.43E-03,  avg # of iterations = 12.1

     total cpu time spent up to now is      210.6 secs

     total energy              =   -1369.93160743 Ry
     estimated scf accuracy    <      23.40185109 Ry

     iteration #  3     ecut=    50.00 Ry     beta= 0.70
     Davidson diagonalization with overlap
     ethr =  2.43E-03,  avg # of iterations =  8.2

     total cpu time spent up to now is      220.9 secs

     total energy              =   -1373.18029984 Ry
     estimated scf accuracy    <       0.47255732 Ry

     iteration #  4     ecut=    50.00 Ry     beta= 0.70
     Davidson diagonalization with overlap
     ethr =  8.15E-04,  avg # of iterations =  3.3

     total cpu time spent up to now is      228.5 secs

     total energy              =   -1373.22186327 Ry
     estimated scf accuracy    <       0.41162402 Ry

     iteration #  5     ecut=    50.00 Ry     beta= 0.70
     Davidson diagonalization with overlap
     ethr =  7.10E-04,  avg # of iterations =  1.6

     total cpu time spent up to now is      235.0 secs

     total energy              =   -1373.23491061 Ry
     estimated scf accuracy    <       0.58564395 Ry

     iteration #  6     ecut=    50.00 Ry     beta= 0.70
     Davidson diagonalization with overlap
     ethr =  7.10E-04,  avg # of iterations =  1.1

     total cpu time spent up to now is      241.4 secs

     total energy              =   -1373.24145231 Ry
     estimated scf accuracy    <       0.04155506 Ry

     iteration #  7     ecut=    50.00 Ry     beta= 0.70
     Davidson diagonalization with overlap
     ethr =  7.16E-05,  avg # of iterations =  2.3

     total cpu time spent up to now is      248.2 secs

     total energy              =   -1373.23429642 Ry
     estimated scf accuracy    <       0.01997619 Ry

     iteration #  8     ecut=    50.00 Ry     beta= 0.70
     Davidson diagonalization with overlap
     ethr =  3.44E-05,  avg # of iterations =  2.6

     total cpu time spent up to now is      255.1 secs

     total energy              =   -1373.23417136 Ry
     estimated scf accuracy    <       0.00652066 Ry

     iteration #  9     ecut=    50.00 Ry     beta= 0.70
     Davidson diagonalization with overlap
     ethr =  1.12E-05,  avg # of iterations =  2.0

     total cpu time spent up to now is      261.8 secs

     total energy              =   -1373.23251123 Ry
     estimated scf accuracy    <       0.00435285 Ry

     iteration # 10     ecut=    50.00 Ry     beta= 0.70
     Davidson diagonalization with overlap
     ethr =  7.50E-06,  avg # of iterations =  2.4

     negative rho (up, down):  2.020E-03 0.000E+00

     total cpu time spent up to now is      268.7 secs

     total energy              =   -1373.23179972 Ry
     estimated scf accuracy    <       0.00252714 Ry

     iteration # 11     ecut=    50.00 Ry     beta= 0.70
     Davidson diagonalization with overlap
     ethr =  4.36E-06,  avg # of iterations =  3.2

     negative rho (up, down):  6.947E-04 0.000E+00

     total cpu time spent up to now is      276.0 secs

     total energy              =   -1373.23201059 Ry
     estimated scf accuracy    <       0.00018890 Ry

     iteration # 12     ecut=    50.00 Ry     beta= 0.70
     Davidson diagonalization with overlap
     ethr =  3.26E-07,  avg # of iterations =  2.0

     negative rho (up, down):  7.677E-04 0.000E+00

     total cpu time spent up to now is      282.8 secs

     total energy              =   -1373.23202495 Ry
     estimated scf accuracy    <       0.00000534 Ry

     iteration # 13     ecut=    50.00 Ry     beta= 0.70
     Davidson diagonalization with overlap
     ethr =  9.21E-09,  avg # of iterations =  3.4

     negative rho (up, down):  8.056E-04 0.000E+00

     total cpu time spent up to now is      290.6 secs

     total energy              =   -1373.23202604 Ry
     estimated scf accuracy    <       0.00000468 Ry

     iteration # 14     ecut=    50.00 Ry     beta= 0.70
     Davidson diagonalization with overlap
     ethr =  8.07E-09,  avg # of iterations =  1.1

     negative rho (up, down):  8.191E-04 0.000E+00

     total cpu time spent up to now is      297.0 secs

     total energy              =   -1373.23202624 Ry
     estimated scf accuracy    <       0.00000029 Ry

     iteration # 15     ecut=    50.00 Ry     beta= 0.70
     Davidson diagonalization with overlap
     ethr =  5.07E-10,  avg # of iterations =  2.0

     negative rho (up, down):  8.214E-04 0.000E+00

     total cpu time spent up to now is      304.7 secs

     total energy              =   -1373.23202625 Ry
     estimated scf accuracy    <       0.00000004 Ry

     iteration # 16     ecut=    50.00 Ry     beta= 0.70
     Davidson diagonalization with overlap
     ethr =  7.28E-11,  avg # of iterations =  2.3

     negative rho (up, down):  8.194E-04 0.000E+00

     total cpu time spent up to now is      311.8 secs

     total energy              =   -1373.23202626 Ry
     estimated scf accuracy    <       0.00000002 Ry

     iteration # 17     ecut=    50.00 Ry     beta= 0.70
     Davidson diagonalization with overlap
     ethr =  3.40E-11,  avg # of iterations =  1.2

     negative rho (up, down):  8.201E-04 0.000E+00

     total cpu time spent up to now is      318.3 secs

     total energy              =   -1373.23202626 Ry
     estimated scf accuracy    <          9.4E-10 Ry

     iteration # 18     ecut=    50.00 Ry     beta= 0.70
     Davidson diagonalization with overlap
     ethr =  1.62E-12,  avg # of iterations =  2.7

     negative rho (up, down):  8.200E-04 0.000E+00

     total cpu time spent up to now is      325.5 secs

     total energy              =   -1373.23202626 Ry
     estimated scf accuracy    <          3.4E-10 Ry

     iteration # 19     ecut=    50.00 Ry     beta= 0.70
     Davidson diagonalization with overlap
     ethr =  5.80E-13,  avg # of iterations =  2.0

     negative rho (up, down):  8.202E-04 0.000E+00

     total cpu time spent up to now is      332.5 secs

     total energy              =   -1373.23202626 Ry
     estimated scf accuracy    <          7.0E-10 Ry

     iteration # 20     ecut=    50.00 Ry     beta= 0.70
     Davidson diagonalization with overlap
     ethr =  5.80E-13,  avg # of iterations =  1.0

     negative rho (up, down):  8.202E-04 0.000E+00

     total cpu time spent up to now is      338.9 secs

     total energy              =   -1373.23202626 Ry
     estimated scf accuracy    <          2.4E-11 Ry

     iteration # 21     ecut=    50.00 Ry     beta= 0.70
     Davidson diagonalization with overlap
     ethr =  1.00E-13,  avg # of iterations =  1.0

     negative rho (up, down):  8.202E-04 0.000E+00

     total cpu time spent up to now is      345.3 secs

     End of self-consistent calculation

          k = 0.0000 0.0000 0.0000 (  9589 PWs)   bands (ev):

   -68.3308 -68.2833 -35.3521 -34.7505 -34.4410 -34.4382 -34.3762 -34.3718
   -20.2057 -20.1924 -20.1684 -20.1673 -20.1627 -20.1624 -20.1378 -20.1370
   -20.1298 -20.1297 -20.1163 -20.1115 -20.0538 -20.0522 -13.3127  -7.7391
    -4.4214  -4.3773  -2.0258  -1.0091  -0.8060  -0.2648  -0.1998   1.7157
     1.7291   2.7986   2.8483

          k =-0.0000 0.0927 0.0000 (  9554 PWs)   bands (ev):

   -68.3270 -68.2809 -35.3394 -34.7556 -34.4885 -34.4542 -34.4203 -34.3779
   -20.2042 -20.1915 -20.1691 -20.1683 -20.1628 -20.1614 -20.1384 -20.1373
   -20.1301 -20.1292 -20.1134 -20.1087 -20.0564 -20.0550 -13.1978  -7.5182
    -4.7483  -4.3418  -1.9255  -1.1762  -0.6185  -0.5198  -0.0210   1.3911
     1.6144   2.8016   3.0717

          k =-0.0000 0.1855 0.0000 (  9555 PWs)   bands (ev):

   -68.3164 -68.2744 -35.3051 -34.7831 -34.6037 -34.5376 -34.4956 -34.3972
   -20.2004 -20.1892 -20.1725 -20.1695 -20.1638 -20.1592 -20.1415 -20.1361
   -20.1309 -20.1274 -20.1061 -20.1017 -20.0633 -20.0623 -12.8951  -6.9339
    -5.4108  -4.2762  -1.9057  -1.5426  -1.0679  -0.0941   0.4709   1.2009
     1.6557   2.8741   3.4007

          k =-0.0001 0.2782 0.0000 (  9539 PWs)   bands (ev):

   -68.3015 -68.2659 -35.2615 -34.8864 -34.7020 -34.6789 -34.5485 -34.4264
   -20.1963 -20.1860 -20.1766 -20.1709 -20.1657 -20.1573 -20.1448 -20.1338
   -20.1317 -20.1246 -20.0960 -20.0923 -20.0727 -20.0713 -12.5124  -6.5049
    -5.7305  -4.2622  -2.5202  -1.6218  -1.1183   0.5455   1.1534   1.3687
     2.2266   2.9656   3.5766

          k =-0.0001 0.3709 0.0000 (  9495 PWs)   bands (ev):

   -68.2858 -68.2581 -35.2316 -35.0433 -34.8172 -34.7261 -34.5989 -34.4573
   -20.1942 -20.1821 -20.1796 -20.1723 -20.1681 -20.1566 -20.1466 -20.1323
   -20.1309 -20.1216 -20.0856 -20.0827 -20.0816 -20.0795 -12.1748  -6.8776
    -5.2664  -4.3202  -3.1543  -1.2938  -0.7654   1.2051   1.8088   1.9731
     2.8769   3.2372   3.6581

          k =-0.0001 0.4636 0.0000 (  9450 PWs)   bands (ev):

   -68.2734 -68.2533 -35.2361 -35.1623 -34.8749 -34.7510 -34.6347 -34.4805
   -20.1940 -20.1807 -20.1790 -20.1734 -20.1703 -20.1567 -20.1469 -20.1327
   -20.1284 -20.1191 -20.0879 -20.0847 -20.0777 -20.0758 -11.9627  -7.1939
    -5.0430  -4.3959  -3.5517  -0.5241  -0.2645   1.7393   2.1483   2.7421
     2.7882   3.7012   4.4128

          k = 0.0001-0.5564 0.0000 (  9418 PWs)   bands (ev):

   -68.2684 -68.2520 -35.2498 -35.2025 -34.8837 -34.7623 -34.6476 -34.4891
   -20.1942 -20.1806 -20.1783 -20.1738 -20.1710 -20.1568 -20.1467 -20.1327
   -20.1274 -20.1181 -20.0900 -20.0864 -20.0747 -20.0734 -11.8936  -7.3023
    -5.0112  -4.4289  -3.6841  -0.0377  -0.0088   1.8679   2.1756   2.9277
     3.0081   3.8892   4.9617

          k = 0.0806 0.0463 0.0000 (  9560 PWs)   bands (ev):

   -68.3269 -68.2809 -35.3393 -34.7556 -34.4864 -34.4568 -34.4174 -34.3813
   -20.2042 -20.1915 -20.1694 -20.1681 -20.1626 -20.1616 -20.1388 -20.1369
   -20.1302 -20.1291 -20.1134 -20.1087 -20.0564 -20.0550 -13.1972  -7.5173
    -4.7263  -4.3672  -1.9239  -1.1754  -0.6194  -0.4900  -0.0553   1.3920
     1.6020   2.8400   3.0470

          k = 0.0806 0.1390 0.0000 (  9551 PWs)   bands (ev):

   -68.3197 -68.2764 -35.3157 -34.7705 -34.5582 -34.5302 -34.4566 -34.4016
   -20.2015 -20.1899 -20.1709 -20.1699 -20.1631 -20.1601 -20.1405 -20.1366
   -20.1304 -20.1281 -20.1085 -20.1039 -20.0611 -20.0600 -12.9886  -7.1063
    -5.2059  -4.3483  -1.8224  -1.3637  -0.9953  -0.2977   0.2569   1.3102
     1.4698   3.0375   3.2452

          k = 0.0805 0.2317 0.0000 (  9542 PWs)   bands (ev):

   -68.3070 -68.2689 -35.2762 -34.8285 -34.6694 -34.6429 -34.5154 -34.4339
   -20.1973 -20.1874 -20.1744 -20.1717 -20.1641 -20.1583 -20.1436 -20.1352
   -20.1306 -20.1261 -20.0998 -20.0957 -20.0693 -20.0684 -12.6453  -6.4509
    -5.7675  -4.4266  -2.0453  -1.5434  -1.2185   0.2108   0.4040   1.5849
     1.9084   2.9906   3.7707

          k = 0.0805 0.3245 0.0000 (  9523 PWs)   bands (ev):

   -68.2917 -68.2608 -35.2375 -34.9618 -34.7818 -34.7115 -34.5814 -34.4686
   -20.1936 -20.1841 -20.1780 -20.1731 -20.1660 -20.1573 -20.1463 -20.1336
   -20.1300 -20.1235 -20.0895 -20.0863 -20.0785 -20.0772 -12.2853  -6.5435
    -5.4826  -4.5499  -2.6913  -1.2688  -1.1369   0.6307   0.9375   2.2031
     2.6477   3.1030   4.0893

          k = 0.0805 0.4172 0.0000 (  9458 PWs)   bands (ev):

   -68.2774 -68.2547 -35.2224 -35.0998 -34.8566 -34.7503 -34.6320 -34.4991
   -20.1925 -20.1805 -20.1799 -20.1737 -20.1686 -20.1572 -20.1472 -20.1327
   -20.1287 -20.1209 -20.0863 -20.0841 -20.0801 -20.0779 -12.0131  -6.9393
    -5.0634  -4.6435  -3.1328  -0.8212  -0.6686   1.0881   1.7521   2.2955
     3.2420   3.9174   4.2711

          k = 0.0805 0.5099 0.0000 (  9444 PWs)   bands (ev):

   -68.2683 -68.2520 -35.2319 -35.1800 -34.8758 -34.7781 -34.6582 -34.5170
   -20.1927 -20.1806 -20.1781 -20.1737 -20.1707 -20.1574 -20.1473 -20.1323
   -20.1279 -20.1191 -20.0906 -20.0876 -20.0748 -20.0734 -11.8758  -7.1521
    -4.9595  -4.7061  -3.3391  -0.2466  -0.1743   1.4731   2.0616   2.3857
     3.7823   3.9594   5.0517

          k = 0.0807-0.5101 0.0000 (  9448 PWs)   bands (ev):

   -68.2683 -68.2520 -35.2323 -35.1802 -34.8762 -34.7779 -34.6580 -34.5168
   -20.1927 -20.1805 -20.1782 -20.1739 -20.1705 -20.1573 -20.1473 -20.1324
   -20.1278 -20.1191 -20.0907 -20.0876 -20.0748 -20.0734 -11.8757  -7.1525
    -4.9601  -4.7053  -3.3403  -0.2464  -0.1746   1.4725   2.0610   2.3832
     3.7888   3.9566   5.0557

          k = 0.0807-0.4173 0.0000 (  9456 PWs)   bands (ev):

   -68.2774 -68.2546 -35.2228 -35.1006 -34.8579 -34.7500 -34.6313 -34.4986
   -20.1925 -20.1804 -20.1798 -20.1742 -20.1682 -20.1571 -20.1473 -20.1328
   -20.1287 -20.1209 -20.0863 -20.0841 -20.0801 -20.0779 -12.0126  -6.9403
    -5.0633  -4.6431  -3.1359  -0.8187  -0.6704   1.0870   1.7478   2.2956
     3.2523   3.9164   4.2726

          k = 0.0806-0.3246 0.0000 (  9521 PWs)   bands (ev):

   -68.2916 -68.2608 -35.2376 -34.9629 -34.7835 -34.7118 -34.5803 -34.4680
   -20.1936 -20.1840 -20.1780 -20.1735 -20.1657 -20.1571 -20.1464 -20.1337
   -20.1299 -20.1236 -20.0894 -20.0862 -20.0786 -20.0772 -12.2845  -6.5443
    -5.4817  -4.5505  -2.6945  -1.2678  -1.1361   0.6294   0.9348   2.2073
     2.6462   3.1075   4.0887

          k = 0.0806-0.2319 0.0000 (  9548 PWs)   bands (ev):

   -68.3069 -68.2689 -35.2761 -34.8291 -34.6704 -34.6445 -34.5146 -34.4333
   -20.1972 -20.1873 -20.1747 -20.1718 -20.1639 -20.1581 -20.1439 -20.1351
   -20.1305 -20.1261 -20.0998 -20.0957 -20.0693 -20.0684 -12.6444  -6.4495
    -5.7666  -4.4286  -2.0469  -1.5418  -1.2183   0.2057   0.4071   1.5836
     1.9028   2.9948   3.7723

          k = 0.0806-0.1392 0.0000 (  9557 PWs)   bands (ev):

   -68.3197 -68.2764 -35.3156 -34.7705 -34.5594 -34.5308 -34.4567 -34.4011
   -20.2015 -20.1899 -20.1716 -20.1694 -20.1632 -20.1599 -20.1409 -20.1362
   -20.1304 -20.1281 -20.1085 -20.1039 -20.0612 -20.0601 -12.9878  -7.1049
    -5.2004  -4.3557  -1.8211  -1.3627  -0.9902  -0.2988   0.2490   1.3036
     1.4678   3.0389   3.2494

          k = 0.0806-0.0464 0.0000 (  9569 PWs)   bands (ev):

   -68.3269 -68.2808 -35.3393 -34.7556 -34.4868 -34.4567 -34.4179 -34.3812
   -20.2042 -20.1915 -20.1698 -20.1677 -20.1628 -20.1614 -20.1392 -20.1366
   -20.1302 -20.1291 -20.1135 -20.1087 -20.0564 -20.0550 -13.1970  -7.5167
    -4.7165  -4.3784  -1.9230  -1.1747  -0.6170  -0.4785  -0.0720   1.3937
     1.5940   2.8519   3.0401

          k = 0.1612 0.0926 0.0000 (  9551 PWs)   bands (ev):

   -68.3162 -68.2743 -35.3046 -34.7831 -34.6023 -34.5360 -34.4989 -34.4009
   -20.2003 -20.1892 -20.1729 -20.1692 -20.1637 -20.1593 -20.1420 -20.1357
   -20.1310 -20.1272 -20.1061 -20.1016 -20.0634 -20.0624 -12.8930  -6.9308
    -5.3938  -4.3029  -1.8969  -1.5424  -1.0615  -0.0893   0.4430   1.2042
     1.6371   2.9129   3.3811

          k = 0.1611 0.1853 0.0000 (  9542 PWs)   bands (ev):

   -68.3069 -68.2688 -35.2759 -34.8282 -34.6685 -34.6431 -34.5168 -34.4365
   -20.1972 -20.1875 -20.1747 -20.1714 -20.1640 -20.1583 -20.1439 -20.1350
   -20.1307 -20.1259 -20.0997 -20.0957 -20.0694 -20.0685 -12.6439  -6.4486
    -5.7596  -4.4414  -2.0347  -1.5466  -1.2235   0.2154   0.4030   1.5690
     1.9135   2.9978   3.7672

          k = 0.1611 0.2780 0.0000 (  9519 PWs)   bands (ev):

   -68.2936 -68.2618 -35.2397 -34.9113 -34.7880 -34.6969 -34.5628 -34.4982
   -20.1925 -20.1854 -20.1760 -20.1751 -20.1644 -20.1580 -20.1462 -20.1344
   -20.1287 -20.1250 -20.0908 -20.0876 -20.0773 -20.0767 -12.3229  -6.1700
    -5.7416  -4.7857  -2.1880  -1.7058  -0.6646  -0.2322   0.7578   2.2871
     2.6085   2.9863   4.5915

          k = 0.1611 0.3708 0.0000 (  9465 PWs)   bands (ev):

   -68.2796 -68.2555 -35.2118 -35.0188 -34.8691 -34.7386 -34.6309 -34.5502
   -20.1891 -20.1829 -20.1780 -20.1757 -20.1662 -20.1583 -20.1479 -20.1334
   -20.1269 -20.1238 -20.0856 -20.0847 -20.0814 -20.0791 -12.0310  -6.5118
    -5.1827  -5.0143  -2.4524  -1.3831  -0.6876   0.1670   1.3939   2.3152
     3.3728   3.7069   5.2164

          k = 0.1611 0.4635 0.0000 (  9448 PWs)   bands (ev):

   -68.2682 -68.2519 -35.1995 -35.1136 -34.8835 -34.7965 -34.6748 -34.5848
   -20.1887 -20.1808 -20.1782 -20.1744 -20.1689 -20.1589 -20.1485 -20.1320
   -20.1275 -20.1218 -20.0914 -20.0898 -20.0749 -20.0733 -11.8398  -6.7681
    -5.2020  -4.8349  -2.6222  -0.7732  -0.5749   0.6305   2.0656   2.3040
     3.6934   4.1557   5.7008

          k = 0.1611 0.5562 0.0000 (  9450 PWs)   bands (ev):

   -68.2633 -68.2512 -35.1925 -35.1565 -34.8558 -34.8496 -34.6864 -34.5974
   -20.1890 -20.1806 -20.1771 -20.1737 -20.1705 -20.1591 -20.1486 -20.1309
   -20.1284 -20.1209 -20.0938 -20.0916 -20.0723 -20.0713 -11.7750  -6.8623
    -5.2298  -4.7872  -2.6889  -0.4274  -0.3748   0.7572   2.2922   2.4446
     3.7545   3.9737   5.9637

          k = 0.1613-0.4638 0.0000 (  9454 PWs)   bands (ev):

   -68.2681 -68.2519 -35.2006 -35.1146 -34.8850 -34.7957 -34.6744 -34.5840
   -20.1888 -20.1808 -20.1781 -20.1749 -20.1686 -20.1588 -20.1486 -20.1321
   -20.1274 -20.1218 -20.0915 -20.0898 -20.0748 -20.0733 -11.8392  -6.7695
    -5.2025  -4.8350  -2.6243  -0.7768  -0.5738   0.6315   2.0662   2.3023
     3.6916   4.1692   5.7036

          k = 0.1612-0.3711 0.0000 (  9470 PWs)   bands (ev):

   -68.2794 -68.2554 -35.2124 -35.0210 -34.8709 -34.7391 -34.6298 -34.5489
   -20.1890 -20.1828 -20.1779 -20.1763 -20.1659 -20.1580 -20.1481 -20.1335
   -20.1268 -20.1238 -20.0857 -20.0848 -20.0813 -20.0791 -12.0298  -6.5137
    -5.1817  -5.0157  -2.4564  -1.3856  -0.6853   0.1667   1.3948   2.3166
     3.3767   3.7115   5.2176

          k = 0.1612-0.2783 0.0000 (  9509 PWs)   bands (ev):

   -68.2935 -68.2616 -35.2397 -34.9132 -34.7899 -34.6980 -34.5621 -34.4969
   -20.1923 -20.1853 -20.1767 -20.1748 -20.1643 -20.1576 -20.1466 -20.1344
   -20.1286 -20.1250 -20.0908 -20.0875 -20.0773 -20.0768 -12.3213  -6.1699
    -5.7391  -4.7892  -2.1905  -1.7058  -0.6649  -0.2342   0.7601   2.2895
     2.6062   2.9876   4.5933

          k = 0.1612-0.1856 0.0000 (  9546 PWs)   bands (ev):

   -68.3067 -68.2687 -35.2757 -34.8289 -34.6698 -34.6449 -34.5166 -34.4361
   -20.1969 -20.1874 -20.1754 -20.1711 -20.1642 -20.1580 -20.1444 -20.1348
   -20.1307 -20.1259 -20.0997 -20.0957 -20.0694 -20.0686 -12.6423  -6.4454
    -5.7555  -4.4492  -2.0303  -1.5476  -1.2252   0.2117   0.4050   1.5608
     1.9095   3.0028   3.7682

          k = 0.1612-0.0929 0.0000 (  9551 PWs)   bands (ev):

   -68.3161 -68.2742 -35.3044 -34.7832 -34.6029 -34.5369 -34.4991 -34.4010
   -20.2002 -20.1891 -20.1735 -20.1687 -20.1640 -20.1590 -20.1424 -20.1354
   -20.1310 -20.1271 -20.1060 -20.1016 -20.0635 -20.0624 -12.8920  -6.9287
    -5.3868  -4.3134  -1.8919  -1.5423  -1.0592  -0.0872   0.4301   1.2042
[...]
    -5.4797  -4.5712  -2.6828  -1.2696  -1.1415   0.6380   0.9478   2.1943
     2.6552   3.0919   4.0896

          k = 0.2417 0.3243 0.0000 (  9466 PWs)   bands (ev):

   -68.2794 -68.2554 -35.2116 -35.0182 -34.8699 -34.7382 -34.6329 -34.5522
   -20.1888 -20.1831 -20.1784 -20.1754 -20.1662 -20.1583 -20.1480 -20.1333
   -20.1273 -20.1233 -20.0856 -20.0849 -20.0814 -20.0790 -12.0295  -6.5076
    -5.1912  -5.0173  -2.4502  -1.3796  -0.6931   0.1764   1.3996   2.3176
     3.3683   3.7037   5.2172

          k = 0.2417 0.4170 0.0000 (  9440 PWs)   bands (ev):

   -68.2679 -68.2518 -35.1850 -35.0509 -34.9350 -34.7706 -34.6881 -34.6312
   -20.1840 -20.1837 -20.1776 -20.1753 -20.1675 -20.1599 -20.1492 -20.1321
   -20.1257 -20.1243 -20.0917 -20.0911 -20.0749 -20.0732 -11.8207  -6.4679
    -5.5317  -4.7699  -1.8926  -1.4648  -0.7701   0.3360   1.9382   2.3622
     3.6824   4.1500   5.9975

          k = 0.2417 0.5098 0.0000 (  9452 PWs)   bands (ev):

   -68.2598 -68.2512 -35.1467 -35.0918 -34.9541 -34.8185 -34.7092 -34.6787
   -20.1852 -20.1805 -20.1769 -20.1731 -20.1697 -20.1611 -20.1500 -20.1300
   -20.1277 -20.1236 -20.0957 -20.0947 -20.0710 -20.0700 -11.7052  -6.4735
    -5.7136  -4.6102  -1.8100  -0.9673  -0.7384   0.3948   2.3749   2.4476
     3.5628   3.7057   6.0821

          k = 0.2416 0.6025 0.0000 (  9448 PWs)   bands (ev):

   -68.2598 -68.2512 -35.1478 -35.0925 -34.9540 -34.8186 -34.7095 -34.6775
   -20.1852 -20.1805 -20.1767 -20.1734 -20.1695 -20.1610 -20.1501 -20.1302
   -20.1275 -20.1236 -20.0957 -20.0947 -20.0709 -20.0700 -11.7048  -6.4744
    -5.7142  -4.6109  -1.8100  -0.9732  -0.7350   0.3963   2.3786   2.4449
     3.5561   3.7201   6.0857

          k = 0.2418-0.4175 0.0000 (  9438 PWs)   bands (ev):

   -68.2677 -68.2517 -35.1864 -35.0536 -34.9352 -34.7716 -34.6876 -34.6294
   -20.1841 -20.1836 -20.1773 -20.1758 -20.1674 -20.1595 -20.1495 -20.1323
   -20.1256 -20.1242 -20.0917 -20.0911 -20.0748 -20.0731 -11.8195  -6.4694
    -5.5341  -4.7705  -1.8951  -1.4689  -0.7682   0.3398   1.9415   2.3621
     3.6805   4.1659   5.9912

          k = 0.2418-0.3248 0.0000 (  9470 PWs)   bands (ev):

   -68.2791 -68.2552 -35.2122 -35.0206 -34.8718 -34.7390 -34.6323 -34.5511
   -20.1884 -20.1832 -20.1788 -20.1754 -20.1662 -20.1578 -20.1485 -20.1334
   -20.1273 -20.1232 -20.0857 -20.0849 -20.0813 -20.0789 -12.0276  -6.5074
    -5.1929  -5.0195  -2.4529  -1.3809  -0.6936   0.1790   1.4030   2.3203
     3.3703   3.7070   5.2163

          k = 0.2418-0.2320 0.0000 (  9523 PWs)   bands (ev):

   -68.2911 -68.2604 -35.2368 -34.9629 -34.7844 -34.7116 -34.5850 -34.4724
   -20.1928 -20.1842 -20.1789 -20.1726 -20.1661 -20.1569 -20.1472 -20.1335
   -20.1302 -20.1231 -20.0892 -20.0861 -20.0787 -20.0775 -12.2802  -6.5335
    -5.4762  -4.5800  -2.6818  -1.2697  -1.1431   0.6376   0.9493   2.1943
     2.6577   3.0897   4.0885

          k = 0.2418-0.1393 0.0000 (  9547 PWs)   bands (ev):

   -68.3009 -68.2655 -35.2604 -34.8873 -34.7025 -34.6794 -34.5535 -34.4312
   -20.1957 -20.1860 -20.1776 -20.1701 -20.1660 -20.1571 -20.1459 -20.1333
   -20.1320 -20.1242 -20.0958 -20.0920 -20.0729 -20.0717 -12.5069  -6.4941
    -5.7167  -4.3016  -2.5053  -1.6258  -1.1183   0.5585   1.1281   1.3727
     2.1978   3.0148   3.5523

          k = 0.2418-0.0466 0.0000 (  9544 PWs)   bands (ev):

   -68.3065 -68.2686 -35.2753 -34.8302 -34.6703 -34.6456 -34.5173 -34.4367
   -20.1968 -20.1873 -20.1755 -20.1712 -20.1639 -20.1581 -20.1447 -20.1347
   -20.1306 -20.1258 -20.0996 -20.0956 -20.0695 -20.0686 -12.6402  -6.4434
    -5.7540  -4.4557  -2.0332  -1.5461  -1.2241   0.1930   0.4202   1.5634
     1.8981   3.0090   3.7768

          k = 0.2417 0.0461 0.0000 (  9542 PWs)   bands (ev):

   -68.3066 -68.2686 -35.2754 -34.8301 -34.6700 -34.6454 -34.5167 -34.4365
   -20.1970 -20.1873 -20.1751 -20.1716 -20.1636 -20.1583 -20.1445 -20.1348
   -20.1305 -20.1258 -20.0996 -20.0956 -20.0695 -20.0686 -12.6409  -6.4452
    -5.7572  -4.4499  -2.0391  -1.5434  -1.2222   0.1917   0.4213   1.5703
     1.8965   3.0082   3.7773

          k = 0.3223 0.1851 0.0000 (  9490 PWs)   bands (ev):

   -68.2852 -68.2578 -35.2310 -35.0437 -34.8177 -34.7261 -34.6041 -34.4624
   -20.1938 -20.1821 -20.1799 -20.1721 -20.1680 -20.1566 -20.1472 -20.1327
   -20.1306 -20.1211 -20.0853 -20.0825 -20.0818 -20.0799 -12.1698  -6.8721
    -5.2645  -4.3513  -3.1477  -1.2912  -0.7615   1.2198   1.8132   1.9652
     2.9071   3.2274   3.6406

          k = 0.3223 0.2779 0.0000 (  9456 PWs)   bands (ev):

   -68.2768 -68.2544 -35.2223 -35.0994 -34.8568 -34.7506 -34.6368 -34.5037
   -20.1921 -20.1806 -20.1801 -20.1734 -20.1687 -20.1572 -20.1477 -20.1328
   -20.1288 -20.1204 -20.0864 -20.0844 -20.0799 -20.0776 -12.0090  -6.9346
    -5.0656  -4.6690  -3.1280  -0.8178  -0.6612   1.1012   1.7675   2.3016
     3.2335   3.9098   4.2718

          k = 0.3223 0.3706 0.0000 (  9442 PWs)   bands (ev):

   -68.2677 -68.2518 -35.2002 -35.1128 -34.8845 -34.7967 -34.6776 -34.5877
   -20.1884 -20.1810 -20.1783 -20.1742 -20.1690 -20.1589 -20.1488 -20.1320
   -20.1278 -20.1212 -20.0915 -20.0901 -20.0746 -20.0731 -11.8369  -6.7654
    -5.2170  -4.8403  -2.6267  -0.7604  -0.5664   0.6389   2.0735   2.3104
     3.6964   4.1478   5.7015

          k = 0.3222 0.4633 0.0000 (  9461 PWs)   bands (ev):

   -68.2595 -68.2512 -35.1479 -35.0912 -34.9550 -34.8186 -34.7103 -34.6794
   -20.1851 -20.1805 -20.1770 -20.1731 -20.1697 -20.1611 -20.1502 -20.1300
   -20.1281 -20.1231 -20.0957 -20.0949 -20.0709 -20.0700 -11.7037  -6.4728
    -5.7205  -4.6141  -1.8262  -0.9482  -0.7315   0.3970   2.3783   2.4529
     3.5682   3.7015   6.0828

          k = 0.3222 0.5561 0.0000 (  9478 PWs)   bands (ev):

   -68.2540 -68.2534 -35.0774 -35.0734 -35.0405 -34.8203 -34.7226 -34.7221
   -20.1846 -20.1781 -20.1777 -20.1713 -20.1710 -20.1622 -20.1511 -20.1288
   -20.1282 -20.1245 -20.0972 -20.0968 -20.0694 -20.0690 -11.6531  -6.1306
    -6.1289  -4.5070  -1.1705  -1.0418  -1.0306   0.3105   2.4236   2.4284
     3.3989   3.4260   6.5970

          k = 0.3222 0.6488 0.0000 (  9463 PWs)   bands (ev):

   -68.2593 -68.2512 -35.1499 -35.0924 -34.9546 -34.8198 -34.7104 -34.6780
   -20.1853 -20.1802 -20.1770 -20.1732 -20.1699 -20.1607 -20.1505 -20.1302
   -20.1281 -20.1230 -20.0957 -20.0949 -20.0709 -20.0699 -11.7028  -6.4726
    -5.7242  -4.6156  -1.8326  -0.9460  -0.7257   0.3996   2.3823   2.4530
     3.5643   3.7133   6.0857

          k = 0.3224-0.3712 0.0000 (  9441 PWs)   bands (ev):

   -68.2674 -68.2516 -35.2020 -35.1144 -34.8861 -34.7969 -34.6777 -34.5872
   -20.1881 -20.1811 -20.1785 -20.1741 -20.1691 -20.1584 -20.1493 -20.1321
   -20.1278 -20.1211 -20.0915 -20.0901 -20.0745 -20.0730 -11.8352  -6.7649
    -5.2236  -4.8408  -2.6303  -0.7584  -0.5628   0.6422   2.0780   2.3115
     3.6970   4.1570   5.7025

          k = 0.3224-0.2785 0.0000 (  9460 PWs)   bands (ev):

   -68.2765 -68.2542 -35.2232 -35.1009 -34.8589 -34.7508 -34.6373 -34.5041
   -20.1916 -20.1810 -20.1803 -20.1732 -20.1689 -20.1567 -20.1483 -20.1330
   -20.1288 -20.1202 -20.0865 -20.0845 -20.0798 -20.0775 -12.0068  -6.9326
    -5.0641  -4.6785  -3.1289  -0.8148  -0.6601   1.1027   1.7700   2.3047
     3.2404   3.9055   4.2716

          k = 0.3224-0.1858 0.0000 (  9495 PWs)   bands (ev):

   -68.2849 -68.2576 -35.2311 -35.0448 -34.8193 -34.7264 -34.6052 -34.4632
   -20.1932 -20.1821 -20.1805 -20.1715 -20.1685 -20.1562 -20.1478 -20.1328
   -20.1305 -20.1210 -20.0852 -20.0823 -20.0818 -20.0800 -12.1676  -6.8686
    -5.2614  -4.3631  -3.1449  -1.2909  -0.7602   1.2244   1.8147   1.9603
     2.9170   3.2231   3.6334

          k = 0.3224-0.0930 0.0000 (  9516 PWs)   bands (ev):

   -68.2909 -68.2603 -35.2367 -34.9650 -34.7857 -34.7121 -34.5845 -34.4723
   -20.1928 -20.1841 -20.1790 -20.1729 -20.1658 -20.1569 -20.1475 -20.1338
   -20.1298 -20.1230 -20.0892 -20.0859 -20.0788 -20.0775 -12.2781  -6.5365
    -5.4749  -4.5823  -2.6891  -1.2692  -1.1404   0.6359   0.9386   2.2053
     2.6623   3.0998   4.0882

          k = 0.3223-0.0003 0.0000 (  9507 PWs)   bands (ev):

   -68.2931 -68.2614 -35.2393 -34.9166 -34.7910 -34.6989 -34.5631 -34.4979
   -20.1922 -20.1852 -20.1770 -20.1749 -20.1640 -20.1577 -20.1471 -20.1345
   -20.1284 -20.1247 -20.0906 -20.0873 -20.0775 -20.0769 -12.3173  -6.1717
    -5.7359  -4.7994  -2.1956  -1.7083  -0.6679  -0.2323   0.7608   2.2974
     2.6087   2.9930   4.6015

          k = 0.3223 0.0924 0.0000 (  9513 PWs)   bands (ev):

   -68.2910 -68.2604 -35.2368 -34.9645 -34.7851 -34.7118 -34.5834 -34.4716
   -20.1932 -20.1840 -20.1784 -20.1734 -20.1654 -20.1572 -20.1471 -20.1338
   -20.1297 -20.1231 -20.0892 -20.0860 -20.0787 -20.0775 -12.2795  -6.5402
    -5.4775  -4.5740  -2.6933  -1.2682  -1.1381   0.6349   0.9345   2.2095
     2.6583   3.1066   4.0889

          k = 0.4029 0.2314 0.0000 (  9454 PWs)   bands (ev):

   -68.2725 -68.2530 -35.2375 -35.1619 -34.8747 -34.7517 -34.6405 -34.4861
   -20.1936 -20.1811 -20.1790 -20.1733 -20.1702 -20.1567 -20.1475 -20.1331
   -20.1281 -20.1186 -20.0881 -20.0852 -20.0774 -20.0755 -11.9572  -7.1910
    -5.0485  -4.4289  -3.5463  -0.5131  -0.2542   1.7535   2.1644   2.7292
     2.8076   3.6989   4.4137

          k = 0.4029 0.3242 0.0000 (  9431 PWs)   bands (ev):

   -68.2675 -68.2517 -35.2343 -35.1788 -34.8751 -34.7795 -34.6631 -34.5219
   -20.1923 -20.1809 -20.1782 -20.1736 -20.1707 -20.1574 -20.1478 -20.1327
   -20.1277 -20.1185 -20.0907 -20.0879 -20.0745 -20.0731 -11.8709  -7.1501
    -4.9662  -4.7325  -3.3396  -0.2329  -0.1607   1.4891   2.0636   2.4024
     3.7800   3.9589   5.0606

          k = 0.4028 0.4169 0.0000 (  9442 PWs)   bands (ev):

   -68.2626 -68.2511 -35.1959 -35.1550 -34.8555 -34.8514 -34.6891 -34.6004
   -20.1887 -20.1807 -20.1771 -20.1737 -20.1704 -20.1592 -20.1490 -20.1314
   -20.1282 -20.1203 -20.0939 -20.0920 -20.0720 -20.0710 -11.7710  -6.8627
    -5.2461  -4.7952  -2.6987  -0.4146  -0.3580   0.7644   2.2954   2.4587
     3.7544   3.9832   5.9681

          k = 0.4028 0.5096 0.0000 (  9448 PWs)   bands (ev):

   -68.2592 -68.2512 -35.1501 -35.0941 -34.9536 -34.8193 -34.7109 -34.6776
   -20.1852 -20.1804 -20.1768 -20.1737 -20.1694 -20.1610 -20.1504 -20.1307
   -20.1274 -20.1230 -20.0957 -20.0949 -20.0708 -20.0698 -11.7020  -6.4780
    -5.7213  -4.6172  -1.8269  -0.9689  -0.7195   0.3999   2.3854   2.4525
     3.5433   3.7520   6.0940

          k = 0.4028 0.6023 0.0000 (  9451 PWs)   bands (ev):

   -68.2591 -68.2512 -35.1509 -35.0946 -34.9533 -34.8204 -34.7106 -34.6773
   -20.1853 -20.1801 -20.1770 -20.1735 -20.1696 -20.1607 -20.1507 -20.1307
   -20.1276 -20.1229 -20.0957 -20.0949 -20.0708 -20.0698 -11.7015  -6.4770
    -5.7244  -4.6181  -1.8332  -0.9609  -0.7171   0.4009   2.3858   2.4552
     3.5460   3.7495   6.0933

          k = 0.4028 0.6951 0.0000 (  9444 PWs)   bands (ev):

   -68.2623 -68.2510 -35.1982 -35.1552 -34.8565 -34.8519 -34.6894 -34.6004
   -20.1885 -20.1807 -20.1773 -20.1733 -20.1708 -20.1587 -20.1496 -20.1315
   -20.1283 -20.1201 -20.0939 -20.0920 -20.0719 -20.0709 -11.7695  -6.8615
    -5.2528  -4.7966  -2.7023  -0.4085  -0.3520   0.7673   2.2957   2.4652
     3.7589   3.9820   5.9684

          k = 0.4030-0.3249 0.0000 (  9425 PWs)   bands (ev):

   -68.2671 -68.2515 -35.2366 -35.1794 -34.8763 -34.7797 -34.6640 -34.5226
   -20.1919 -20.1812 -20.1783 -20.1731 -20.1709 -20.1569 -20.1485 -20.1329
   -20.1277 -20.1183 -20.0908 -20.0880 -20.0743 -20.0729 -11.8688  -7.1483
    -4.9671  -4.7420  -3.3409  -0.2275  -0.1553   1.4920   2.0648   2.4078
     3.7892   3.9524   5.0673

          k = 0.4030-0.2322 0.0000 (  9452 PWs)   bands (ev):

   -68.2722 -68.2528 -35.2390 -35.1627 -34.8759 -34.7519 -34.6419 -34.4871
   -20.1931 -20.1815 -20.1791 -20.1727 -20.1707 -20.1563 -20.1482 -20.1333
   -20.1280 -20.1184 -20.0881 -20.0853 -20.0772 -20.0754 -11.9550  -7.1884
    -5.0480  -4.4415  -3.5444  -0.5091  -0.2498   1.7573   2.1696   2.7266
     2.8128   3.6984   4.4138

          k = 0.4029-0.1395 0.0000 (  9456 PWs)   bands (ev):

   -68.2764 -68.2541 -35.2239 -35.1025 -34.8599 -34.7508 -34.6366 -34.5038
   -20.1916 -20.1809 -20.1802 -20.1736 -20.1685 -20.1567 -20.1485 -20.1333
   -20.1284 -20.1202 -20.0865 -20.0845 -20.0797 -20.0775 -12.0053  -6.9359
    -5.0650  -4.6769  -3.1364  -0.8101  -0.6645   1.0966   1.7565   2.3113
     3.2676   3.9061   4.2741

          k = 0.4029-0.0467 0.0000 (  9478 PWs)   bands (ev):

   -68.2788 -68.2550 -35.2129 -35.0248 -34.8725 -34.7400 -34.6321 -34.5507
   -20.1883 -20.1830 -20.1788 -20.1758 -20.1659 -20.1579 -20.1489 -20.1338
   -20.1268 -20.1231 -20.0859 -20.0851 -20.0811 -20.0789 -12.0242  -6.5147
    -5.1888  -5.0264  -2.4624  -1.3885  -0.6852   0.1741   1.4001   2.3311
     3.3803   3.7244   5.2208

          k = 0.4029 0.0460 0.0000 (  9478 PWs)   bands (ev):

   -68.2788 -68.2551 -35.2129 -35.0245 -34.8723 -34.7397 -34.6315 -34.5505
   -20.1886 -20.1828 -20.1783 -20.1763 -20.1657 -20.1581 -20.1487 -20.1338
   -20.1266 -20.1233 -20.0859 -20.0850 -20.0812 -20.0789 -12.0249  -6.5168
    -5.1862  -5.0255  -2.4637  -1.3896  -0.6824   0.1711   1.3976   2.3298
     3.3821   3.7257   5.2229

          k = 0.4029 0.1387 0.0000 (  9460 PWs)   bands (ev):

   -68.2766 -68.2543 -35.2234 -35.1018 -34.8591 -34.7504 -34.6354 -34.5030
   -20.1921 -20.1805 -20.1801 -20.1743 -20.1680 -20.1571 -20.1480 -20.1332
   -20.1283 -20.1204 -20.0865 -20.0845 -20.0798 -20.0776 -12.0070  -6.9389
    -5.0664  -4.6671  -3.1386  -0.8106  -0.6673   1.0941   1.7496   2.3081
     3.2711   3.9094   4.2758

          k =-0.4835-0.2777 0.0000 (  9426 PWs)   bands (ev):

   -68.2674 -68.2517 -35.2530 -35.2011 -34.8828 -34.7635 -34.6536 -34.4948
   -20.1938 -20.1809 -20.1784 -20.1738 -20.1708 -20.1569 -20.1474 -20.1332
   -20.1272 -20.1176 -20.0902 -20.0869 -20.0744 -20.0730 -11.8879  -7.3005
    -5.0197  -4.4624  -3.6791  -0.0214   0.0046   1.8706   2.2062   2.9406
     2.9890   3.9003   4.9742

          k =-0.4835-0.1850 0.0000 (  9444 PWs)   bands (ev):

   -68.2674 -68.2517 -35.2353 -35.1795 -34.8758 -34.7793 -34.6627 -34.5216
   -20.1923 -20.1808 -20.1783 -20.1740 -20.1703 -20.1574 -20.1479 -20.1328
   -20.1276 -20.1186 -20.0908 -20.0880 -20.0744 -20.0730 -11.8702  -7.1518
    -4.9693  -4.7286  -3.3438  -0.2334  -0.1614   1.4823   2.0676   2.3928
     3.8021   3.9506   5.0735

          k =-0.4835-0.0923 0.0000 (  9455 PWs)   bands (ev):

   -68.2673 -68.2516 -35.2026 -35.1161 -34.8862 -34.7961 -34.6770 -34.5864
   -20.1884 -20.1809 -20.1783 -20.1750 -20.1684 -20.1588 -20.1491 -20.1325
   -20.1271 -20.1212 -20.0916 -20.0902 -20.0746 -20.0731 -11.8344  -6.7721
    -5.2186  -4.8411  -2.6343  -0.7737  -0.5616   0.6369   2.0722   2.3129
     3.6888   4.1969   5.7121

          k =-0.4835 0.0005 0.0000 (  9442 PWs)   bands (ev):

   -68.2672 -68.2516 -35.1881 -35.0585 -34.9337 -34.7730 -34.6882 -34.6289
   -20.1840 -20.1835 -20.1774 -20.1762 -20.1672 -20.1595 -20.1499 -20.1326
   -20.1252 -20.1240 -20.0918 -20.0913 -20.0746 -20.0730 -11.8160  -6.4773
    -5.5380  -4.7751  -1.9032  -1.4785  -0.7607   0.3429   1.9445   2.3716
     3.6732   4.2078   5.9861

          k =-0.4835 0.0932 0.0000 (  9451 PWs)   bands (ev):

   -68.2671 -68.2515 -35.2034 -35.1167 -34.8864 -34.7971 -34.6774 -34.5866
   -20.1881 -20.1810 -20.1785 -20.1745 -20.1688 -20.1585 -20.1496 -20.1325
   -20.1273 -20.1210 -20.0916 -20.0902 -20.0745 -20.0730 -11.8333  -6.7701
    -5.2246  -4.8415  -2.6358  -0.7682  -0.5592   0.6392   2.0761   2.3157
     3.6911   4.1928   5.7102

          k =-0.4835 0.1859 0.0000 (  9436 PWs)   bands (ev):

   -68.2670 -68.2515 -35.2371 -35.1799 -34.8766 -34.7797 -34.6638 -34.5225
   -20.1919 -20.1812 -20.1784 -20.1734 -20.1707 -20.1569 -20.1486 -20.1330
   -20.1275 -20.1184 -20.0909 -20.0880 -20.0743 -20.0729 -11.8683  -7.1496
    -4.9696  -4.7389  -3.3439  -0.2281  -0.1557   1.4858   2.0694   2.4006
     3.8052   3.9464   5.0762

          k =-0.4833-0.8341 0.0000 (  9426 PWs)   bands (ev):

   -68.2670 -68.2515 -35.2554 -35.2015 -34.8836 -34.7638 -34.6551 -34.4960
   -20.1934 -20.1814 -20.1785 -20.1732 -20.1712 -20.1564 -20.1481 -20.1335
   -20.1271 -20.1174 -20.0903 -20.0870 -20.0742 -20.0729 -11.8857  -7.2982
    -5.0203  -4.4754  -3.6775  -0.0151   0.0106   1.8719   2.2145   2.9467
     2.9824   3.9061   4.9795

     the Fermi energy is    -0.2214 ev

!    total energy              =   -1373.23202626 Ry
     estimated scf accuracy    <          4.0E-13 Ry
     smearing contrib. (-TS)   =       0.00001300 Ry
     internal energy E=F+TS    =   -1373.23203926 Ry

     The total energy is F=E-TS. E is the sum of the following terms:
     one-electron contribution =  -10891.24722916 Ry
     hartree contribution      =    5473.60374040 Ry
     xc contribution           =    -138.72740733 Ry
     ewald contribution        =    4183.13885683 Ry

     convergence has been achieved in  21 iterations

     negative rho (up, down):  8.202E-04 0.000E+00

     Forces acting on atoms (cartesian axes, Ry/au):

     atom    1 type  2   force =     0.00031367    0.00028508   -0.00016952
     atom    2 type  1   force =    -0.00034959    0.00001848    0.00057704
     atom    3 type  1   force =     0.00003592   -0.00030356   -0.00040752

     Total force =     0.000961     Total SCF correction =     0.000005


     Computing stress (Cartesian axis) and pressure


     negative rho (up, down):  8.202E-04 0.000E+00
          total   stress  (Ry/bohr**3)                   (kbar)     P=       -1.96
  -0.00000186   0.00000090   0.00000055           -0.27        0.13        0.08
   0.00000090  -0.00000116  -0.00000046            0.13       -0.17       -0.07
   0.00000055  -0.00000046  -0.00003686            0.08       -0.07       -5.42


     Writing output data file /scratch/as3359/Ta2C_looping/Ta.save/
 
     init_run     :     24.59s CPU     14.71s WALL (       2 calls)
     electrons    :    624.11s CPU    320.29s WALL (       2 calls)
     forces       :      9.62s CPU      4.90s WALL (       2 calls)
     stress       :     30.05s CPU     15.29s WALL (       2 calls)

     Called by init_run:
     wfcinit      :     10.98s CPU      5.64s WALL (       2 calls)
     potinit      :      3.41s CPU      1.72s WALL (       2 calls)
     hinit0       :      9.19s CPU      6.73s WALL (       2 calls)

     Called by electrons:
     c_bands      :    501.16s CPU    253.75s WALL (      42 calls)
     sum_band     :    101.25s CPU     53.94s WALL (      42 calls)
     v_of_rho     :      3.26s CPU      1.66s WALL (      44 calls)
     newd         :     18.30s CPU     10.92s WALL (      44 calls)
     mix_rho      :      0.74s CPU      0.38s WALL (      42 calls)

     Called by c_bands:
     init_us_2    :     11.69s CPU      5.90s WALL (    6660 calls)
     cegterg      :    454.94s CPU    230.45s WALL (    3108 calls)

     Called by *egterg:
     cdiaghg      :     26.27s CPU     13.42s WALL (   13222 calls)
     h_psi        :    354.83s CPU    180.04s WALL (   13370 calls)
     s_psi        :     14.15s CPU      7.11s WALL (   13370 calls)
     g_psi        :      2.83s CPU      1.42s WALL (   10114 calls)

     Called by h_psi:
     h_psi:calbec :     13.78s CPU      6.95s WALL (   13370 calls)
     vloc_psi     :    324.30s CPU    164.67s WALL (   13370 calls)
     add_vuspsi   :     14.03s CPU      7.06s WALL (   13370 calls)

     General routines
     calbec       :     19.62s CPU      9.90s WALL (   17218 calls)
     fft          :      2.41s CPU      1.43s WALL (     618 calls)
     ffts         :      0.10s CPU      0.05s WALL (      86 calls)
     fftw         :    348.13s CPU    176.88s WALL (  634806 calls)
     interpolate  :      0.21s CPU      0.11s WALL (      44 calls)
 
     Parallel routines
 
     PWSCF        :  11m29.91s CPU   5m56.61s WALL

 
   This run was terminated on:  11:56:23   6Apr2022            

=------------------------------------------------------------------------------=
   JOB DONE.
=------------------------------------------------------------------------------=
