
     Program PWSCF v.6.8 starts on 26Mar2022 at 20:54:27 

     This program is part of the open-source Quantum ESPRESSO suite
     for quantum simulation of materials; please cite
         "P. Giannozzi et al., J. Phys.:Condens. Matter 21 395502 (2009);
         "P. Giannozzi et al., J. Phys.:Condens. Matter 29 465901 (2017);
         "P. Giannozzi et al., J. Chem. Phys. 152 154105 (2020);
          URL http://www.quantum-espresso.org", 
     in publications or presentations arising from this work. More details at
     http://www.quantum-espresso.org/quote

     Parallel version (MPI & OpenMP), running on       4 processor cores
     Number of MPI processes:                 2
     Threads/MPI process:                     2

     MPI processes distributed on     1 nodes
     R & G space division:  proc/nbgrp/npool/nimage =       2
     125246 MiB available memory on the printing compute node when the environment starts
 
     Reading input from Ta3C2.vcrelax.in

     Current dimensions of program PWSCF are:
     Max number of different atomic species (ntypx) = 10
     Max number of k-points (npk) =  40000
     Max angular momentum in pseudopotentials (lmaxx) =  4
     file Ta.pbesol-spfn-rrkjus_psl.1.0.0.UPF: wavefunction(s)  5S 5P renormalized

     Subspace diagonalization in iterative solution of the eigenvalue problem:
     a serial algorithm will be used

 
     Parallelization info
     --------------------
     sticks:   dense  smooth     PW     G-vecs:    dense   smooth      PW
     Min         824     329    105               256285    64868   11656
     Max         827     332    106               256288    64871   11665
     Sum        1651     661    211               512573   129739   23321
 
     Using Slab Decomposition
 


     bravais-lattice index     =            0
     lattice parameter (alat)  =       5.5500  a.u.
     unit-cell volume          =    1637.9727 (a.u.)^3
     number of atoms/cell      =            5
     number of atomic types    =            3
     number of electrons       =        89.00
     number of Kohn-Sham states=           54
     kinetic-energy cutoff     =      70.0000  Ry
     charge density cutoff     =     700.0000  Ry
     scf convergence threshold =      1.0E-12
     mixing beta               =       0.7000
     number of iterations used =            8  plain     mixing
     energy convergence thresh.=      1.0E-04
     force convergence thresh. =      1.0E-03
     press convergence thresh. =      5.0E-01
     Exchange-correlation= PBESOL
                           (   1   4  10   8   0   0   0)
     nstep                     =           50


     celldm(1)=   5.550000  celldm(2)=   0.000000  celldm(3)=   0.000000
     celldm(4)=   0.000000  celldm(5)=   0.000000  celldm(6)=   0.000000

     crystal axes: (cart. coord. in units of alat)
               a(1) = (   1.051851   0.000006   0.000000 )  
               a(2) = (  -0.525920   0.910903   0.000000 )  
               a(3) = (   0.000000   0.000000  10.000000 )  

     reciprocal axes: (cart. coord. in units 2 pi/alat)
               b(1) = (  0.950702  0.548899  0.000000 )  
               b(2) = ( -0.000006  1.097808  0.000000 )  
               b(3) = (  0.000000  0.000000  0.100000 )  


     PseudoPot. # 1 for Ta read from file:
     /shared/home/as3359/pseudo/Ta.pbesol-spfn-rrkjus_psl.1.0.0.UPF
     MD5 check sum: f099565ffaca9b150a52e9412a28e20b
     Pseudo is Ultrasoft + core correction, Zval = 27.0
     Generated using &quot;atomic&quot; code by A. Dal Corso  v.6.3
     Using radial grid of 1273 points,  8 beta functions with: 
                l(1) =   0
                l(2) =   0
                l(3) =   1
                l(4) =   1
                l(5) =   2
                l(6) =   2
                l(7) =   3
                l(8) =   3
     Q(r) pseudized with 0 coefficients 


     PseudoPot. # 2 for C  read from file:
     /shared/home/as3359/pseudo/C.pbesol-n-rrkjus_psl.1.0.0.UPF
     MD5 check sum: 05995be603a8a7c99da3dc4413f31573
     Pseudo is Ultrasoft + core correction, Zval =  4.0
     Generated using &quot;atomic&quot; code by A. Dal Corso  v.6.3MaX
     Using radial grid of 1073 points,  4 beta functions with: 
                l(1) =   0
                l(2) =   0
                l(3) =   1
                l(4) =   1
     Q(r) pseudized with 0 coefficients 


     PseudoPot. # 3 for O  read from file:
     /shared/home/as3359/pseudo/O.pbesol-n-rrkjus_psl.1.0.0.UPF
     MD5 check sum: dd9bad2534826f832ffc9296591fc5de
     Pseudo is Ultrasoft + core correction, Zval =  6.0
     Generated using &quot;atomic&quot; code by A. Dal Corso  v.6.3MaX
     Using radial grid of 1095 points,  4 beta functions with: 
                l(1) =   0
                l(2) =   0
                l(3) =   1
                l(4) =   1
     Q(r) pseudized with 0 coefficients 


     atomic species   valence    mass     pseudopotential
        Ta            27.00   180.94788     Ta( 1.00)
        C              4.00    12.01070     C ( 1.00)
        O              6.00    15.99940     O ( 1.00)

     No symmetry found



   Cartesian axes

     site n.     atom                  positions (alat units)
         1           Ta  tau(   1) = (   0.0000231   0.6073201   0.6349311  )
         2           C   tau(   2) = (   0.0000093   0.0000234   1.0244802  )
         3           Ta  tau(   3) = (   0.5259269   0.3036382   1.4781889  )
         4           C   tau(   4) = (  -0.0000061   0.6072475   1.9318977  )
         5           Ta  tau(   5) = (  -0.0000199  -0.0000492   2.3214464  )

     number of k points=   202  Marzari-Vanderbilt smearing, width (Ry)=  0.0010

     Number of k-points >= 100: set verbosity='high' to print them.

     Dense  grid:   512573 G-vectors     FFT dimensions: (  50,  50, 480)

     Smooth grid:   129739 G-vectors     FFT dimensions: (  32,  32, 300)

     Estimated max dynamical RAM per process >       3.75 GB

     Estimated total dynamical RAM >       7.49 GB

     Initial potential from superposition of free atoms

     starting charge   88.99760, renormalised to   89.00000

     negative rho (up, down):  5.843E-05 0.000E+00
     Starting wfcs are   59 randomized atomic wfcs

     total cpu time spent up to now is       43.5 secs

     Self-consistent Calculation

     iteration #  1     ecut=    70.00 Ry     beta= 0.70
     Davidson diagonalization with overlap
     ethr =  1.00E-02,  avg # of iterations =  2.1

     negative rho (up, down):  4.709E-06 0.000E+00

     total cpu time spent up to now is      105.1 secs

     total energy              =   -2064.53609226 Ry
     estimated scf accuracy    <       2.50918302 Ry

     iteration #  2     ecut=    70.00 Ry     beta= 0.70
     Davidson diagonalization with overlap
     ethr =  2.82E-03,  avg # of iterations = 11.5

     total cpu time spent up to now is      227.2 secs

     total energy              =   -2052.52369284 Ry
     estimated scf accuracy    <     257.18670412 Ry

     iteration #  3     ecut=    70.00 Ry     beta= 0.70
     Davidson diagonalization with overlap
     ethr =  2.82E-03,  avg # of iterations =  9.1

     total cpu time spent up to now is      332.5 secs

     total energy              =   -2065.64914081 Ry
     estimated scf accuracy    <       3.64974362 Ry

     iteration #  4     ecut=    70.00 Ry     beta= 0.70
     Davidson diagonalization with overlap
     ethr =  2.82E-03,  avg # of iterations =  4.2

     total cpu time spent up to now is      399.4 secs

     total energy              =   -2066.06845714 Ry
     estimated scf accuracy    <       1.80021468 Ry

     iteration #  5     ecut=    70.00 Ry     beta= 0.70
     Davidson diagonalization with overlap
     ethr =  2.02E-03,  avg # of iterations =  1.6

     total cpu time spent up to now is      454.2 secs

     total energy              =   -2066.20940021 Ry
     estimated scf accuracy    <       0.21750955 Ry

     iteration #  6     ecut=    70.00 Ry     beta= 0.70
     Davidson diagonalization with overlap
     ethr =  2.44E-04,  avg # of iterations =  6.3

     total cpu time spent up to now is      518.3 secs

     total energy              =   -2066.19547004 Ry
     estimated scf accuracy    <       1.61718078 Ry

     iteration #  7     ecut=    70.00 Ry     beta= 0.70
     Davidson diagonalization with overlap
     ethr =  2.44E-04,  avg # of iterations =  2.2

     total cpu time spent up to now is      573.8 secs

     total energy              =   -2066.21687322 Ry
     estimated scf accuracy    <       0.05829711 Ry

     iteration #  8     ecut=    70.00 Ry     beta= 0.70
     Davidson diagonalization with overlap
     c_bands:  1 eigenvalues not converged
     ethr =  6.55E-05,  avg # of iterations =  4.9

     total cpu time spent up to now is      634.1 secs

     total energy              =   -2066.21277462 Ry
     estimated scf accuracy    <       0.04008138 Ry

     iteration #  9     ecut=    70.00 Ry     beta= 0.70
     Davidson diagonalization with overlap
     ethr =  4.50E-05,  avg # of iterations =  1.6

     total cpu time spent up to now is      688.3 secs

     total energy              =   -2066.21178911 Ry
     estimated scf accuracy    <       0.03121657 Ry

     iteration # 10     ecut=    70.00 Ry     beta= 0.70
     Davidson diagonalization with overlap
     ethr =  3.51E-05,  avg # of iterations =  1.2

     total cpu time spent up to now is      742.1 secs

     total energy              =   -2066.20937406 Ry
     estimated scf accuracy    <       0.02922201 Ry

     iteration # 11     ecut=    70.00 Ry     beta= 0.70
     Davidson diagonalization with overlap
     ethr =  3.28E-05,  avg # of iterations =  1.5

     negative rho (up, down):  5.603E-08 0.000E+00

     total cpu time spent up to now is      796.2 secs

     total energy              =   -2066.19289493 Ry
     estimated scf accuracy    <       0.02526193 Ry

     iteration # 12     ecut=    70.00 Ry     beta= 0.70
     Davidson diagonalization with overlap
     ethr =  2.84E-05,  avg # of iterations =  4.4

     negative rho (up, down):  6.374E-07 0.000E+00

     total cpu time spent up to now is      859.4 secs

     total energy              =   -2066.19517529 Ry
     estimated scf accuracy    <       0.00053327 Ry

     iteration # 13     ecut=    70.00 Ry     beta= 0.70
     Davidson diagonalization with overlap
     c_bands:  1 eigenvalues not converged
     c_bands:  1 eigenvalues not converged
     c_bands:  1 eigenvalues not converged
     c_bands:  1 eigenvalues not converged
     ethr =  5.99E-07,  avg # of iterations =  8.3

     negative rho (up, down):  1.316E-05 0.000E+00

     total cpu time spent up to now is      932.5 secs

     total energy              =   -2066.19523543 Ry
     estimated scf accuracy    <       0.00002573 Ry

     iteration # 14     ecut=    70.00 Ry     beta= 0.70
     Davidson diagonalization with overlap
     ethr =  2.89E-08,  avg # of iterations =  2.8

     negative rho (up, down):  3.641E-05 0.000E+00

     total cpu time spent up to now is     1001.6 secs

     total energy              =   -2066.19523822 Ry
     estimated scf accuracy    <       0.00001040 Ry

     iteration # 15     ecut=    70.00 Ry     beta= 0.70
     Davidson diagonalization with overlap
     ethr =  1.17E-08,  avg # of iterations =  2.2

     negative rho (up, down):  3.353E-05 0.000E+00

     total cpu time spent up to now is     1064.9 secs

     total energy              =   -2066.19523852 Ry
     estimated scf accuracy    <       0.00001288 Ry

     iteration # 16     ecut=    70.00 Ry     beta= 0.70
     Davidson diagonalization with overlap
     ethr =  1.17E-08,  avg # of iterations =  2.0

     negative rho (up, down):  5.094E-05 0.000E+00

     total cpu time spent up to now is     1122.7 secs

     total energy              =   -2066.19523923 Ry
     estimated scf accuracy    <       0.00002849 Ry

     iteration # 17     ecut=    70.00 Ry     beta= 0.70
     Davidson diagonalization with overlap
     ethr =  1.17E-08,  avg # of iterations =  1.0

     negative rho (up, down):  6.066E-05 0.000E+00

     total cpu time spent up to now is     1175.2 secs

     total energy              =   -2066.19524000 Ry
     estimated scf accuracy    <       0.00002963 Ry

     iteration # 18     ecut=    70.00 Ry     beta= 0.70
     Davidson diagonalization with overlap
     ethr =  1.17E-08,  avg # of iterations =  1.0

     negative rho (up, down):  6.269E-05 0.000E+00

     total cpu time spent up to now is     1227.6 secs

     total energy              =   -2066.19524068 Ry
     estimated scf accuracy    <       0.00000025 Ry

     iteration # 19     ecut=    70.00 Ry     beta= 0.70
     Davidson diagonalization with overlap
     ethr =  2.80E-10,  avg # of iterations =  2.0

     negative rho (up, down):  6.760E-05 0.000E+00

     total cpu time spent up to now is     1287.2 secs

     total energy              =   -2066.19524071 Ry
     estimated scf accuracy    <       0.00000003 Ry

     iteration # 20     ecut=    70.00 Ry     beta= 0.70
     Davidson diagonalization with overlap
     ethr =  3.62E-11,  avg # of iterations =  2.0

     negative rho (up, down):  6.749E-05 0.000E+00

     total cpu time spent up to now is     1346.9 secs

     total energy              =   -2066.19524072 Ry
     estimated scf accuracy    <          1.7E-09 Ry

     iteration # 21     ecut=    70.00 Ry     beta= 0.70
     Davidson diagonalization with overlap
     ethr =  1.93E-12,  avg # of iterations =  2.7

     negative rho (up, down):  6.771E-05 0.000E+00

     total cpu time spent up to now is     1413.4 secs

     total energy              =   -2066.19524072 Ry
     estimated scf accuracy    <          3.3E-10 Ry

     iteration # 22     ecut=    70.00 Ry     beta= 0.70
     Davidson diagonalization with overlap
     ethr =  3.65E-13,  avg # of iterations =  2.6

     negative rho (up, down):  6.792E-05 0.000E+00

     total cpu time spent up to now is     1480.8 secs

     total energy              =   -2066.19524072 Ry
     estimated scf accuracy    <          1.3E-10 Ry

     iteration # 23     ecut=    70.00 Ry     beta= 0.70
     Davidson diagonalization with overlap
     ethr =  1.50E-13,  avg # of iterations =  2.0

     negative rho (up, down):  6.789E-05 0.000E+00

     total cpu time spent up to now is     1541.9 secs

     total energy              =   -2066.19524072 Ry
     estimated scf accuracy    <          8.8E-12 Ry

     iteration # 24     ecut=    70.00 Ry     beta= 0.70
     Davidson diagonalization with overlap
     ethr =  1.00E-13,  avg # of iterations =  1.2

     negative rho (up, down):  6.786E-05 0.000E+00

     total cpu time spent up to now is     1594.3 secs

     total energy              =   -2066.19524072 Ry
     estimated scf accuracy    <          2.4E-12 Ry

     iteration # 25     ecut=    70.00 Ry     beta= 0.70
     Davidson diagonalization with overlap
     ethr =  1.00E-13,  avg # of iterations =  1.0

     negative rho (up, down):  6.786E-05 0.000E+00

     total cpu time spent up to now is     1646.1 secs

     End of self-consistent calculation

     Number of k-points >= 100: set verbosity='high' to print the bands.

     the Fermi energy is     2.0768 ev

!    total energy              =   -2066.19524072 Ry
     estimated scf accuracy    <          5.6E-13 Ry
     smearing contrib. (-TS)   =       0.00000383 Ry
     internal energy E=F+TS    =   -2066.19524455 Ry

     The total energy is F=E-TS. E is the sum of the following terms:
     one-electron contribution =  -19561.82472124 Ry
     hartree contribution      =    9830.94963547 Ry
     xc contribution           =    -210.59968138 Ry
     ewald contribution        =    7875.27952260 Ry

     convergence has been achieved in  25 iterations

     negative rho (up, down):  6.786E-05 0.000E+00

     Forces acting on atoms (cartesian axes, Ry/au):

     atom    1 type  1   force =    -0.00000561   -0.00001386    0.00614057
     atom    2 type  2   force =    -0.00000080   -0.00000263   -0.00249865
     atom    3 type  1   force =    -0.00000004    0.00000009    0.00000272
     atom    4 type  2   force =     0.00000084    0.00000255    0.00250056
     atom    5 type  1   force =     0.00000561    0.00001385   -0.00614520

     Total force =     0.009379     Total SCF correction =     0.000012


     Computing stress (Cartesian axis) and pressure


     negative rho (up, down):  6.786E-05 0.000E+00
          total   stress  (Ry/bohr**3)                   (kbar)     P=        0.71
   0.00002396  -0.00000000   0.00000003            3.52       -0.00        0.01
  -0.00000000   0.00002397   0.00000009           -0.00        3.53        0.01
   0.00000003   0.00000009  -0.00003340            0.01        0.01       -4.91


     BFGS Geometry Optimization
     Energy error            =      0.0E+00 Ry
     Gradient error          =      6.1E-03 Ry/Bohr
     Cell gradient error     =      3.5E+00 kbar

     number of scf cycles    =   1
     number of bfgs steps    =   0

     enthalpy           new  =   -2066.1952407173 Ry

     new trust radius        =       0.0061452144 bohr
     new conv_thr            =            1.0E-12 Ry

     new unit-cell volume =   1639.93596 a.u.^3 (   243.01344 Ang^3 )
     density =      3.87345 g/cm^3

CELL_PARAMETERS (alat=  5.55000000)
   1.052480491   0.000005473   0.000000000
  -0.526235506   0.911449440   0.000000000
   0.000000000   0.000000000  10.000000000

ATOMIC_POSITIONS (alat)
Ta            0.0000220278        0.6076815915        0.6360375089
C             0.0000091615        0.0000229399        1.0240299933
Ta            0.5262418209        0.3038201327        1.4781893896
C            -0.0000060272        0.6076119055        1.9323482508
Ta           -0.0000189013       -0.0000467331        2.3203391574



     Writing output data file /scratch/as3359/Ta3C2_loop/Ta.save/
     NEW-OLD atomic charge density approx. for the potential

     negative rho (up, down):  7.068E-05 0.000E+00
     extrapolated charge   89.10654, renormalised to   89.00000

     total cpu time spent up to now is     1735.6 secs

     Self-consistent Calculation

     iteration #  1     ecut=    70.00 Ry     beta= 0.70
     Davidson diagonalization with overlap
     c_bands:  1 eigenvalues not converged
     c_bands:  1 eigenvalues not converged
     c_bands:  2 eigenvalues not converged
     c_bands:  3 eigenvalues not converged
     c_bands:  1 eigenvalues not converged
     c_bands:  1 eigenvalues not converged
     c_bands:  1 eigenvalues not converged
     c_bands:  3 eigenvalues not converged
     c_bands:  2 eigenvalues not converged
     c_bands:  2 eigenvalues not converged
     c_bands:  3 eigenvalues not converged
     c_bands:  1 eigenvalues not converged
     c_bands:  1 eigenvalues not converged
     c_bands:  1 eigenvalues not converged
     c_bands:  1 eigenvalues not converged
     c_bands:  2 eigenvalues not converged
     c_bands:  2 eigenvalues not converged
     c_bands:  2 eigenvalues not converged
     c_bands:  2 eigenvalues not converged
     c_bands:  2 eigenvalues not converged
     c_bands:  2 eigenvalues not converged
     c_bands:  1 eigenvalues not converged
     c_bands:  1 eigenvalues not converged
     c_bands:  1 eigenvalues not converged
     c_bands:  1 eigenvalues not converged
     c_bands:  2 eigenvalues not converged
     c_bands:  2 eigenvalues not converged
     c_bands:  2 eigenvalues not converged
     c_bands:  2 eigenvalues not converged
     c_bands:  1 eigenvalues not converged
     c_bands:  1 eigenvalues not converged
     c_bands:  1 eigenvalues not converged
     c_bands:  1 eigenvalues not converged
     c_bands:  2 eigenvalues not converged
     c_bands:  2 eigenvalues not converged
     c_bands:  2 eigenvalues not converged
     c_bands:  1 eigenvalues not converged
     c_bands:  1 eigenvalues not converged
     c_bands:  1 eigenvalues not converged
     c_bands:  1 eigenvalues not converged
     c_bands:  1 eigenvalues not converged
     c_bands:  1 eigenvalues not converged
     c_bands:  1 eigenvalues not converged
     c_bands:  1 eigenvalues not converged
     c_bands:  2 eigenvalues not converged
     c_bands:  1 eigenvalues not converged
     c_bands:  1 eigenvalues not converged
     c_bands:  1 eigenvalues not converged
     c_bands:  1 eigenvalues not converged
     c_bands:  1 eigenvalues not converged
     c_bands:  1 eigenvalues not converged
     c_bands:  1 eigenvalues not converged
     c_bands:  1 eigenvalues not converged
     c_bands:  1 eigenvalues not converged
     c_bands:  1 eigenvalues not converged
     c_bands:  1 eigenvalues not converged
     c_bands:  1 eigenvalues not converged
     c_bands:  1 eigenvalues not converged
     c_bands:  1 eigenvalues not converged
     c_bands:  1 eigenvalues not converged
     c_bands:  1 eigenvalues not converged
     c_bands:  2 eigenvalues not converged
     c_bands:  2 eigenvalues not converged
     c_bands:  2 eigenvalues not converged
     c_bands:  1 eigenvalues not converged
     c_bands:  1 eigenvalues not converged
     c_bands:  2 eigenvalues not converged
     c_bands:  2 eigenvalues not converged
     c_bands:  2 eigenvalues not converged
     c_bands:  1 eigenvalues not converged
     c_bands:  1 eigenvalues not converged
     c_bands:  1 eigenvalues not converged
     c_bands:  1 eigenvalues not converged
     c_bands:  1 eigenvalues not converged
     c_bands:  3 eigenvalues not converged
     c_bands:  3 eigenvalues not converged
     c_bands:  2 eigenvalues not converged
     c_bands:  2 eigenvalues not converged
     c_bands:  2 eigenvalues not converged
     c_bands:  1 eigenvalues not converged
     c_bands:  1 eigenvalues not converged
     c_bands:  1 eigenvalues not converged
     c_bands:  2 eigenvalues not converged
     c_bands:  2 eigenvalues not converged
     c_bands:  2 eigenvalues not converged
     c_bands:  3 eigenvalues not converged
     c_bands:  3 eigenvalues not converged
     c_bands:  1 eigenvalues not converged
     c_bands:  2 eigenvalues not converged
     c_bands:  1 eigenvalues not converged
     c_bands:  1 eigenvalues not converged
     c_bands:  1 eigenvalues not converged
     c_bands:  1 eigenvalues not converged
     c_bands:  3 eigenvalues not converged
     c_bands:  2 eigenvalues not converged
     c_bands:  2 eigenvalues not converged
     c_bands:  2 eigenvalues not converged
     c_bands:  2 eigenvalues not converged
     c_bands:  2 eigenvalues not converged
     c_bands:  2 eigenvalues not converged
     c_bands:  2 eigenvalues not converged
     c_bands:  2 eigenvalues not converged
     c_bands:  3 eigenvalues not converged
     c_bands:  3 eigenvalues not converged
     c_bands:  2 eigenvalues not converged
     c_bands:  1 eigenvalues not converged
     c_bands:  1 eigenvalues not converged
     c_bands:  1 eigenvalues not converged
     c_bands:  1 eigenvalues not converged
     c_bands:  2 eigenvalues not converged
     c_bands:  3 eigenvalues not converged
     c_bands:  1 eigenvalues not converged
     c_bands:  2 eigenvalues not converged
     c_bands:  2 eigenvalues not converged
     c_bands:  2 eigenvalues not converged
     c_bands:  1 eigenvalues not converged
     c_bands:  2 eigenvalues not converged
     c_bands:  2 eigenvalues not converged
     c_bands:  2 eigenvalues not converged
     ethr =  1.00E-06,  avg # of iterations = 19.4

     total cpu time spent up to now is     1905.5 secs

     total energy              =   -2065.48500970 Ry
     estimated scf accuracy    <       0.70243498 Ry

     iteration #  2     ecut=    70.00 Ry     beta= 0.70
     Davidson diagonalization with overlap
     ethr =  7.89E-04,  avg # of iterations =  9.6

     total cpu time spent up to now is     2011.5 secs

     total energy              =   -2064.59416470 Ry
     estimated scf accuracy    <      31.91542538 Ry

     iteration #  3     ecut=    70.00 Ry     beta= 0.70
     Davidson diagonalization with overlap
     ethr =  7.89E-04,  avg # of iterations =  7.0

     total cpu time spent up to now is     2095.0 secs

     total energy              =   -2066.18316053 Ry
     estimated scf accuracy    <       1.07287365 Ry

     iteration #  4     ecut=    70.00 Ry     beta= 0.70
     Davidson diagonalization with overlap
     ethr =  7.89E-04,  avg # of iterations =  2.0

     total cpu time spent up to now is     2152.2 secs

     total energy              =   -2066.20990275 Ry
     estimated scf accuracy    <       0.29326377 Ry

     iteration #  5     ecut=    70.00 Ry     beta= 0.70
     Davidson diagonalization with overlap
     ethr =  3.30E-04,  avg # of iterations =  1.6

     total cpu time spent up to now is     2205.8 secs

     total energy              =   -2066.20900454 Ry
     estimated scf accuracy    <       0.12811110 Ry

     iteration #  6     ecut=    70.00 Ry     beta= 0.70
     Davidson diagonalization with overlap
     ethr =  1.44E-04,  avg # of iterations =  3.5

     total cpu time spent up to now is     2264.5 secs

     total energy              =   -2066.19461913 Ry
     estimated scf accuracy    <       0.84223058 Ry

     iteration #  7     ecut=    70.00 Ry     beta= 0.70
     Davidson diagonalization with overlap
     ethr =  1.44E-04,  avg # of iterations =  1.4

     total cpu time spent up to now is     2318.4 secs

     total energy              =   -2066.20324399 Ry
     estimated scf accuracy    <       0.05835466 Ry

     iteration #  8     ecut=    70.00 Ry     beta= 0.70
     Davidson diagonalization with overlap
     ethr =  6.56E-05,  avg # of iterations =  2.5

     total cpu time spent up to now is     2374.0 secs

     total energy              =   -2066.20067117 Ry
     estimated scf accuracy    <       0.04324680 Ry

     iteration #  9     ecut=    70.00 Ry     beta= 0.70
     Davidson diagonalization with overlap
     c_bands:  1 eigenvalues not converged
     ethr =  4.86E-05,  avg # of iterations =  2.1

     total cpu time spent up to now is     2428.4 secs

     total energy              =   -2066.19913919 Ry
     estimated scf accuracy    <       0.03054268 Ry

     iteration # 10     ecut=    70.00 Ry     beta= 0.70
     Davidson diagonalization with overlap
     ethr =  3.43E-05,  avg # of iterations =  1.9

     negative rho (up, down):  2.347E-05 0.000E+00

     total cpu time spent up to now is     2482.5 secs

     total energy              =   -2066.19339083 Ry
     estimated scf accuracy    <       0.02216435 Ry

     iteration # 11     ecut=    70.00 Ry     beta= 0.70
     Davidson diagonalization with overlap
     c_bands:  1 eigenvalues not converged
     c_bands:  1 eigenvalues not converged
     ethr =  2.49E-05,  avg # of iterations =  4.4

     negative rho (up, down):  9.561E-05 0.000E+00

     total cpu time spent up to now is     2544.2 secs

     total energy              =   -2066.19533227 Ry
     estimated scf accuracy    <       0.00006630 Ry

     iteration # 12     ecut=    70.00 Ry     beta= 0.70
     Davidson diagonalization with overlap
     ethr =  7.45E-08,  avg # of iterations =  7.5

     negative rho (up, down):  2.274E-05 0.000E+00

     total cpu time spent up to now is     2624.3 secs

     total energy              =   -2066.19535029 Ry
     estimated scf accuracy    <       0.00008864 Ry

     iteration # 13     ecut=    70.00 Ry     beta= 0.70
     Davidson diagonalization with overlap
     ethr =  7.45E-08,  avg # of iterations =  2.0

     negative rho (up, down):  3.049E-05 0.000E+00

     total cpu time spent up to now is     2680.7 secs

     total energy              =   -2066.19535848 Ry
     estimated scf accuracy    <       0.00000758 Ry

     iteration # 14     ecut=    70.00 Ry     beta= 0.70
     Davidson diagonalization with overlap
     ethr =  8.52E-09,  avg # of iterations =  2.3

     negative rho (up, down):  6.129E-05 0.000E+00

     total cpu time spent up to now is     2741.5 secs

     total energy              =   -2066.19535995 Ry
     estimated scf accuracy    <       0.00000253 Ry

     iteration # 15     ecut=    70.00 Ry     beta= 0.70
     Davidson diagonalization with overlap
     ethr =  2.84E-09,  avg # of iterations =  2.0

     negative rho (up, down):  6.710E-05 0.000E+00

     total cpu time spent up to now is     2798.8 secs

     total energy              =   -2066.19536014 Ry
     estimated scf accuracy    <       0.00000062 Ry

     iteration # 16     ecut=    70.00 Ry     beta= 0.70
     Davidson diagonalization with overlap
     ethr =  7.01E-10,  avg # of iterations =  2.0

     negative rho (up, down):  6.691E-05 0.000E+00

     total cpu time spent up to now is     2856.8 secs

     total energy              =   -2066.19536011 Ry
     estimated scf accuracy    <       0.00000247 Ry

     iteration # 17     ecut=    70.00 Ry     beta= 0.70
     Davidson diagonalization with overlap
     ethr =  7.01E-10,  avg # of iterations =  1.0

     negative rho (up, down):  7.226E-05 0.000E+00

     total cpu time spent up to now is     2908.6 secs

     total energy              =   -2066.19536017 Ry
     estimated scf accuracy    <       0.00000255 Ry

     iteration # 18     ecut=    70.00 Ry     beta= 0.70
     Davidson diagonalization with overlap
     ethr =  7.01E-10,  avg # of iterations =  1.0

     negative rho (up, down):  6.831E-05 0.000E+00

     total cpu time spent up to now is     2960.6 secs

     total energy              =   -2066.19536023 Ry
     estimated scf accuracy    <       0.00000003 Ry

     iteration # 19     ecut=    70.00 Ry     beta= 0.70
     Davidson diagonalization with overlap
     ethr =  2.81E-11,  avg # of iterations =  2.0

     negative rho (up, down):  6.902E-05 0.000E+00

     total cpu time spent up to now is     3023.3 secs

     total energy              =   -2066.19536023 Ry
     estimated scf accuracy    <          2.8E-09 Ry

     iteration # 20     ecut=    70.00 Ry     beta= 0.70
     Davidson diagonalization with overlap
     ethr =  3.15E-12,  avg # of iterations =  2.0

     negative rho (up, down):  6.894E-05 0.000E+00

     total cpu time spent up to now is     3085.4 secs

     total energy              =   -2066.19536024 Ry
     estimated scf accuracy    <          4.4E-10 Ry

     iteration # 21     ecut=    70.00 Ry     beta= 0.70
     Davidson diagonalization with overlap
     ethr =  4.97E-13,  avg # of iterations =  2.1

     negative rho (up, down):  6.890E-05 0.000E+00

     total cpu time spent up to now is     3148.0 secs

     total energy              =   -2066.19536024 Ry
     estimated scf accuracy    <          1.0E-10 Ry

     iteration # 22     ecut=    70.00 Ry     beta= 0.70
     Davidson diagonalization with overlap
     ethr =  1.13E-13,  avg # of iterations =  2.1

     negative rho (up, down):  6.891E-05 0.000E+00

     total cpu time spent up to now is     3210.8 secs

     total energy              =   -2066.19536024 Ry
     estimated scf accuracy    <          1.6E-10 Ry

     iteration # 23     ecut=    70.00 Ry     beta= 0.70
     Davidson diagonalization with overlap
     ethr =  1.13E-13,  avg # of iterations =  2.0

     negative rho (up, down):  6.893E-05 0.000E+00

     total cpu time spent up to now is     3267.3 secs

     total energy              =   -2066.19536024 Ry
     estimated scf accuracy    <          3.5E-12 Ry

     iteration # 24     ecut=    70.00 Ry     beta= 0.70
     Davidson diagonalization with overlap
     ethr =  1.00E-13,  avg # of iterations =  1.0

     negative rho (up, down):  6.894E-05 0.000E+00

     total cpu time spent up to now is     3319.1 secs

     End of self-consistent calculation

     Number of k-points >= 100: set verbosity='high' to print the bands.

     the Fermi energy is     2.0758 ev

!    total energy              =   -2066.19536024 Ry
     estimated scf accuracy    <          2.3E-13 Ry
     smearing contrib. (-TS)   =      -0.00000742 Ry
     internal energy E=F+TS    =   -2066.19535281 Ry

     The total energy is F=E-TS. E is the sum of the following terms:
     one-electron contribution =  -19553.43709491 Ry
     hartree contribution      =    9826.71659481 Ry
     xc contribution           =    -210.59942679 Ry
     ewald contribution        =    7871.12457407 Ry

     convergence has been achieved in  24 iterations

     negative rho (up, down):  6.894E-05 0.000E+00

     Forces acting on atoms (cartesian axes, Ry/au):

     atom    1 type  1   force =    -0.00000692   -0.00001719    0.00440041
     atom    2 type  2   force =    -0.00000090   -0.00000258   -0.00076515
     atom    3 type  1   force =    -0.00000002    0.00000005   -0.00000257
     atom    4 type  2   force =     0.00000091    0.00000256    0.00076533
     atom    5 type  1   force =     0.00000693    0.00001717   -0.00439802

     Total force =     0.006315     Total SCF correction =     0.000005


     Computing stress (Cartesian axis) and pressure


     negative rho (up, down):  6.894E-05 0.000E+00
          total   stress  (Ry/bohr**3)                   (kbar)     P=        0.70
   0.00002148  -0.00000002   0.00000004            3.16       -0.00        0.01
  -0.00000002   0.00002155   0.00000011           -0.00        3.17        0.02
   0.00000004   0.00000011  -0.00002872            0.01        0.02       -4.23

     Energy error            =      1.2E-04 Ry
     Gradient error          =      4.4E-03 Ry/Bohr
     Cell gradient error     =      3.2E+00 kbar

     number of scf cycles    =   2
     number of bfgs steps    =   1

     enthalpy           old  =   -2066.1952407173 Ry
     enthalpy           new  =   -2066.1953602363 Ry

     CASE: enthalpy          _new < enthalpy          _old

     new trust radius        =       0.0067597358 bohr
     new conv_thr            =            1.2E-14 Ry

     new unit-cell volume =   1642.57807 a.u.^3 (   243.40496 Ang^3 )
     density =      3.86722 g/cm^3

CELL_PARAMETERS (alat=  5.55000000)
   1.053326739   0.000004926   0.000000000
  -0.526659103   0.912184714   0.000000000
   0.000000000   0.000000000  10.000000000

ATOMIC_POSITIONS (alat)
Ta            0.0000199080        0.6081671136        0.6372554696
C             0.0000089311        0.0000222675        1.0237827305
Ta            0.5266647818        0.3040648729        1.4781888339
C            -0.0000061090        0.6081025711        1.9325956043
Ta           -0.0000170950       -0.0000422603        2.3191216618



     Writing output data file /scratch/as3359/Ta3C2_loop/Ta.save/
     NEW-OLD atomic charge density approx. for the potential

     negative rho (up, down):  7.261E-05 0.000E+00
     extrapolated charge   89.14315, renormalised to   89.00000

     total cpu time spent up to now is     3408.7 secs

     Self-consistent Calculation

     iteration #  1     ecut=    70.00 Ry     beta= 0.70
     Davidson diagonalization with overlap
     c_bands:  1 eigenvalues not converged
     c_bands:  1 eigenvalues not converged
     c_bands:  1 eigenvalues not converged
     c_bands:  1 eigenvalues not converged
     c_bands:  1 eigenvalues not converged
     c_bands:  2 eigenvalues not converged
     c_bands:  1 eigenvalues not converged
     c_bands:  1 eigenvalues not converged
     c_bands:  1 eigenvalues not converged
     c_bands:  1 eigenvalues not converged
     c_bands:  3 eigenvalues not converged
     c_bands:  3 eigenvalues not converged
     c_bands:  2 eigenvalues not converged
     c_bands:  1 eigenvalues not converged
     c_bands:  1 eigenvalues not converged
     c_bands:  1 eigenvalues not converged
     c_bands:  1 eigenvalues not converged
     c_bands:  1 eigenvalues not converged
     c_bands:  1 eigenvalues not converged
     c_bands:  1 eigenvalues not converged
     c_bands:  2 eigenvalues not converged
     c_bands:  4 eigenvalues not converged
     c_bands:  2 eigenvalues not converged
     c_bands:  1 eigenvalues not converged
     c_bands:  2 eigenvalues not converged
     c_bands:  1 eigenvalues not converged
     c_bands:  1 eigenvalues not converged
     c_bands:  1 eigenvalues not converged
     c_bands:  1 eigenvalues not converged
     c_bands:  1 eigenvalues not converged
     c_bands:  2 eigenvalues not converged
     c_bands:  2 eigenvalues not converged
     c_bands:  2 eigenvalues not converged
     c_bands:  2 eigenvalues not converged
     c_bands:  2 eigenvalues not converged
     c_bands:  2 eigenvalues not converged
     c_bands:  2 eigenvalues not converged
     c_bands:  1 eigenvalues not converged
     c_bands:  1 eigenvalues not converged
     c_bands:  1 eigenvalues not converged
     c_bands:  1 eigenvalues not converged
     c_bands:  2 eigenvalues not converged
     c_bands:  5 eigenvalues not converged
     c_bands:  4 eigenvalues not converged
     c_bands:  5 eigenvalues not converged
     c_bands:  2 eigenvalues not converged
     c_bands:  1 eigenvalues not converged
     c_bands:  1 eigenvalues not converged
     c_bands:  1 eigenvalues not converged
     c_bands:  1 eigenvalues not converged
     c_bands:  1 eigenvalues not converged
     c_bands:  1 eigenvalues not converged
     c_bands:  1 eigenvalues not converged
     c_bands:  1 eigenvalues not converged
     c_bands:  1 eigenvalues not converged
     c_bands:  1 eigenvalues not converged
     c_bands:  1 eigenvalues not converged
     c_bands:  1 eigenvalues not converged
     c_bands:  1 eigenvalues not converged
     c_bands:  2 eigenvalues not converged
     c_bands:  1 eigenvalues not converged
     c_bands:  1 eigenvalues not converged
     c_bands:  1 eigenvalues not converged
     c_bands:  1 eigenvalues not converged
     c_bands:  1 eigenvalues not converged
     c_bands:  1 eigenvalues not converged
     c_bands:  2 eigenvalues not converged
     c_bands:  1 eigenvalues not converged
     c_bands:  2 eigenvalues not converged
     c_bands:  2 eigenvalues not converged
     c_bands:  2 eigenvalues not converged
     c_bands:  1 eigenvalues not converged
     c_bands:  2 eigenvalues not converged
     c_bands:  2 eigenvalues not converged
     c_bands:  1 eigenvalues not converged
     c_bands:  1 eigenvalues not converged
     c_bands:  1 eigenvalues not converged
     c_bands:  1 eigenvalues not converged
     c_bands:  1 eigenvalues not converged
     c_bands:  1 eigenvalues not converged
     c_bands:  1 eigenvalues not converged
     c_bands:  1 eigenvalues not converged
     c_bands:  1 eigenvalues not converged
     c_bands:  2 eigenvalues not converged
     c_bands:  5 eigenvalues not converged
     c_bands:  1 eigenvalues not converged
     c_bands:  2 eigenvalues not converged
     c_bands:  2 eigenvalues not converged
     c_bands:  2 eigenvalues not converged
     c_bands:  5 eigenvalues not converged
     c_bands:  2 eigenvalues not converged
     c_bands:  1 eigenvalues not converged
     c_bands:  1 eigenvalues not converged
     c_bands:  1 eigenvalues not converged
     c_bands:  2 eigenvalues not converged
     c_bands:  2 eigenvalues not converged
     c_bands:  3 eigenvalues not converged
     c_bands:  4 eigenvalues not converged
     c_bands:  1 eigenvalues not converged
     c_bands:  2 eigenvalues not converged
     c_bands:  1 eigenvalues not converged
     c_bands:  4 eigenvalues not converged
     c_bands:  2 eigenvalues not converged
     c_bands:  2 eigenvalues not converged
     c_bands:  1 eigenvalues not converged
     c_bands:  1 eigenvalues not converged
     c_bands:  2 eigenvalues not converged
     c_bands:  1 eigenvalues not converged
     c_bands:  1 eigenvalues not converged
     c_bands:  2 eigenvalues not converged
     c_bands:  1 eigenvalues not converged
     c_bands:  1 eigenvalues not converged
     c_bands:  2 eigenvalues not converged
     c_bands:  4 eigenvalues not converged
     c_bands:  3 eigenvalues not converged
     c_bands:  5 eigenvalues not converged
     c_bands:  1 eigenvalues not converged
     c_bands:  1 eigenvalues not converged
     c_bands:  5 eigenvalues not converged
     c_bands:  3 eigenvalues not converged
     c_bands:  4 eigenvalues not converged
     c_bands:  3 eigenvalues not converged
     c_bands:  1 eigenvalues not converged
     c_bands:  1 eigenvalues not converged
     c_bands:  1 eigenvalues not converged
     c_bands:  1 eigenvalues not converged
     c_bands:  1 eigenvalues not converged
     c_bands:  1 eigenvalues not converged
     c_bands:  1 eigenvalues not converged
     c_bands:  2 eigenvalues not converged
     c_bands:  3 eigenvalues not converged
     c_bands:  2 eigenvalues not converged
     c_bands:  2 eigenvalues not converged
     c_bands:  2 eigenvalues not converged
     c_bands:  1 eigenvalues not converged
     c_bands:  2 eigenvalues not converged
     c_bands:  2 eigenvalues not converged
     c_bands:  2 eigenvalues not converged
     c_bands:  3 eigenvalues not converged
     c_bands:  2 eigenvalues not converged
     ethr =  1.00E-06,  avg # of iterations = 19.7

     total cpu time spent up to now is     3595.0 secs

     total energy              =   -2060.54510685 Ry
     estimated scf accuracy    <       5.86268133 Ry

     iteration #  2     ecut=    70.00 Ry     beta= 0.70
     Davidson diagonalization with overlap
     ethr =  6.59E-03,  avg # of iterations =  8.8

     total cpu time spent up to now is     3690.0 secs

     total energy              =   -2062.12234303 Ry
     estimated scf accuracy    <      49.90709427 Ry

     iteration #  3     ecut=    70.00 Ry     beta= 0.70
     Davidson diagonalization with overlap
     ethr =  6.59E-03,  avg # of iterations =  5.9

     total cpu time spent up to now is     3771.7 secs

     total energy              =   -2066.10199577 Ry
     estimated scf accuracy    <       7.51157693 Ry

     iteration #  4     ecut=    70.00 Ry     beta= 0.70
     Davidson diagonalization with overlap
     ethr =  6.59E-03,  avg # of iterations =  2.0

     total cpu time spent up to now is     3828.8 secs

     total energy              =   -2066.55015962 Ry
     estimated scf accuracy    <       1.56786364 Ry

     iteration #  5     ecut=    70.00 Ry     beta= 0.70
     Davidson diagonalization with overlap
     ethr =  1.76E-03,  avg # of iterations =  2.1

     total cpu time spent up to now is     3884.9 secs

     total energy              =   -2066.45470252 Ry
     estimated scf accuracy    <       0.66190752 Ry

     iteration #  6     ecut=    70.00 Ry     beta= 0.70
     Davidson diagonalization with overlap
     ethr =  7.44E-04,  avg # of iterations =  4.3

     total cpu time spent up to now is     3944.2 secs

     total energy              =   -2066.41902535 Ry
     estimated scf accuracy    <       2.26921791 Ry

     iteration #  7     ecut=    70.00 Ry     beta= 0.70
     Davidson diagonalization with overlap
     ethr =  7.44E-04,  avg # of iterations =  1.1

     total cpu time spent up to now is     3996.3 secs

     total energy              =   -2066.35433776 Ry
     estimated scf accuracy    <       0.52472354 Ry

     iteration #  8     ecut=    70.00 Ry     beta= 0.70
     Davidson diagonalization with overlap
     ethr =  5.90E-04,  avg # of iterations =  1.3

     total cpu time spent up to now is     4048.8 secs

     total energy              =   -2066.31724048 Ry
     estimated scf accuracy    <       0.27502277 Ry

     iteration #  9     ecut=    70.00 Ry     beta= 0.70
     Davidson diagonalization with overlap
     ethr =  3.09E-04,  avg # of iterations =  1.5

     total cpu time spent up to now is     4101.7 secs

     total energy              =   -2066.27777240 Ry
     estimated scf accuracy    <       0.21231511 Ry

     iteration # 10     ecut=    70.00 Ry     beta= 0.70
     Davidson diagonalization with overlap
     ethr =  2.39E-04,  avg # of iterations =  2.4

     negative rho (up, down):  4.283E-06 0.000E+00

     total cpu time spent up to now is     4156.7 secs

     total energy              =   -2066.18302684 Ry
     estimated scf accuracy    <       0.14762901 Ry

     iteration # 11     ecut=    70.00 Ry     beta= 0.70
     Davidson diagonalization with overlap
     c_bands:  1 eigenvalues not converged
     ethr =  1.66E-04,  avg # of iterations =  4.3

     negative rho (up, down):  5.399E-07 0.000E+00

     total cpu time spent up to now is     4218.2 secs

     total energy              =   -2066.19500007 Ry
     estimated scf accuracy    <       0.00326270 Ry

     iteration # 12     ecut=    70.00 Ry     beta= 0.70
     Davidson diagonalization with overlap
     ethr =  3.67E-06,  avg # of iterations =  9.8

     negative rho (up, down):  1.136E-05 0.000E+00

     total cpu time spent up to now is     4296.6 secs

     total energy              =   -2066.19539325 Ry
     estimated scf accuracy    <       0.00062694 Ry

     iteration # 13     ecut=    70.00 Ry     beta= 0.70
     Davidson diagonalization with overlap
     ethr =  7.04E-07,  avg # of iterations =  2.8

     negative rho (up, down):  7.664E-06 0.000E+00

     total cpu time spent up to now is     4356.0 secs

     total energy              =   -2066.19537334 Ry
     estimated scf accuracy    <       0.00071198 Ry

     iteration # 14     ecut=    70.00 Ry     beta= 0.70
     Davidson diagonalization with overlap
     ethr =  7.04E-07,  avg # of iterations =  2.1

     negative rho (up, down):  3.202E-05 0.000E+00

     total cpu time spent up to now is     4411.7 secs

     total energy              =   -2066.19544697 Ry
     estimated scf accuracy    <       0.00015271 Ry

     iteration # 15     ecut=    70.00 Ry     beta= 0.70
     Davidson diagonalization with overlap
     ethr =  1.72E-07,  avg # of iterations =  2.5

     negative rho (up, down):  5.626E-05 0.000E+00

     total cpu time spent up to now is     4467.8 secs

     total energy              =   -2066.19546178 Ry
     estimated scf accuracy    <       0.00001083 Ry

     iteration # 16     ecut=    70.00 Ry     beta= 0.70
     Davidson diagonalization with overlap
     ethr =  1.22E-08,  avg # of iterations =  2.0

     negative rho (up, down):  6.589E-05 0.000E+00

     total cpu time spent up to now is     4525.9 secs

     total energy              =   -2066.19546250 Ry
     estimated scf accuracy    <       0.00000299 Ry

     iteration # 17     ecut=    70.00 Ry     beta= 0.70
     Davidson diagonalization with overlap
     ethr =  3.36E-09,  avg # of iterations =  2.0

     negative rho (up, down):  7.015E-05 0.000E+00

     total cpu time spent up to now is     4584.1 secs

     total energy              =   -2066.19546267 Ry
     estimated scf accuracy    <       0.00000107 Ry

     iteration # 18     ecut=    70.00 Ry     beta= 0.70
     Davidson diagonalization with overlap
     ethr =  1.21E-09,  avg # of iterations =  1.5

     negative rho (up, down):  6.921E-05 0.000E+00

     total cpu time spent up to now is     4637.3 secs

     total energy              =   -2066.19546263 Ry
     estimated scf accuracy    <       0.00000791 Ry

     iteration # 19     ecut=    70.00 Ry     beta= 0.70
     Davidson diagonalization with overlap
     ethr =  1.21E-09,  avg # of iterations =  1.0

     negative rho (up, down):  7.020E-05 0.000E+00

     total cpu time spent up to now is     4688.7 secs

     total energy              =   -2066.19546279 Ry
     estimated scf accuracy    <       0.00000003 Ry

     iteration # 20     ecut=    70.00 Ry     beta= 0.70
     Davidson diagonalization with overlap
     ethr =  3.01E-11,  avg # of iterations =  2.4

     negative rho (up, down):  7.091E-05 0.000E+00

     total cpu time spent up to now is     4751.6 secs

     total energy              =   -2066.19546280 Ry
     estimated scf accuracy    <       0.00000001 Ry

     iteration # 21     ecut=    70.00 Ry     beta= 0.70
     Davidson diagonalization with overlap
     ethr =  1.30E-11,  avg # of iterations =  2.0

     negative rho (up, down):  7.065E-05 0.000E+00

     total cpu time spent up to now is     4807.4 secs

     total energy              =   -2066.19546280 Ry
     estimated scf accuracy    <          3.7E-10 Ry

     iteration # 22     ecut=    70.00 Ry     beta= 0.70
     Davidson diagonalization with overlap
     ethr =  4.13E-13,  avg # of iterations =  3.4

     negative rho (up, down):  7.057E-05 0.000E+00

     total cpu time spent up to now is     4873.2 secs

     total energy              =   -2066.19546280 Ry
     estimated scf accuracy    <          5.5E-11 Ry

     iteration # 23     ecut=    70.00 Ry     beta= 0.70
     Davidson diagonalization with overlap
     ethr =  1.00E-13,  avg # of iterations =  2.2

     negative rho (up, down):  7.050E-05 0.000E+00

     total cpu time spent up to now is     4934.8 secs

     total energy              =   -2066.19546280 Ry
     estimated scf accuracy    <          5.1E-12 Ry

     iteration # 24     ecut=    70.00 Ry     beta= 0.70
     Davidson diagonalization with overlap
     ethr =  1.00E-13,  avg # of iterations =  1.0

     negative rho (up, down):  7.048E-05 0.000E+00

     total cpu time spent up to now is     4987.9 secs

     total energy              =   -2066.19546280 Ry
     estimated scf accuracy    <          1.4E-12 Ry

     iteration # 25     ecut=    70.00 Ry     beta= 0.70
     Davidson diagonalization with overlap
     ethr =  1.00E-13,  avg # of iterations =  1.0

     negative rho (up, down):  7.046E-05 0.000E+00

     total cpu time spent up to now is     5039.8 secs

     total energy              =   -2066.19546280 Ry
     estimated scf accuracy    <          1.3E-12 Ry

     iteration # 26     ecut=    70.00 Ry     beta= 0.70
     Davidson diagonalization with overlap
     ethr =  1.00E-13,  avg # of iterations =  1.0

     negative rho (up, down):  7.045E-05 0.000E+00

     total cpu time spent up to now is     5091.7 secs

     total energy              =   -2066.19546280 Ry
     estimated scf accuracy    <          4.6E-13 Ry

     iteration # 27     ecut=    70.00 Ry     beta= 0.70
     Davidson diagonalization with overlap
     ethr =  1.00E-13,  avg # of iterations =  1.0

     negative rho (up, down):  7.045E-05 0.000E+00

     total cpu time spent up to now is     5144.5 secs

     total energy              =   -2066.19546280 Ry
     estimated scf accuracy    <          2.3E-14 Ry

     iteration # 28     ecut=    70.00 Ry     beta= 0.70
     Davidson diagonalization with overlap
     ethr =  1.00E-13,  avg # of iterations =  1.0

     negative rho (up, down):  7.045E-05 0.000E+00

     total cpu time spent up to now is     5196.8 secs

     total energy              =   -2066.19546280 Ry
     estimated scf accuracy    <          1.4E-13 Ry

     iteration # 29     ecut=    70.00 Ry     beta= 0.70
     Davidson diagonalization with overlap
     ethr =  1.00E-13,  avg # of iterations =  1.0

     negative rho (up, down):  7.045E-05 0.000E+00

     total cpu time spent up to now is     5249.4 secs

     total energy              =   -2066.19546280 Ry
     estimated scf accuracy    <          7.7E-14 Ry

     iteration # 30     ecut=    70.00 Ry     beta= 0.70
     Davidson diagonalization with overlap
     ethr =  1.00E-13,  avg # of iterations =  1.0

     negative rho (up, down):  7.045E-05 0.000E+00

     total cpu time spent up to now is     5302.5 secs

     End of self-consistent calculation

     Number of k-points >= 100: set verbosity='high' to print the bands.

     the Fermi energy is     2.0715 ev

!    total energy              =   -2066.19546280 Ry
     estimated scf accuracy    <          3.4E-15 Ry
     smearing contrib. (-TS)   =      -0.00000995 Ry
     internal energy E=F+TS    =   -2066.19545285 Ry

     The total energy is F=E-TS. E is the sum of the following terms:
     one-electron contribution =  -19539.34007538 Ry
     hartree contribution      =    9819.62152164 Ry
     xc contribution           =    -210.59730411 Ry
     ewald contribution        =    7864.12040500 Ry

     convergence has been achieved in  30 iterations

     negative rho (up, down):  7.045E-05 0.000E+00

     Forces acting on atoms (cartesian axes, Ry/au):

     atom    1 type  1   force =    -0.00000732   -0.00001820    0.00319706
     atom    2 type  2   force =    -0.00000149   -0.00000385    0.00043816
     atom    3 type  1   force =    -0.00000000    0.00000001   -0.00000043
     atom    4 type  2   force =     0.00000149    0.00000386   -0.00043938
     atom    5 type  1   force =     0.00000733    0.00001818   -0.00319540

     Total force =     0.004563     Total SCF correction =     0.000001


     Computing stress (Cartesian axis) and pressure


     negative rho (up, down):  7.045E-05 0.000E+00
          total   stress  (Ry/bohr**3)                   (kbar)     P=        0.45
   0.00001733  -0.00000001   0.00000005            2.55       -0.00        0.01
  -0.00000001   0.00001739   0.00000012           -0.00        2.56        0.02
   0.00000005   0.00000012  -0.00002556            0.01        0.02       -3.76

     Energy error            =      1.0E-04 Ry
     Gradient error          =      3.2E-03 Ry/Bohr
     Cell gradient error     =      2.6E+00 kbar

     number of scf cycles    =   3
     number of bfgs steps    =   2

     enthalpy           old  =   -2066.1953602363 Ry
     enthalpy           new  =   -2066.1954627970 Ry

     CASE: enthalpy          _new < enthalpy          _old

     new trust radius        =       0.0101396039 bohr
     new conv_thr            =            1.0E-14 Ry

     new unit-cell volume =   1646.68405 a.u.^3 (   244.01340 Ang^3 )
     density =      3.85758 g/cm^3

CELL_PARAMETERS (alat=  5.55000000)
   1.054640487   0.000004080   0.000000000
  -0.527316710   0.913326206   0.000000000
   0.000000000   0.000000000  10.000000000

ATOMIC_POSITIONS (alat)
Ta            0.0000160768        0.6089195225        0.6390529641
C             0.0000083197        0.0000206349        1.0237165612
Ta            0.5273214061        0.3044448203        1.4781886352
C            -0.0000059840        0.6088649135        1.9326614944
Ta           -0.0000137491       -0.0000339678        2.3173246450



     Writing output data file /scratch/as3359/Ta3C2_loop/Ta.save/
     NEW-OLD atomic charge density approx. for the potential

     negative rho (up, down):  7.593E-05 0.000E+00
     extrapolated charge   89.22191, renormalised to   89.00000

     total cpu time spent up to now is     5393.4 secs

     Self-consistent Calculation

     iteration #  1     ecut=    70.00 Ry     beta= 0.70
     Davidson diagonalization with overlap
     c_bands:  3 eigenvalues not converged
     c_bands:  1 eigenvalues not converged
     c_bands:  1 eigenvalues not converged
     c_bands:  2 eigenvalues not converged
     c_bands:  3 eigenvalues not converged
     c_bands:  3 eigenvalues not converged
     c_bands:  4 eigenvalues not converged
     c_bands:  3 eigenvalues not converged
     c_bands:  3 eigenvalues not converged
     c_bands:  3 eigenvalues not converged
     c_bands:  4 eigenvalues not converged
     c_bands:  1 eigenvalues not converged
     c_bands:  3 eigenvalues not converged
     c_bands:  3 eigenvalues not converged
     c_bands:  2 eigenvalues not converged
     c_bands:  3 eigenvalues not converged
     c_bands:  4 eigenvalues not converged
     c_bands:  4 eigenvalues not converged
     c_bands:  3 eigenvalues not converged
     c_bands:  2 eigenvalues not converged
     c_bands:  3 eigenvalues not converged
     c_bands:  3 eigenvalues not converged
     c_bands:  1 eigenvalues not converged
     c_bands:  4 eigenvalues not converged
     c_bands:  4 eigenvalues not converged
     c_bands:  3 eigenvalues not converged
     c_bands:  3 eigenvalues not converged
     c_bands:  3 eigenvalues not converged
     c_bands:  2 eigenvalues not converged
     c_bands:  5 eigenvalues not converged
     c_bands:  3 eigenvalues not converged
     c_bands:  3 eigenvalues not converged
     c_bands:  2 eigenvalues not converged
     c_bands:  2 eigenvalues not converged
     c_bands:  4 eigenvalues not converged
     c_bands:  2 eigenvalues not converged
     c_bands:  2 eigenvalues not converged
     c_bands:  3 eigenvalues not converged
     c_bands:  3 eigenvalues not converged
     c_bands:  5 eigenvalues not converged
     c_bands:  2 eigenvalues not converged
     c_bands:  4 eigenvalues not converged
     c_bands:  2 eigenvalues not converged
     c_bands:  3 eigenvalues not converged
     c_bands:  5 eigenvalues not converged
     c_bands:  3 eigenvalues not converged
     c_bands:  1 eigenvalues not converged
     c_bands:  1 eigenvalues not converged
     c_bands:  1 eigenvalues not converged
     c_bands:  4 eigenvalues not converged
     c_bands:  2 eigenvalues not converged
     c_bands:  2 eigenvalues not converged
     c_bands:  4 eigenvalues not converged
     c_bands:  1 eigenvalues not converged
     c_bands:  1 eigenvalues not converged
     c_bands:  1 eigenvalues not converged
     c_bands:  3 eigenvalues not converged
     c_bands:  5 eigenvalues not converged
     c_bands:  3 eigenvalues not converged
     c_bands:  3 eigenvalues not converged
     c_bands:  3 eigenvalues not converged
     c_bands:  1 eigenvalues not converged
     c_bands:  1 eigenvalues not converged
     c_bands:  3 eigenvalues not converged
     c_bands:  1 eigenvalues not converged
     c_bands:  1 eigenvalues not converged
     c_bands:  2 eigenvalues not converged
     c_bands:  3 eigenvalues not converged
     c_bands:  2 eigenvalues not converged
     c_bands:  1 eigenvalues not converged
     c_bands:  2 eigenvalues not converged
     c_bands:  3 eigenvalues not converged
     c_bands:  2 eigenvalues not converged
     c_bands:  1 eigenvalues not converged
     c_bands:  1 eigenvalues not converged
     c_bands:  3 eigenvalues not converged
     c_bands:  1 eigenvalues not converged
     c_bands:  1 eigenvalues not converged
     c_bands:  3 eigenvalues not converged
     c_bands:  2 eigenvalues not converged
     c_bands:  3 eigenvalues not converged
     c_bands:  1 eigenvalues not converged
     c_bands:  3 eigenvalues not converged
     c_bands:  3 eigenvalues not converged
     c_bands:  1 eigenvalues not converged
     c_bands:  2 eigenvalues not converged
     c_bands:  3 eigenvalues not converged
     c_bands:  3 eigenvalues not converged
     c_bands:  5 eigenvalues not converged
     c_bands:  5 eigenvalues not converged
     c_bands:  3 eigenvalues not converged
     c_bands:  3 eigenvalues not converged
     c_bands:  2 eigenvalues not converged
     c_bands:  1 eigenvalues not converged
     c_bands:  3 eigenvalues not converged
     c_bands:  3 eigenvalues not converged
     c_bands:  1 eigenvalues not converged
     c_bands:  1 eigenvalues not converged
     c_bands:  5 eigenvalues not converged
     c_bands:  5 eigenvalues not converged
     c_bands:  1 eigenvalues not converged
     c_bands:  1 eigenvalues not converged
     c_bands:  3 eigenvalues not converged
     c_bands:  1 eigenvalues not converged
     c_bands:  3 eigenvalues not converged
     c_bands:  3 eigenvalues not converged
     c_bands:  4 eigenvalues not converged
     c_bands:  3 eigenvalues not converged
     c_bands:  4 eigenvalues not converged
     c_bands:  3 eigenvalues not converged
     c_bands:  3 eigenvalues not converged
     c_bands:  1 eigenvalues not converged
     c_bands:  3 eigenvalues not converged
     c_bands:  1 eigenvalues not converged
     c_bands:  3 eigenvalues not converged
     c_bands:  3 eigenvalues not converged
     c_bands:  3 eigenvalues not converged
     c_bands:  3 eigenvalues not converged
     c_bands:  3 eigenvalues not converged
     c_bands:  2 eigenvalues not converged
     c_bands:  2 eigenvalues not converged
     c_bands:  3 eigenvalues not converged
     c_bands:  4 eigenvalues not converged
     c_bands:  2 eigenvalues not converged
     c_bands:  5 eigenvalues not converged
     c_bands:  3 eigenvalues not converged
     c_bands:  3 eigenvalues not converged
     c_bands:  5 eigenvalues not converged
     c_bands:  2 eigenvalues not converged
     c_bands:  4 eigenvalues not converged
     c_bands:  3 eigenvalues not converged
     c_bands:  2 eigenvalues not converged
     c_bands:  2 eigenvalues not converged
     c_bands:  3 eigenvalues not converged
     c_bands:  3 eigenvalues not converged
     c_bands:  1 eigenvalues not converged
     c_bands:  1 eigenvalues not converged
     c_bands:  3 eigenvalues not converged
     c_bands:  3 eigenvalues not converged
     c_bands:  3 eigenvalues not converged
     c_bands:  3 eigenvalues not converged
     c_bands:  2 eigenvalues not converged
     c_bands:  2 eigenvalues not converged
     c_bands:  1 eigenvalues not converged
     c_bands:  5 eigenvalues not converged
     c_bands:  5 eigenvalues not converged
     c_bands:  5 eigenvalues not converged
     c_bands:  1 eigenvalues not converged
     c_bands:  2 eigenvalues not converged
     c_bands:  2 eigenvalues not converged
     c_bands:  3 eigenvalues not converged
     c_bands:  3 eigenvalues not converged
     c_bands:  2 eigenvalues not converged
     c_bands:  1 eigenvalues not converged
     c_bands:  1 eigenvalues not converged
     c_bands:  1 eigenvalues not converged
     c_bands:  1 eigenvalues not converged
     c_bands:  2 eigenvalues not converged
     c_bands:  3 eigenvalues not converged
     c_bands:  4 eigenvalues not converged
     c_bands:  3 eigenvalues not converged
     c_bands:  2 eigenvalues not converged
     c_bands:  2 eigenvalues not converged
     c_bands:  3 eigenvalues not converged
     c_bands:  3 eigenvalues not converged
     c_bands:  2 eigenvalues not converged
     c_bands:  2 eigenvalues not converged
     c_bands:  3 eigenvalues not converged
     c_bands:  4 eigenvalues not converged
     c_bands:  3 eigenvalues not converged
     c_bands:  3 eigenvalues not converged
     c_bands:  3 eigenvalues not converged
     c_bands:  2 eigenvalues not converged
     c_bands:  2 eigenvalues not converged
     c_bands:  2 eigenvalues not converged
     c_bands:  2 eigenvalues not converged
     c_bands:  3 eigenvalues not converged
     c_bands:  3 eigenvalues not converged
     c_bands:  4 eigenvalues not converged
     c_bands:  4 eigenvalues not converged
     c_bands:  2 eigenvalues not converged
     c_bands:  4 eigenvalues not converged
     c_bands:  3 eigenvalues not converged
     c_bands:  3 eigenvalues not converged
     c_bands:  3 eigenvalues not converged
     c_bands:  4 eigenvalues not converged
     c_bands:  2 eigenvalues not converged
     c_bands:  3 eigenvalues not converged
     c_bands:  4 eigenvalues not converged
     ethr =  1.00E-06,  avg # of iterations = 20.0

     total cpu time spent up to now is     5614.2 secs

     total energy              =   -1998.50520560 Ry
     estimated scf accuracy    <      72.92249463 Ry

     iteration #  2     ecut=    70.00 Ry     beta= 0.70
     Davidson diagonalization with overlap
     ethr =  1.00E-02,  avg # of iterations = 12.7

     total cpu time spent up to now is     5753.8 secs

     total energy              =   -2059.06252454 Ry
     estimated scf accuracy    <     128.22566606 Ry

     iteration #  3     ecut=    70.00 Ry     beta= 0.70
     Davidson diagonalization with overlap
     ethr =  1.00E-02,  avg # of iterations = 12.7

     total cpu time spent up to now is     5905.9 secs

     total energy              =   -2026.60171506 Ry
     estimated scf accuracy    <     488.52331522 Ry

     iteration #  4     ecut=    70.00 Ry     beta= 0.70
     Davidson diagonalization with overlap
     ethr =  1.00E-02,  avg # of iterations =  7.5

     total cpu time spent up to now is     5994.8 secs

     total energy              =   -2074.40755513 Ry
     estimated scf accuracy    <      21.06178311 Ry

     iteration #  5     ecut=    70.00 Ry     beta= 0.70
     Davidson diagonalization with overlap
     ethr =  1.00E-02,  avg # of iterations =  3.0

     total cpu time spent up to now is     6057.5 secs

     total energy              =   -2070.88336364 Ry
     estimated scf accuracy    <      16.36785095 Ry

     iteration #  6     ecut=    70.00 Ry     beta= 0.70
     Davidson diagonalization with overlap
     ethr =  1.00E-02,  avg # of iterations =  1.0

     total cpu time spent up to now is     6112.3 secs

     total energy              =   -2069.88197484 Ry
     estimated scf accuracy    <       7.47707987 Ry

     iteration #  7     ecut=    70.00 Ry     beta= 0.70
     Davidson diagonalization with overlap
     ethr =  8.40E-03,  avg # of iterations =  1.0

     total cpu time spent up to now is     6166.6 secs

     total energy              =   -2068.71972710 Ry
     estimated scf accuracy    <      19.14406919 Ry

     iteration #  8     ecut=    70.00 Ry     beta= 0.70
     Davidson diagonalization with overlap
     ethr =  8.40E-03,  avg # of iterations =  1.0

     total cpu time spent up to now is     6221.2 secs

     total energy              =   -2068.27235997 Ry
     estimated scf accuracy    <       3.95844094 Ry

     iteration #  9     ecut=    70.00 Ry     beta= 0.70
     Davidson diagonalization with overlap
     ethr =  4.45E-03,  avg # of iterations =  1.0

     total cpu time spent up to now is     6275.7 secs

     total energy              =   -2067.24255612 Ry
     estimated scf accuracy    <       2.99635758 Ry

     iteration # 10     ecut=    70.00 Ry     beta= 0.70
     Davidson diagonalization with overlap
     ethr =  3.37E-03,  avg # of iterations =  2.1

     negative rho (up, down):  2.728E-05 0.000E+00

     total cpu time spent up to now is     6334.4 secs

     total energy              =   -2066.05041182 Ry
     estimated scf accuracy    <       1.34716734 Ry

     iteration # 11     ecut=    70.00 Ry     beta= 0.70
     Davidson diagonalization with overlap
     ethr =  1.51E-03,  avg # of iterations = 12.6

     total cpu time spent up to now is     6446.0 secs

     total energy              =   -2065.64751761 Ry
     estimated scf accuracy    <      20.20347266 Ry

     iteration # 12     ecut=    70.00 Ry     beta= 0.70
     Davidson diagonalization with overlap
     ethr =  1.51E-03,  avg # of iterations =  9.0

     negative rho (up, down):  1.955E-03 0.000E+00

     total cpu time spent up to now is     6525.9 secs

     total energy              =   -2066.73847996 Ry
     estimated scf accuracy    <       1.62414631 Ry

     iteration # 13     ecut=    70.00 Ry     beta= 0.70
     Davidson diagonalization with overlap
     c_bands:  1 eigenvalues not converged
     c_bands:  2 eigenvalues not converged
     c_bands:  1 eigenvalues not converged
     ethr =  1.51E-03,  avg # of iterations = 12.0

     negative rho (up, down):  9.668E-02 0.000E+00

     total cpu time spent up to now is     6619.9 secs

     total energy              =   -2067.26656892 Ry
     estimated scf accuracy    <       1.34458397 Ry

     iteration # 14     ecut=    70.00 Ry     beta= 0.70
     Davidson diagonalization with overlap
     ethr =  1.51E-03,  avg # of iterations =  1.0

     negative rho (up, down):  1.483E-01 0.000E+00

     total cpu time spent up to now is     6674.0 secs

     total energy              =   -2067.58423265 Ry
     estimated scf accuracy    <       1.23470815 Ry

     iteration # 15     ecut=    70.00 Ry     beta= 0.70
     Davidson diagonalization with overlap
     ethr =  1.39E-03,  avg # of iterations =  1.0

     negative rho (up, down):  7.023E-02 0.000E+00

     total cpu time spent up to now is     6727.2 secs

     total energy              =   -2067.14061674 Ry
     estimated scf accuracy    <       1.54242568 Ry

     iteration # 16     ecut=    70.00 Ry     beta= 0.70
     Davidson diagonalization with overlap
     ethr =  1.39E-03,  avg # of iterations =  1.0

     negative rho (up, down):  3.044E-02 0.000E+00

     total cpu time spent up to now is     6780.2 secs

     total energy              =   -2066.85972747 Ry
     estimated scf accuracy    <       1.15370244 Ry

     iteration # 17     ecut=    70.00 Ry     beta= 0.70
     Davidson diagonalization with overlap
     ethr =  1.30E-03,  avg # of iterations =  1.0

     total cpu time spent up to now is     6833.2 secs

     total energy              =   -2066.21935118 Ry
     estimated scf accuracy    <       0.79611663 Ry

     iteration # 18     ecut=    70.00 Ry     beta= 0.70
     Davidson diagonalization with overlap
     ethr =  8.95E-04,  avg # of iterations =  2.2

     negative rho (up, down):  5.406E-04 0.000E+00

     total cpu time spent up to now is     6891.2 secs

     total energy              =   -2066.19301238 Ry
     estimated scf accuracy    <       0.12565780 Ry

     iteration # 19     ecut=    70.00 Ry     beta= 0.70
     Davidson diagonalization with overlap
     c_bands:  1 eigenvalues not converged
     c_bands:  1 eigenvalues not converged
     c_bands:  1 eigenvalues not converged
     c_bands:  1 eigenvalues not converged
     ethr =  1.41E-04,  avg # of iterations =  9.8

     negative rho (up, down):  1.793E-01 0.000E+00

     total cpu time spent up to now is     6964.3 secs

     total energy              =   -2066.28642436 Ry
     estimated scf accuracy    <       0.05190423 Ry

     iteration # 20     ecut=    70.00 Ry     beta= 0.70
     Davidson diagonalization with overlap
     c_bands:  1 eigenvalues not converged
     c_bands:  1 eigenvalues not converged
     c_bands:  1 eigenvalues not converged
     c_bands:  1 eigenvalues not converged
     c_bands:  1 eigenvalues not converged
     c_bands:  1 eigenvalues not converged
     c_bands:  1 eigenvalues not converged
     c_bands:  1 eigenvalues not converged
     c_bands:  1 eigenvalues not converged
     c_bands:  1 eigenvalues not converged
     c_bands:  1 eigenvalues not converged
     ethr =  5.83E-05,  avg # of iterations = 15.8

     total cpu time spent up to now is     7092.1 secs

     total energy              =   -2060.51963871 Ry
     estimated scf accuracy    <     162.75530628 Ry

     iteration # 21     ecut=    70.00 Ry     beta= 0.70
     Davidson diagonalization with overlap
     c_bands:  4 eigenvalues not converged
     c_bands:  4 eigenvalues not converged
     c_bands:  1 eigenvalues not converged
     c_bands:  1 eigenvalues not converged
     c_bands:  2 eigenvalues not converged
     c_bands:  3 eigenvalues not converged
     c_bands:  1 eigenvalues not converged
     c_bands:  1 eigenvalues not converged
     c_bands:  1 eigenvalues not converged
     c_bands:  4 eigenvalues not converged
     c_bands:  3 eigenvalues not converged
     c_bands:  5 eigenvalues not converged
     c_bands:  1 eigenvalues not converged
     c_bands:  1 eigenvalues not converged
     c_bands:  1 eigenvalues not converged
     c_bands:  1 eigenvalues not converged
     c_bands:  1 eigenvalues not converged
     c_bands:  1 eigenvalues not converged
     c_bands:  2 eigenvalues not converged
     c_bands:  2 eigenvalues not converged
     c_bands:  1 eigenvalues not converged
     c_bands:  1 eigenvalues not converged
     c_bands:  2 eigenvalues not converged
     c_bands:  2 eigenvalues not converged
     c_bands:  2 eigenvalues not converged
     c_bands:  2 eigenvalues not converged
     c_bands:  2 eigenvalues not converged
     c_bands:  1 eigenvalues not converged
     c_bands:  1 eigenvalues not converged
     c_bands:  2 eigenvalues not converged
     c_bands:  1 eigenvalues not converged
     c_bands:  1 eigenvalues not converged
     c_bands:  1 eigenvalues not converged
     c_bands:  1 eigenvalues not converged
     c_bands:  1 eigenvalues not converged
     c_bands:  1 eigenvalues not converged
     c_bands:  1 eigenvalues not converged
     c_bands:  1 eigenvalues not converged
     c_bands:  1 eigenvalues not converged
     c_bands:  2 eigenvalues not converged
     c_bands:  1 eigenvalues not converged
     c_bands:  1 eigenvalues not converged
     c_bands:  2 eigenvalues not converged
     c_bands:  1 eigenvalues not converged
     c_bands:  1 eigenvalues not converged
     c_bands:  1 eigenvalues not converged
     c_bands:  1 eigenvalues not converged
     c_bands:  1 eigenvalues not converged
     c_bands:  1 eigenvalues not converged
     c_bands:  2 eigenvalues not converged
     c_bands:  1 eigenvalues not converged
     c_bands:  1 eigenvalues not converged
     c_bands:  1 eigenvalues not converged
     c_bands:  2 eigenvalues not converged
     c_bands:  1 eigenvalues not converged
     c_bands:  1 eigenvalues not converged
     c_bands:  1 eigenvalues not converged
     c_bands:  1 eigenvalues not converged
     c_bands:  1 eigenvalues not converged
     c_bands:  1 eigenvalues not converged
     c_bands:  1 eigenvalues not converged
     c_bands:  2 eigenvalues not converged
     c_bands:  1 eigenvalues not converged
     c_bands:  2 eigenvalues not converged
     c_bands:  2 eigenvalues not converged
     c_bands:  1 eigenvalues not converged
     c_bands:  2 eigenvalues not converged
     c_bands:  2 eigenvalues not converged
     c_bands:  1 eigenvalues not converged
     c_bands:  3 eigenvalues not converged
     c_bands:  1 eigenvalues not converged
     c_bands:  2 eigenvalues not converged
     c_bands:  2 eigenvalues not converged
     c_bands:  1 eigenvalues not converged
     c_bands:  1 eigenvalues not converged
     c_bands:  1 eigenvalues not converged
     c_bands:  1 eigenvalues not converged
     c_bands:  1 eigenvalues not converged
     c_bands:  1 eigenvalues not converged
     c_bands:  2 eigenvalues not converged
     c_bands:  3 eigenvalues not converged
     c_bands:  1 eigenvalues not converged
     c_bands:  2 eigenvalues not converged
     c_bands:  2 eigenvalues not converged
     c_bands:  1 eigenvalues not converged
     c_bands:  1 eigenvalues not converged
     c_bands:  1 eigenvalues not converged
     c_bands:  2 eigenvalues not converged
     c_bands:  3 eigenvalues not converged
     c_bands:  2 eigenvalues not converged
     c_bands:  4 eigenvalues not converged
     c_bands:  1 eigenvalues not converged
     c_bands:  1 eigenvalues not converged
     c_bands:  1 eigenvalues not converged
     c_bands:  1 eigenvalues not converged
     c_bands:  2 eigenvalues not converged
     c_bands:  1 eigenvalues not converged
     c_bands:  2 eigenvalues not converged
     c_bands:  4 eigenvalues not converged
     c_bands:  3 eigenvalues not converged
     c_bands:  2 eigenvalues not converged
     c_bands:  1 eigenvalues not converged
     c_bands:  2 eigenvalues not converged
     c_bands:  1 eigenvalues not converged
     c_bands:  2 eigenvalues not converged
     c_bands:  2 eigenvalues not converged
     c_bands:  3 eigenvalues not converged
     c_bands:  3 eigenvalues not converged
     ethr =  5.83E-05,  avg # of iterations = 18.5

     total cpu time spent up to now is     7224.7 secs

     total energy              =   -2066.21803904 Ry
     estimated scf accuracy    <       0.03316814 Ry

     iteration # 22     ecut=    70.00 Ry     beta= 0.70
     Davidson diagonalization with overlap
     c_bands:  1 eigenvalues not converged
     c_bands:  1 eigenvalues not converged
     ethr =  3.73E-05,  avg # of iterations =  4.9

     negative rho (up, down):  3.796E-04 0.000E+00

     total cpu time spent up to now is     7289.0 secs

     total energy              =   -2066.27240740 Ry
     estimated scf accuracy    <       0.03264589 Ry

     iteration # 23     ecut=    70.00 Ry     beta= 0.70
     Davidson diagonalization with overlap
     ethr =  3.67E-05,  avg # of iterations =  2.6

     total cpu time spent up to now is     7348.9 secs

     total energy              =   -2066.27243641 Ry
     estimated scf accuracy    <       0.10574968 Ry

     iteration # 24     ecut=    70.00 Ry     beta= 0.70
     Davidson diagonalization with overlap
     ethr =  3.67E-05,  avg # of iterations =  1.0

     total cpu time spent up to now is     7402.3 secs

     total energy              =   -2066.27371232 Ry
     estimated scf accuracy    <       0.10047697 Ry

     iteration # 25     ecut=    70.00 Ry     beta= 0.70
     Davidson diagonalization with overlap
     ethr =  3.67E-05,  avg # of iterations =  1.0

     total cpu time spent up to now is     7456.3 secs

     total energy              =   -2066.27376058 Ry
     estimated scf accuracy    <       0.10186455 Ry

     iteration # 26     ecut=    70.00 Ry     beta= 0.70
     Davidson diagonalization with overlap
     ethr =  3.67E-05,  avg # of iterations =  1.0

     total cpu time spent up to now is     7511.4 secs

     total energy              =   -2066.27087243 Ry
     estimated scf accuracy    <       0.10274859 Ry

     iteration # 27     ecut=    70.00 Ry     beta= 0.70
     Davidson diagonalization with overlap
     ethr =  3.67E-05,  avg # of iterations =  1.0

     total cpu time spent up to now is     7566.0 secs

     total energy              =   -2066.26933020 Ry
     estimated scf accuracy    <       0.09933467 Ry

     iteration # 28     ecut=    70.00 Ry     beta= 0.70
     Davidson diagonalization with overlap
     ethr =  3.67E-05,  avg # of iterations =  1.0

     total cpu time spent up to now is     7620.6 secs

     total energy              =   -2066.26869573 Ry
     estimated scf accuracy    <       0.09679795 Ry

     iteration # 29     ecut=    70.00 Ry     beta= 0.70
     Davidson diagonalization with overlap
     ethr =  3.67E-05,  avg # of iterations =  1.0

     negative rho (up, down):  8.985E-04 0.000E+00

     total cpu time spent up to now is     7674.7 secs

     total energy              =   -2066.19065097 Ry
     estimated scf accuracy    <       0.09612095 Ry

     iteration # 30     ecut=    70.00 Ry     beta= 0.70
     Davidson diagonalization with overlap
     ethr =  3.67E-05,  avg # of iterations =  4.2

     negative rho (up, down):  1.014E-03 0.000E+00

     total cpu time spent up to now is     7739.8 secs

     total energy              =   -2066.19495866 Ry
     estimated scf accuracy    <       0.00586577 Ry

     iteration # 31     ecut=    70.00 Ry     beta= 0.70
     Davidson diagonalization with overlap
     ethr =  6.59E-06,  avg # of iterations =  4.5

     negative rho (up, down):  4.564E-04 0.000E+00

     total cpu time spent up to now is     7806.4 secs

     total energy              =   -2066.19542997 Ry
     estimated scf accuracy    <       0.00099754 Ry

     iteration # 32     ecut=    70.00 Ry     beta= 0.70
     Davidson diagonalization with overlap
     c_bands:  1 eigenvalues not converged
     c_bands:  1 eigenvalues not converged
     ethr =  1.12E-06,  avg # of iterations =  4.5

     negative rho (up, down):  5.288E-05 0.000E+00

     total cpu time spent up to now is     7872.6 secs

     total energy              =   -2066.19555390 Ry
     estimated scf accuracy    <       0.00008253 Ry

     iteration # 33     ecut=    70.00 Ry     beta= 0.70
     Davidson diagonalization with overlap
     ethr =  9.27E-08,  avg # of iterations =  3.6

     negative rho (up, down):  6.470E-05 0.000E+00

     total cpu time spent up to now is     7942.3 secs

     total energy              =   -2066.19556195 Ry
     estimated scf accuracy    <       0.00009412 Ry

     iteration # 34     ecut=    70.00 Ry     beta= 0.70
     Davidson diagonalization with overlap
     ethr =  9.27E-08,  avg # of iterations =  2.0

     negative rho (up, down):  7.260E-05 0.000E+00

     total cpu time spent up to now is     8001.8 secs

     total energy              =   -2066.19557050 Ry
     estimated scf accuracy    <       0.00000621 Ry

     iteration # 35     ecut=    70.00 Ry     beta= 0.70
     Davidson diagonalization with overlap
     ethr =  6.97E-09,  avg # of iterations =  2.0

     negative rho (up, down):  6.846E-05 0.000E+00

     total cpu time spent up to now is     8060.5 secs

[...]

     Number of k-points >= 100: set verbosity='high' to print them.

     Dense  grid:   519377 G-vectors     FFT dimensions: (  50,  50, 480)

     Smooth grid:   131623 G-vectors     FFT dimensions: (  32,  32, 300)

     Estimated max dynamical RAM per process >       3.80 GB

     Estimated total dynamical RAM >       7.61 GB

     Initial potential from superposition of free atoms

     starting charge   88.99760, renormalised to   89.00000

     negative rho (up, down):  6.053E-05 0.000E+00
     Starting wfcs are   59 randomized atomic wfcs

     total cpu time spent up to now is    24387.9 secs

     Self-consistent Calculation

     iteration #  1     ecut=    70.00 Ry     beta= 0.70
     Davidson diagonalization with overlap
     c_bands:  1 eigenvalues not converged
     c_bands:  1 eigenvalues not converged
     c_bands:  1 eigenvalues not converged
     c_bands:  1 eigenvalues not converged
     c_bands:  1 eigenvalues not converged
     c_bands:  1 eigenvalues not converged
     c_bands:  1 eigenvalues not converged
     c_bands:  1 eigenvalues not converged
     c_bands:  1 eigenvalues not converged
     c_bands:  1 eigenvalues not converged
     c_bands:  1 eigenvalues not converged
     c_bands:  1 eigenvalues not converged
     c_bands:  1 eigenvalues not converged
     c_bands:  1 eigenvalues not converged
     c_bands:  1 eigenvalues not converged
     c_bands:  1 eigenvalues not converged
     c_bands:  1 eigenvalues not converged
     c_bands:  1 eigenvalues not converged
     c_bands:  1 eigenvalues not converged
     c_bands:  1 eigenvalues not converged
     c_bands:  2 eigenvalues not converged
     c_bands:  1 eigenvalues not converged
     c_bands:  1 eigenvalues not converged
     c_bands:  1 eigenvalues not converged
     c_bands:  1 eigenvalues not converged
     c_bands:  2 eigenvalues not converged
     c_bands:  1 eigenvalues not converged
     c_bands:  1 eigenvalues not converged
     c_bands:  1 eigenvalues not converged
     c_bands:  1 eigenvalues not converged
     c_bands:  1 eigenvalues not converged
     c_bands:  1 eigenvalues not converged
     c_bands:  1 eigenvalues not converged
     c_bands:  2 eigenvalues not converged
     c_bands:  2 eigenvalues not converged
     c_bands:  2 eigenvalues not converged
     c_bands:  1 eigenvalues not converged
     c_bands:  2 eigenvalues not converged
     c_bands:  2 eigenvalues not converged
     c_bands:  2 eigenvalues not converged
     c_bands:  1 eigenvalues not converged
     c_bands:  2 eigenvalues not converged
     c_bands:  1 eigenvalues not converged
     c_bands:  1 eigenvalues not converged
     c_bands:  1 eigenvalues not converged
     c_bands:  1 eigenvalues not converged
     c_bands:  1 eigenvalues not converged
     c_bands:  1 eigenvalues not converged
     c_bands:  1 eigenvalues not converged
     c_bands:  1 eigenvalues not converged
     c_bands:  1 eigenvalues not converged
     c_bands:  2 eigenvalues not converged
     c_bands:  1 eigenvalues not converged
     c_bands:  1 eigenvalues not converged
     c_bands:  1 eigenvalues not converged
     c_bands:  1 eigenvalues not converged
     c_bands:  2 eigenvalues not converged
     c_bands:  1 eigenvalues not converged
     c_bands:  1 eigenvalues not converged
     c_bands:  1 eigenvalues not converged
     c_bands:  1 eigenvalues not converged
     c_bands:  1 eigenvalues not converged
     c_bands:  1 eigenvalues not converged
     c_bands:  1 eigenvalues not converged
     c_bands:  1 eigenvalues not converged
     c_bands:  1 eigenvalues not converged
     c_bands:  1 eigenvalues not converged
     c_bands:  1 eigenvalues not converged
     c_bands:  1 eigenvalues not converged
     c_bands:  1 eigenvalues not converged
     c_bands:  2 eigenvalues not converged
     c_bands:  1 eigenvalues not converged
     c_bands:  1 eigenvalues not converged
     c_bands:  1 eigenvalues not converged
     c_bands:  1 eigenvalues not converged
     c_bands:  1 eigenvalues not converged
     c_bands:  1 eigenvalues not converged
     c_bands:  1 eigenvalues not converged
     c_bands:  1 eigenvalues not converged
     c_bands:  1 eigenvalues not converged
     c_bands:  1 eigenvalues not converged
     c_bands:  2 eigenvalues not converged
     c_bands:  1 eigenvalues not converged
     c_bands:  1 eigenvalues not converged
     c_bands:  2 eigenvalues not converged
     c_bands:  2 eigenvalues not converged
     c_bands:  1 eigenvalues not converged
     c_bands:  1 eigenvalues not converged
     c_bands:  1 eigenvalues not converged
     c_bands:  1 eigenvalues not converged
     c_bands:  1 eigenvalues not converged
     c_bands:  1 eigenvalues not converged
     c_bands:  1 eigenvalues not converged
     c_bands:  1 eigenvalues not converged
     c_bands:  1 eigenvalues not converged
     c_bands:  1 eigenvalues not converged
     c_bands:  1 eigenvalues not converged
     c_bands:  1 eigenvalues not converged
     c_bands:  1 eigenvalues not converged
     c_bands:  2 eigenvalues not converged
     c_bands:  2 eigenvalues not converged
     c_bands:  2 eigenvalues not converged
     c_bands:  1 eigenvalues not converged
     c_bands:  2 eigenvalues not converged
     ethr =  1.00E-06,  avg # of iterations = 18.1

     negative rho (up, down):  8.885E-05 0.000E+00

     total cpu time spent up to now is    24595.3 secs

     total energy              =   -2064.49679032 Ry
     estimated scf accuracy    <       2.58367076 Ry

     iteration #  2     ecut=    70.00 Ry     beta= 0.70
     Davidson diagonalization with overlap
     ethr =  2.90E-03,  avg # of iterations = 13.8

     total cpu time spent up to now is    24727.8 secs

     total energy              =   -2052.52355244 Ry
     estimated scf accuracy    <     251.32426467 Ry

     iteration #  3     ecut=    70.00 Ry     beta= 0.70
     Davidson diagonalization with overlap
     ethr =  2.90E-03,  avg # of iterations =  8.9

     total cpu time spent up to now is    24832.9 secs

     total energy              =   -2065.65547059 Ry
     estimated scf accuracy    <       3.60928447 Ry

     iteration #  4     ecut=    70.00 Ry     beta= 0.70
     Davidson diagonalization with overlap
     ethr =  2.90E-03,  avg # of iterations =  3.7

     total cpu time spent up to now is    24900.4 secs

     total energy              =   -2066.07945682 Ry
     estimated scf accuracy    <       1.54884431 Ry

     iteration #  5     ecut=    70.00 Ry     beta= 0.70
     Davidson diagonalization with overlap
     ethr =  1.74E-03,  avg # of iterations =  1.9

     total cpu time spent up to now is    24958.7 secs

     total energy              =   -2066.20913630 Ry
     estimated scf accuracy    <       0.25422234 Ry

     iteration #  6     ecut=    70.00 Ry     beta= 0.70
     Davidson diagonalization with overlap
     ethr =  2.86E-04,  avg # of iterations =  4.7

     total cpu time spent up to now is    25022.3 secs

     total energy              =   -2066.20280567 Ry
     estimated scf accuracy    <       1.07912093 Ry

     iteration #  7     ecut=    70.00 Ry     beta= 0.70
     Davidson diagonalization with overlap
     ethr =  2.86E-04,  avg # of iterations =  1.8

     total cpu time spent up to now is    25079.6 secs

     total energy              =   -2066.21684577 Ry
     estimated scf accuracy    <       0.05937465 Ry

     iteration #  8     ecut=    70.00 Ry     beta= 0.70
     Davidson diagonalization with overlap
     ethr =  6.67E-05,  avg # of iterations =  5.5

     total cpu time spent up to now is    25143.9 secs

     total energy              =   -2066.21227503 Ry
     estimated scf accuracy    <       0.04194346 Ry

     iteration #  9     ecut=    70.00 Ry     beta= 0.70
     Davidson diagonalization with overlap
     ethr =  4.71E-05,  avg # of iterations =  2.1

     total cpu time spent up to now is    25200.6 secs

     total energy              =   -2066.21128351 Ry
     estimated scf accuracy    <       0.02969125 Ry

     iteration # 10     ecut=    70.00 Ry     beta= 0.70
     Davidson diagonalization with overlap
     ethr =  3.34E-05,  avg # of iterations =  1.1

     total cpu time spent up to now is    25255.9 secs

     total energy              =   -2066.20763232 Ry
     estimated scf accuracy    <       0.02768452 Ry

     iteration # 11     ecut=    70.00 Ry     beta= 0.70
     Davidson diagonalization with overlap
     ethr =  3.11E-05,  avg # of iterations =  1.7

     negative rho (up, down):  3.358E-07 0.000E+00

     total cpu time spent up to now is    25312.3 secs

     total energy              =   -2066.19369681 Ry
     estimated scf accuracy    <       0.02164291 Ry

     iteration # 12     ecut=    70.00 Ry     beta= 0.70
     Davidson diagonalization with overlap
     c_bands:  1 eigenvalues not converged
     c_bands:  1 eigenvalues not converged
     c_bands:  1 eigenvalues not converged
     c_bands:  1 eigenvalues not converged
     c_bands:  1 eigenvalues not converged
     ethr =  2.43E-05,  avg # of iterations =  5.2

     negative rho (up, down):  5.596E-08 0.000E+00

     total cpu time spent up to now is    25379.3 secs

     total energy              =   -2066.19582118 Ry
     estimated scf accuracy    <       0.00039193 Ry

     iteration # 13     ecut=    70.00 Ry     beta= 0.70
     Davidson diagonalization with overlap
     c_bands:  1 eigenvalues not converged
     c_bands:  1 eigenvalues not converged
     ethr =  4.40E-07,  avg # of iterations =  7.9

     negative rho (up, down):  7.303E-07 0.000E+00

     total cpu time spent up to now is    25454.6 secs

     total energy              =   -2066.19585728 Ry
     estimated scf accuracy    <       0.00007014 Ry

     iteration # 14     ecut=    70.00 Ry     beta= 0.70
     Davidson diagonalization with overlap
     ethr =  7.88E-08,  avg # of iterations =  2.4

     negative rho (up, down):  7.919E-06 0.000E+00

     total cpu time spent up to now is    25520.4 secs

     total energy              =   -2066.19587173 Ry
     estimated scf accuracy    <       0.00003566 Ry

     iteration # 15     ecut=    70.00 Ry     beta= 0.70
     Davidson diagonalization with overlap
     ethr =  4.01E-08,  avg # of iterations =  2.4

     negative rho (up, down):  5.130E-05 0.000E+00

     total cpu time spent up to now is    25584.7 secs

     total energy              =   -2066.19587561 Ry
     estimated scf accuracy    <       0.00006479 Ry

     iteration # 16     ecut=    70.00 Ry     beta= 0.70
     Davidson diagonalization with overlap
     ethr =  4.01E-08,  avg # of iterations =  2.1

     negative rho (up, down):  5.901E-05 0.000E+00

     total cpu time spent up to now is    25643.6 secs

     total energy              =   -2066.19587773 Ry
     estimated scf accuracy    <       0.00001599 Ry

     iteration # 17     ecut=    70.00 Ry     beta= 0.70
     Davidson diagonalization with overlap
     ethr =  1.80E-08,  avg # of iterations =  1.7

     negative rho (up, down):  6.659E-05 0.000E+00

     total cpu time spent up to now is    25700.7 secs

     total energy              =   -2066.19587909 Ry
     estimated scf accuracy    <       0.00001168 Ry

     iteration # 18     ecut=    70.00 Ry     beta= 0.70
     Davidson diagonalization with overlap
     ethr =  1.31E-08,  avg # of iterations =  1.0

     negative rho (up, down):  6.734E-05 0.000E+00

     total cpu time spent up to now is    25755.6 secs

     total energy              =   -2066.19587939 Ry
     estimated scf accuracy    <       0.00000986 Ry

     iteration # 19     ecut=    70.00 Ry     beta= 0.70
     Davidson diagonalization with overlap
     ethr =  1.11E-08,  avg # of iterations =  1.0

     negative rho (up, down):  7.050E-05 0.000E+00

     total cpu time spent up to now is    25809.6 secs

     total energy              =   -2066.19587958 Ry
     estimated scf accuracy    <       0.00000007 Ry

     iteration # 20     ecut=    70.00 Ry     beta= 0.70
     Davidson diagonalization with overlap
     ethr =  7.40E-11,  avg # of iterations =  2.0

     negative rho (up, down):  7.157E-05 0.000E+00

     total cpu time spent up to now is    25873.5 secs

     total energy              =   -2066.19587959 Ry
     estimated scf accuracy    <          4.7E-09 Ry

     iteration # 21     ecut=    70.00 Ry     beta= 0.70
     Davidson diagonalization with overlap
     ethr =  5.34E-12,  avg # of iterations =  2.5

     negative rho (up, down):  7.138E-05 0.000E+00

     total cpu time spent up to now is    25941.3 secs

     total energy              =   -2066.19587959 Ry
     estimated scf accuracy    <          1.3E-09 Ry

     iteration # 22     ecut=    70.00 Ry     beta= 0.70
     Davidson diagonalization with overlap
     ethr =  1.44E-12,  avg # of iterations =  2.0

     negative rho (up, down):  7.144E-05 0.000E+00

     total cpu time spent up to now is    26007.4 secs

     total energy              =   -2066.19587959 Ry
     estimated scf accuracy    <          1.1E-10 Ry

     iteration # 23     ecut=    70.00 Ry     beta= 0.70
     Davidson diagonalization with overlap
     ethr =  1.28E-13,  avg # of iterations =  2.5

     negative rho (up, down):  7.141E-05 0.000E+00

     total cpu time spent up to now is    26070.0 secs

     total energy              =   -2066.19587959 Ry
     estimated scf accuracy    <          1.6E-11 Ry

     iteration # 24     ecut=    70.00 Ry     beta= 0.70
     Davidson diagonalization with overlap
     ethr =  1.00E-13,  avg # of iterations =  1.0

     negative rho (up, down):  7.135E-05 0.000E+00

     total cpu time spent up to now is    26124.3 secs

     total energy              =   -2066.19587959 Ry
     estimated scf accuracy    <          2.1E-12 Ry

     iteration # 25     ecut=    70.00 Ry     beta= 0.70
     Davidson diagonalization with overlap
     ethr =  1.00E-13,  avg # of iterations =  1.0

     negative rho (up, down):  7.135E-05 0.000E+00

     total cpu time spent up to now is    26178.7 secs

     total energy              =   -2066.19587959 Ry
     estimated scf accuracy    <          9.4E-13 Ry

     iteration # 26     ecut=    70.00 Ry     beta= 0.70
     Davidson diagonalization with overlap
     ethr =  1.00E-13,  avg # of iterations =  1.0

     negative rho (up, down):  7.134E-05 0.000E+00

     total cpu time spent up to now is    26232.8 secs

     total energy              =   -2066.19587959 Ry
     estimated scf accuracy    <          1.3E-13 Ry

     iteration # 27     ecut=    70.00 Ry     beta= 0.70
     Davidson diagonalization with overlap
     ethr =  1.00E-13,  avg # of iterations =  1.0

     negative rho (up, down):  7.134E-05 0.000E+00

     total cpu time spent up to now is    26286.8 secs

     total energy              =   -2066.19587959 Ry
     estimated scf accuracy    <          3.4E-14 Ry

     iteration # 28     ecut=    70.00 Ry     beta= 0.70
     Davidson diagonalization with overlap
     ethr =  1.00E-13,  avg # of iterations =  1.0

     negative rho (up, down):  7.134E-05 0.000E+00

     total cpu time spent up to now is    26340.8 secs

     total energy              =   -2066.19587959 Ry
     estimated scf accuracy    <          3.4E-13 Ry

     iteration # 29     ecut=    70.00 Ry     beta= 0.70
     Davidson diagonalization with overlap
     ethr =  1.00E-13,  avg # of iterations =  1.0

     negative rho (up, down):  7.134E-05 0.000E+00

     total cpu time spent up to now is    26394.8 secs

     total energy              =   -2066.19587959 Ry
     estimated scf accuracy    <          5.7E-14 Ry

     iteration # 30     ecut=    70.00 Ry     beta= 0.70
     Davidson diagonalization with overlap
     ethr =  1.00E-13,  avg # of iterations =  1.0

     negative rho (up, down):  7.134E-05 0.000E+00

     total cpu time spent up to now is    26448.7 secs

     End of self-consistent calculation

     Number of k-points >= 100: set verbosity='high' to print the bands.

     the Fermi energy is     2.0035 ev

!    total energy              =   -2066.19587959 Ry
     estimated scf accuracy    <          8.4E-15 Ry
     smearing contrib. (-TS)   =       0.00000222 Ry
     internal energy E=F+TS    =   -2066.19588182 Ry

     The total energy is F=E-TS. E is the sum of the following terms:
     one-electron contribution =  -19452.11019647 Ry
     hartree contribution      =    9775.61974338 Ry
     xc contribution           =    -210.58358398 Ry
     ewald contribution        =    7820.87815525 Ry

     convergence has been achieved in  30 iterations

     negative rho (up, down):  7.134E-05 0.000E+00

     Forces acting on atoms (cartesian axes, Ry/au):

     atom    1 type  1   force =    -0.00000009   -0.00000014    0.00068227
     atom    2 type  2   force =    -0.00000104   -0.00000244   -0.00037445
     atom    3 type  1   force =     0.00000001   -0.00000002    0.00000044
     atom    4 type  2   force =     0.00000104    0.00000243    0.00037467
     atom    5 type  1   force =     0.00000008    0.00000017   -0.00068293

     Total force =     0.001101     Total SCF correction =     0.000001


     Computing stress (Cartesian axis) and pressure


     negative rho (up, down):  7.134E-05 0.000E+00
          total   stress  (Ry/bohr**3)                   (kbar)     P=       -0.41
   0.00000009  -0.00000000   0.00000000            0.01       -0.00        0.00
  -0.00000000   0.00000011   0.00000001           -0.00        0.02        0.00
   0.00000000   0.00000001  -0.00000854            0.00        0.00       -1.26


     Writing output data file /scratch/as3359/Ta3C2_loop/Ta.save/
 
     init_run     :    152.66s CPU     87.30s WALL (       2 calls)
     electrons    :  50234.57s CPU  25655.52s WALL (       9 calls)
     update_pot   :    226.63s CPU    139.75s WALL (       7 calls)
     forces       :    278.74s CPU    142.21s WALL (       9 calls)
     stress       :    951.07s CPU    484.48s WALL (       9 calls)

     Called by init_run:
     wfcinit      :     94.86s CPU     48.61s WALL (       2 calls)
     potinit      :     16.74s CPU      8.43s WALL (       2 calls)
     hinit0       :     36.37s CPU     27.16s WALL (       2 calls)

     Called by electrons:
     c_bands      :  42456.99s CPU  21518.41s WALL (     357 calls)
     sum_band     :   6885.03s CPU   3587.59s WALL (     357 calls)
     v_of_rho     :    130.08s CPU     70.91s WALL (     366 calls)
     newd         :    744.27s CPU    470.50s WALL (     366 calls)
     mix_rho      :     24.67s CPU     13.27s WALL (     357 calls)

     Called by c_bands:
     init_us_2    :    724.65s CPU    362.98s WALL (  148268 calls)
     cegterg      :  39629.56s CPU  20096.95s WALL (   72337 calls)

     Called by *egterg:
     cdiaghg      :   1662.34s CPU    847.81s WALL (  361858 calls)
     h_psi        :  29470.63s CPU  14994.63s WALL (  363848 calls)
     s_psi        :   1700.90s CPU    851.59s WALL (  363848 calls)
     g_psi        :    204.57s CPU    102.69s WALL (  291107 calls)

     Called by h_psi:
     h_psi:calbec :   1447.50s CPU    726.26s WALL (  363848 calls)
     vloc_psi     :  25953.34s CPU  13231.82s WALL (  363848 calls)
     add_vuspsi   :   1870.23s CPU    936.55s WALL (  363848 calls)

     General routines
     calbec       :   1961.85s CPU    984.40s WALL (  445052 calls)
     fft          :     71.56s CPU     38.81s WALL (    4972 calls)
     ffts         :      2.81s CPU      1.48s WALL (     723 calls)
     fftw         :  26615.75s CPU  13583.27s WALL (24535050 calls)
     interpolate  :      8.13s CPU      4.21s WALL (     366 calls)
 
     Parallel routines
 
     PWSCF        :     14h24m CPU      7h22m WALL

 
   This run was terminated on:   5:16:33  27Mar2022            

=------------------------------------------------------------------------------=
   JOB DONE.
=------------------------------------------------------------------------------=
