
     Program PWSCF v.6.8 starts on 21Apr2022 at 21:33:29 

     This program is part of the open-source Quantum ESPRESSO suite
     for quantum simulation of materials; please cite
         "P. Giannozzi et al., J. Phys.:Condens. Matter 21 395502 (2009);
         "P. Giannozzi et al., J. Phys.:Condens. Matter 29 465901 (2017);
         "P. Giannozzi et al., J. Chem. Phys. 152 154105 (2020);
          URL http://www.quantum-espresso.org", 
     in publications or presentations arising from this work. More details at
     http://www.quantum-espresso.org/quote

     Parallel version (MPI & OpenMP), running on       4 processor cores
     Number of MPI processes:                 2
     Threads/MPI process:                     2

     MPI processes distributed on     1 nodes
     R & G space division:  proc/nbgrp/npool/nimage =       2
     119306 MiB available memory on the printing compute node when the environment starts
 
     Waiting for input...
     Reading input from standard input

     Current dimensions of program PWSCF are:
     Max number of different atomic species (ntypx) = 10
     Max number of k-points (npk) =  40000
     Max angular momentum in pseudopotentials (lmaxx) =  4

     Atomic positions and unit cell read from directory:
     /scratch/as3359/Ta2CH_bandsdos/Ta.save/
 
     file Ta.pbesol-spfn-rrkjus_psl.1.0.0.UPF: wavefunction(s)  5S 5P renormalized
     Message from routine setup:
     using ibrav=0 with symmetry is DISCOURAGED, use correct ibrav instead

     Subspace diagonalization in iterative solution of the eigenvalue problem:
     a serial algorithm will be used

 
     Parallelization info
     --------------------
     sticks:   dense  smooth     PW     G-vecs:    dense   smooth      PW
     Min         807     690    189               250889   199152   29477
     Max         808     691    190               250920   199153   29510
     Sum        1615    1381    379               501809   398305   58987
 
     Using Slab Decomposition
 


     bravais-lattice index     =            0
     lattice parameter (alat)  =       5.5500  a.u.
     unit-cell volume          =    1604.3345 (a.u.)^3
     number of atoms/cell      =            4
     number of atomic types    =            3
     number of electrons       =        59.00
     number of Kohn-Sham states=           42
     kinetic-energy cutoff     =     150.0000  Ry
     charge density cutoff     =     700.0000  Ry
     Exchange-correlation= PBESOL
                           (   1   4  10   8   0   0   0)

     celldm(1)=   5.550000  celldm(2)=   0.000000  celldm(3)=   0.000000
     celldm(4)=   0.000000  celldm(5)=   0.000000  celldm(6)=   0.000000

     crystal axes: (cart. coord. in units of alat)
               a(1) = (   1.040981   0.000000   0.000000 )  
               a(2) = (  -0.520490   0.901516   0.000000 )  
               a(3) = (   0.000000   0.000000  10.000000 )  

     reciprocal axes: (cart. coord. in units 2 pi/alat)
               b(1) = (  0.960633  0.554621  0.000000 )  
               b(2) = (  0.000000  1.109243  0.000000 )  
               b(3) = (  0.000000  0.000000  0.100000 )  


     PseudoPot. # 1 for Ta read from file:
     /shared/home/as3359/pseudo/Ta.pbesol-spfn-rrkjus_psl.1.0.0.UPF
     MD5 check sum: f099565ffaca9b150a52e9412a28e20b
     Pseudo is Ultrasoft + core correction, Zval = 27.0
     Generated using &quot;atomic&quot; code by A. Dal Corso  v.6.3
     Using radial grid of 1273 points,  8 beta functions with: 
                l(1) =   0
                l(2) =   0
                l(3) =   1
                l(4) =   1
                l(5) =   2
                l(6) =   2
                l(7) =   3
                l(8) =   3
     Q(r) pseudized with 0 coefficients 


     PseudoPot. # 2 for C  read from file:
     /shared/home/as3359/pseudo/C.pbesol-n-rrkjus_psl.1.0.0.UPF
     MD5 check sum: 05995be603a8a7c99da3dc4413f31573
     Pseudo is Ultrasoft + core correction, Zval =  4.0
     Generated using &quot;atomic&quot; code by A. Dal Corso  v.6.3MaX
     Using radial grid of 1073 points,  4 beta functions with: 
                l(1) =   0
                l(2) =   0
                l(3) =   1
                l(4) =   1
     Q(r) pseudized with 0 coefficients 


     PseudoPot. # 3 for H  read from file:
     /shared/home/as3359/pseudo/H.pbesol-rrkjus_psl.0.1.UPF
     MD5 check sum: 1dbb1a5c48b1283557b8117eb856a7ca
     Pseudo is Ultrasoft, Zval =  1.0
     Generated using "atomic" code by A. Dal Corso  v.5.0.2 svn rev. 9415
     Using radial grid of  929 points,  2 beta functions with: 
                l(1) =   0
                l(2) =   0
     Q(r) pseudized with 0 coefficients 


     atomic species   valence    mass     pseudopotential
        Ta            27.00   180.94788     Ta( 1.00)
        C              4.00    12.01070     C ( 1.00)
        H              1.00     1.00000     H ( 1.00)

      6 Sym. Ops. (no inversion) found



   Cartesian axes

     site n.     atom                  positions (alat units)
         1           C   tau(   1) = (   0.0000000   0.0000000   0.0000000  )
         2           Ta  tau(   2) = (   0.5204903   0.3005052  -0.4156024  )
         3           Ta  tau(   3) = (   0.0000000   0.6010105   0.4260806  )
         4           H   tau(   4) = (   0.0000000   0.6010105   1.0359681  )

     number of k points=    91  Marzari-Vanderbilt smearing, width (Ry)=  0.0010
                       cart. coord. in units 2pi/alat
        k(    1) = (   0.0000000   0.0000000   0.0000000), wk =   0.0219780
        k(    2) = (   0.0213474  -0.0000000   0.0000000), wk =   0.0219780
        k(    3) = (   0.0426948  -0.0000000   0.0000000), wk =   0.0219780
        k(    4) = (   0.0640422  -0.0000000   0.0000000), wk =   0.0219780
        k(    5) = (   0.0853896  -0.0000000   0.0000000), wk =   0.0219780
        k(    6) = (   0.1067370  -0.0000000   0.0000000), wk =   0.0219780
        k(    7) = (   0.1280843  -0.0000000   0.0000000), wk =   0.0219780
        k(    8) = (   0.1494317  -0.0000000   0.0000000), wk =   0.0219780
        k(    9) = (   0.1707791  -0.0000000   0.0000000), wk =   0.0219780
        k(   10) = (   0.1921265  -0.0000000   0.0000000), wk =   0.0219780
        k(   11) = (   0.2134739  -0.0000000   0.0000000), wk =   0.0219780
        k(   12) = (   0.2348213  -0.0000000   0.0000000), wk =   0.0219780
        k(   13) = (   0.2561687  -0.0000000   0.0000000), wk =   0.0219780
        k(   14) = (   0.2775161  -0.0000000   0.0000000), wk =   0.0219780
        k(   15) = (   0.2988635  -0.0000000   0.0000000), wk =   0.0219780
        k(   16) = (   0.3202109  -0.0000000   0.0000000), wk =   0.0219780
        k(   17) = (   0.3415583  -0.0000000   0.0000000), wk =   0.0219780
        k(   18) = (   0.3629057  -0.0000000   0.0000000), wk =   0.0219780
        k(   19) = (   0.3842530  -0.0000000   0.0000000), wk =   0.0219780
        k(   20) = (   0.4056004  -0.0000000   0.0000000), wk =   0.0219780
        k(   21) = (   0.4269478  -0.0000000   0.0000000), wk =   0.0219780
        k(   22) = (   0.4482952  -0.0000000   0.0000000), wk =   0.0219780
        k(   23) = (   0.4696426  -0.0000000   0.0000000), wk =   0.0219780
        k(   24) = (   0.4909900  -0.0000000   0.0000000), wk =   0.0219780
        k(   25) = (   0.5123374  -0.0000000   0.0000000), wk =   0.0219780
        k(   26) = (   0.5336848  -0.0000000   0.0000000), wk =   0.0219780
        k(   27) = (   0.5550322  -0.0000000   0.0000000), wk =   0.0219780
        k(   28) = (   0.5763796  -0.0000000   0.0000000), wk =   0.0219780
        k(   29) = (   0.5977270  -0.0000000   0.0000000), wk =   0.0219780
        k(   30) = (   0.6190743  -0.0000000   0.0000000), wk =   0.0219780
        k(   31) = (   0.6404217  -0.0000000   0.0000000), wk =   0.0219780
        k(   32) = (   0.6350849  -0.0092437   0.0000000), wk =   0.0219780
        k(   33) = (   0.6297480  -0.0184874   0.0000000), wk =   0.0219780
        k(   34) = (   0.6244112  -0.0277311   0.0000000), wk =   0.0219780
        k(   35) = (   0.6190743  -0.0369748   0.0000000), wk =   0.0219780
        k(   36) = (   0.6137375  -0.0462185   0.0000000), wk =   0.0219780
        k(   37) = (   0.6084007  -0.0554621   0.0000000), wk =   0.0219780
        k(   38) = (   0.6030638  -0.0647058   0.0000000), wk =   0.0219780
        k(   39) = (   0.5977270  -0.0739495   0.0000000), wk =   0.0219780
        k(   40) = (   0.5923901  -0.0831932   0.0000000), wk =   0.0219780
        k(   41) = (   0.5870533  -0.0924369   0.0000000), wk =   0.0219780
        k(   42) = (   0.5817164  -0.1016806   0.0000000), wk =   0.0219780
        k(   43) = (   0.5763796  -0.1109243   0.0000000), wk =   0.0219780
        k(   44) = (   0.5710427  -0.1201680   0.0000000), wk =   0.0219780
        k(   45) = (   0.5657059  -0.1294117   0.0000000), wk =   0.0219780
        k(   46) = (   0.5603690  -0.1386554   0.0000000), wk =   0.0219780
        k(   47) = (   0.5550322  -0.1478991   0.0000000), wk =   0.0219780
        k(   48) = (   0.5496953  -0.1571428   0.0000000), wk =   0.0219780
        k(   49) = (   0.5443585  -0.1663864   0.0000000), wk =   0.0219780
        k(   50) = (   0.5390216  -0.1756301   0.0000000), wk =   0.0219780
        k(   51) = (   0.5336848  -0.1848738   0.0000000), wk =   0.0219780
        k(   52) = (   0.5283479  -0.1941175   0.0000000), wk =   0.0219780
        k(   53) = (   0.5230111  -0.2033612   0.0000000), wk =   0.0219780
        k(   54) = (   0.5176742  -0.2126049   0.0000000), wk =   0.0219780
        k(   55) = (   0.5123374  -0.2218486   0.0000000), wk =   0.0219780
        k(   56) = (   0.5070005  -0.2310923   0.0000000), wk =   0.0219780
        k(   57) = (   0.5016637  -0.2403360   0.0000000), wk =   0.0219780
        k(   58) = (   0.4963268  -0.2495797   0.0000000), wk =   0.0219780
        k(   59) = (   0.4909900  -0.2588234   0.0000000), wk =   0.0219780
        k(   60) = (   0.4856532  -0.2680671   0.0000000), wk =   0.0219780
        k(   61) = (   0.4803163  -0.2773107   0.0000000), wk =   0.0219780
        k(   62) = (   0.4643058  -0.2680671   0.0000000), wk =   0.0219780
        k(   63) = (   0.4482952  -0.2588234   0.0000000), wk =   0.0219780
        k(   64) = (   0.4322847  -0.2495797   0.0000000), wk =   0.0219780
        k(   65) = (   0.4162741  -0.2403360   0.0000000), wk =   0.0219780
        k(   66) = (   0.4002636  -0.2310923   0.0000000), wk =   0.0219780
        k(   67) = (   0.3842530  -0.2218486   0.0000000), wk =   0.0219780
        k(   68) = (   0.3682425  -0.2126049   0.0000000), wk =   0.0219780
        k(   69) = (   0.3522320  -0.2033612   0.0000000), wk =   0.0219780
        k(   70) = (   0.3362214  -0.1941175   0.0000000), wk =   0.0219780
        k(   71) = (   0.3202109  -0.1848738   0.0000000), wk =   0.0219780
        k(   72) = (   0.3042003  -0.1756301   0.0000000), wk =   0.0219780
        k(   73) = (   0.2881898  -0.1663864   0.0000000), wk =   0.0219780
        k(   74) = (   0.2721792  -0.1571428   0.0000000), wk =   0.0219780
        k(   75) = (   0.2561687  -0.1478991   0.0000000), wk =   0.0219780
        k(   76) = (   0.2401582  -0.1386554   0.0000000), wk =   0.0219780
        k(   77) = (   0.2241476  -0.1294117   0.0000000), wk =   0.0219780
        k(   78) = (   0.2081371  -0.1201680   0.0000000), wk =   0.0219780
        k(   79) = (   0.1921265  -0.1109243   0.0000000), wk =   0.0219780
        k(   80) = (   0.1761160  -0.1016806   0.0000000), wk =   0.0219780
        k(   81) = (   0.1601054  -0.0924369   0.0000000), wk =   0.0219780
        k(   82) = (   0.1440949  -0.0831932   0.0000000), wk =   0.0219780
        k(   83) = (   0.1280843  -0.0739495   0.0000000), wk =   0.0219780
        k(   84) = (   0.1120738  -0.0647058   0.0000000), wk =   0.0219780
        k(   85) = (   0.0960633  -0.0554621   0.0000000), wk =   0.0219780
        k(   86) = (   0.0800527  -0.0462185   0.0000000), wk =   0.0219780
        k(   87) = (   0.0640422  -0.0369748   0.0000000), wk =   0.0219780
        k(   88) = (   0.0480316  -0.0277311   0.0000000), wk =   0.0219780
        k(   89) = (   0.0320211  -0.0184874   0.0000000), wk =   0.0219780
        k(   90) = (   0.0160105  -0.0092437   0.0000000), wk =   0.0219780
        k(   91) = (   0.0000000   0.0000000   0.0000000), wk =   0.0219780

     Dense  grid:   501809 G-vectors     FFT dimensions: (  50,  50, 480)

     Smooth grid:   398305 G-vectors     FFT dimensions: (  45,  45, 450)

     Estimated max dynamical RAM per process >       2.23 GB

     Estimated total dynamical RAM >       4.46 GB

     The potential is recalculated from file :
     /scratch/as3359/Ta2CH_bandsdos/Ta.save/charge-density


     negative rho (up, down):  7.009E-05 0.000E+00
     Starting wfcs are   39 randomized atomic wfcs +    3 random wfcs

     Band Structure Calculation
     Davidson diagonalization with overlap

     ethr =  1.00E-13,  avg # of iterations = 65.8

     total cpu time spent up to now is      667.3 secs

     End of band structure calculation

          k = 0.0000 0.0000 0.0000 ( 49849 PWs)   bands (ev):

   -69.2055 -68.8676 -36.0286 -35.3283 -35.3283 -35.2727 -35.1240 -35.1240
   -20.8845 -20.8480 -20.8480 -20.8385 -20.8385 -20.8163 -20.7544 -20.5445
   -20.5056 -20.5056 -20.4815 -20.4533 -20.4445 -20.4445 -14.0446  -8.4975
    -5.0075  -5.0075  -4.3622  -2.8725  -1.7745  -1.0249  -1.0249   0.9466
     0.9466   1.9199   1.9199   2.4899   3.5980   4.2080   4.7365   5.2551
     5.4538   6.2388

          k = 0.0213-0.0000 0.0000 ( 49869 PWs)   bands (ev):

   -69.2054 -68.8675 -36.0281 -35.3319 -35.3290 -35.2716 -35.1265 -35.1246
   -20.8844 -20.8481 -20.8481 -20.8385 -20.8385 -20.8161 -20.7545 -20.5443
   -20.5056 -20.5055 -20.4816 -20.4532 -20.4446 -20.4445 -14.0384  -8.4856
    -5.0344  -5.0053  -4.3491  -2.8668  -1.7720  -1.0437  -1.0148   0.9046
     0.9342   1.9245   1.9357   2.5403   3.6111   4.2215   4.7449   5.2635
     5.4638   6.2401

          k = 0.0427-0.0000 0.0000 ( 49877 PWs)   bands (ev):

   -69.2049 -68.8670 -36.0264 -35.3419 -35.3310 -35.2690 -35.1339 -35.1261
   -20.8842 -20.8484 -20.8481 -20.8386 -20.8383 -20.8157 -20.7550 -20.5439
   -20.5057 -20.5054 -20.4821 -20.4530 -20.4449 -20.4446 -14.0197  -8.4500
    -5.1086  -4.9993  -4.3150  -2.8505  -1.7648  -1.0990  -0.9845   0.8011
     0.8973   1.9391   1.9710   2.6807   3.6495   4.2615   4.7703   5.2887
     5.4934   6.2363

          k = 0.0640-0.0000 0.0000 ( 49873 PWs)   bands (ev):

   -69.2041 -68.8662 -36.0238 -35.3572 -35.3343 -35.2657 -35.1459 -35.1288
   -20.8838 -20.8488 -20.8482 -20.8387 -20.8379 -20.8150 -20.7557 -20.5432
   -20.5057 -20.5051 -20.4829 -20.4527 -20.4453 -20.4447 -13.9889  -8.3913
    -5.2173  -4.9904  -4.2690  -2.8256  -1.7545  -1.1877  -0.9345   0.6757
     0.8373   1.9647   2.0124   2.8838   3.7116   4.3274   4.8126   5.3305
     5.5416   6.2170

          k = 0.0854-0.0000 0.0000 ( 49845 PWs)   bands (ev):

   -69.2030 -68.8651 -36.0201 -35.3769 -35.3390 -35.2624 -35.1623 -35.1326
   -20.8834 -20.8494 -20.8483 -20.8389 -20.8375 -20.8140 -20.7567 -20.5423
   -20.5058 -20.5047 -20.4839 -20.4522 -20.4458 -20.4448 -13.9467  -8.3103
    -5.3489  -4.9809  -4.2172  -2.7948  -1.7434  -1.3046  -0.8656   0.5581
     0.7578   1.9976   2.0604   3.1195   3.7956   4.4179   4.8718   5.3888
     5.6067   6.1852

          k = 0.1067-0.0000 0.0000 ( 49835 PWs)   bands (ev):

   -69.2015 -68.8637 -36.0155 -35.4006 -35.3453 -35.2592 -35.1827 -35.1375
   -20.8828 -20.8501 -20.8485 -20.8391 -20.8370 -20.8128 -20.7580 -20.5411
   -20.5060 -20.5042 -20.4852 -20.4516 -20.4465 -20.4450 -13.8938  -8.2082
    -5.4952  -4.9733  -4.1612  -2.7610  -1.7366  -1.4395  -0.7801   0.4647
     0.6648   2.0291   2.1230   3.3643   3.9012   4.5314   4.9482   5.4634
     5.6856   6.1488

          k = 0.1281-0.0000 0.0000 ( 49827 PWs)   bands (ev):

   -69.1999 -68.8621 -36.0101 -35.4277 -35.3531 -35.2563 -35.2063 -35.1436
   -20.8820 -20.8509 -20.8487 -20.8392 -20.8363 -20.8113 -20.7596 -20.5397
   -20.5061 -20.5036 -20.4868 -20.4509 -20.4473 -20.4452 -13.8311  -8.0866
    -5.6502  -4.9709  -4.1006  -2.7264  -1.7550  -1.5642  -0.6826   0.4034
     0.5677   2.0532   2.2044   3.5996   4.0299   4.6660   5.0417   5.5537
     5.7723   6.1171

          k = 0.1494-0.0000 0.0000 ( 49793 PWs)   bands (ev):

   -69.1979 -68.8602 -36.0040 -35.4577 -35.3627 -35.2539 -35.2323 -35.1508
   -20.8812 -20.8519 -20.8489 -20.8394 -20.8355 -20.8096 -20.7613 -20.5381
   -20.5062 -20.5029 -20.4885 -20.4501 -20.4482 -20.4455 -13.7599  -7.9474
    -5.8090  -4.9773  -4.0337  -2.6930  -1.8569  -1.6115  -0.5824   0.3768
     0.4800   2.0685   2.3028   3.8129   4.1829   4.8187   5.1525   5.6589
     5.8502   6.1090

          k = 0.1708-0.0000 0.0000 ( 49819 PWs)   bands (ev):

   -69.1958 -68.8581 -35.9973 -35.4902 -35.3744 -35.2629 -35.2487 -35.1593
   -20.8803 -20.8529 -20.8492 -20.8396 -20.8347 -20.8077 -20.7632 -20.5363
   -20.5064 -20.5022 -20.4905 -20.4493 -20.4491 -20.4457 -13.6813  -7.7926
    -5.9678  -4.9954  -3.9586  -2.6617  -2.0176  -1.5964  -0.4979   0.3843
     0.4225   2.0754   2.4156   4.0006   4.3566   4.9853   5.2799   5.7767
     5.8872   6.1596

          k = 0.1921-0.0000 0.0000 ( 49799 PWs)   bands (ev):

   -69.1934 -68.8558 -35.9902 -35.5246 -35.3885 -35.2909 -35.2469 -35.1689
   -20.8793 -20.8540 -20.8495 -20.8398 -20.8338 -20.8057 -20.7653 -20.5343
   -20.5065 -20.5016 -20.4925 -20.4502 -20.4482 -20.4461 -13.5968  -7.6249
    -6.1236  -5.0272  -3.8742  -2.6327  -2.1900  -1.5567  -0.4561   0.4154
     0.4319   2.0744   2.5403   4.1695   4.5421   5.1603   5.4217   5.8664
     5.9197   6.2717

          k = 0.2135-0.0000 0.0000 ( 49793 PWs)   bands (ev):

   -69.1909 -68.8534 -35.9829 -35.5602 -35.4056 -35.3192 -35.2444 -35.1797
   -20.8783 -20.8552 -20.8499 -20.8400 -20.8328 -20.8035 -20.7675 -20.5322
   -20.5066 -20.5010 -20.4946 -20.4513 -20.4471 -20.4464 -13.5077  -7.4469
    -6.2738  -5.0734  -3.7801  -2.6056  -2.3593  -1.4993  -0.4752   0.4638
     0.5293   2.0672   2.6755   4.3277   4.7315   5.3386   5.5732   5.8484
     6.0524   6.4180

          k = 0.2348-0.0000 0.0000 ( 49757 PWs)   bands (ev):

   -69.1883 -68.8508 -35.9755 -35.5965 -35.4261 -35.3461 -35.2419 -35.1915
   -20.8772 -20.8564 -20.8503 -20.8402 -20.8318 -20.8012 -20.7698 -20.5300
   -20.5067 -20.5009 -20.4964 -20.4524 -20.4468 -20.4460 -13.4156  -7.2618
    -6.4161  -5.1334  -3.6770  -2.5811  -2.5168  -1.4250  -0.5451   0.5374
     0.6916   2.0562   2.8202   4.4799   4.9218   5.5154   5.7282   5.8227
     6.1971   6.5849

          k = 0.2562-0.0000 0.0000 ( 49747 PWs)   bands (ev):

   -69.1856 -68.8482 -35.9683 -35.6327 -35.4500 -35.3706 -35.2397 -35.2042
   -20.8761 -20.8576 -20.8508 -20.8403 -20.8308 -20.7988 -20.7722 -20.5277
   -20.5068 -20.5018 -20.4971 -20.4535 -20.4473 -20.4448 -13.3219  -7.0732
    -6.5487  -5.2055  -3.5664  -2.6664  -2.5490  -1.3345  -0.6439   0.6230
     0.9033   2.0458   2.9741   4.6270   5.1123   5.6810   5.7922   5.8918
     6.3503   6.7674

          k = 0.2775-0.0000 0.0000 ( 49735 PWs)   bands (ev):

   -69.1828 -68.8455 -35.9615 -35.6683 -35.4764 -35.3929 -35.2384 -35.2172
   -20.8750 -20.8588 -20.8512 -20.8404 -20.8298 -20.7964 -20.7746 -20.5254
   -20.5068 -20.5037 -20.4970 -20.4545 -20.4477 -20.4436 -13.2279  -6.8859
    -6.6688  -5.2873  -3.4503  -2.7914  -2.5205  -1.2294  -0.7551   0.7122
     1.1477   2.0420   3.1371   4.7682   5.3018   5.7612   5.8252   6.0643
     6.5171   6.9625

          k = 0.2989-0.0000 0.0000 ( 49683 PWs)   bands (ev):

   -69.1800 -68.8427 -35.9553 -35.7026 -35.5039 -35.4138 -35.2417 -35.2267
   -20.8739 -20.8599 -20.8518 -20.8404 -20.8288 -20.7940 -20.7770 -20.5231
   -20.5068 -20.5059 -20.4964 -20.4556 -20.4482 -20.4424 -13.1350  -6.7923
    -6.6871  -5.3760  -3.3316  -2.8937  -2.4879  -1.1153  -0.8665   0.7962
     1.4133   2.0524   3.3096   4.9012   5.4845   5.7306   5.9340   6.2621
     6.7016   7.1646

          k = 0.3202-0.0000 0.0000 ( 49723 PWs)   bands (ev):

   -69.1773 -68.8400 -35.9500 -35.7348 -35.5312 -35.4338 -35.2542 -35.2281
   -20.8727 -20.8610 -20.8523 -20.8404 -20.8279 -20.7916 -20.7793 -20.5208
   -20.5084 -20.5067 -20.4958 -20.4566 -20.4488 -20.4412 -13.0443  -6.8841
    -6.5150  -5.4688  -3.2156  -2.9666  -2.4508  -1.0376  -0.9305   0.8668
     1.6908   2.0848   3.4922   5.0230   5.6382   5.6949   6.0397   6.4827
     6.9040   7.3568

          k = 0.3416-0.0000 0.0000 ( 49709 PWs)   bands (ev):

   -69.1746 -68.8374 -35.9457 -35.7646 -35.5573 -35.4535 -35.2704 -35.2268
   -20.8716 -20.8620 -20.8529 -20.8403 -20.8271 -20.7892 -20.7816 -20.5186
   -20.5107 -20.5065 -20.4952 -20.4575 -20.4493 -20.4400 -12.9570  -6.9685
    -6.3494  -5.5626  -3.1219  -2.9896  -2.4088  -1.1144  -0.8304   0.9190
     1.9719   2.1438   3.6851   5.1298   5.6232   5.7623   6.1826   6.7213
     7.1204   7.5398

          k = 0.3629-0.0000 0.0000 ( 49715 PWs)   bands (ev):

   -69.1720 -68.8348 -35.9426 -35.7911 -35.5815 -35.4731 -35.2881 -35.2250
   -20.8705 -20.8629 -20.8535 -20.8402 -20.8263 -20.7871 -20.7838 -20.5166
   -20.5129 -20.5063 -20.4947 -20.4584 -20.4500 -20.4388 -12.8738  -7.0404
    -6.2005  -5.6534  -3.0908  -2.9219  -2.3620  -1.2119  -0.7032   0.9539
     2.2247   2.2513   3.8879   5.2169   5.5424   5.8221   6.3783   6.9752
     7.3442   7.7234

          k = 0.3843-0.0000 0.0000 ( 49725 PWs)   bands (ev):

   -69.1694 -68.8324 -35.9408 -35.8141 -35.6034 -35.4925 -35.3067 -35.2232
   -20.8695 -20.8637 -20.8541 -20.8400 -20.8257 -20.7866 -20.7842 -20.5158
   -20.5139 -20.5059 -20.4942 -20.4592 -20.4506 -20.4378 -12.7955  -7.0991
    -6.0783  -5.7327  -3.0724  -2.8135  -2.3115  -1.3013  -0.5828   0.9793
     2.3263   2.5125   4.0989   5.2785   5.4330   5.8613   6.6117   7.2428
     7.5647   7.9153

          k = 0.4056-0.0000 0.0000 ( 49693 PWs)   bands (ev):

   -69.1671 -68.8301 -35.9401 -35.8330 -35.6232 -35.5115 -35.3259 -35.2215
   -20.8684 -20.8643 -20.8548 -20.8398 -20.8252 -20.7885 -20.7824 -20.5175
   -20.5124 -20.5054 -20.4938 -20.4599 -20.4513 -20.4368 -12.7228  -7.1449
    -6.0103  -5.7732  -3.0326  -2.6998  -2.2598  -1.3775  -0.4800   1.0063
     2.4281   2.7529   4.3138   5.2931   5.3112   5.9066   6.8696   7.5214
     7.7683   8.1289

          k = 0.4269-0.0000 0.0000 ( 49703 PWs)   bands (ev):

   -69.1649 -68.8279 -35.9403 -35.8478 -35.6411 -35.5298 -35.3457 -35.2199
   -20.8674 -20.8648 -20.8555 -20.8395 -20.8249 -20.7904 -20.7805 -20.5194
   -20.5108 -20.5048 -20.4934 -20.4605 -20.4520 -20.4359 -12.6559  -7.1779
    -6.0308  -5.7400  -2.9676  -2.5868  -2.2100  -1.4372  -0.4028   1.0455
     2.5169   2.9606   4.5241   5.1318   5.3121   5.9763   7.1435   7.7995
     7.9591   8.3652

          k = 0.4483-0.0000 0.0000 ( 49723 PWs)   bands (ev):

   -69.1629 -68.8260 -35.9406 -35.8585 -35.6577 -35.5469 -35.3657 -35.2184
   -20.8666 -20.8652 -20.8562 -20.8392 -20.8247 -20.7922 -20.7787 -20.5212
   -20.5095 -20.5041 -20.4932 -20.4610 -20.4527 -20.4351 -12.5952  -7.1983
    -6.0988  -5.6726  -2.8804  -2.4759  -2.1655  -1.4779  -0.3555   1.1026
     2.5790   3.1233   4.7029   4.9718   5.2985   6.0780   7.4233   8.0301
     8.1943   8.5156

          k = 0.4696-0.0000 0.0000 ( 49725 PWs)   bands (ev):

   -69.1611 -68.8242 -35.9404 -35.8656 -35.6738 -35.5622 -35.3858 -35.2171
   -20.8659 -20.8651 -20.8569 -20.8388 -20.8246 -20.7938 -20.7772 -20.5227
   -20.5083 -20.5033 -20.4931 -20.4613 -20.4534 -20.4344 -12.5408  -7.2065
    -6.1782  -5.6047  -2.7762  -2.3684  -2.1283  -1.4991  -0.3370   1.1766
     2.6052   3.2248   4.6978   4.9676   5.2970   6.2104   7.6900   8.2111
     8.4664   8.5953

          k = 0.4910-0.0000 0.0000 ( 49727 PWs)   bands (ev):

   -69.1595 -68.8227 -35.9386 -35.8695 -35.6903 -35.5749 -35.4058 -35.2159
   -20.8658 -20.8645 -20.8576 -20.8384 -20.8247 -20.7953 -20.7758 -20.5241
   -20.5073 -20.5024 -20.4931 -20.4615 -20.4542 -20.4338 -12.4930  -7.2028
    -6.2599  -5.5434  -2.6616  -2.2676  -2.0958  -1.5031  -0.3417   1.2606
     2.5938   3.2457   4.5607   5.0641   5.3481   6.3642   7.9128   8.3897
     8.5794   8.8657

          k = 0.5123-0.0000 0.0000 ( 49765 PWs)   bands (ev):

   -69.1581 -68.8213 -35.9346 -35.8710 -35.7078 -35.5846 -35.4253 -35.2149
   -20.8657 -20.8638 -20.8584 -20.8379 -20.8249 -20.7967 -20.7746 -20.5253
   -20.5064 -20.5016 -20.4932 -20.4616 -20.4549 -20.4333 -12.4516  -7.1874
    -6.3415  -5.4894  -2.5441  -2.1824  -2.0571  -1.4960  -0.3617   1.3444
     2.5508   3.1754   4.4533   5.1242   5.4564   6.5245   8.0691   8.5406
     8.6922   9.1904

          k = 0.5337-0.0000 0.0000 ( 49765 PWs)   bands (ev):

   -69.1570 -68.8202 -35.9278 -35.8708 -35.7266 -35.5911 -35.4441 -35.2141
   -20.8655 -20.8632 -20.8591 -20.8374 -20.8252 -20.7978 -20.7736 -20.5263
   -20.5056 -20.5009 -20.4934 -20.4616 -20.4557 -20.4329 -12.4168  -7.1606
    -6.4224  -5.4420  -2.4313  -2.1261  -1.9958  -1.4863  -0.3898   1.4179
     2.4880   3.0315   4.3893   5.1809   5.5740   6.6736   8.1712   8.6641
     8.7921   9.4856

          k = 0.5550-0.0000 0.0000 ( 49777 PWs)   bands (ev):

   -69.1561 -68.8193 -35.9181 -35.8693 -35.7464 -35.5945 -35.4618 -35.2134
   -20.8652 -20.8626 -20.8598 -20.8370 -20.8256 -20.7987 -20.7728 -20.5271
   -20.5048 -20.5002 -20.4936 -20.4614 -20.4565 -20.4326 -12.3886  -7.1227
    -6.5029  -5.4010  -2.3310  -2.0885  -1.9191  -1.4832  -0.4198   1.4732
     2.4176   2.8561   4.3540   5.2534   5.6686   6.7983   8.2539   8.7020
     8.9169   9.7928

          k = 0.5764-0.0000 0.0000 ( 49777 PWs)   bands (ev):

   -69.1554 -68.8187 -35.9057 -35.8672 -35.7669 -35.5951 -35.4777 -35.2128
   -20.8648 -20.8622 -20.8606 -20.8365 -20.8260 -20.7994 -20.7722 -20.5277
   -20.5042 -20.4998 -20.4939 -20.4612 -20.4573 -20.4324 -12.3669  -7.0740
    -6.5832  -5.3669  -2.2507  -2.0493  -1.8456  -1.4947  -0.4473   1.5071
     2.3462   2.6942   4.3342   5.3396   5.7251   6.8963   8.3391   8.6575
     9.1147   9.7431

          k = 0.5977-0.0000 0.0000 ( 49791 PWs)   bands (ev):

   -69.1549 -68.8182 -35.8912 -35.8650 -35.7873 -35.5938 -35.4911 -35.2124
   -20.8643 -20.8618 -20.8613 -20.8362 -20.8264 -20.7999 -20.7718 -20.5281
   -20.5036 -20.4994 -20.4942 -20.4607 -20.4580 -20.4322 -12.3516  -7.0155
    -6.6633  -5.3406  -2.1946  -1.9996  -1.7871  -1.5252  -0.4693   1.5225
     2.2761   2.5800   4.3235   5.4301   5.7375   6.9739   8.4161   8.6150
     9.3212   9.5823

          k = 0.6191-0.0000 0.0000 ( 49825 PWs)   bands (ev):

   -69.1547 -68.8179 -35.8777 -35.8623 -35.8054 -35.5916 -35.5005 -35.2122
   -20.8638 -20.8619 -20.8616 -20.8359 -20.8266 -20.8002 -20.7716 -20.5283
   -20.5033 -20.4992 -20.4944 -20.4602 -20.4587 -20.4321 -12.3426  -6.9509
    -6.7401  -5.3237  -2.1607  -1.9445  -1.7568  -1.5655  -0.4834   1.5264
     2.2194   2.5217   4.3188   5.5133   5.7121   7.0330   8.4436   8.6168
     9.4446   9.5055

          k = 0.6404-0.0000 0.0000 ( 49815 PWs)   bands (ev):

   -69.1546 -68.8179 -35.8723 -35.8591 -35.8146 -35.5904 -35.5040 -35.2121
   -20.8634 -20.8623 -20.8615 -20.8358 -20.8267 -20.8003 -20.7715 -20.5284
   -20.5031 -20.4992 -20.4945 -20.4598 -20.4592 -20.4321 -12.3396  -6.9082
    -6.7866  -5.3178  -2.1475  -1.9113  -1.7601  -1.5839  -0.4884   1.5264
     2.1975   2.5055   4.3177   5.5586   5.6839   7.0587   8.4378   8.6325
     9.4172   9.5485

          k = 0.6351-0.0092 0.0000 ( 49821 PWs)   bands (ev):

   -69.1546 -68.8179 -35.8735 -35.8606 -35.8118 -35.5908 -35.5030 -35.2121
   -20.8635 -20.8622 -20.8615 -20.8359 -20.8267 -20.8003 -20.7715 -20.5284
   -20.5032 -20.4992 -20.4944 -20.4600 -20.4591 -20.4321 -12.3404  -6.9231
    -6.7709  -5.3193  -2.1525  -1.9234  -1.7520  -1.5803  -0.4871   1.5266
     2.2031   2.5091   4.3179   5.5444   5.6946   7.0503   8.4421   8.6273
     9.4248   9.5385

          k = 0.6297-0.0185 0.0000 ( 49841 PWs)   bands (ev):

   -69.1547 -68.8179 -35.8771 -35.8640 -35.8045 -35.5920 -35.5002 -35.2122
   -20.8638 -20.8619 -20.8616 -20.8359 -20.8266 -20.8002 -20.7716 -20.5283
   -20.5033 -20.4992 -20.4944 -20.4603 -20.4587 -20.4321 -12.3425  -6.9570
    -6.7343  -5.3240  -2.1720  -1.9522  -1.7279  -1.5716  -0.4831   1.5273
     2.2197   2.5193   4.3182   5.5101   5.7193   7.0229   8.4568   8.6131
     9.4425   9.5141

          k = 0.6244-0.0277 0.0000 ( 49827 PWs)   bands (ev):

   -69.1547 -68.8180 -35.8833 -35.8675 -35.7944 -35.5938 -35.4954 -35.2123
   -20.8641 -20.8617 -20.8615 -20.8360 -20.8265 -20.8001 -20.7716 -20.5283
   -20.5035 -20.4993 -20.4942 -20.4606 -20.4583 -20.4322 -12.3459  -6.9985
    -6.6884  -5.3319  -2.2132  -1.9807  -1.6936  -1.5594  -0.4762   1.5283
     2.2463   2.5361   4.3185   5.4669   5.7486   6.9745   8.4802   8.5959
     9.4540   9.4886

          k = 0.6191-0.0370 0.0000 ( 49803 PWs)   bands (ev):

   -69.1549 -68.8182 -35.8913 -35.8705 -35.7827 -35.5963 -35.4890 -35.2125
   -20.8644 -20.8619 -20.8612 -20.8361 -20.8263 -20.8000 -20.7718 -20.5281
   -20.5037 -20.4994 -20.4941 -20.4609 -20.4579 -20.4322 -12.3506  -7.0435
    -6.6374  -5.3429  -2.2785  -1.9994  -1.6535  -1.5446  -0.4664   1.5292
     2.2814   2.5594   4.3189   5.4197   5.7787   6.9046   8.4971   8.5929
     9.4299   9.4862

          k = 0.6137-0.0462 0.0000 ( 49791 PWs)   bands (ev):

   -69.1550 -68.8183 -35.9003 -35.8735 -35.7701 -35.5992 -35.4812 -35.2127
   -20.8647 -20.8620 -20.8609 -20.8363 -20.8261 -20.7997 -20.7719 -20.5280
   -20.5040 -20.4995 -20.4939 -20.4612 -20.4574 -20.4322 -12.3565  -7.0905
    -6.5828  -5.3569  -2.3627  -2.0098  -1.6098  -1.5269  -0.4533   1.5294
     2.3234   2.5894   4.3194   5.3713   5.8082   6.8148   8.4839   8.6262
     9.3934   9.4799

          k = 0.6084-0.0555 0.0000 ( 49777 PWs)   bands (ev):

   -69.1552 -68.8185 -35.9096 -35.8766 -35.7570 -35.6023 -35.4723 -35.2129
   -20.8650 -20.8622 -20.8605 -20.8365 -20.8259 -20.7995 -20.7720 -20.5278
   -20.5044 -20.4997 -20.4936 -20.4615 -20.4570 -20.4323 -12.3636  -7.1391
    -6.5251  -5.3737  -2.4592  -2.0159  -1.5638  -1.5057  -0.4369   1.5284
     2.3707   2.6259   4.3203   5.3233   5.8366   6.7073   8.4517   8.6800
     9.3603   9.4566

          k = 0.6031-0.0647 0.0000 ( 49768 PWs)   bands (ev):

   -69.1554 -68.8187 -35.9190 -35.8799 -35.7436 -35.6055 -35.4624 -35.2132
   -20.8653 -20.8625 -20.8601 -20.8366 -20.8256 -20.7992 -20.7722 -20.5276
   -20.5048 -20.4998 -20.4933 -20.4618 -20.4565 -20.4323 -12.3716  -7.1889
    -6.4648  -5.3930  -2.5634  -2.0205  -1.5174  -1.4792  -0.4169   1.5256
     2.4216   2.6687   4.3221   5.2767   5.8635   6.5852   8.4120   8.7342
     9.3380   9.4195

          k = 0.5977-0.0739 0.0000 ( 49788 PWs)   bands (ev):

   -69.1557 -68.8189 -35.9284 -35.8835 -35.7300 -35.6085 -35.4517 -35.2136
   -20.8656 -20.8627 -20.8597 -20.8368 -20.8253 -20.7989 -20.7724 -20.5274
   -20.5052 -20.5000 -20.4930 -20.4621 -20.4560 -20.4324 -12.3806  -7.2396
    -6.4022  -5.4146  -2.6724  -2.0254  -1.4757  -1.4426  -0.3931   1.5207
     2.4746   2.7170   4.3250   5.2325   5.8884   6.4518   8.3679   8.7739
     9.3319   9.3783

          k = 0.5924-0.0832 0.0000 ( 49800 PWs)   bands (ev):

   -69.1559 -68.8192 -35.9376 -35.8872 -35.7165 -35.6113 -35.4405 -35.2140
   -20.8659 -20.8630 -20.8593 -20.8370 -20.8250 -20.7985 -20.7726 -20.5272
   -20.5056 -20.5002 -20.4927 -20.4624 -20.4555 -20.4324 -12.3904  -7.2910
    -6.3374  -5.4380  -2.7840  -2.0313  -1.4404  -1.3944  -0.3649   1.5133
     2.5284   2.7697   4.3298   5.1917   5.9100   6.3108   8.3204   8.7874
     9.3106   9.3767

          k = 0.5871-0.0924 0.0000 ( 49806 PWs)   bands (ev):

   -69.1562 -68.8194 -35.9465 -35.8912 -35.7033 -35.6137 -35.4288 -35.2144
   -20.8662 -20.8633 -20.8590 -20.8371 -20.8247 -20.7982 -20.7728 -20.5270
   -20.5061 -20.5005 -20.4924 -20.4626 -20.4550 -20.4325 -12.4010  -7.3428
    -6.2708  -5.4630  -2.8967  -2.0387  -1.4064  -1.3404  -0.3321   1.5035
     2.5819   2.8256   4.3367   5.1551   5.9231   6.1695   8.2696   8.7720
     9.2639   9.4270

          k = 0.5817-0.1017 0.0000 ( 49796 PWs)   bands (ev):

   -69.1565 -68.8197 -35.9553 -35.8952 -35.6908 -35.6153 -35.4169 -35.2149
   -20.8665 -20.8637 -20.8586 -20.8373 -20.8244 -20.7978 -20.7731 -20.5267
   -20.5066 -20.5007 -20.4920 -20.4629 -20.4545 -20.4325 -12.4121  -7.3949
    -6.2024  -5.4890  -3.0094  -2.0477  -1.3713  -1.2839  -0.2941   1.4916
     2.6340   2.8828   4.3463   5.1234   5.9010   6.0566   8.2156   8.7335
     9.2159   9.4960

          k = 0.5764-0.1109 0.0000 ( 49790 PWs)   bands (ev):

   -69.1567 -68.8200 -35.9637 -35.8993 -35.6794 -35.6158 -35.4049 -35.2155
   -20.8668 -20.8640 -20.8583 -20.8374 -20.8241 -20.7974 -20.7733 -20.5265
   -20.5071 -20.5009 -20.4917 -20.4631 -20.4539 -20.4325 -12.4238  -7.4470
    -6.1325  -5.5157  -3.1211  -2.0583  -1.3349  -1.2261  -0.2504   1.4777
     2.6840   2.9396   4.3585   5.0975   5.7918   6.0261   8.1585   8.6797
     9.1700   9.5651

          k = 0.5710-0.1202 0.0000 ( 49822 PWs)   bands (ev):

   -69.1570 -68.8203 -35.9718 -35.9034 -35.6698 -35.6145 -35.3928 -35.2161
   -20.8671 -20.8644 -20.8579 -20.8376 -20.8237 -20.7969 -20.7736 -20.5262
   -20.5076 -20.5012 -20.4913 -20.4633 -20.4534 -20.4326 -12.4357  -7.4988
    -6.0614  -5.5427  -3.2311  -2.0703  -1.2974  -1.1680  -0.2005   1.4622
     2.7310   2.9939   4.3732   5.0783   5.6421   6.0334   8.0983   8.6168
     9.1266   9.5325

          k = 0.5657-0.1294 0.0000 ( 49842 PWs)   bands (ev):

   -69.1573 -68.8206 -35.9796 -35.9076 -35.6627 -35.6108 -35.3808 -35.2167
   -20.8673 -20.8648 -20.8576 -20.8377 -20.8234 -20.7965 -20.7738 -20.5259
   -20.5081 -20.5014 -20.4910 -20.4635 -20.4529 -20.4326 -12.4480  -7.5500
    -5.9894  -5.5696  -3.3387  -2.0836  -1.2596  -1.1105  -0.1436   1.4456
     2.7747   3.0438   4.3894   5.0664   5.4857   6.0469   8.0348   8.5489
     9.0857   9.4305

          k = 0.5604-0.1387 0.0000 ( 49822 PWs)   bands (ev):

   -69.1576 -68.8208 -35.9870 -35.9117 -35.6585 -35.6045 -35.3690 -35.2174
   -20.8676 -20.8652 -20.8573 -20.8378 -20.8231 -20.7960 -20.7740 -20.5257
   -20.5085 -20.5017 -20.4906 -20.4637 -20.4524 -20.4327 -12.4603  -7.6002
    -5.9167  -5.5962  -3.4434  -2.0980  -1.2220  -1.0543  -0.0792   1.4282
     2.8145   3.0870   4.4058   5.0614   5.3323   6.0609   7.9682   8.4791
     9.0465   9.3304

          k = 0.5550-0.1479 0.0000 ( 49800 PWs)   bands (ev):

   -69.1579 -68.8211 -35.9940 -35.9157 -35.6567 -35.5960 -35.3574 -35.2181
   -20.8678 -20.8655 -20.8570 -20.8379 -20.8228 -20.7956 -20.7743 -20.5254
   -20.5090 -20.5019 -20.4903 -20.4639 -20.4519 -20.4327 -12.4726  -7.6491
    -5.8436  -5.6220  -3.5449  -2.1132  -1.1851  -1.0003  -0.0070   1.4106
     2.8505   3.1214   4.4199   5.0564   5.1946   6.0735   7.8986   8.4094
     9.0083   9.2362

          k = 0.5497-0.1571 0.0000 ( 49814 PWs)   bands (ev):

   -69.1582 -68.8214 -36.0006 -35.9195 -35.6563 -35.5864 -35.3463 -35.2189
   -20.8681 -20.8659 -20.8567 -20.8380 -20.8225 -20.7951 -20.7745 -20.5252
   -20.5095 -20.5022 -20.4900 -20.4641 -20.4515 -20.4328 -12.4847  -7.6965
    -5.7706  -5.6467  -3.6428  -2.1290  -1.1496  -0.9491   0.0732   1.3934
     2.8827   3.1444   4.4282   5.0009   5.1295   6.0841   7.8264   8.3416
     8.9700   9.1505

          k = 0.5444-0.1664 0.0000 ( 49824 PWs)   bands (ev):

   -69.1585 -68.8217 -36.0067 -35.9233 -35.6568 -35.5762 -35.3356 -35.2197
   -20.8683 -20.8663 -20.8565 -20.8381 -20.8222 -20.7947 -20.7747 -20.5249
   -20.5099 -20.5024 -20.4897 -20.4643 -20.4510 -20.4328 -12.4966  -7.7420
    -5.6995  -5.6685  -3.7368  -2.1451  -1.1158  -0.9013   0.1615   1.3768
     2.9113   3.1535   4.4249   4.8955   5.1437   6.0920   7.7520   8.2769
     8.9297   9.0754

          k = 0.5390-0.1756 0.0000 ( 49800 PWs)   bands (ev):

   -69.1587 -68.8219 -36.0125 -35.9268 -35.6578 -35.5661 -35.3254 -35.2205
   -20.8685 -20.8666 -20.8562 -20.8382 -20.8219 -20.7942 -20.7750 -20.5247
   -20.5103 -20.5027 -20.4894 -20.4644 -20.4506 -20.4328 -12.5080  -7.7851
    -5.6944  -5.6236  -3.8269  -2.1613  -1.0843  -0.8572   0.2575   1.3617
     2.9366   3.1459   4.4025   4.8071   5.1800   6.0969   7.6766   8.2163
     8.8858   9.0132

          k = 0.5337-0.1849 0.0000 ( 49806 PWs)   bands (ev):

   -69.1590 -68.8222 -36.0177 -35.9301 -35.6590 -35.5563 -35.3159 -35.2213
   -20.8687 -20.8669 -20.8560 -20.8382 -20.8217 -20.7938 -20.7752 -20.5244
   -20.5107 -20.5029 -20.4892 -20.4646 -20.4502 -20.4329 -12.5189  -7.8257
    -5.7147  -5.5527  -3.9127  -2.1773  -1.0552  -0.8169   0.3603   1.3486
     2.9589   3.1192   4.3569   4.7520   5.2278   6.0985   7.6011   8.1604
     8.8378   8.9641

          k = 0.5283-0.1941 0.0000 ( 49790 PWs)   bands (ev):

   -69.1592 -68.8224 -36.0226 -35.9331 -35.6602 -35.5470 -35.3070 -35.2221
   -20.8689 -20.8672 -20.8558 -20.8383 -20.8214 -20.7935 -20.7754 -20.5242
   -20.5111 -20.5031 -20.4889 -20.4647 -20.4498 -20.4329 -12.5291  -7.8635
    -5.7338  -5.4829  -3.9942  -2.1928  -1.0288  -0.7807   0.4690   1.3382
     2.9784   3.0714   4.2955   4.7271   5.2838   6.0964   7.5270   8.1095
     8.7883   8.9258

          k = 0.5230-0.2034 0.0000 ( 49814 PWs)   bands (ev):

   -69.1594 -68.8226 -36.0269 -35.9360 -35.6615 -35.5384 -35.2989 -35.2229
   -20.8691 -20.8674 -20.8556 -20.8383 -20.8212 -20.7931 -20.7755 -20.5240
   -20.5114 -20.5033 -20.4887 -20.4648 -20.4495 -20.4329 -12.5386  -7.8981
    -5.7511  -5.4149  -4.0712  -2.2077  -1.0053  -0.7485   0.5818   1.3320
     2.9917   3.0058   4.2315   4.7210   5.3458   6.0901   7.4558   8.0639
     8.7405   8.8947

          k = 0.5177-0.2126 0.0000 ( 49810 PWs)   bands (ev):

   -69.1596 -68.8228 -36.0307 -35.9385 -35.6626 -35.5305 -35.2916 -35.2237
   -20.8693 -20.8677 -20.8555 -20.8383 -20.8210 -20.7928 -20.7757 -20.5238
   -20.5117 -20.5034 -20.4885 -20.4649 -20.4491 -20.4330 -12.5472  -7.9292
    -5.7666  -5.3494  -4.1435  -2.2216  -0.9848  -0.7203   0.6960   1.3316
     2.9105   3.0121   4.1740   4.7248   5.4117   6.0795   7.3889   8.0235
     8.6967   8.8688

          k = 0.5123-0.2218 0.0000 ( 49812 PWs)   bands (ev):

   -69.1598 -68.8229 -36.0341 -35.9407 -35.6637 -35.5236 -35.2851 -35.2244
   -20.8694 -20.8679 -20.8553 -20.8384 -20.8209 -20.7925 -20.7758 -20.5237
   -20.5120 -20.5036 -20.4883 -20.4650 -20.4489 -20.4330 -12.5549  -7.9567
    -5.7802  -5.2870  -4.2106  -2.2343  -0.9671  -0.6960   0.8075   1.3405
     2.8029   3.0252   4.1268   4.7331   5.4796   6.0641   7.3278   7.9886
     8.6579   8.8467

          k = 0.5070-0.2311 0.0000 ( 49800 PWs)   bands (ev):

   -69.1599 -68.8231 -36.0369 -35.9426 -35.6646 -35.5175 -35.2796 -35.2251
   -20.8696 -20.8680 -20.8552 -20.8384 -20.8207 -20.7922 -20.7760 -20.5235
   -20.5122 -20.5037 -20.4882 -20.4651 -20.4486 -20.4330 -12.5615  -7.9804
    -5.7917  -5.2289  -4.2721  -2.2456  -0.9524  -0.6755   0.9094   1.3643
     2.6819   3.0366   4.0899   4.7429   5.5481   6.0436   7.2737   7.9590
     8.6248   8.8281

          k = 0.5017-0.2403 0.0000 ( 49798 PWs)   bands (ev):

   -69.1600 -68.8232 -36.0392 -35.9442 -35.6654 -35.5125 -35.2750 -35.2257
   -20.8697 -20.8682 -20.8551 -20.8384 -20.8206 -20.7920 -20.7761 -20.5234
   -20.5124 -20.5038 -20.4881 -20.4651 -20.4484 -20.4330 -12.5670  -7.9999
    -5.8012  -5.1763  -4.3268  -2.2552  -0.9405  -0.6588   0.9922   1.4104
     2.5524   3.0460   4.0623   4.7526   5.6155   6.0178   7.2279   7.9348
     8.5975   8.8128

          k = 0.4963-0.2496 0.0000 ( 49790 PWs)   bands (ev):

   -69.1601 -68.8233 -36.0411 -35.9454 -35.6660 -35.5086 -35.2713 -35.2261
   -20.8698 -20.8683 -20.8550 -20.8384 -20.8205 -20.7918 -20.7761 -20.5233
   -20.5126 -20.5039 -20.4880 -20.4652 -20.4483 -20.4330 -12.5714  -8.0153
    -5.8087  -5.1310  -4.3734  -2.2628  -0.9314  -0.6459   1.0492   1.4826
     2.4202   3.0535   4.0425   4.7610   5.6807   5.9865   7.1913   7.9159
     8.5762   8.8008

          k = 0.4910-0.2588 0.0000 ( 49782 PWs)   bands (ev):

   -69.1602 -68.8234 -36.0424 -35.9463 -35.6664 -35.5057 -35.2687 -35.2265
   -20.8699 -20.8683 -20.8550 -20.8384 -20.8205 -20.7917 -20.7762 -20.5233
   -20.5127 -20.5039 -20.4879 -20.4652 -20.4482 -20.4330 -12.5746  -8.0264
    -5.8140  -5.0955  -4.4097  -2.2684  -0.9250  -0.6367   1.0821   1.5727
     2.2935   3.0589   4.0292   4.7675   5.7423   5.9498   7.1646   7.9024
     8.5609   8.7922

          k = 0.4857-0.2681 0.0000 ( 49786 PWs)   bands (ev):

   -69.1602 -68.8234 -36.0432 -35.9468 -35.6667 -35.5040 -35.2671 -35.2268
   -20.8699 -20.8684 -20.8549 -20.8384 -20.8204 -20.7916 -20.7762 -20.5232
   -20.5127 -20.5040 -20.4879 -20.4652 -20.4481 -20.4330 -12.5765  -8.0331
    -5.8172  -5.0725  -4.4331  -2.2718  -0.9211  -0.6311   1.0982   1.6584
     2.1891   3.0621   4.0216   4.7715   5.7988   5.9088   7.1483   7.8943
     8.5518   8.7869

          k = 0.4803-0.2773 0.0000 ( 49788 PWs)   bands (ev):

   -69.1603 -68.8234 -36.0434 -35.9470 -35.6668 -35.5034 -35.2666 -35.2268
   -20.8699 -20.8684 -20.8549 -20.8384 -20.8204 -20.7916 -20.7762 -20.5232
   -20.5128 -20.5040 -20.4878 -20.4652 -20.4481 -20.4330 -12.5771  -8.0353
    -5.8183  -5.0644  -4.4413  -2.2730  -0.9198  -0.6293   1.1030   1.6979
     2.1439   3.0632   4.0191   4.7729   5.8359   5.8767   7.1429   7.8916
     8.5487   8.7852

          k = 0.4643-0.2681 0.0000 ( 49782 PWs)   bands (ev):

   -69.1604 -68.8235 -36.0418 -35.9462 -35.6662 -35.5030 -35.2662 -35.2269
   -20.8699 -20.8684 -20.8549 -20.8385 -20.8205 -20.7915 -20.7764 -20.5231
   -20.5128 -20.5041 -20.4879 -20.4652 -20.4481 -20.4331 -12.5802  -8.0307
    -5.8189  -5.0630  -4.4363  -2.2852  -0.9346  -0.6342   1.0957   1.6962
     2.1365   3.0496   3.9933   4.7723   5.8559   5.8975   7.1221   7.8698
     8.4856   8.8842

          k = 0.4483-0.2588 0.0000 ( 49774 PWs)   bands (ev):

   -69.1607 -68.8239 -36.0372 -35.9439 -35.6643 -35.5016 -35.2650 -35.2270
   -20.8698 -20.8683 -20.8548 -20.8385 -20.8206 -20.7913 -20.7767 -20.5228
   -20.5128 -20.5043 -20.4880 -20.4650 -20.4480 -20.4333 -12.5894  -8.0169
    -5.8209  -5.0588  -4.4213  -2.3214  -0.9780  -0.6490   1.0740   1.6919
     2.1136   3.0113   3.9185   4.7711   5.9126   5.9559   7.0616   7.8212
     8.3828   9.0378

          k = 0.4323-0.2496 0.0000 ( 49778 PWs)   bands (ev):

   -69.1614 -68.8245 -36.0295 -35.9401 -35.6611 -35.4992 -35.2631 -35.2273
   -20.8698 -20.8682 -20.8547 -20.8386 -20.8209 -20.7908 -20.7773 -20.5222
   -20.5128 -20.5047 -20.4883 -20.4648 -20.4480 -20.4336 -12.6049  -7.9938
    -5.8250  -5.0518  -4.3962  -2.3799  -1.0472  -0.6743   1.0389   1.6872
     2.0724   2.9556   3.8013   4.7702   5.9978   6.0381   6.9740   7.7616
     8.2884   8.8744

          k = 0.4163-0.2403 0.0000 ( 49780 PWs)   bands (ev):

   -69.1622 -68.8253 -36.0192 -35.9349 -35.6562 -35.4960 -35.2605 -35.2276
   -20.8698 -20.8680 -20.8545 -20.8388 -20.8212 -20.7902 -20.7780 -20.5215
   -20.5129 -20.5053 -20.4886 -20.4644 -20.4479 -20.4340 -12.6265  -7.9617
    -5.8324  -5.0423  -4.3612  -2.4582  -1.1377  -0.7103   0.9916   1.6847
     2.0093   2.8922   3.6500   4.7712   6.1016   6.1154   6.8922   7.6763
     8.2300   8.6135

          k = 0.4003-0.2311 0.0000 ( 49758 PWs)   bands (ev):

   -69.1633 -68.8264 -36.0068 -35.9282 -35.6495 -35.4919 -35.2571 -35.2281
   -20.8699 -20.8677 -20.8543 -20.8389 -20.8217 -20.7894 -20.7790 -20.5206
   -20.5130 -20.5059 -20.4890 -20.4640 -20.4479 -20.4345 -12.6543  -7.9205
    -5.8447  -5.0306  -4.3161  -2.5534  -1.2437  -0.7570   0.9334   1.6865
     1.9216   2.8299   3.4727   4.7756   6.1406   6.2148   6.8651   7.5517
     8.2118   8.3595

          k = 0.3843-0.2218 0.0000 ( 49740 PWs)   bands (ev):

   -69.1646 -68.8276 -35.9932 -35.9197 -35.6406 -35.4870 -35.2531 -35.2287
   -20.8701 -20.8672 -20.8540 -20.8391 -20.8222 -20.7885 -20.7802 -20.5194
   -20.5133 -20.5066 -20.4895 -20.4635 -20.4478 -20.4351 -12.6884  -7.8706
    -5.8637  -5.0169  -4.2610  -2.6620  -1.3587  -0.8137   0.8657   1.6939
     1.8091   2.7735   3.2782   4.7848   6.0833   6.3296   6.9087   7.4104
     8.0594   8.2716

          k = 0.3682-0.2126 0.0000 ( 49740 PWs)   bands (ev):

   -69.1661 -68.8291 -35.9797 -35.9085 -35.6291 -35.4814 -35.2484 -35.2294
   -20.8704 -20.8666 -20.8537 -20.8393 -20.8228 -20.7874 -20.7815 -20.5181
   -20.5138 -20.5072 -20.4901 -20.4628 -20.4477 -20.4358 -12.7285  -7.8121
    -5.8919  -5.0017  -4.1960  -2.7799  -1.4763  -0.8790   0.7902   1.6748
     1.7069   2.7198   3.0782   4.7995   5.9669   6.4399   6.9352   7.3266
     7.8101   8.2215

          k = 0.3522-0.2034 0.0000 ( 49746 PWs)   bands (ev):

   -69.1678 -68.8308 -35.9680 -35.8935 -35.6149 -35.4750 -35.2431 -35.2302
   -20.8708 -20.8659 -20.8534 -20.8395 -20.8235 -20.7861 -20.7830 -20.5166
   -20.5145 -20.5078 -20.4907 -20.4621 -20.4476 -20.4366 -12.7747  -7.7455
    -5.9313  -4.9856  -4.1211  -2.9029  -1.5909  -0.9511   0.7086   1.5242
     1.7246   2.6465   2.8991   4.8198   5.8245   6.5410   6.8297   7.3712
     7.5712   8.0114

          k = 0.3362-0.1941 0.0000 ( 49756 PWs)   bands (ev):

   -69.1696 -68.8326 -35.9596 -35.8739 -35.5978 -35.4680 -35.2374 -35.2311
   -20.8713 -20.8651 -20.8531 -20.8397 -20.8242 -20.7847 -20.7847 -20.5155
   -20.5150 -20.5081 -20.4914 -20.4613 -20.4475 -20.4375 -12.8267  -7.6715
    -5.9839  -4.9689  -4.0370  -3.0262  -1.6982  -1.0277   0.6233   1.3631
     1.7455   2.5048   2.7922   4.8453   5.6743   6.6292   6.6507   7.2935
     7.4931   7.7974

          k = 0.3202-0.1849 0.0000 ( 49754 PWs)   bands (ev):

   -69.1716 -68.8345 -35.9546 -35.8499 -35.5779 -35.4604 -35.2322 -35.2311
   -20.8718 -20.8643 -20.8527 -20.8398 -20.8250 -20.7865 -20.7832 -20.5167
   -20.5133 -20.5083 -20.4922 -20.4605 -20.4473 -20.4384 -12.8843  -7.5912
    -6.0509  -4.9523  -3.9442  -3.1450  -1.7953  -1.1064   0.5364   1.1966
     1.7677   2.3057   2.7481   4.8744   5.5250   6.4531   6.7021   7.0682
     7.4352   7.6793

          k = 0.3042-0.1756 0.0000 ( 49766 PWs)   bands (ev):

   -69.1737 -68.8366 -35.9526 -35.8222 -35.5552 -35.4523 -35.2334 -35.2245
   -20.8724 -20.8633 -20.8524 -20.8400 -20.8259 -20.7884 -20.7815 -20.5182
   -20.5114 -20.5083 -20.4930 -20.4596 -20.4472 -20.4394 -12.9470  -7.5063
    -6.1318  -4.9363  -3.8449  -3.2542  -1.8806  -1.1846   0.4505   1.0287
     1.7897   2.0912   2.7262   4.9044   5.3820   6.2527   6.7581   6.8436
     7.2451   7.6011

          k = 0.2882-0.1664 0.0000 ( 49754 PWs)   bands (ev):

   -69.1759 -68.8387 -35.9529 -35.7917 -35.5301 -35.4438 -35.2347 -35.2175
   -20.8731 -20.8624 -20.8520 -20.8401 -20.8268 -20.7903 -20.7798 -20.5199
   -20.5094 -20.5083 -20.4938 -20.4586 -20.4470 -20.4404 -13.0143  -7.4198
    -6.2240  -4.9217  -3.7445  -3.3463  -1.9536  -1.2599   0.3677   0.8623
     1.8098   1.8782   2.7116   4.9279   5.2522   6.0553   6.6268   6.7967
     7.0351   7.4434

          k = 0.2722-0.1571 0.0000 ( 49746 PWs)   bands (ev):

   -69.1782 -68.8410 -35.9550 -35.7593 -35.5029 -35.4350 -35.2362 -35.2103
   -20.8738 -20.8613 -20.8516 -20.8401 -20.8277 -20.7924 -20.7780 -20.5217
   -20.5082 -20.5074 -20.4946 -20.4576 -20.4469 -20.4415 -13.0857  -7.3372
    -6.3210  -4.9090  -3.6630  -3.4012  -2.0149  -1.3297   0.2906   0.6991
     1.6737   1.8271   2.6988   4.9235   5.1548   5.8646   6.4190   6.8180
     6.8284   7.2523

          k = 0.2562-0.1479 0.0000 ( 49724 PWs)   bands (ev):

   -69.1806 -68.8433 -35.9585 -35.7254 -35.4739 -35.4260 -35.2378 -35.2030
   -20.8746 -20.8602 -20.8513 -20.8402 -20.8286 -20.7944 -20.7761 -20.5236
   -20.5080 -20.5054 -20.4954 -20.4565 -20.4467 -20.4425 -13.1603  -7.2690
    -6.4103  -4.8987  -3.6484  -3.3721  -2.0655  -1.3920   0.2213   0.5402
     1.4827   1.8410   2.6850   4.8586   5.1170   5.6843   6.2209   6.6292
     6.8231   7.0567

          k = 0.2402-0.1387 0.0000 ( 49704 PWs)   bands (ev):

   -69.1829 -68.8456 -35.9631 -35.6906 -35.4437 -35.4169 -35.2394 -35.1955
   -20.8754 -20.8591 -20.8509 -20.8402 -20.8296 -20.7965 -20.7741 -20.5256
   -20.5078 -20.5034 -20.4961 -20.4554 -20.4465 -20.4436 -13.2375  -7.2331
    -6.4715  -4.8914  -3.6919  -3.2708  -2.1061  -1.4451   0.1620   0.3856
     1.3092   1.8513   2.6682   4.7505   5.1095   5.5231   6.0333   6.4395
     6.8137   6.8624

          k = 0.2241-0.1294 0.0000 ( 49749 PWs)   bands (ev):

   -69.1853 -68.8479 -35.9684 -35.6554 -35.4127 -35.4077 -35.2412 -35.1881
   -20.8763 -20.8580 -20.8505 -20.8402 -20.8305 -20.7986 -20.7722 -20.5275
   -20.5076 -20.5017 -20.4966 -20.4544 -20.4464 -20.4446 -13.3162  -7.2499
    -6.4809  -4.8873  -3.7493  -3.1461  -2.1367  -1.4882   0.1151   0.2353
     1.1564   1.8581   2.6469   4.6291   5.0755   5.4011   5.8575   6.2612
     6.6716   6.7917

          k = 0.2081-0.1202 0.0000 ( 49781 PWs)   bands (ev):

   -69.1877 -68.8502 -35.9742 -35.6201 -35.3986 -35.3813 -35.2430 -35.1807
   -20.8771 -20.8569 -20.8502 -20.8401 -20.8315 -20.8006 -20.7702 -20.5295
   -20.5073 -20.5006 -20.4964 -20.4533 -20.4462 -20.4457 -13.3955  -7.3225
    -6.4328  -4.8866  -3.8072  -3.0182  -2.1552  -1.5215   0.0827   0.0889
     1.0268   1.8621   2.6200   4.5039   4.9781   5.3341   5.6970   6.0983
     6.4876   6.6556

          k = 0.1921-0.1109 0.0000 ( 49801 PWs)   bands (ev):

   -69.1899 -68.8524 -35.9803 -35.5853 -35.3897 -35.3500 -35.2450 -35.1735
   -20.8780 -20.8558 -20.8499 -20.8400 -20.8324 -20.8026 -20.7683 -20.5314
   -20.5071 -20.5005 -20.4953 -20.4522 -20.4467 -20.4460 -13.4745  -7.4332
    -6.3419  -4.8894  -3.8627  -2.8998  -2.1556  -1.5460  -0.0534   0.0667
     0.9221   1.8641   2.5864   4.3766   4.8340   5.2825   5.5587   5.9590
     6.3156   6.4999

          k = 0.1761-0.1017 0.0000 ( 49793 PWs)   bands (ev):

   -69.1922 -68.8546 -35.9866 -35.5513 -35.3811 -35.3193 -35.2469 -35.1665
   -20.8789 -20.8548 -20.8496 -20.8399 -20.8332 -20.8046 -20.7664 -20.5332
   -20.5069 -20.5009 -20.4936 -20.4511 -20.4476 -20.4458 -13.5520  -7.5629
    -6.2254  -4.8954  -3.9158  -2.8042  -2.1288  -1.5634  -0.1908   0.0687
     0.8425   1.8652   2.5455   4.2467   4.6711   5.1973   5.4467   5.8537
     6.1623   6.3605

          k = 0.1601-0.0924 0.0000 ( 49799 PWs)   bands (ev):

   -69.1943 -68.8566 -35.9928 -35.5186 -35.3729 -35.2897 -35.2489 -35.1598
   -20.8797 -20.8537 -20.8493 -20.8397 -20.8341 -20.8064 -20.7645 -20.5350
   -20.5067 -20.5016 -20.4918 -20.4501 -20.4485 -20.4456 -13.6270  -7.6989
    -6.0944  -4.9044  -3.9666  -2.7429  -2.0671  -1.5749  -0.3223   0.0899
     0.7871   1.8664   2.4970   4.1115   4.5020   5.0757   5.3448   5.7806
     6.0355   6.2418

          k = 0.1441-0.0832 0.0000 ( 49821 PWs)   bands (ev):

   -69.1962 -68.8586 -35.9988 -35.4874 -35.3651 -35.2622 -35.2503 -35.1535
   -20.8805 -20.8527 -20.8491 -20.8396 -20.8349 -20.8081 -20.7628 -20.5367
   -20.5065 -20.5022 -20.4901 -20.4494 -20.4491 -20.4455 -13.6985  -7.8333
    -5.9556  -4.9157  -4.0157  -2.7169  -1.9748  -1.5795  -0.4462   0.1306
     0.7544   1.8688   2.4411   3.9659   4.3348   4.9391   5.2411   5.7144
     5.9398   6.1544

          k = 0.1281-0.0739 0.0000 ( 49803 PWs)   bands (ev):

   -69.1981 -68.8603 -36.0045 -35.4581 -35.3579 -35.2543 -35.2339 -35.1477
   -20.8813 -20.8518 -20.8489 -20.8394 -20.8356 -20.8097 -20.7611 -20.5382
   -20.5063 -20.5029 -20.4884 -20.4502 -20.4483 -20.4453 -13.7655  -7.9615
    -5.8133  -4.9287  -4.0635  -2.7172  -1.8717  -1.5709  -0.5611   0.1907
     0.7422   1.8734   2.3782   3.8026   4.1787   4.8023   5.1397   5.6369
     5.8609   6.1126

          k = 0.1121-0.0647 0.0000 ( 49837 PWs)   bands (ev):

   -69.1998 -68.8620 -36.0098 -35.4311 -35.3513 -35.2563 -35.2099 -35.1424
   -20.8820 -20.8510 -20.8487 -20.8393 -20.8362 -20.8112 -20.7596 -20.5396
   -20.5062 -20.5035 -20.4869 -20.4509 -20.4474 -20.4451 -13.8270  -8.0800
    -5.6712  -4.9428  -4.1103  -2.7332  -1.7895  -1.5311  -0.6655   0.2691
     0.7476   1.8806   2.3094   3.6174   4.0416   4.6728   5.0466   5.5551
     5.7816   6.1132

          k = 0.0961-0.0555 0.0000 ( 49849 PWs)   bands (ev):

   -69.2012 -68.8634 -36.0145 -35.4066 -35.3454 -35.2588 -35.1882 -35.1377
   -20.8826 -20.8502 -20.8485 -20.8391 -20.8368 -20.8125 -20.7583 -20.5409
   -20.5060 -20.5040 -20.4855 -20.4515 -20.4467 -20.4450 -13.8823  -8.1864
    -5.5323  -4.9570  -4.1564  -2.7574  -1.7519  -1.4473  -0.7583   0.3644
     0.7677   1.8905   2.2366   3.4136   3.9254   4.5554   4.9647   5.4784
     5.7034   6.1372

          k = 0.0801-0.0462 0.0000 ( 49851 PWs)   bands (ev):

   -69.2025 -68.8647 -36.0187 -35.3848 -35.3403 -35.2614 -35.1692 -35.1336
   -20.8832 -20.8496 -20.8484 -20.8389 -20.8373 -20.8136 -20.7571 -20.5419
   -20.5059 -20.5045 -20.4843 -20.4520 -20.4461 -20.4449 -13.9304  -8.2790
    -5.4000  -4.9707  -4.2019  -2.7849  -1.7453  -1.3410  -0.8383   0.4740
     0.7989   1.9022   2.1621   3.2006   3.8282   4.4526   4.8950   5.4112
     5.6317   6.1694

          k = 0.0640-0.0370 0.0000 ( 49845 PWs)   bands (ev):

   -69.2036 -68.8657 -36.0222 -35.3660 -35.3361 -35.2642 -35.1532 -35.1302
   -20.8836 -20.8490 -20.8482 -20.8388 -20.8378 -20.8146 -20.7561 -20.5428
   -20.5058 -20.5049 -20.4833 -20.4525 -20.4455 -20.4447 -13.9707  -8.3565
    -5.2780  -4.9830  -4.2464  -2.8121  -1.7505  -1.2369  -0.9047   0.5938
     0.8369   1.9138   2.0895   2.9903   3.7479   4.3663   4.8379   5.3555
     5.5699   6.2011

          k = 0.0480-0.0277 0.0000 ( 49859 PWs)   bands (ev):

   -69.2044 -68.8666 -36.0250 -35.3505 -35.3327 -35.2671 -35.1406 -35.1275
   -20.8840 -20.8486 -20.8482 -20.8387 -20.8381 -20.8153 -20.7554 -20.5435
   -20.5057 -20.5052 -20.4825 -20.4528 -20.4451 -20.4446 -14.0027  -8.4176
    -5.1710  -4.9933  -4.2887  -2.8365  -1.7591  -1.1479  -0.9570   0.7166
     0.8767   1.9226   2.0233   2.7963   3.6839   4.2979   4.7935   5.3117
     5.5201   6.2259

          k = 0.0320-0.0185 0.0000 ( 49859 PWs)   bands (ev):

   -69.2051 -68.8672 -36.0270 -35.3386 -35.3303 -35.2698 -35.1314 -35.1256
   -20.8843 -20.8483 -20.8481 -20.8386 -20.8383 -20.8158 -20.7548 -20.5441
   -20.5057 -20.5054 -20.4820 -20.4531 -20.4448 -20.4446 -14.0259  -8.4619
    -5.0850  -5.0010  -4.3257  -2.8558  -1.7671  -1.0807  -0.9946   0.8301
     0.9124   1.9256   1.9689   2.6356   3.6368   4.2482   4.7618   5.2803
     5.4836   6.2385

          k = 0.0160-0.0092 0.0000 ( 49865 PWs)   bands (ev):

   -69.2054 -68.8675 -36.0282 -35.3310 -35.3288 -35.2719 -35.1259 -35.1244
   -20.8844 -20.8481 -20.8481 -20.8385 -20.8385 -20.8162 -20.7545 -20.5444
   -20.5056 -20.5056 -20.4816 -20.4532 -20.4446 -20.4445 -14.0399  -8.4886
    -5.0278  -5.0059  -4.3523  -2.8682  -1.7726  -1.0390  -1.0174   0.9145
     0.9375   1.9226   1.9327   2.5279   3.6078   4.2181   4.7428   5.2614
     5.4613   6.2399

          k = 0.0000 0.0000 0.0000 ( 49849 PWs)   bands (ev):

   -69.2055 -68.8676 -36.0286 -35.3283 -35.3283 -35.2727 -35.1240 -35.1240
   -20.8845 -20.8480 -20.8480 -20.8385 -20.8385 -20.8163 -20.7544 -20.5445
   -20.5056 -20.5056 -20.4815 -20.4533 -20.4445 -20.4445 -14.0446  -8.4975
    -5.0075  -5.0075  -4.3622  -2.8725  -1.7745  -1.0249  -1.0249   0.9466
     0.9466   1.9199   1.9199   2.4899   3.5980   4.2080   4.7365   5.2551
     5.4538   6.2388

     Writing output data file /scratch/as3359/Ta2CH_bandsdos/Ta.save/
 
     init_run     :      9.96s CPU      7.48s WALL (       1 calls)
     electrons    :   1304.28s CPU    659.35s WALL (       1 calls)

     Called by init_run:
     wfcinit      :      0.00s CPU      0.00s WALL (       1 calls)
     potinit      :      0.44s CPU      0.27s WALL (       1 calls)
     hinit0       :      7.58s CPU      5.88s WALL (       1 calls)

     Called by electrons:
     c_bands      :   1304.28s CPU    659.35s WALL (       1 calls)
     v_of_rho     :      0.33s CPU      0.18s WALL (       1 calls)
     newd         :      1.56s CPU      0.93s WALL (       1 calls)

     Called by c_bands:
     init_us_2    :      0.95s CPU      0.48s WALL (      91 calls)
     cegterg      :   1257.31s CPU    634.88s WALL (     343 calls)

     Called by *egterg:
     cdiaghg      :     20.48s CPU     10.45s WALL (    6077 calls)
     h_psi        :    965.04s CPU    488.00s WALL (    6420 calls)
     s_psi        :     42.21s CPU     21.13s WALL (    6420 calls)
     g_psi        :      8.81s CPU      4.41s WALL (    5986 calls)

     Called by h_psi:
     h_psi:calbec :     35.56s CPU     17.81s WALL (    6420 calls)
     vloc_psi     :    878.75s CPU    444.50s WALL (    6420 calls)
     add_vuspsi   :     44.28s CPU     22.17s WALL (    6420 calls)

     General routines
     calbec       :     35.51s CPU     17.79s WALL (    6420 calls)
     fft          :      1.26s CPU      1.00s WALL (      13 calls)
     ffts         :      0.01s CPU      0.01s WALL (       1 calls)
     fftw         :    788.25s CPU    398.97s WALL (  213846 calls)
     interpolate  :      0.03s CPU      0.02s WALL (       1 calls)
     davcio       :      0.98s CPU      1.03s WALL (     182 calls)
 
     Parallel routines
 
     PWSCF        :  22m 2.47s CPU  11m14.62s WALL

 
   This run was terminated on:  21:44:43  21Apr2022            

=------------------------------------------------------------------------------=
   JOB DONE.
=------------------------------------------------------------------------------=
