
     Program PWSCF v.6.8 starts on 21Apr2022 at 21:18:45 

     This program is part of the open-source Quantum ESPRESSO suite
     for quantum simulation of materials; please cite
         "P. Giannozzi et al., J. Phys.:Condens. Matter 21 395502 (2009);
         "P. Giannozzi et al., J. Phys.:Condens. Matter 29 465901 (2017);
         "P. Giannozzi et al., J. Chem. Phys. 152 154105 (2020);
          URL http://www.quantum-espresso.org", 
     in publications or presentations arising from this work. More details at
     http://www.quantum-espresso.org/quote

     Parallel version (MPI & OpenMP), running on       4 processor cores
     Number of MPI processes:                 2
     Threads/MPI process:                     2

     MPI processes distributed on     1 nodes
     R & G space division:  proc/nbgrp/npool/nimage =       2
     124440 MiB available memory on the printing compute node when the environment starts
 
     Reading input from Ta2CH.nscf.in

     Current dimensions of program PWSCF are:
     Max number of different atomic species (ntypx) = 10
     Max number of k-points (npk) =  40000
     Max angular momentum in pseudopotentials (lmaxx) =  4

     Atomic positions and unit cell read from directory:
     /scratch/as3359/Ta2CH_bandsdos/Ta.save/
 
     file Ta.pbesol-spfn-rrkjus_psl.1.0.0.UPF: wavefunction(s)  5S 5P renormalized
     Message from routine setup:
     using ibrav=0 with symmetry is DISCOURAGED, use correct ibrav instead

     Subspace diagonalization in iterative solution of the eigenvalue problem:
     a serial algorithm will be used

 
     Parallelization info
     --------------------
     sticks:   dense  smooth     PW     G-vecs:    dense   smooth      PW
     Min         807     690    189               250889   199152   29477
     Max         808     691    190               250920   199153   29510
     Sum        1615    1381    379               501809   398305   58987
 
     Using Slab Decomposition
 


     bravais-lattice index     =            0
     lattice parameter (alat)  =       5.5500  a.u.
     unit-cell volume          =    1604.3345 (a.u.)^3
     number of atoms/cell      =            4
     number of atomic types    =            3
     number of electrons       =        59.00
     number of Kohn-Sham states=           36
     kinetic-energy cutoff     =     150.0000  Ry
     charge density cutoff     =     700.0000  Ry
     Exchange-correlation= PBESOL
                           (   1   4  10   8   0   0   0)

     celldm(1)=   5.550000  celldm(2)=   0.000000  celldm(3)=   0.000000
     celldm(4)=   0.000000  celldm(5)=   0.000000  celldm(6)=   0.000000

     crystal axes: (cart. coord. in units of alat)
               a(1) = (   1.040981   0.000000   0.000000 )  
               a(2) = (  -0.520490   0.901516   0.000000 )  
               a(3) = (   0.000000   0.000000  10.000000 )  

     reciprocal axes: (cart. coord. in units 2 pi/alat)
               b(1) = (  0.960633  0.554621  0.000000 )  
               b(2) = (  0.000000  1.109243  0.000000 )  
               b(3) = (  0.000000  0.000000  0.100000 )  


     PseudoPot. # 1 for Ta read from file:
     /shared/home/as3359/pseudo/Ta.pbesol-spfn-rrkjus_psl.1.0.0.UPF
     MD5 check sum: f099565ffaca9b150a52e9412a28e20b
     Pseudo is Ultrasoft + core correction, Zval = 27.0
     Generated using &quot;atomic&quot; code by A. Dal Corso  v.6.3
     Using radial grid of 1273 points,  8 beta functions with: 
                l(1) =   0
                l(2) =   0
                l(3) =   1
                l(4) =   1
                l(5) =   2
                l(6) =   2
                l(7) =   3
                l(8) =   3
     Q(r) pseudized with 0 coefficients 


     PseudoPot. # 2 for C  read from file:
     /shared/home/as3359/pseudo/C.pbesol-n-rrkjus_psl.1.0.0.UPF
     MD5 check sum: 05995be603a8a7c99da3dc4413f31573
     Pseudo is Ultrasoft + core correction, Zval =  4.0
     Generated using &quot;atomic&quot; code by A. Dal Corso  v.6.3MaX
     Using radial grid of 1073 points,  4 beta functions with: 
                l(1) =   0
                l(2) =   0
                l(3) =   1
                l(4) =   1
     Q(r) pseudized with 0 coefficients 


     PseudoPot. # 3 for H  read from file:
     /shared/home/as3359/pseudo/H.pbesol-rrkjus_psl.0.1.UPF
     MD5 check sum: 1dbb1a5c48b1283557b8117eb856a7ca
     Pseudo is Ultrasoft, Zval =  1.0
     Generated using "atomic" code by A. Dal Corso  v.5.0.2 svn rev. 9415
     Using radial grid of  929 points,  2 beta functions with: 
                l(1) =   0
                l(2) =   0
     Q(r) pseudized with 0 coefficients 


     atomic species   valence    mass     pseudopotential
        Ta            27.00   180.94788     Ta( 1.00)
        C              4.00    12.01070     C ( 1.00)
        H              1.00     1.00000     H ( 1.00)

      6 Sym. Ops. (no inversion) found



   Cartesian axes

     site n.     atom                  positions (alat units)
         1           C   tau(   1) = (   0.0000000   0.0000000   0.0000000  )
         2           Ta  tau(   2) = (   0.5204903   0.3005052  -0.4156024  )
         3           Ta  tau(   3) = (   0.0000000   0.6010105   0.4260806  )
         4           H   tau(   4) = (   0.0000000   0.6010105   1.0359681  )

     number of k points=    27  Marzari-Vanderbilt smearing, width (Ry)=  0.0010
                       cart. coord. in units 2pi/alat
        k(    1) = (   0.0000000   0.0000000   0.0000000), wk =   0.0088889
        k(    2) = (   0.0000000   0.0739495   0.0000000), wk =   0.0533333
        k(    3) = (   0.0000000   0.1478991   0.0000000), wk =   0.0533333
        k(    4) = (   0.0000000   0.2218486   0.0000000), wk =   0.0533333
        k(    5) = (   0.0000000   0.2957981   0.0000000), wk =   0.0533333
        k(    6) = (   0.0000000   0.3697477   0.0000000), wk =   0.0533333
        k(    7) = (   0.0000000   0.4436972   0.0000000), wk =   0.0533333
        k(    8) = (   0.0000000   0.5176467   0.0000000), wk =   0.0533333
        k(    9) = (   0.0640422   0.1109243   0.0000000), wk =   0.0533333
        k(   10) = (   0.0640422   0.1848738   0.0000000), wk =   0.1066667
        k(   11) = (   0.0640422   0.2588234   0.0000000), wk =   0.1066667
        k(   12) = (   0.0640422   0.3327729   0.0000000), wk =   0.1066667
        k(   13) = (   0.0640422   0.4067224   0.0000000), wk =   0.1066667
        k(   14) = (   0.0640422   0.4806720   0.0000000), wk =   0.1066667
        k(   15) = (   0.0640422   0.5546215   0.0000000), wk =   0.0533333
        k(   16) = (   0.1280843   0.2218486   0.0000000), wk =   0.0533333
        k(   17) = (   0.1280843   0.2957981   0.0000000), wk =   0.1066667
        k(   18) = (   0.1280843   0.3697477   0.0000000), wk =   0.1066667
        k(   19) = (   0.1280843   0.4436972   0.0000000), wk =   0.1066667
        k(   20) = (   0.1280843   0.5176467   0.0000000), wk =   0.1066667
        k(   21) = (   0.1921265   0.3327729   0.0000000), wk =   0.0533333
        k(   22) = (   0.1921265   0.4067224   0.0000000), wk =   0.1066667
        k(   23) = (   0.1921265   0.4806720   0.0000000), wk =   0.1066667
        k(   24) = (   0.1921265   0.5546215   0.0000000), wk =   0.0533333
        k(   25) = (   0.2561687   0.4436972   0.0000000), wk =   0.0533333
        k(   26) = (   0.2561687   0.5176467   0.0000000), wk =   0.1066667
        k(   27) = (   0.3202109   0.5546215   0.0000000), wk =   0.0177778

     Dense  grid:   501809 G-vectors     FFT dimensions: (  50,  50, 480)

     Smooth grid:   398305 G-vectors     FFT dimensions: (  45,  45, 450)

     Estimated max dynamical RAM per process >       2.23 GB

     Estimated total dynamical RAM >       4.45 GB

     The potential is recalculated from file :
     /scratch/as3359/Ta2CH_bandsdos/Ta.save/charge-density


     negative rho (up, down):  7.009E-05 0.000E+00
     Starting wfcs are   39 randomized atomic wfcs

     Band Structure Calculation
     Davidson diagonalization with overlap

     ethr =  1.00E-13,  avg # of iterations = 70.0

     total cpu time spent up to now is      195.0 secs

     End of band structure calculation

          k = 0.0000 0.0000 0.0000 ( 49849 PWs)   bands (ev):

   -69.2055 -68.8676 -36.0286 -35.3283 -35.3283 -35.2727 -35.1240 -35.1240
   -20.8845 -20.8480 -20.8480 -20.8385 -20.8385 -20.8163 -20.7544 -20.5445
   -20.5056 -20.5056 -20.4815 -20.4533 -20.4445 -20.4445 -14.0446  -8.4975
    -5.0075  -5.0075  -4.3622  -2.8725  -1.7745  -1.0249  -1.0249   0.9466
     0.9466   1.9199   1.9199   2.4899

          k = 0.0000 0.0739 0.0000 ( 49845 PWs)   bands (ev):

   -69.2036 -68.8657 -36.0222 -35.3660 -35.3361 -35.2642 -35.1532 -35.1302
   -20.8836 -20.8490 -20.8482 -20.8388 -20.8378 -20.8146 -20.7561 -20.5428
   -20.5058 -20.5049 -20.4833 -20.4525 -20.4455 -20.4447 -13.9707  -8.3565
    -5.2780  -4.9830  -4.2464  -2.8121  -1.7505  -1.2369  -0.9047   0.5938
     0.8369   1.9138   2.0895   2.9903

          k = 0.0000 0.1479 0.0000 ( 49803 PWs)   bands (ev):

   -69.1981 -68.8603 -36.0045 -35.4581 -35.3579 -35.2543 -35.2339 -35.1477
   -20.8813 -20.8518 -20.8489 -20.8394 -20.8356 -20.8097 -20.7611 -20.5382
   -20.5063 -20.5029 -20.4884 -20.4502 -20.4483 -20.4453 -13.7655  -7.9615
    -5.8133  -4.9287  -4.0635  -2.7172  -1.8717  -1.5709  -0.5611   0.1907
     0.7422   1.8734   2.3782   3.8026

          k = 0.0000 0.2218 0.0000 ( 49801 PWs)   bands (ev):

   -69.1899 -68.8524 -35.9803 -35.5853 -35.3897 -35.3500 -35.2450 -35.1735
   -20.8780 -20.8558 -20.8499 -20.8400 -20.8324 -20.8026 -20.7683 -20.5314
   -20.5071 -20.5005 -20.4953 -20.4522 -20.4467 -20.4460 -13.4745  -7.4332
    -6.3419  -4.8894  -3.8627  -2.8998  -2.1556  -1.5460  -0.0534   0.0667
     0.9221   1.8641   2.5864   4.3766

          k = 0.0000 0.2958 0.0000 ( 49724 PWs)   bands (ev):

   -69.1806 -68.8433 -35.9585 -35.7254 -35.4739 -35.4260 -35.2378 -35.2030
   -20.8746 -20.8602 -20.8513 -20.8402 -20.8286 -20.7944 -20.7761 -20.5236
   -20.5080 -20.5054 -20.4954 -20.4565 -20.4467 -20.4425 -13.1603  -7.2690
    -6.4103  -4.8987  -3.6484  -3.3721  -2.0655  -1.3920   0.2213   0.5402
     1.4827   1.8410   2.6850   4.8586

          k = 0.0000 0.3697 0.0000 ( 49754 PWs)   bands (ev):

   -69.1716 -68.8345 -35.9546 -35.8499 -35.5779 -35.4604 -35.2322 -35.2311
   -20.8718 -20.8643 -20.8527 -20.8398 -20.8250 -20.7865 -20.7832 -20.5167
   -20.5133 -20.5083 -20.4922 -20.4605 -20.4473 -20.4384 -12.8843  -7.5912
    -6.0509  -4.9523  -3.9442  -3.1450  -1.7953  -1.1064   0.5364   1.1966
     1.7677   2.3057   2.7481   4.8744

          k = 0.0000 0.4437 0.0000 ( 49740 PWs)   bands (ev):

   -69.1646 -68.8276 -35.9932 -35.9197 -35.6406 -35.4870 -35.2531 -35.2287
   -20.8701 -20.8672 -20.8540 -20.8391 -20.8222 -20.7885 -20.7802 -20.5194
   -20.5133 -20.5066 -20.4895 -20.4635 -20.4478 -20.4351 -12.6884  -7.8706
    -5.8637  -5.0169  -4.2610  -2.6620  -1.3587  -0.8137   0.8657   1.6939
     1.8091   2.7735   3.2782   4.7848

          k = 0.0000 0.5176 0.0000 ( 49774 PWs)   bands (ev):

   -69.1607 -68.8239 -36.0372 -35.9439 -35.6643 -35.5016 -35.2650 -35.2270
   -20.8698 -20.8683 -20.8548 -20.8385 -20.8206 -20.7913 -20.7767 -20.5228
   -20.5128 -20.5043 -20.4880 -20.4650 -20.4480 -20.4333 -12.5894  -8.0169
    -5.8209  -5.0588  -4.4212  -2.3214  -0.9780  -0.6490   1.0740   1.6919
     2.1136   3.0113   3.9185   4.7711

          k = 0.0640 0.1109 0.0000 ( 49827 PWs)   bands (ev):

   -69.1999 -68.8621 -36.0101 -35.4277 -35.3531 -35.2563 -35.2063 -35.1436
   -20.8820 -20.8509 -20.8487 -20.8392 -20.8363 -20.8113 -20.7596 -20.5397
   -20.5061 -20.5036 -20.4868 -20.4509 -20.4473 -20.4452 -13.8311  -8.0866
    -5.6502  -4.9709  -4.1006  -2.7264  -1.7550  -1.5642  -0.6826   0.4034
     0.5677   2.0532   2.2044   3.5996

          k = 0.0640 0.1849 0.0000 ( 49790 PWs)   bands (ev):

   -69.1930 -68.8554 -35.9891 -35.5326 -35.3873 -35.2987 -35.2469 -35.1685
   -20.8792 -20.8542 -20.8496 -20.8399 -20.8336 -20.8053 -20.7656 -20.5340
   -20.5066 -20.5014 -20.4929 -20.4505 -20.4480 -20.4460 -13.5827  -7.6029
    -6.1560  -4.9959  -3.8800  -2.6801  -2.1725  -1.5617  -0.3990   0.2644
     0.6084   2.0230   2.5483   4.1946

          k = 0.0640 0.2588 0.0000 ( 49758 PWs)   bands (ev):

   -69.1843 -68.8469 -35.9655 -35.6620 -35.4449 -35.3956 -35.2396 -35.1995
   -20.8758 -20.8584 -20.8508 -20.8402 -20.8302 -20.7977 -20.7732 -20.5266
   -20.5073 -20.5025 -20.4967 -20.4545 -20.4469 -20.4442 -13.2797  -7.1425
    -6.5211  -5.0586  -3.6139  -3.0658  -2.2132  -1.4561  -0.2639   0.5368
     1.0892   1.9907   2.8151   4.6877

          k = 0.0640 0.3328 0.0000 ( 49736 PWs)   bands (ev):

   -69.1751 -68.8379 -35.9507 -35.7916 -35.5387 -35.4523 -35.2375 -35.2272
   -20.8726 -20.8625 -20.8523 -20.8401 -20.8267 -20.7896 -20.7807 -20.5192
   -20.5102 -20.5078 -20.4940 -20.4585 -20.4477 -20.4401 -12.9846  -7.3418
    -6.2091  -5.1348  -3.6075  -3.2298  -1.9838  -1.3007   0.0325   0.9436
     1.7122   2.1988   2.9452   4.9888

          k = 0.0640 0.4067 0.0000 ( 49749 PWs)   bands (ev):

   -69.1671 -68.8301 -35.9643 -35.8890 -35.6153 -35.4903 -35.2605 -35.2273
   -20.8702 -20.8658 -20.8538 -20.8395 -20.8236 -20.7870 -20.7824 -20.5173
   -20.5137 -20.5073 -20.4911 -20.4620 -20.4483 -20.4364 -12.7496  -7.6695
    -5.8990  -5.2019  -3.9476  -2.8151  -1.6179  -1.0373   0.4282   1.1838
     2.1511   2.8940   3.0460   4.8699

          k = 0.0640 0.4807 0.0000 ( 49783 PWs)   bands (ev):

   -69.1617 -68.8248 -36.0114 -35.9293 -35.6537 -35.5150 -35.2787 -35.2251
   -20.8692 -20.8677 -20.8549 -20.8387 -20.8216 -20.7911 -20.7776 -20.5220
   -20.5121 -20.5048 -20.4891 -20.4642 -20.4487 -20.4339 -12.6037  -7.8838
    -5.7966  -5.2603  -4.1464  -2.4071  -1.1783  -0.7897   0.7121   1.2847
     2.6447   2.9286   3.7911   4.7619

          k = 0.0640 0.5546 0.0000 ( 49812 PWs)   bands (ev):

   -69.1598 -68.8229 -36.0341 -35.9407 -35.6637 -35.5236 -35.2851 -35.2244
   -20.8694 -20.8679 -20.8553 -20.8384 -20.8209 -20.7925 -20.7758 -20.5237
   -20.5120 -20.5036 -20.4883 -20.4650 -20.4489 -20.4330 -12.5549  -7.9567
    -5.7802  -5.2870  -4.2106  -2.2343  -0.9671  -0.6960   0.8075   1.3405
     2.8029   3.0252   4.1268   4.7331

          k = 0.1281 0.2218 0.0000 ( 49747 PWs)   bands (ev):

   -69.1856 -68.8482 -35.9683 -35.6327 -35.4500 -35.3706 -35.2397 -35.2042
   -20.8761 -20.8576 -20.8508 -20.8403 -20.8308 -20.7988 -20.7722 -20.5277
   -20.5068 -20.5018 -20.4971 -20.4535 -20.4473 -20.4448 -13.3219  -7.0732
    -6.5487  -5.2055  -3.5664  -2.6664  -2.5490  -1.3345  -0.6439   0.6230
     0.9033   2.0458   2.9741   4.6270

          k = 0.1281 0.2958 0.0000 ( 49712 PWs)   bands (ev):

   -69.1770 -68.8398 -35.9500 -35.7427 -35.5299 -35.4380 -35.2510 -35.2281
   -20.8727 -20.8612 -20.8523 -20.8403 -20.8278 -20.7914 -20.7795 -20.5206
   -20.5086 -20.5068 -20.4956 -20.4569 -20.4486 -20.4410 -13.0376  -6.9854
    -6.4347  -5.4231  -3.2478  -3.0717  -2.3312  -1.2112  -0.6786   0.8746
     1.6840   2.1072   3.4092   5.0277

          k = 0.1281 0.3697 0.0000 ( 49753 PWs)   bands (ev):

   -69.1688 -68.8318 -35.9461 -35.8413 -35.5987 -35.4985 -35.2886 -35.2244
   -20.8697 -20.8643 -20.8540 -20.8399 -20.8251 -20.7866 -20.7838 -20.5161
   -20.5139 -20.5066 -20.4931 -20.4602 -20.4497 -20.4374 -12.7845  -7.3305
    -5.9555  -5.5783  -3.4525  -2.8153  -1.9803  -1.2781  -0.2505   1.0215
     2.2366   2.6638   3.7159   5.0528

          k = 0.1281 0.4437 0.0000 ( 49792 PWs)   bands (ev):

   -69.1624 -68.8255 -35.9710 -35.9005 -35.6399 -35.5460 -35.3179 -35.2213
   -20.8679 -20.8664 -20.8554 -20.8390 -20.8232 -20.7916 -20.7783 -20.5215
   -20.5107 -20.5048 -20.4910 -20.4627 -20.4505 -20.4346 -12.6019  -7.5887
    -5.7358  -5.6502  -3.6350  -2.4451  -1.5360  -1.1269   0.0569   1.1650
     2.6309   3.1298   4.1175   4.8048

          k = 0.1281 0.5176 0.0000 ( 49823 PWs)   bands (ev):

   -69.1589 -68.8221 -36.0021 -35.9209 -35.6553 -35.5727 -35.3336 -35.2198
   -20.8682 -20.8664 -20.8563 -20.8382 -20.8223 -20.7943 -20.7752 -20.5245
   -20.5100 -20.5027 -20.4899 -20.4641 -20.4510 -20.4330 -12.5083  -7.7247
    -5.7037  -5.6634  -3.7252  -2.1832  -1.1708  -0.9333   0.1524   1.3458
     2.8667   3.1752   4.4499   4.7920

          k = 0.1921 0.3328 0.0000 ( 49725 PWs)   bands (ev):

   -69.1694 -68.8324 -35.9408 -35.8141 -35.6034 -35.4925 -35.3067 -35.2232
   -20.8695 -20.8637 -20.8541 -20.8400 -20.8257 -20.7866 -20.7842 -20.5158
   -20.5139 -20.5059 -20.4942 -20.4592 -20.4506 -20.4378 -12.7955  -7.0991
    -6.0783  -5.7327  -3.0724  -2.8135  -2.3115  -1.3013  -0.5828   0.9793
     2.3263   2.5125   4.0989   5.2785

          k = 0.1921 0.4067 0.0000 ( 49736 PWs)   bands (ev):

   -69.1628 -68.8259 -35.9440 -35.8655 -35.6523 -35.5497 -35.3585 -35.2187
   -20.8667 -20.8653 -20.8561 -20.8392 -20.8245 -20.7921 -20.7787 -20.5212
   -20.5096 -20.5043 -20.4929 -20.4612 -20.4524 -20.4350 -12.5962  -7.2626
    -6.0283  -5.6805  -3.0444  -2.4515  -2.0358  -1.4325  -0.3096   1.1099
     2.5831   3.1275   4.6295   4.9073

          k = 0.1921 0.4807 0.0000 ( 49796 PWs)   bands (ev):

   -69.1583 -68.8215 -35.9567 -35.8920 -35.6747 -35.5964 -35.3931 -35.2162
   -20.8666 -20.8646 -20.8576 -20.8380 -20.8241 -20.7960 -20.7747 -20.5251
   -20.5075 -20.5020 -20.4920 -20.4626 -20.4535 -20.4332 -12.4677  -7.3960
    -6.1090  -5.5489  -3.0891  -2.1687  -1.5845  -1.3206  -0.2446   1.3526
     2.6435   3.1868   4.4682   5.1014

          k = 0.1921 0.5546 0.0000 ( 49790 PWs)   bands (ev):

   -69.1567 -68.8200 -35.9637 -35.8993 -35.6794 -35.6158 -35.4049 -35.2155
   -20.8668 -20.8640 -20.8583 -20.8374 -20.8241 -20.7974 -20.7733 -20.5265
   -20.5071 -20.5009 -20.4917 -20.4631 -20.4539 -20.4325 -12.4238  -7.4470
    -6.1325  -5.5157  -3.1211  -2.0583  -1.3349  -1.2261  -0.2504   1.4777
     2.6840   2.9396   4.3585   5.0975

          k = 0.2562 0.4437 0.0000 ( 49765 PWs)   bands (ev):

   -69.1581 -68.8213 -35.9346 -35.8710 -35.7078 -35.5846 -35.4253 -35.2149
   -20.8657 -20.8638 -20.8584 -20.8379 -20.8249 -20.7967 -20.7746 -20.5253
   -20.5064 -20.5016 -20.4932 -20.4616 -20.4549 -20.4333 -12.4516  -7.1874
    -6.3415  -5.4894  -2.5441  -2.1824  -2.0571  -1.4960  -0.3617   1.3444
     2.5508   3.1754   4.4533   5.1242

          k = 0.2562 0.5176 0.0000 ( 49773 PWs)   bands (ev):

   -69.1556 -68.8188 -35.9149 -35.8745 -35.7506 -35.6003 -35.4667 -35.2131
   -20.8651 -20.8624 -20.8602 -20.8367 -20.8257 -20.7992 -20.7723 -20.5275
   -20.5046 -20.4999 -20.4936 -20.4615 -20.4567 -20.4324 -12.3736  -7.1444
    -6.5048  -5.3866  -2.4519  -2.0375  -1.6902  -1.4694  -0.4268   1.5097
     2.3944   2.7199   4.3320   5.2909

          k = 0.3202 0.5546 0.0000 ( 49815 PWs)   bands (ev):

   -69.1546 -68.8179 -35.8723 -35.8591 -35.8146 -35.5904 -35.5040 -35.2121
   -20.8634 -20.8623 -20.8615 -20.8358 -20.8267 -20.8003 -20.7715 -20.5284
   -20.5031 -20.4992 -20.4945 -20.4598 -20.4592 -20.4321 -12.3396  -6.9082
    -6.7866  -5.3178  -2.1475  -1.9113  -1.7601  -1.5839  -0.4884   1.5264
     2.1975   2.5055   4.3177   5.5586

     the Fermi energy is    -1.2065 ev
     (compare with:    -1.2065 eV, computed in scf)

     Writing output data file /scratch/as3359/Ta2CH_bandsdos/Ta.save/
 
     init_run     :      9.97s CPU      7.47s WALL (       1 calls)
     electrons    :    370.05s CPU    187.18s WALL (       1 calls)

     Called by init_run:
     wfcinit      :      0.11s CPU      0.12s WALL (       1 calls)
     potinit      :      0.43s CPU      0.27s WALL (       1 calls)
     hinit0       :      7.61s CPU      5.90s WALL (       1 calls)

     Called by electrons:
     c_bands      :    370.05s CPU    187.18s WALL (       1 calls)
     v_of_rho     :      0.34s CPU      0.19s WALL (       1 calls)
     newd         :      1.60s CPU      0.95s WALL (       1 calls)

     Called by c_bands:
     init_us_2    :      0.28s CPU      0.14s WALL (      27 calls)
     cegterg      :    355.44s CPU    179.59s WALL (     104 calls)

     Called by *egterg:
     cdiaghg      :      4.94s CPU      2.52s WALL (    1918 calls)
     h_psi        :    280.71s CPU    141.99s WALL (    2022 calls)
     s_psi        :     12.13s CPU      6.07s WALL (    2022 calls)
     g_psi        :      2.41s CPU      1.21s WALL (    1891 calls)

     Called by h_psi:
     h_psi:calbec :     10.52s CPU      5.27s WALL (    2022 calls)
     vloc_psi     :    255.56s CPU    129.31s WALL (    2022 calls)
     add_vuspsi   :     12.75s CPU      6.38s WALL (    2022 calls)

     General routines
     calbec       :     10.50s CPU      5.26s WALL (    2022 calls)
     fft          :      1.28s CPU      1.02s WALL (      13 calls)
     ffts         :      0.01s CPU      0.01s WALL (       1 calls)
     fftw         :    227.93s CPU    115.40s WALL (   61784 calls)
     interpolate  :      0.03s CPU      0.02s WALL (       1 calls)
     davcio       :      0.23s CPU      0.23s WALL (      54 calls)
 
     Parallel routines
 
     PWSCF        :   6m22.39s CPU   3m16.94s WALL

 
   This run was terminated on:  21:22: 2  21Apr2022            

=------------------------------------------------------------------------------=
   JOB DONE.
=------------------------------------------------------------------------------=
