
     Program BANDS v.6.8 starts on 21Apr2022 at 21:44:45 

     This program is part of the open-source Quantum ESPRESSO suite
     for quantum simulation of materials; please cite
         "P. Giannozzi et al., J. Phys.:Condens. Matter 21 395502 (2009);
         "P. Giannozzi et al., J. Phys.:Condens. Matter 29 465901 (2017);
         "P. Giannozzi et al., J. Chem. Phys. 152 154105 (2020);
          URL http://www.quantum-espresso.org", 
     in publications or presentations arising from this work. More details at
     http://www.quantum-espresso.org/quote

     Parallel version (MPI & OpenMP), running on       4 processor cores
     Number of MPI processes:                 2
     Threads/MPI process:                     2

     MPI processes distributed on     1 nodes
     R & G space division:  proc/nbgrp/npool/nimage =       2
     119285 MiB available memory on the printing compute node when the environment starts
 

     Reading xml data from directory:

     /scratch/as3359/Ta2CH_bandsdos/Ta.save/
     file Ta.pbesol-spfn-rrkjus_psl.1.0.0.UPF: wavefunction(s)  5S 5P renormalized

     IMPORTANT: XC functional enforced from input :
     Exchange-correlation= PBESOL
                           (   1   4  10   8   0   0   0)
     Any further DFT definition will be discarded
     Please, verify this is what you really want

 
     Parallelization info
     --------------------
     sticks:   dense  smooth     PW     G-vecs:    dense   smooth      PW
     Min         807     690    189               250889   199152   29477
     Max         808     691    190               250920   199153   29510
     Sum        1615    1381    379               501809   398305   58987
 
     Using Slab Decomposition
 

     negative rho (up, down):  7.009E-05 0.000E+00
     Reading collected, re-writing distributed wavefunctions
     high-symmetry point:  0.0000 0.0000 0.0000   x coordinate   0.0000
     high-symmetry point:  0.6404-0.0000 0.0000   x coordinate   0.6404
     high-symmetry point:  0.4803-0.2773 0.0000   x coordinate   0.9606
     high-symmetry point:  0.0000 0.0000 0.0000   x coordinate   1.5153

     Plottable bands (eV) written to file Ta2CH.Bandx.dat.gnu
     Bands written to file Ta2CH.Bandx.dat

 **************************************************************************

                    xk=(   0.00000,   0.00000,   0.00000  )

     point group C_3v (3m)  
     there are  3 classes
     the character table:

       E     2C3   3s_v 
A_1    1.00  1.00  1.00
A_2    1.00  1.00 -1.00
E      2.00 -1.00  0.00

     the symmetry operations in each class and the name of the first element:

     E        1
                                                                 
     2C3      2    3
                                                                 
     3s_v     4    5    6
                                                                 

     Band symmetry, C_3v (3m)   point group:

     e(  1 -  1) =    -69.20555  eV     1   --> A_1  L_1       
     e(  2 -  2) =    -68.86764  eV     1   --> A_1  L_1       
     e(  3 -  3) =    -36.02860  eV     1   --> A_1  L_1       
     e(  4 -  5) =    -35.32834  eV     2   --> E    L_3       
     e(  6 -  6) =    -35.27271  eV     1   --> A_1  L_1       
     e(  7 -  8) =    -35.12403  eV     2   --> E    L_3       
     e(  9 -  9) =    -20.88449  eV     1   --> A_1  L_1       
     e( 10 - 11) =    -20.84804  eV     2   --> E    L_3       
     e( 12 - 13) =    -20.83852  eV     2   --> E    L_3       
     e( 14 - 14) =    -20.81628  eV     1   --> A_1  L_1       
     e( 15 - 15) =    -20.75435  eV     1   --> A_2  L_2       
     e( 16 - 16) =    -20.54447  eV     1   --> A_1  L_1       
     e( 17 - 18) =    -20.50561  eV     2   --> E    L_3       
     e( 19 - 19) =    -20.48149  eV     1   --> A_2  L_2       
     e( 20 - 20) =    -20.45328  eV     1   --> A_1  L_1       
     e( 21 - 22) =    -20.44452  eV     2   --> E    L_3       
     e( 23 - 23) =    -14.04464  eV     1   --> A_1  L_1       
     e( 24 - 24) =     -8.49752  eV     1   --> A_1  L_1       
     e( 25 - 26) =     -5.00750  eV     2   --> E    L_3       
     e( 27 - 27) =     -4.36222  eV     1   --> A_1  L_1       
     e( 28 - 28) =     -2.87249  eV     1   --> A_1  L_1       
     e( 29 - 29) =     -1.77452  eV     1   --> A_1  L_1       
     e( 30 - 31) =     -1.02495  eV     2   --> E    L_3       
     e( 32 - 33) =      0.94655  eV     2   --> E    L_3       
     e( 34 - 35) =      1.91986  eV     2   --> E    L_3       
     e( 36 - 36) =      2.48994  eV     1   --> A_1  L_1       
     e( 37 - 37) =      3.59798  eV     1   --> A_1  L_1       
     e( 38 - 38) =      4.20805  eV     1   --> A_1  L_1       
     e( 39 - 39) =      4.73645  eV     1   --> A_1  L_1       
     e( 40 - 40) =      5.25506  eV     1   --> A_1  L_1       
     e( 41 - 41) =      5.45378  eV     1   --> A_1  L_1       
     e( 42 - 42) =      6.23883  eV     1   --> A_1  L_1       

 **************************************************************************

 **************************************************************************

                    xk=(   0.02135,  -0.00000,   0.00000  )

     point group C_1 (1)    
     there are  1 classes
     the character table:

       E    
A      1.00

     the symmetry operations in each class and the name of the first element:

     E        1
                                                                 

     Band symmetry, C_1 (1)     point group:

     e(  1 -  1) =    -69.20538  eV     1   --> A              
     e(  2 -  2) =    -68.86747  eV     1   --> A              
     e(  3 -  3) =    -36.02806  eV     1   --> A              
     e(  4 -  4) =    -35.33188  eV     1   --> A              
     e(  5 -  5) =    -35.32899  eV     1   --> A              
     e(  6 -  6) =    -35.27163  eV     1   --> A              
     e(  7 -  7) =    -35.12650  eV     1   --> A              
     e(  8 -  8) =    -35.12455  eV     1   --> A              
     e(  9 -  9) =    -20.88442  eV     1   --> A              
     e( 10 - 11) =    -20.84812  eV     2   -->   2 A              
     e( 12 - 13) =    -20.83854  eV     2   -->   2 A              
     e( 14 - 14) =    -20.81613  eV     1   --> A              
     e( 15 - 15) =    -20.75450  eV     1   --> A              
     e( 16 - 16) =    -20.54433  eV     1   --> A              
     e( 17 - 18) =    -20.50562  eV     2   -->   2 A              
     e( 19 - 19) =    -20.48165  eV     1   --> A              
     e( 20 - 20) =    -20.45321  eV     1   --> A              
     e( 21 - 22) =    -20.44460  eV     2   -->   2 A              
     e( 23 - 23) =    -14.03838  eV     1   --> A              
     e( 24 - 24) =     -8.48560  eV     1   --> A              
     e( 25 - 25) =     -5.03439  eV     1   --> A              
     e( 26 - 26) =     -5.00534  eV     1   --> A              
     e( 27 - 27) =     -4.34914  eV     1   --> A              
     e( 28 - 28) =     -2.86681  eV     1   --> A              
     e( 29 - 29) =     -1.77196  eV     1   --> A              
     e( 30 - 30) =     -1.04370  eV     1   --> A              
     e( 31 - 31) =     -1.01482  eV     1   --> A              
     e( 32 - 32) =      0.90463  eV     1   --> A              
     e( 33 - 33) =      0.93417  eV     1   --> A              
     e( 34 - 34) =      1.92447  eV     1   --> A              
     e( 35 - 35) =      1.93565  eV     1   --> A              
     e( 36 - 36) =      2.54033  eV     1   --> A              
     e( 37 - 37) =      3.61105  eV     1   --> A              
     e( 38 - 38) =      4.22148  eV     1   --> A              
     e( 39 - 39) =      4.74491  eV     1   --> A              
     e( 40 - 40) =      5.26347  eV     1   --> A              
     e( 41 - 41) =      5.46377  eV     1   --> A              
     e( 42 - 42) =      6.24013  eV     1   --> A              

 **************************************************************************

 **************************************************************************

                    xk=(   0.04269,  -0.00000,   0.00000  )

     Band symmetry, C_1 (1)     point group:

     e(  1 -  1) =    -69.20489  eV     1   --> A              
     e(  2 -  2) =    -68.86699  eV     1   --> A              
     e(  3 -  3) =    -36.02644  eV     1   --> A              
     e(  4 -  4) =    -35.34188  eV     1   --> A              
     e(  5 -  5) =    -35.33097  eV     1   --> A              
     e(  6 -  6) =    -35.26898  eV     1   --> A              
     e(  7 -  7) =    -35.13386  eV     1   --> A              
     e(  8 -  8) =    -35.12614  eV     1   --> A              
     e(  9 -  9) =    -20.88420  eV     1   --> A              
     e( 10 - 10) =    -20.84838  eV     1   --> A              
     e( 11 - 11) =    -20.84811  eV     1   --> A              
     e( 12 - 12) =    -20.83861  eV     1   --> A              
     e( 13 - 13) =    -20.83826  eV     1   --> A              
     e( 14 - 14) =    -20.81570  eV     1   --> A              
     e( 15 - 15) =    -20.75496  eV     1   --> A              
     e( 16 - 16) =    -20.54392  eV     1   --> A              
     e( 17 - 17) =    -20.50567  eV     1   --> A              
     e( 18 - 18) =    -20.50536  eV     1   --> A              
     e( 19 - 19) =    -20.48211  eV     1   --> A              
     e( 20 - 20) =    -20.45301  eV     1   --> A              
     e( 21 - 21) =    -20.44485  eV     1   --> A              
     e( 22 - 22) =    -20.44459  eV     1   --> A              
     e( 23 - 23) =    -14.01969  eV     1   --> A              
     e( 24 - 24) =     -8.45002  eV     1   --> A              
     e( 25 - 25) =     -5.10861  eV     1   --> A              
     e( 26 - 26) =     -4.99926  eV     1   --> A              
     e( 27 - 27) =     -4.31502  eV     1   --> A              
     e( 28 - 28) =     -2.85052  eV     1   --> A              
     e( 29 - 29) =     -1.76480  eV     1   --> A              
     e( 30 - 30) =     -1.09896  eV     1   --> A              
     e( 31 - 31) =     -0.98454  eV     1   --> A              
     e( 32 - 32) =      0.80105  eV     1   --> A              
     e( 33 - 33) =      0.89731  eV     1   --> A              
     e( 34 - 34) =      1.93914  eV     1   --> A              
     e( 35 - 35) =      1.97100  eV     1   --> A              
     e( 36 - 36) =      2.68074  eV     1   --> A              
     e( 37 - 37) =      3.64950  eV     1   --> A              
     e( 38 - 38) =      4.26151  eV     1   --> A              
     e( 39 - 39) =      4.77027  eV     1   --> A              
     e( 40 - 40) =      5.28867  eV     1   --> A              
     e( 41 - 41) =      5.49338  eV     1   --> A              
     e( 42 - 42) =      6.23633  eV     1   --> A              

 **************************************************************************

 **************************************************************************

                    xk=(   0.06404,  -0.00000,   0.00000  )

     Band symmetry, C_1 (1)     point group:

     e(  1 -  1) =    -69.20408  eV     1   --> A              
     e(  2 -  2) =    -68.86620  eV     1   --> A              
     e(  3 -  3) =    -36.02377  eV     1   --> A              
     e(  4 -  4) =    -35.35717  eV     1   --> A              
     e(  5 -  5) =    -35.33431  eV     1   --> A              
     e(  6 -  6) =    -35.26571  eV     1   --> A              
     e(  7 -  7) =    -35.14591  eV     1   --> A              
     e(  8 -  8) =    -35.12880  eV     1   --> A              
     e(  9 -  9) =    -20.88385  eV     1   --> A              
     e( 10 - 10) =    -20.84879  eV     1   --> A              
     e( 11 - 11) =    -20.84820  eV     1   --> A              
     e( 12 - 12) =    -20.83873  eV     1   --> A              
     e( 13 - 13) =    -20.83794  eV     1   --> A              
     e( 14 - 14) =    -20.81498  eV     1   --> A              
     e( 15 - 15) =    -20.75571  eV     1   --> A              
     e( 16 - 16) =    -20.54324  eV     1   --> A              
     e( 17 - 17) =    -20.50574  eV     1   --> A              
     e( 18 - 18) =    -20.50506  eV     1   --> A              
     e( 19 - 19) =    -20.48286  eV     1   --> A              
     e( 20 - 20) =    -20.45268  eV     1   --> A              
     e( 21 - 21) =    -20.44526  eV     1   --> A              
     e( 22 - 22) =    -20.44469  eV     1   --> A              
     e( 23 - 23) =    -13.98895  eV     1   --> A              
     e( 24 - 24) =     -8.39129  eV     1   --> A              
     e( 25 - 25) =     -5.21725  eV     1   --> A              
     e( 26 - 26) =     -4.99044  eV     1   --> A              
     e( 27 - 27) =     -4.26905  eV     1   --> A              
     e( 28 - 28) =     -2.82562  eV     1   --> A              
     e( 29 - 29) =     -1.75451  eV     1   --> A              
     e( 30 - 30) =     -1.18774  eV     1   --> A              
     e( 31 - 31) =     -0.93447  eV     1   --> A              
     e( 32 - 32) =      0.67572  eV     1   --> A              
     e( 33 - 33) =      0.83734  eV     1   --> A              
     e( 34 - 34) =      1.96465  eV     1   --> A              
     e( 35 - 35) =      2.01238  eV     1   --> A              
     e( 36 - 36) =      2.88376  eV     1   --> A              
     e( 37 - 37) =      3.71155  eV     1   --> A              
     e( 38 - 38) =      4.32738  eV     1   --> A              
     e( 39 - 39) =      4.81256  eV     1   --> A              
     e( 40 - 40) =      5.33052  eV     1   --> A              
     e( 41 - 41) =      5.54160  eV     1   --> A              
     e( 42 - 42) =      6.21700  eV     1   --> A              

 **************************************************************************

 **************************************************************************

                    xk=(   0.08539,  -0.00000,   0.00000  )

     Band symmetry, C_1 (1)     point group:

     e(  1 -  1) =    -69.20296  eV     1   --> A              
     e(  2 -  2) =    -68.86511  eV     1   --> A              
     e(  3 -  3) =    -36.02011  eV     1   --> A              
     e(  4 -  4) =    -35.37693  eV     1   --> A              
     e(  5 -  5) =    -35.33905  eV     1   --> A              
     e(  6 -  6) =    -35.26240  eV     1   --> A              
     e(  7 -  7) =    -35.16234  eV     1   --> A              
     e(  8 -  8) =    -35.13257  eV     1   --> A              
     e(  9 -  9) =    -20.88336  eV     1   --> A              
     e( 10 - 10) =    -20.84936  eV     1   --> A              
     e( 11 - 11) =    -20.84832  eV     1   --> A              
     e( 12 - 12) =    -20.83888  eV     1   --> A              
     e( 13 - 13) =    -20.83751  eV     1   --> A              
     e( 14 - 14) =    -20.81400  eV     1   --> A              
     e( 15 - 15) =    -20.75673  eV     1   --> A              
     e( 16 - 16) =    -20.54230  eV     1   --> A              
     e( 17 - 17) =    -20.50584  eV     1   --> A              
     e( 18 - 18) =    -20.50466  eV     1   --> A              
     e( 19 - 19) =    -20.48390  eV     1   --> A              
     e( 20 - 20) =    -20.45222  eV     1   --> A              
     e( 21 - 21) =    -20.44581  eV     1   --> A              
     e( 22 - 22) =    -20.44482  eV     1   --> A              
     e( 23 - 23) =    -13.94671  eV     1   --> A              
     e( 24 - 24) =     -8.31029  eV     1   --> A              
     e( 25 - 25) =     -5.34890  eV     1   --> A              
     e( 26 - 26) =     -4.98087  eV     1   --> A              
     e( 27 - 27) =     -4.21717  eV     1   --> A              
     e( 28 - 28) =     -2.79483  eV     1   --> A              
     e( 29 - 29) =     -1.74344  eV     1   --> A              
     e( 30 - 30) =     -1.30460  eV     1   --> A              
     e( 31 - 31) =     -0.86559  eV     1   --> A              
     e( 32 - 32) =      0.55806  eV     1   --> A              
     e( 33 - 33) =      0.75778  eV     1   --> A              
     e( 34 - 34) =      1.99756  eV     1   --> A              
     e( 35 - 35) =      2.06040  eV     1   --> A              
     e( 36 - 36) =      3.11955  eV     1   --> A              
     e( 37 - 37) =      3.79558  eV     1   --> A              
     e( 38 - 38) =      4.41787  eV     1   --> A              
     e( 39 - 39) =      4.87182  eV     1   --> A              
     e( 40 - 40) =      5.38884  eV     1   --> A              
     e( 41 - 41) =      5.60666  eV     1   --> A              
     e( 42 - 42) =      6.18525  eV     1   --> A              

 **************************************************************************

 **************************************************************************

                    xk=(   0.10674,  -0.00000,   0.00000  )

     Band symmetry, C_1 (1)     point group:

     e(  1 -  1) =    -69.20155  eV     1   --> A              
     e(  2 -  2) =    -68.86373  eV     1   --> A              
     e(  3 -  3) =    -36.01554  eV     1   --> A              
     e(  4 -  4) =    -35.40059  eV     1   --> A              
     e(  5 -  5) =    -35.34528  eV     1   --> A              
     e(  6 -  6) =    -35.25924  eV     1   --> A              
     e(  7 -  7) =    -35.18269  eV     1   --> A              
     e(  8 -  8) =    -35.13749  eV     1   --> A              
     e(  9 -  9) =    -20.88275  eV     1   --> A              
     e( 10 - 10) =    -20.85007  eV     1   --> A              
     e( 11 - 11) =    -20.84848  eV     1   --> A              
     e( 12 - 12) =    -20.83905  eV     1   --> A              
     e( 13 - 13) =    -20.83695  eV     1   --> A              
     e( 14 - 14) =    -20.81276  eV     1   --> A              
     e( 15 - 15) =    -20.75802  eV     1   --> A              
     e( 16 - 16) =    -20.54111  eV     1   --> A              
     e( 17 - 17) =    -20.50595  eV     1   --> A              
     e( 18 - 18) =    -20.50416  eV     1   --> A              
     e( 19 - 19) =    -20.48521  eV     1   --> A              
     e( 20 - 20) =    -20.45163  eV     1   --> A              
     e( 21 - 21) =    -20.44650  eV     1   --> A              
     e( 22 - 22) =    -20.44499  eV     1   --> A              
     e( 23 - 23) =    -13.89378  eV     1   --> A              
     e( 24 - 24) =     -8.20823  eV     1   --> A              
     e( 25 - 25) =     -5.49525  eV     1   --> A              
     e( 26 - 26) =     -4.97328  eV     1   --> A              
     e( 27 - 27) =     -4.16124  eV     1   --> A              
     e( 28 - 28) =     -2.76095  eV     1   --> A              
     e( 29 - 29) =     -1.73656  eV     1   --> A              
     e( 30 - 30) =     -1.43953  eV     1   --> A              
     e( 31 - 31) =     -0.78009  eV     1   --> A              
     e( 32 - 32) =      0.46466  eV     1   --> A              
     e( 33 - 33) =      0.66483  eV     1   --> A              
     e( 34 - 34) =      2.02915  eV     1   --> A              
     e( 35 - 35) =      2.12302  eV     1   --> A              
     e( 36 - 36) =      3.36427  eV     1   --> A              
     e( 37 - 37) =      3.90124  eV     1   --> A              
     e( 38 - 38) =      4.53143  eV     1   --> A              
     e( 39 - 39) =      4.94816  eV     1   --> A              
     e( 40 - 40) =      5.46338  eV     1   --> A              
     e( 41 - 41) =      5.68560  eV     1   --> A              
     e( 42 - 42) =      6.14882  eV     1   --> A              

 **************************************************************************

 **************************************************************************

                    xk=(   0.12808,  -0.00000,   0.00000  )

     Band symmetry, C_1 (1)     point group:

     e(  1 -  1) =    -69.19986  eV     1   --> A              
     e(  2 -  2) =    -68.86209  eV     1   --> A              
     e(  3 -  3) =    -36.01014  eV     1   --> A              
     e(  4 -  4) =    -35.42768  eV     1   --> A              
     e(  5 -  5) =    -35.35312  eV     1   --> A              
     e(  6 -  6) =    -35.25630  eV     1   --> A              
     e(  7 -  7) =    -35.20634  eV     1   --> A              
     e(  8 -  8) =    -35.14357  eV     1   --> A              
     e(  9 -  9) =    -20.88203  eV     1   --> A              
     e( 10 - 10) =    -20.85092  eV     1   --> A              
     e( 11 - 11) =    -20.84869  eV     1   --> A              
     e( 12 - 12) =    -20.83925  eV     1   --> A              
     e( 13 - 13) =    -20.83629  eV     1   --> A              
     e( 14 - 14) =    -20.81129  eV     1   --> A              
     e( 15 - 15) =    -20.75955  eV     1   --> A              
     e( 16 - 16) =    -20.53970  eV     1   --> A              
     e( 17 - 17) =    -20.50609  eV     1   --> A              
     e( 18 - 18) =    -20.50357  eV     1   --> A              
     e( 19 - 19) =    -20.48677  eV     1   --> A              
     e( 20 - 20) =    -20.45092  eV     1   --> A              
     e( 21 - 21) =    -20.44730  eV     1   --> A              
     e( 22 - 22) =    -20.44520  eV     1   --> A              
     e( 23 - 23) =    -13.83112  eV     1   --> A              
     e( 24 - 24) =     -8.08663  eV     1   --> A              
     e( 25 - 25) =     -5.65018  eV     1   --> A              
     e( 26 - 26) =     -4.97095  eV     1   --> A              
     e( 27 - 27) =     -4.10064  eV     1   --> A              
     e( 28 - 28) =     -2.72643  eV     1   --> A              
     e( 29 - 29) =     -1.75499  eV     1   --> A              
     e( 30 - 30) =     -1.56419  eV     1   --> A              
     e( 31 - 31) =     -0.68256  eV     1   --> A              
     e( 32 - 32) =      0.40342  eV     1   --> A              
     e( 33 - 33) =      0.56769  eV     1   --> A              
     e( 34 - 34) =      2.05319  eV     1   --> A              
     e( 35 - 35) =      2.20439  eV     1   --> A              
     e( 36 - 36) =      3.59964  eV     1   --> A              
     e( 37 - 37) =      4.02992  eV     1   --> A              
     e( 38 - 38) =      4.66602  eV     1   --> A              
     e( 39 - 39) =      5.04173  eV     1   --> A              
     e( 40 - 40) =      5.55369  eV     1   --> A              
     e( 41 - 41) =      5.77232  eV     1   --> A              
     e( 42 - 42) =      6.11706  eV     1   --> A              

 **************************************************************************

 **************************************************************************

                    xk=(   0.14943,  -0.00000,   0.00000  )

     Band symmetry, C_1 (1)     point group:

     e(  1 -  1) =    -69.19793  eV     1   --> A              
     e(  2 -  2) =    -68.86020  eV     1   --> A              
     e(  3 -  3) =    -36.00402  eV     1   --> A              
     e(  4 -  4) =    -35.45773  eV     1   --> A              
     e(  5 -  5) =    -35.36274  eV     1   --> A              
     e(  6 -  6) =    -35.25386  eV     1   --> A              
     e(  7 -  7) =    -35.23229  eV     1   --> A              
     e(  8 -  8) =    -35.15084  eV     1   --> A              
     e(  9 -  9) =    -20.88122  eV     1   --> A              
     e( 10 - 10) =    -20.85187  eV     1   --> A              
     e( 11 - 11) =    -20.84893  eV     1   --> A              
     e( 12 - 12) =    -20.83945  eV     1   --> A              
     e( 13 - 13) =    -20.83554  eV     1   --> A              
     e( 14 - 14) =    -20.80960  eV     1   --> A              
     e( 15 - 15) =    -20.76129  eV     1   --> A              
     e( 16 - 16) =    -20.53808  eV     1   --> A              
     e( 17 - 17) =    -20.50623  eV     1   --> A              
     e( 18 - 18) =    -20.50293  eV     1   --> A              
     e( 19 - 19) =    -20.48854  eV     1   --> A              
     e( 20 - 20) =    -20.45011  eV     1   --> A              
     e( 21 - 21) =    -20.44820  eV     1   --> A              
     e( 22 - 22) =    -20.44545  eV     1   --> A              
     e( 23 - 23) =    -13.75987  eV     1   --> A              
     e( 24 - 24) =     -7.94737  eV     1   --> A              
     e( 25 - 25) =     -5.80897  eV     1   --> A              
     e( 26 - 26) =     -4.97730  eV     1   --> A              
     e( 27 - 27) =     -4.03369  eV     1   --> A              
     e( 28 - 28) =     -2.69303  eV     1   --> A              
     e( 29 - 29) =     -1.85689  eV     1   --> A              
     e( 30 - 30) =     -1.61147  eV     1   --> A              
     e( 31 - 31) =     -0.58241  eV     1   --> A              
     e( 32 - 32) =      0.37676  eV     1   --> A              
     e( 33 - 33) =      0.47997  eV     1   --> A              
     e( 34 - 34) =      2.06854  eV     1   --> A              
     e( 35 - 35) =      2.30283  eV     1   --> A              
     e( 36 - 36) =      3.81285  eV     1   --> A              
     e( 37 - 37) =      4.18290  eV     1   --> A              
     e( 38 - 38) =      4.81874  eV     1   --> A              
     e( 39 - 39) =      5.15254  eV     1   --> A              
     e( 40 - 40) =      5.65891  eV     1   --> A              
     e( 41 - 41) =      5.85023  eV     1   --> A              
     e( 42 - 42) =      6.10900  eV     1   --> A              

 **************************************************************************

 **************************************************************************

                    xk=(   0.17078,  -0.00000,   0.00000  )

     Band symmetry, C_1 (1)     point group:

     e(  1 -  1) =    -69.19578  eV     1   --> A              
     e(  2 -  2) =    -68.85810  eV     1   --> A              
     e(  3 -  3) =    -35.99734  eV     1   --> A              
     e(  4 -  4) =    -35.49023  eV     1   --> A              
     e(  5 -  5) =    -35.37441  eV     1   --> A              
     e(  6 -  6) =    -35.26286  eV     1   --> A              
     e(  7 -  7) =    -35.24868  eV     1   --> A              
     e(  8 -  8) =    -35.15929  eV     1   --> A              
     e(  9 -  9) =    -20.88031  eV     1   --> A              
     e( 10 - 10) =    -20.85291  eV     1   --> A              
     e( 11 - 11) =    -20.84921  eV     1   --> A              
     e( 12 - 12) =    -20.83965  eV     1   --> A              
     e( 13 - 13) =    -20.83469  eV     1   --> A              
     e( 14 - 14) =    -20.80772  eV     1   --> A              
     e( 15 - 15) =    -20.76322  eV     1   --> A              
     e( 16 - 16) =    -20.53627  eV     1   --> A              
     e( 17 - 17) =    -20.50637  eV     1   --> A              
     e( 18 - 18) =    -20.50225  eV     1   --> A              
     e( 19 - 19) =    -20.49049  eV     1   --> A              
     e( 20 - 20) =    -20.44931  eV     1   --> A              
     e( 21 - 21) =    -20.44907  eV     1   --> A              
     e( 22 - 22) =    -20.44574  eV     1   --> A              
     e( 23 - 23) =    -13.68130  eV     1   --> A              
     e( 24 - 24) =     -7.79262  eV     1   --> A              
     e( 25 - 25) =     -5.96782  eV     1   --> A              
     e( 26 - 26) =     -4.99536  eV     1   --> A              
     e( 27 - 27) =     -3.95861  eV     1   --> A              
     e( 28 - 28) =     -2.66172  eV     1   --> A              
     e( 29 - 29) =     -2.01760  eV     1   --> A              
     e( 30 - 30) =     -1.59636  eV     1   --> A              
     e( 31 - 31) =     -0.49785  eV     1   --> A              
     e( 32 - 32) =      0.38427  eV     1   --> A              
     e( 33 - 33) =      0.42245  eV     1   --> A              
     e( 34 - 34) =      2.07539  eV     1   --> A              
     e( 35 - 35) =      2.41556  eV     1   --> A              
     e( 36 - 36) =      4.00064  eV     1   --> A              
     e( 37 - 37) =      4.35663  eV     1   --> A              
     e( 38 - 38) =      4.98527  eV     1   --> A              
     e( 39 - 39) =      5.27993  eV     1   --> A              
     e( 40 - 40) =      5.77666  eV     1   --> A              
     e( 41 - 41) =      5.88721  eV     1   --> A              
     e( 42 - 42) =      6.15955  eV     1   --> A              

 **************************************************************************

 **************************************************************************

                    xk=(   0.19213,  -0.00000,   0.00000  )

     Band symmetry, C_1 (1)     point group:

     e(  1 -  1) =    -69.19343  eV     1   --> A              
     e(  2 -  2) =    -68.85581  eV     1   --> A              
     e(  3 -  3) =    -35.99024  eV     1   --> A              
     e(  4 -  4) =    -35.52459  eV     1   --> A              
     e(  5 -  5) =    -35.38851  eV     1   --> A              
     e(  6 -  6) =    -35.29087  eV     1   --> A              
     e(  7 -  7) =    -35.24691  eV     1   --> A              
     e(  8 -  8) =    -35.16891  eV     1   --> A              
     e(  9 -  9) =    -20.87934  eV     1   --> A              
     e( 10 - 10) =    -20.85403  eV     1   --> A              
     e( 11 - 11) =    -20.84954  eV     1   --> A              
     e( 12 - 12) =    -20.83984  eV     1   --> A              
     e( 13 - 13) =    -20.83378  eV     1   --> A              
     e( 14 - 14) =    -20.80568  eV     1   --> A              
     e( 15 - 15) =    -20.76530  eV     1   --> A              
     e( 16 - 16) =    -20.53430  eV     1   --> A              
     e( 17 - 17) =    -20.50651  eV     1   --> A              
     e( 18 - 18) =    -20.50158  eV     1   --> A              
     e( 19 - 19) =    -20.49255  eV     1   --> A              
     e( 20 - 20) =    -20.45022  eV     1   --> A              
     e( 21 - 21) =    -20.44818  eV     1   --> A              
     e( 22 - 22) =    -20.44606  eV     1   --> A              
     e( 23 - 23) =    -13.59677  eV     1   --> A              
     e( 24 - 24) =     -7.62487  eV     1   --> A              
     e( 25 - 25) =     -6.12361  eV     1   --> A              
     e( 26 - 26) =     -5.02716  eV     1   --> A              
     e( 27 - 27) =     -3.87418  eV     1   --> A              
     e( 28 - 28) =     -2.63270  eV     1   --> A              
     e( 29 - 29) =     -2.19005  eV     1   --> A              
     e( 30 - 30) =     -1.55671  eV     1   --> A              
     e( 31 - 31) =     -0.45612  eV     1   --> A              
     e( 32 - 32) =      0.41543  eV     1   --> A              
     e( 33 - 33) =      0.43185  eV     1   --> A              
     e( 34 - 34) =      2.07444  eV     1   --> A              
     e( 35 - 35) =      2.54032  eV     1   --> A              
     e( 36 - 36) =      4.16951  eV     1   --> A              
     e( 37 - 37) =      4.54208  eV     1   --> A              
     e( 38 - 38) =      5.16027  eV     1   --> A              
     e( 39 - 39) =      5.42169  eV     1   --> A              
     e( 40 - 40) =      5.86638  eV     1   --> A              
     e( 41 - 41) =      5.91973  eV     1   --> A              
     e( 42 - 42) =      6.27167  eV     1   --> A              

 **************************************************************************

 **************************************************************************

                    xk=(   0.21347,  -0.00000,   0.00000  )

     Band symmetry, C_1 (1)     point group:

     e(  1 -  1) =    -69.19093  eV     1   --> A              
     e(  2 -  2) =    -68.85337  eV     1   --> A              
     e(  3 -  3) =    -35.98290  eV     1   --> A              
     e(  4 -  4) =    -35.56023  eV     1   --> A              
     e(  5 -  5) =    -35.40559  eV     1   --> A              
     e(  6 -  6) =    -35.31924  eV     1   --> A              
     e(  7 -  7) =    -35.24439  eV     1   --> A              
     e(  8 -  8) =    -35.17967  eV     1   --> A              
     e(  9 -  9) =    -20.87831  eV     1   --> A              
     e( 10 - 10) =    -20.85519  eV     1   --> A              
     e( 11 - 11) =    -20.84991  eV     1   --> A              
     e( 12 - 12) =    -20.84001  eV     1   --> A              
     e( 13 - 13) =    -20.83281  eV     1   --> A              
     e( 14 - 14) =    -20.80350  eV     1   --> A              
     e( 15 - 15) =    -20.76750  eV     1   --> A              
     e( 16 - 16) =    -20.53220  eV     1   --> A              
     e( 17 - 17) =    -20.50663  eV     1   --> A              
     e( 18 - 18) =    -20.50102  eV     1   --> A              
     e( 19 - 19) =    -20.49461  eV     1   --> A              
     e( 20 - 20) =    -20.45128  eV     1   --> A              
     e( 21 - 21) =    -20.44712  eV     1   --> A              
     e( 22 - 22) =    -20.44641  eV     1   --> A              
     e( 23 - 23) =    -13.50773  eV     1   --> A              
     e( 24 - 24) =     -7.44690  eV     1   --> A              
     e( 25 - 25) =     -6.27375  eV     1   --> A              
     e( 26 - 26) =     -5.07339  eV     1   --> A              
     e( 27 - 27) =     -3.78011  eV     1   --> A              
     e( 28 - 28) =     -2.60558  eV     1   --> A              
     e( 29 - 29) =     -2.35935  eV     1   --> A              
     e( 30 - 30) =     -1.49934  eV     1   --> A              
     e( 31 - 31) =     -0.47523  eV     1   --> A              
     e( 32 - 32) =      0.46381  eV     1   --> A              
     e( 33 - 33) =      0.52932  eV     1   --> A              
     e( 34 - 34) =      2.06716  eV     1   --> A              
     e( 35 - 35) =      2.67554  eV     1   --> A              
     e( 36 - 36) =      4.32772  eV     1   --> A              
     e( 37 - 37) =      4.73150  eV     1   --> A              
     e( 38 - 38) =      5.33865  eV     1   --> A              
     e( 39 - 39) =      5.57321  eV     1   --> A              
     e( 40 - 40) =      5.84843  eV     1   --> A              
     e( 41 - 41) =      6.05237  eV     1   --> A              
     e( 42 - 42) =      6.41799  eV     1   --> A              

 **************************************************************************

 **************************************************************************

                    xk=(   0.23482,  -0.00000,   0.00000  )

     Band symmetry, C_1 (1)     point group:

     e(  1 -  1) =    -69.18831  eV     1   --> A              
     e(  2 -  2) =    -68.85080  eV     1   --> A              
     e(  3 -  3) =    -35.97552  eV     1   --> A              
     e(  4 -  4) =    -35.59649  eV     1   --> A              
     e(  5 -  5) =    -35.42609  eV     1   --> A              
     e(  6 -  6) =    -35.34606  eV     1   --> A              
     e(  7 -  7) =    -35.24190  eV     1   --> A              
     e(  8 -  8) =    -35.19150  eV     1   --> A              
     e(  9 -  9) =    -20.87723  eV     1   --> A              
     e( 10 - 10) =    -20.85638  eV     1   --> A              
     e( 11 - 11) =    -20.85031  eV     1   --> A              
     e( 12 - 12) =    -20.84016  eV     1   --> A              
     e( 13 - 13) =    -20.83181  eV     1   --> A              
     e( 14 - 14) =    -20.80121  eV     1   --> A              
     e( 15 - 15) =    -20.76980  eV     1   --> A              
     e( 16 - 16) =    -20.52999  eV     1   --> A              
     e( 17 - 17) =    -20.50672  eV     1   --> A              
     e( 18 - 18) =    -20.50087  eV     1   --> A              
     e( 19 - 19) =    -20.49636  eV     1   --> A              
     e( 20 - 20) =    -20.45237  eV     1   --> A              
     e( 21 - 21) =    -20.44683  eV     1   --> A              
     e( 22 - 22) =    -20.44596  eV     1   --> A              
     e( 23 - 23) =    -13.41561  eV     1   --> A              
     e( 24 - 24) =     -7.26183  eV     1   --> A              
     e( 25 - 25) =     -6.41608  eV     1   --> A              
     e( 26 - 26) =     -5.13340  eV     1   --> A              
     e( 27 - 27) =     -3.67703  eV     1   --> A              
     e( 28 - 28) =     -2.58111  eV     1   --> A              
     e( 29 - 29) =     -2.51679  eV     1   --> A              
     e( 30 - 30) =     -1.42504  eV     1   --> A              
     e( 31 - 31) =     -0.54509  eV     1   --> A              
     e( 32 - 32) =      0.53743  eV     1   --> A              
     e( 33 - 33) =      0.69162  eV     1   --> A              
     e( 34 - 34) =      2.05621  eV     1   --> A              
     e( 35 - 35) =      2.82025  eV     1   --> A              
     e( 36 - 36) =      4.47986  eV     1   --> A              
     e( 37 - 37) =      4.92176  eV     1   --> A              
     e( 38 - 38) =      5.51537  eV     1   --> A              
     e( 39 - 39) =      5.72815  eV     1   --> A              
     e( 40 - 40) =      5.82274  eV     1   --> A              
     e( 41 - 41) =      6.19712  eV     1   --> A              
     e( 42 - 42) =      6.58488  eV     1   --> A              

 **************************************************************************

 **************************************************************************

                    xk=(   0.25617,  -0.00000,   0.00000  )

     Band symmetry, C_1 (1)     point group:

     e(  1 -  1) =    -69.18559  eV     1   --> A              
     e(  2 -  2) =    -68.84815  eV     1   --> A              
     e(  3 -  3) =    -35.96831  eV     1   --> A              
     e(  4 -  4) =    -35.63274  eV     1   --> A              
     e(  5 -  5) =    -35.44998  eV     1   --> A              
     e(  6 -  6) =    -35.37058  eV     1   --> A              
     e(  7 -  7) =    -35.23970  eV     1   --> A              
     e(  8 -  8) =    -35.20422  eV     1   --> A              
     e(  9 -  9) =    -20.87613  eV     1   --> A              
     e( 10 - 10) =    -20.85758  eV     1   --> A              
     e( 11 - 11) =    -20.85075  eV     1   --> A              
     e( 12 - 12) =    -20.84027  eV     1   --> A              
     e( 13 - 13) =    -20.83080  eV     1   --> A              
     e( 14 - 14) =    -20.79884  eV     1   --> A              
     e( 15 - 15) =    -20.77216  eV     1   --> A              
     e( 16 - 16) =    -20.52771  eV     1   --> A              
     e( 17 - 17) =    -20.50679  eV     1   --> A              
     e( 18 - 18) =    -20.50176  eV     1   --> A              
     e( 19 - 19) =    -20.49714  eV     1   --> A              
     e( 20 - 20) =    -20.45346  eV     1   --> A              
     e( 21 - 21) =    -20.44726  eV     1   --> A              
     e( 22 - 22) =    -20.44479  eV     1   --> A              
     e( 23 - 23) =    -13.32187  eV     1   --> A              
     e( 24 - 24) =     -7.07319  eV     1   --> A              
     e( 25 - 25) =     -6.54869  eV     1   --> A              
     e( 26 - 26) =     -5.20549  eV     1   --> A              
     e( 27 - 27) =     -3.56639  eV     1   --> A              
     e( 28 - 28) =     -2.66643  eV     1   --> A              
     e( 29 - 29) =     -2.54899  eV     1   --> A              
     e( 30 - 30) =     -1.33445  eV     1   --> A              
     e( 31 - 31) =     -0.64388  eV     1   --> A              
     e( 32 - 32) =      0.62304  eV     1   --> A              
     e( 33 - 33) =      0.90329  eV     1   --> A              
     e( 34 - 34) =      2.04582  eV     1   --> A              
     e( 35 - 35) =      2.97408  eV     1   --> A              
     e( 36 - 36) =      4.62702  eV     1   --> A              
     e( 37 - 37) =      5.11226  eV     1   --> A              
     e( 38 - 38) =      5.68098  eV     1   --> A              
     e( 39 - 39) =      5.79222  eV     1   --> A              
     e( 40 - 40) =      5.89178  eV     1   --> A              
     e( 41 - 41) =      6.35033  eV     1   --> A              
     e( 42 - 42) =      6.76736  eV     1   --> A              

 **************************************************************************

 **************************************************************************

                    xk=(   0.27752,  -0.00000,   0.00000  )

     Band symmetry, C_1 (1)     point group:

     e(  1 -  1) =    -69.18283  eV     1   --> A              
     e(  2 -  2) =    -68.84545  eV     1   --> A              
     e(  3 -  3) =    -35.96149  eV     1   --> A              
     e(  4 -  4) =    -35.66831  eV     1   --> A              
     e(  5 -  5) =    -35.47639  eV     1   --> A              
     e(  6 -  6) =    -35.39291  eV     1   --> A              
     e(  7 -  7) =    -35.23842  eV     1   --> A              
     e(  8 -  8) =    -35.21717  eV     1   --> A              
     e(  9 -  9) =    -20.87500  eV     1   --> A              
     e( 10 - 10) =    -20.85876  eV     1   --> A              
     e( 11 - 11) =    -20.85123  eV     1   --> A              
     e( 12 - 12) =    -20.84035  eV     1   --> A              
     e( 13 - 13) =    -20.82980  eV     1   --> A              
     e( 14 - 14) =    -20.79642  eV     1   --> A              
     e( 15 - 15) =    -20.77456  eV     1   --> A              
     e( 16 - 16) =    -20.52540  eV     1   --> A              
     e( 17 - 17) =    -20.50681  eV     1   --> A              
     e( 18 - 18) =    -20.50367  eV     1   --> A              
     e( 19 - 19) =    -20.49696  eV     1   --> A              
     e( 20 - 20) =    -20.45454  eV     1   --> A              
     e( 21 - 21) =    -20.44773  eV     1   --> A              
     e( 22 - 22) =    -20.44358  eV     1   --> A              
     e( 23 - 23) =    -13.22789  eV     1   --> A              
     e( 24 - 24) =     -6.88593  eV     1   --> A              
     e( 25 - 25) =     -6.66884  eV     1   --> A              
     e( 26 - 26) =     -5.28725  eV     1   --> A              
     e( 27 - 27) =     -3.45028  eV     1   --> A              
     e( 28 - 28) =     -2.79140  eV     1   --> A              
     e( 29 - 29) =     -2.52046  eV     1   --> A              
     e( 30 - 30) =     -1.22944  eV     1   --> A              
     e( 31 - 31) =     -0.75506  eV     1   --> A              
     e( 32 - 32) =      0.71217  eV     1   --> A              
     e( 33 - 33) =      1.14774  eV     1   --> A              
     e( 34 - 34) =      2.04202  eV     1   --> A              
     e( 35 - 35) =      3.13708  eV     1   --> A              
     e( 36 - 36) =      4.76821  eV     1   --> A              
     e( 37 - 37) =      5.30179  eV     1   --> A              
     e( 38 - 38) =      5.76122  eV     1   --> A              
     e( 39 - 39) =      5.82519  eV     1   --> A              
     e( 40 - 40) =      6.06434  eV     1   --> A              
     e( 41 - 41) =      6.51706  eV     1   --> A              
     e( 42 - 42) =      6.96248  eV     1   --> A              

 **************************************************************************

 **************************************************************************

                    xk=(   0.29886,  -0.00000,   0.00000  )

     Band symmetry, C_1 (1)     point group:

     e(  1 -  1) =    -69.18005  eV     1   --> A              
     e(  2 -  2) =    -68.84274  eV     1   --> A              
     e(  3 -  3) =    -35.95531  eV     1   --> A              
     e(  4 -  4) =    -35.70255  eV     1   --> A              
     e(  5 -  5) =    -35.50392  eV     1   --> A              
     e(  6 -  6) =    -35.41375  eV     1   --> A              
     e(  7 -  7) =    -35.24169  eV     1   --> A              
     e(  8 -  8) =    -35.22669  eV     1   --> A              
     e(  9 -  9) =    -20.87387  eV     1   --> A              
     e( 10 - 10) =    -20.85990  eV     1   --> A              
     e( 11 - 11) =    -20.85175  eV     1   --> A              
     e( 12 - 12) =    -20.84039  eV     1   --> A              
     e( 13 - 13) =    -20.82883  eV     1   --> A              
     e( 14 - 14) =    -20.79399  eV     1   --> A              
     e( 15 - 15) =    -20.77696  eV     1   --> A              
     e( 16 - 16) =    -20.52308  eV     1   --> A              
     e( 17 - 17) =    -20.50681  eV     1   --> A              
     e( 18 - 18) =    -20.50593  eV     1   --> A              
     e( 19 - 19) =    -20.49643  eV     1   --> A              
     e( 20 - 20) =    -20.45558  eV     1   --> A              
     e( 21 - 21) =    -20.44823  eV     1   --> A              
     e( 22 - 22) =    -20.44236  eV     1   --> A              
     e( 23 - 23) =    -13.13498  eV     1   --> A              
     e( 24 - 24) =     -6.79229  eV     1   --> A              
     e( 25 - 25) =     -6.68712  eV     1   --> A              
     e( 26 - 26) =     -5.37596  eV     1   --> A              
     e( 27 - 27) =     -3.33159  eV     1   --> A              
     e( 28 - 28) =     -2.89374  eV     1   --> A              
     e( 29 - 29) =     -2.48790  eV     1   --> A              
     e( 30 - 30) =     -1.11529  eV     1   --> A              
     e( 31 - 31) =     -0.86645  eV     1   --> A              
     e( 32 - 32) =      0.79619  eV     1   --> A              
     e( 33 - 33) =      1.41326  eV     1   --> A              
     e( 34 - 34) =      2.05243  eV     1   --> A              
     e( 35 - 35) =      3.30965  eV     1   --> A              
     e( 36 - 36) =      4.90121  eV     1   --> A              
     e( 37 - 37) =      5.48451  eV     1   --> A              
     e( 38 - 38) =      5.73055  eV     1   --> A              
     e( 39 - 39) =      5.93405  eV     1   --> A              
     e( 40 - 40) =      6.26213  eV     1   --> A              
     e( 41 - 41) =      6.70164  eV     1   --> A              
     e( 42 - 42) =      7.16462  eV     1   --> A              

 **************************************************************************

 **************************************************************************

                    xk=(   0.32021,  -0.00000,   0.00000  )

     Band symmetry, C_1 (1)     point group:

     e(  1 -  1) =    -69.17728  eV     1   --> A              
     e(  2 -  2) =    -68.84004  eV     1   --> A              
     e(  3 -  3) =    -35.94998  eV     1   --> A              
     e(  4 -  4) =    -35.73484  eV     1   --> A              
     e(  5 -  5) =    -35.53123  eV     1   --> A              
     e(  6 -  6) =    -35.43381  eV     1   --> A              
     e(  7 -  7) =    -35.25417  eV     1   --> A              
     e(  8 -  8) =    -35.22811  eV     1   --> A              
     e(  9 -  9) =    -20.87274  eV     1   --> A              
     e( 10 - 10) =    -20.86097  eV     1   --> A              
     e( 11 - 11) =    -20.85230  eV     1   --> A              
     e( 12 - 12) =    -20.84038  eV     1   --> A              
     e( 13 - 13) =    -20.82791  eV     1   --> A              
     e( 14 - 14) =    -20.79158  eV     1   --> A              
     e( 15 - 15) =    -20.77934  eV     1   --> A              
     e( 16 - 16) =    -20.52080  eV     1   --> A              
     e( 17 - 17) =    -20.50835  eV     1   --> A              
     e( 18 - 18) =    -20.50667  eV     1   --> A              
     e( 19 - 19) =    -20.49582  eV     1   --> A              
     e( 20 - 20) =    -20.45658  eV     1   --> A              
     e( 21 - 21) =    -20.44877  eV     1   --> A              
     e( 22 - 22) =    -20.44115  eV     1   --> A              
     e( 23 - 23) =    -13.04433  eV     1   --> A              
     e( 24 - 24) =     -6.88413  eV     1   --> A              
     e( 25 - 25) =     -6.51502  eV     1   --> A              
     e( 26 - 26) =     -5.46876  eV     1   --> A              
     e( 27 - 27) =     -3.21560  eV     1   --> A              
     e( 28 - 28) =     -2.96662  eV     1   --> A              
     e( 29 - 29) =     -2.45084  eV     1   --> A              
     e( 30 - 30) =     -1.03760  eV     1   --> A              
     e( 31 - 31) =     -0.93051  eV     1   --> A              
     e( 32 - 32) =      0.86683  eV     1   --> A              
     e( 33 - 33) =      1.69077  eV     1   --> A              
     e( 34 - 34) =      2.08477  eV     1   --> A              
     e( 35 - 35) =      3.49224  eV     1   --> A              
     e( 36 - 36) =      5.02301  eV     1   --> A              
     e( 37 - 37) =      5.63816  eV     1   --> A              
     e( 38 - 38) =      5.69493  eV     1   --> A              
     e( 39 - 39) =      6.03974  eV     1   --> A              
     e( 40 - 40) =      6.48266  eV     1   --> A              
     e( 41 - 41) =      6.90399  eV     1   --> A              
     e( 42 - 42) =      7.35683  eV     1   --> A              

 **************************************************************************

 **************************************************************************

                    xk=(   0.34156,  -0.00000,   0.00000  )

     Band symmetry, C_1 (1)     point group:

     e(  1 -  1) =    -69.17458  eV     1   --> A              
     e(  2 -  2) =    -68.83739  eV     1   --> A              
     e(  3 -  3) =    -35.94570  eV     1   --> A              
     e(  4 -  4) =    -35.76455  eV     1   --> A              
     e(  5 -  5) =    -35.55731  eV     1   --> A              
     e(  6 -  6) =    -35.45351  eV     1   --> A              
     e(  7 -  7) =    -35.27044  eV     1   --> A              
     e(  8 -  8) =    -35.22678  eV     1   --> A              
     e(  9 -  9) =    -20.87162  eV     1   --> A              
     e( 10 - 10) =    -20.86197  eV     1   --> A              
     e( 11 - 11) =    -20.85288  eV     1   --> A              
     e( 12 - 12) =    -20.84032  eV     1   --> A              
     e( 13 - 13) =    -20.82707  eV     1   --> A              
     e( 14 - 14) =    -20.78923  eV     1   --> A              
     e( 15 - 15) =    -20.78165  eV     1   --> A              
     e( 16 - 16) =    -20.51860  eV     1   --> A              
     e( 17 - 17) =    -20.51069  eV     1   --> A              
     e( 18 - 18) =    -20.50651  eV     1   --> A              
     e( 19 - 19) =    -20.49521  eV     1   --> A              
     e( 20 - 20) =    -20.45753  eV     1   --> A              
     e( 21 - 21) =    -20.44935  eV     1   --> A              
     e( 22 - 22) =    -20.43998  eV     1   --> A              
     e( 23 - 23) =    -12.95697  eV     1   --> A              
     e( 24 - 24) =     -6.96854  eV     1   --> A              
     e( 25 - 25) =     -6.34939  eV     1   --> A              
     e( 26 - 26) =     -5.56259  eV     1   --> A              
     e( 27 - 27) =     -3.12190  eV     1   --> A              
     e( 28 - 28) =     -2.98959  eV     1   --> A              
     e( 29 - 29) =     -2.40881  eV     1   --> A              
     e( 30 - 30) =     -1.11442  eV     1   --> A              
     e( 31 - 31) =     -0.83036  eV     1   --> A              
     e( 32 - 32) =      0.91902  eV     1   --> A              
     e( 33 - 33) =      1.97191  eV     1   --> A              
     e( 34 - 34) =      2.14380  eV     1   --> A              
     e( 35 - 35) =      3.68513  eV     1   --> A              
     e( 36 - 36) =      5.12982  eV     1   --> A              
     e( 37 - 37) =      5.62322  eV     1   --> A              
     e( 38 - 38) =      5.76230  eV     1   --> A              
     e( 39 - 39) =      6.18261  eV     1   --> A              
     e( 40 - 40) =      6.72127  eV     1   --> A              
     e( 41 - 41) =      7.12038  eV     1   --> A              
     e( 42 - 42) =      7.53977  eV     1   --> A              

 **************************************************************************

 **************************************************************************

                    xk=(   0.36291,  -0.00000,   0.00000  )

     Band symmetry, C_1 (1)     point group:

     e(  1 -  1) =    -69.17195  eV     1   --> A              
     e(  2 -  2) =    -68.83483  eV     1   --> A              
     e(  3 -  3) =    -35.94263  eV     1   --> A              
     e(  4 -  4) =    -35.79113  eV     1   --> A              
     e(  5 -  5) =    -35.58148  eV     1   --> A              
     e(  6 -  6) =    -35.47307  eV     1   --> A              
     e(  7 -  7) =    -35.28811  eV     1   --> A              
     e(  8 -  8) =    -35.22500  eV     1   --> A              
     e(  9 -  9) =    -20.87053  eV     1   --> A              
     e( 10 - 10) =    -20.86287  eV     1   --> A              
     e( 11 - 11) =    -20.85349  eV     1   --> A              
     e( 12 - 12) =    -20.84021  eV     1   --> A              
     e( 13 - 13) =    -20.82633  eV     1   --> A              
     e( 14 - 14) =    -20.78708  eV     1   --> A              
     e( 15 - 15) =    -20.78378  eV     1   --> A              
     e( 16 - 16) =    -20.51657  eV     1   --> A              
     e( 17 - 17) =    -20.51290  eV     1   --> A              
     e( 18 - 18) =    -20.50626  eV     1   --> A              
     e( 19 - 19) =    -20.49465  eV     1   --> A              
     e( 20 - 20) =    -20.45840  eV     1   --> A              
     e( 21 - 21) =    -20.44995  eV     1   --> A              
     e( 22 - 22) =    -20.43884  eV     1   --> A              
     e( 23 - 23) =    -12.87380  eV     1   --> A              
     e( 24 - 24) =     -7.04035  eV     1   --> A              
     e( 25 - 25) =     -6.20052  eV     1   --> A              
     e( 26 - 26) =     -5.65341  eV     1   --> A              
     e( 27 - 27) =     -3.09077  eV     1   --> A              
     e( 28 - 28) =     -2.92193  eV     1   --> A              
     e( 29 - 29) =     -2.36198  eV     1   --> A              
     e( 30 - 30) =     -1.21193  eV     1   --> A              
     e( 31 - 31) =     -0.70317  eV     1   --> A              
     e( 32 - 32) =      0.95392  eV     1   --> A              
     e( 33 - 33) =      2.22469  eV     1   --> A              
     e( 34 - 34) =      2.25133  eV     1   --> A              
     e( 35 - 35) =      3.88794  eV     1   --> A              
     e( 36 - 36) =      5.21692  eV     1   --> A              
     e( 37 - 37) =      5.54242  eV     1   --> A              
     e( 38 - 38) =      5.82212  eV     1   --> A              
     e( 39 - 39) =      6.37826  eV     1   --> A              
     e( 40 - 40) =      6.97523  eV     1   --> A              
     e( 41 - 41) =      7.34423  eV     1   --> A              
     e( 42 - 42) =      7.72340  eV     1   --> A              

 **************************************************************************

 **************************************************************************

                    xk=(   0.38425,  -0.00000,   0.00000  )

     Band symmetry, C_1 (1)     point group:

     e(  1 -  1) =    -69.16945  eV     1   --> A              
     e(  2 -  2) =    -68.83239  eV     1   --> A              
     e(  3 -  3) =    -35.94081  eV     1   --> A              
     e(  4 -  4) =    -35.81408  eV     1   --> A              
     e(  5 -  5) =    -35.60345  eV     1   --> A              
     e(  6 -  6) =    -35.49247  eV     1   --> A              
     e(  7 -  7) =    -35.30669  eV     1   --> A              
     e(  8 -  8) =    -35.22319  eV     1   --> A              
     e(  9 -  9) =    -20.86946  eV     1   --> A              
     e( 10 - 10) =    -20.86366  eV     1   --> A              
     e( 11 - 11) =    -20.85413  eV     1   --> A              
     e( 12 - 12) =    -20.84004  eV     1   --> A              
     e( 13 - 13) =    -20.82570  eV     1   --> A              
     e( 14 - 14) =    -20.78663  eV     1   --> A              
     e( 15 - 15) =    -20.78421  eV     1   --> A              
     e( 16 - 16) =    -20.51580  eV     1   --> A              
     e( 17 - 17) =    -20.51389  eV     1   --> A              
     e( 18 - 18) =    -20.50590  eV     1   --> A              
     e( 19 - 19) =    -20.49416  eV     1   --> A              
     e( 20 - 20) =    -20.45919  eV     1   --> A              
     e( 21 - 21) =    -20.45059  eV     1   --> A              
     e( 22 - 22) =    -20.43777  eV     1   --> A              
     e( 23 - 23) =    -12.79555  eV     1   --> A              
     e( 24 - 24) =     -7.09914  eV     1   --> A              
     e( 25 - 25) =     -6.07828  eV     1   --> A              
     e( 26 - 26) =     -5.73271  eV     1   --> A              
     e( 27 - 27) =     -3.07245  eV     1   --> A              
     e( 28 - 28) =     -2.81352  eV     1   --> A              
     e( 29 - 29) =     -2.31154  eV     1   --> A              
     e( 30 - 30) =     -1.30127  eV     1   --> A              
     e( 31 - 31) =     -0.58281  eV     1   --> A              
     e( 32 - 32) =      0.97927  eV     1   --> A              
     e( 33 - 33) =      2.32627  eV     1   --> A              
     e( 34 - 34) =      2.51251  eV     1   --> A              
     e( 35 - 35) =      4.09888  eV     1   --> A              
     e( 36 - 36) =      5.27851  eV     1   --> A              
     e( 37 - 37) =      5.43304  eV     1   --> A              
     e( 38 - 38) =      5.86129  eV     1   --> A              
     e( 39 - 39) =      6.61175  eV     1   --> A              
     e( 40 - 40) =      7.24282  eV     1   --> A              
     e( 41 - 41) =      7.56466  eV     1   --> A              
     e( 42 - 42) =      7.91525  eV     1   --> A              

 **************************************************************************

 **************************************************************************

                    xk=(   0.40560,  -0.00000,   0.00000  )

     Band symmetry, C_1 (1)     point group:

     e(  1 -  1) =    -69.16708  eV     1   --> A              
     e(  2 -  2) =    -68.83008  eV     1   --> A              
     e(  3 -  3) =    -35.94015  eV     1   --> A              
     e(  4 -  4) =    -35.83302  eV     1   --> A              
     e(  5 -  5) =    -35.62320  eV     1   --> A              
     e(  6 -  6) =    -35.51151  eV     1   --> A              
     e(  7 -  7) =    -35.32594  eV     1   --> A              
     e(  8 -  8) =    -35.22146  eV     1   --> A              
     e(  9 -  9) =    -20.86842  eV     1   --> A              
     e( 10 - 10) =    -20.86431  eV     1   --> A              
     e( 11 - 11) =    -20.85479  eV     1   --> A              
     e( 12 - 12) =    -20.83981  eV     1   --> A              
     e( 13 - 13) =    -20.82521  eV     1   --> A              
     e( 14 - 14) =    -20.78847  eV     1   --> A              
     e( 15 - 15) =    -20.78238  eV     1   --> A              
     e( 16 - 16) =    -20.51754  eV     1   --> A              
     e( 17 - 17) =    -20.51241  eV     1   --> A              
     e( 18 - 18) =    -20.50543  eV     1   --> A              
     e( 19 - 19) =    -20.49376  eV     1   --> A              
     e( 20 - 20) =    -20.45988  eV     1   --> A              
     e( 21 - 21) =    -20.45126  eV     1   --> A              
     e( 22 - 22) =    -20.43678  eV     1   --> A              
     e( 23 - 23) =    -12.72276  eV     1   --> A              
     e( 24 - 24) =     -7.14492  eV     1   --> A              
     e( 25 - 25) =     -6.01028  eV     1   --> A              
     e( 26 - 26) =     -5.77323  eV     1   --> A              
     e( 27 - 27) =     -3.03255  eV     1   --> A              
     e( 28 - 28) =     -2.69982  eV     1   --> A              
     e( 29 - 29) =     -2.25978  eV     1   --> A              
     e( 30 - 30) =     -1.37745  eV     1   --> A              
     e( 31 - 31) =     -0.47998  eV     1   --> A              
     e( 32 - 32) =      1.00630  eV     1   --> A              
     e( 33 - 33) =      2.42813  eV     1   --> A              
     e( 34 - 34) =      2.75292  eV     1   --> A              
     e( 35 - 35) =      4.31380  eV     1   --> A              
     e( 36 - 36) =      5.29305  eV     1   --> A              
     e( 37 - 37) =      5.31115  eV     1   --> A              
     e( 38 - 38) =      5.90661  eV     1   --> A              
     e( 39 - 39) =      6.86963  eV     1   --> A              
     e( 40 - 40) =      7.52135  eV     1   --> A              
     e( 41 - 41) =      7.76826  eV     1   --> A              
     e( 42 - 42) =      8.12889  eV     1   --> A              

 **************************************************************************

 **************************************************************************

                    xk=(   0.42695,  -0.00000,   0.00000  )

     Band symmetry, C_1 (1)     point group:

     e(  1 -  1) =    -69.16489  eV     1   --> A              
     e(  2 -  2) =    -68.82794  eV     1   --> A              
     e(  3 -  3) =    -35.94029  eV     1   --> A              
     e(  4 -  4) =    -35.84779  eV     1   --> A              
     e(  5 -  5) =    -35.64108  eV     1   --> A              
     e(  6 -  6) =    -35.52984  eV     1   --> A              
     e(  7 -  7) =    -35.34567  eV     1   --> A              
     e(  8 -  8) =    -35.21986  eV     1   --> A              
     e(  9 -  9) =    -20.86745  eV     1   --> A              
     e( 10 - 10) =    -20.86483  eV     1   --> A              
     e( 11 - 11) =    -20.85547  eV     1   --> A              
     e( 12 - 12) =    -20.83953  eV     1   --> A              
     e( 13 - 13) =    -20.82486  eV     1   --> A              
     e( 14 - 14) =    -20.79038  eV     1   --> A              
     e( 15 - 15) =    -20.78049  eV     1   --> A              
     e( 16 - 16) =    -20.51941  eV     1   --> A              
     e( 17 - 17) =    -20.51085  eV     1   --> A              
     e( 18 - 18) =    -20.50483  eV     1   --> A              
     e( 19 - 19) =    -20.49344  eV     1   --> A              
     e( 20 - 20) =    -20.46047  eV     1   --> A              
     e( 21 - 21) =    -20.45195  eV     1   --> A              
     e( 22 - 22) =    -20.43588  eV     1   --> A              
     e( 23 - 23) =    -12.65587  eV     1   --> A              
     e( 24 - 24) =     -7.17788  eV     1   --> A              
     e( 25 - 25) =     -6.03083  eV     1   --> A              
     e( 26 - 26) =     -5.74001  eV     1   --> A              
     e( 27 - 27) =     -2.96761  eV     1   --> A              
     e( 28 - 28) =     -2.58677  eV     1   --> A              
     e( 29 - 29) =     -2.20997  eV     1   --> A              
     e( 30 - 30) =     -1.43717  eV     1   --> A              
     e( 31 - 31) =     -0.40279  eV     1   --> A              
     e( 32 - 32) =      1.04550  eV     1   --> A              
     e( 33 - 33) =      2.51692  eV     1   --> A              
     e( 34 - 34) =      2.96056  eV     1   --> A              
     e( 35 - 35) =      4.52407  eV     1   --> A              
     e( 36 - 36) =      5.13178  eV     1   --> A              
     e( 37 - 37) =      5.31209  eV     1   --> A              
     e( 38 - 38) =      5.97626  eV     1   --> A              
     e( 39 - 39) =      7.14352  eV     1   --> A              
     e( 40 - 40) =      7.79945  eV     1   --> A              
     e( 41 - 41) =      7.95910  eV     1   --> A              
     e( 42 - 42) =      8.36523  eV     1   --> A              

 **************************************************************************

 **************************************************************************

                    xk=(   0.44830,  -0.00000,   0.00000  )

     Band symmetry, C_1 (1)     point group:

     e(  1 -  1) =    -69.16288  eV     1   --> A              
     e(  2 -  2) =    -68.82598  eV     1   --> A              
     e(  3 -  3) =    -35.94064  eV     1   --> A              
     e(  4 -  4) =    -35.85850  eV     1   --> A              
     e(  5 -  5) =    -35.65768  eV     1   --> A              
     e(  6 -  6) =    -35.54695  eV     1   --> A              
     e(  7 -  7) =    -35.36569  eV     1   --> A              
     e(  8 -  8) =    -35.21840  eV     1   --> A              
     e(  9 -  9) =    -20.86656  eV     1   --> A              
     e( 10 - 10) =    -20.86515  eV     1   --> A              
     e( 11 - 11) =    -20.85617  eV     1   --> A              
     e( 12 - 12) =    -20.83919  eV     1   --> A              
     e( 13 - 13) =    -20.82465  eV     1   --> A              
     e( 14 - 14) =    -20.79219  eV     1   --> A              
     e( 15 - 15) =    -20.77874  eV     1   --> A              
     e( 16 - 16) =    -20.52116  eV     1   --> A              
     e( 17 - 17) =    -20.50947  eV     1   --> A              
     e( 18 - 18) =    -20.50411  eV     1   --> A              
     e( 19 - 19) =    -20.49323  eV     1   --> A              
     e( 20 - 20) =    -20.46095  eV     1   --> A              
     e( 21 - 21) =    -20.45267  eV     1   --> A              
     e( 22 - 22) =    -20.43507  eV     1   --> A              
     e( 23 - 23) =    -12.59516  eV     1   --> A              
     e( 24 - 24) =     -7.19830  eV     1   --> A              
     e( 25 - 25) =     -6.09876  eV     1   --> A              
     e( 26 - 26) =     -5.67260  eV     1   --> A              
     e( 27 - 27) =     -2.88040  eV     1   --> A              
     e( 28 - 28) =     -2.47588  eV     1   --> A              
     e( 29 - 29) =     -2.16554  eV     1   --> A              
     e( 30 - 30) =     -1.47795  eV     1   --> A              
     e( 31 - 31) =     -0.35552  eV     1   --> A              
     e( 32 - 32) =      1.10262  eV     1   --> A              
     e( 33 - 33) =      2.57899  eV     1   --> A              
     e( 34 - 34) =      3.12326  eV     1   --> A              
     e( 35 - 35) =      4.70292  eV     1   --> A              
     e( 36 - 36) =      4.97180  eV     1   --> A              
     e( 37 - 37) =      5.29848  eV     1   --> A              
     e( 38 - 38) =      6.07803  eV     1   --> A              
     e( 39 - 39) =      7.42332  eV     1   --> A              
     e( 40 - 40) =      8.03007  eV     1   --> A              
     e( 41 - 41) =      8.19433  eV     1   --> A              
     e( 42 - 42) =      8.51563  eV     1   --> A              

 **************************************************************************

 **************************************************************************

                    xk=(   0.46964,  -0.00000,   0.00000  )

     Band symmetry, C_1 (1)     point group:

     e(  1 -  1) =    -69.16108  eV     1   --> A              
     e(  2 -  2) =    -68.82422  eV     1   --> A              
     e(  3 -  3) =    -35.94036  eV     1   --> A              
     e(  4 -  4) =    -35.86555  eV     1   --> A              
     e(  5 -  5) =    -35.67381  eV     1   --> A              
     e(  6 -  6) =    -35.56218  eV     1   --> A              
     e(  7 -  7) =    -35.38580  eV     1   --> A              
     e(  8 -  8) =    -35.21709  eV     1   --> A              
     e(  9 -  9) =    -20.86595  eV     1   --> A              
     e( 10 - 10) =    -20.86512  eV     1   --> A              
     e( 11 - 11) =    -20.85689  eV     1   --> A              
     e( 12 - 12) =    -20.83880  eV     1   --> A              
     e( 13 - 13) =    -20.82460  eV     1   --> A              
     e( 14 - 14) =    -20.79384  eV     1   --> A              
     e( 15 - 15) =    -20.77716  eV     1   --> A              
     e( 16 - 16) =    -20.52273  eV     1   --> A              
     e( 17 - 17) =    -20.50828  eV     1   --> A              
     e( 18 - 18) =    -20.50329  eV     1   --> A              
     e( 19 - 19) =    -20.49311  eV     1   --> A              
     e( 20 - 20) =    -20.46131  eV     1   --> A              
     e( 21 - 21) =    -20.45341  eV     1   --> A              
     e( 22 - 22) =    -20.43437  eV     1   --> A              
     e( 23 - 23) =    -12.54082  eV     1   --> A              
     e( 24 - 24) =     -7.20650  eV     1   --> A              
     e( 25 - 25) =     -6.17823  eV     1   --> A              
     e( 26 - 26) =     -5.60471  eV     1   --> A              
     e( 27 - 27) =     -2.77619  eV     1   --> A              
     e( 28 - 28) =     -2.36841  eV     1   --> A              
     e( 29 - 29) =     -2.12833  eV     1   --> A              
     e( 30 - 30) =     -1.49909  eV     1   --> A              
     e( 31 - 31) =     -0.33704  eV     1   --> A              
     e( 32 - 32) =      1.17664  eV     1   --> A              
     e( 33 - 33) =      2.60523  eV     1   --> A              
     e( 34 - 34) =      3.22484  eV     1   --> A              
     e( 35 - 35) =      4.69776  eV     1   --> A              
     e( 36 - 36) =      4.96762  eV     1   --> A              
     e( 37 - 37) =      5.29696  eV     1   --> A              
     e( 38 - 38) =      6.21036  eV     1   --> A              
     e( 39 - 39) =      7.69000  eV     1   --> A              
     e( 40 - 40) =      8.21110  eV     1   --> A              
     e( 41 - 41) =      8.46645  eV     1   --> A              
     e( 42 - 42) =      8.59535  eV     1   --> A              

 **************************************************************************

 **************************************************************************

                    xk=(   0.49099,  -0.00000,   0.00000  )

     Band symmetry, C_1 (1)     point group:

     e(  1 -  1) =    -69.15949  eV     1   --> A              
     e(  2 -  2) =    -68.82267  eV     1   --> A              
     e(  3 -  3) =    -35.93858  eV     1   --> A              
     e(  4 -  4) =    -35.86952  eV     1   --> A              
     e(  5 -  5) =    -35.69031  eV     1   --> A              
     e(  6 -  6) =    -35.57490  eV     1   --> A              
     e(  7 -  7) =    -35.40577  eV     1   --> A              
     e(  8 -  8) =    -35.21594  eV     1   --> A              
     e(  9 -  9) =    -20.86580  eV     1   --> A              
     e( 10 - 10) =    -20.86454  eV     1   --> A              
     e( 11 - 11) =    -20.85762  eV     1   --> A              
     e( 12 - 12) =    -20.83837  eV     1   --> A              
     e( 13 - 13) =    -20.82469  eV     1   --> A              
     e( 14 - 14) =    -20.79534  eV     1   --> A              
     e( 15 - 15) =    -20.77577  eV     1   --> A              
     e( 16 - 16) =    -20.52411  eV     1   --> A              
     e( 17 - 17) =    -20.50727  eV     1   --> A              
     e( 18 - 18) =    -20.50244  eV     1   --> A              
     e( 19 - 19) =    -20.49310  eV     1   --> A              
     e( 20 - 20) =    -20.46154  eV     1   --> A              
     e( 21 - 21) =    -20.45417  eV     1   --> A              
     e( 22 - 22) =    -20.43377  eV     1   --> A              
     e( 23 - 23) =    -12.49295  eV     1   --> A              
     e( 24 - 24) =     -7.20277  eV     1   --> A              
     e( 25 - 25) =     -6.25992  eV     1   --> A              
     e( 26 - 26) =     -5.54343  eV     1   --> A              
     e( 27 - 27) =     -2.66161  eV     1   --> A              
     e( 28 - 28) =     -2.26757  eV     1   --> A              
     e( 29 - 29) =     -2.09582  eV     1   --> A              
     e( 30 - 30) =     -1.50309  eV     1   --> A              
     e( 31 - 31) =     -0.34166  eV     1   --> A              
     e( 32 - 32) =      1.26059  eV     1   --> A              
     e( 33 - 33) =      2.59380  eV     1   --> A              
     e( 34 - 34) =      3.24571  eV     1   --> A              
     e( 35 - 35) =      4.56073  eV     1   --> A              
     e( 36 - 36) =      5.06406  eV     1   --> A              
     e( 37 - 37) =      5.34810  eV     1   --> A              
     e( 38 - 38) =      6.36419  eV     1   --> A              
     e( 39 - 39) =      7.91280  eV     1   --> A              
     e( 40 - 40) =      8.38971  eV     1   --> A              
     e( 41 - 41) =      8.57940  eV     1   --> A              
     e( 42 - 42) =      8.86569  eV     1   --> A              

 **************************************************************************

 **************************************************************************

                    xk=(   0.51234,  -0.00000,   0.00000  )

     Band symmetry, C_1 (1)     point group:

     e(  1 -  1) =    -69.15813  eV     1   --> A              
     e(  2 -  2) =    -68.82134  eV     1   --> A              
     e(  3 -  3) =    -35.93456  eV     1   --> A              
     e(  4 -  4) =    -35.87104  eV     1   --> A              
     e(  5 -  5) =    -35.70781  eV     1   --> A              
     e(  6 -  6) =    -35.58459  eV     1   --> A              
     e(  7 -  7) =    -35.42532  eV     1   --> A              
     e(  8 -  8) =    -35.21494  eV     1   --> A              
     e(  9 -  9) =    -20.86571  eV     1   --> A              
     e( 10 - 10) =    -20.86384  eV     1   --> A              
     e( 11 - 11) =    -20.85836  eV     1   --> A              
     e( 12 - 12) =    -20.83790  eV     1   --> A              
     e( 13 - 13) =    -20.82490  eV     1   --> A              
     e( 14 - 14) =    -20.79665  eV     1   --> A              
     e( 15 - 15) =    -20.77458  eV     1   --> A              
     e( 16 - 16) =    -20.52530  eV     1   --> A              
     e( 17 - 17) =    -20.50637  eV     1   --> A              
     e( 18 - 18) =    -20.50161  eV     1   --> A              
     e( 19 - 19) =    -20.49319  eV     1   --> A              
     e( 20 - 20) =    -20.46164  eV     1   --> A              
     e( 21 - 21) =    -20.45494  eV     1   --> A              
     e( 22 - 22) =    -20.43327  eV     1   --> A              
     e( 23 - 23) =    -12.45162  eV     1   --> A              
     e( 24 - 24) =     -7.18740  eV     1   --> A              
     e( 25 - 25) =     -6.34147  eV     1   --> A              
     e( 26 - 26) =     -5.48935  eV     1   --> A              
     e( 27 - 27) =     -2.54407  eV     1   --> A              
     e( 28 - 28) =     -2.18243  eV     1   --> A              
     e( 29 - 29) =     -2.05706  eV     1   --> A              
     e( 30 - 30) =     -1.49602  eV     1   --> A              
     e( 31 - 31) =     -0.36171  eV     1   --> A              
     e( 32 - 32) =      1.34441  eV     1   --> A              
     e( 33 - 33) =      2.55083  eV     1   --> A              
     e( 34 - 34) =      3.17536  eV     1   --> A              
     e( 35 - 35) =      4.45334  eV     1   --> A              
     e( 36 - 36) =      5.12419  eV     1   --> A              
     e( 37 - 37) =      5.45638  eV     1   --> A              
     e( 38 - 38) =      6.52448  eV     1   --> A              
     e( 39 - 39) =      8.06910  eV     1   --> A              
     e( 40 - 40) =      8.54063  eV     1   --> A              
     e( 41 - 41) =      8.69215  eV     1   --> A              
     e( 42 - 42) =      9.19045  eV     1   --> A              

 **************************************************************************

 **************************************************************************

                    xk=(   0.53368,  -0.00000,   0.00000  )

     Band symmetry, C_1 (1)     point group:

     e(  1 -  1) =    -69.15700  eV     1   --> A              
     e(  2 -  2) =    -68.82023  eV     1   --> A              
     e(  3 -  3) =    -35.92780  eV     1   --> A              
     e(  4 -  4) =    -35.87075  eV     1   --> A              
     e(  5 -  5) =    -35.72656  eV     1   --> A              
     e(  6 -  6) =    -35.59108  eV     1   --> A              
     e(  7 -  7) =    -35.44413  eV     1   --> A              
     e(  8 -  8) =    -35.21409  eV     1   --> A              
     e(  9 -  9) =    -20.86551  eV     1   --> A              
     e( 10 - 10) =    -20.86319  eV     1   --> A              
     e( 11 - 11) =    -20.85910  eV     1   --> A              
     e( 12 - 12) =    -20.83742  eV     1   --> A              
     e( 13 - 13) =    -20.82522  eV     1   --> A              
     e( 14 - 14) =    -20.79777  eV     1   --> A              
     e( 15 - 15) =    -20.77359  eV     1   --> A              
     e( 16 - 16) =    -20.52629  eV     1   --> A              
     e( 17 - 17) =    -20.50557  eV     1   --> A              
     e( 18 - 18) =    -20.50087  eV     1   --> A              
     e( 19 - 19) =    -20.49337  eV     1   --> A              
     e( 20 - 20) =    -20.46161  eV     1   --> A              
     e( 21 - 21) =    -20.45571  eV     1   --> A              
     e( 22 - 22) =    -20.43288  eV     1   --> A              
     e( 23 - 23) =    -12.41685  eV     1   --> A              
     e( 24 - 24) =     -7.16062  eV     1   --> A              
     e( 25 - 25) =     -6.42241  eV     1   --> A              
     e( 26 - 26) =     -5.44195  eV     1   --> A              
     e( 27 - 27) =     -2.43126  eV     1   --> A              
     e( 28 - 28) =     -2.12609  eV     1   --> A              
     e( 29 - 29) =     -1.99581  eV     1   --> A              
     e( 30 - 30) =     -1.48634  eV     1   --> A              
     e( 31 - 31) =     -0.38977  eV     1   --> A              
     e( 32 - 32) =      1.41789  eV     1   --> A              
     e( 33 - 33) =      2.48803  eV     1   --> A              
     e( 34 - 34) =      3.03155  eV     1   --> A              
     e( 35 - 35) =      4.38925  eV     1   --> A              
     e( 36 - 36) =      5.18091  eV     1   --> A              
     e( 37 - 37) =      5.57397  eV     1   --> A              
     e( 38 - 38) =      6.67361  eV     1   --> A              
     e( 39 - 39) =      8.17120  eV     1   --> A              
     e( 40 - 40) =      8.66410  eV     1   --> A              
     e( 41 - 41) =      8.79208  eV     1   --> A              
     e( 42 - 42) =      9.48563  eV     1   --> A              

 **************************************************************************

 **************************************************************************

                    xk=(   0.55503,  -0.00000,   0.00000  )

     Band symmetry, C_1 (1)     point group:

     e(  1 -  1) =    -69.15609  eV     1   --> A              
     e(  2 -  2) =    -68.81934  eV     1   --> A              
     e(  3 -  3) =    -35.91813  eV     1   --> A              
     e(  4 -  4) =    -35.86927  eV     1   --> A              
     e(  5 -  5) =    -35.74642  eV     1   --> A              
     e(  6 -  6) =    -35.59446  eV     1   --> A              
     e(  7 -  7) =    -35.46179  eV     1   --> A              
     e(  8 -  8) =    -35.21339  eV     1   --> A              
     e(  9 -  9) =    -20.86521  eV     1   --> A              
     e( 10 - 10) =    -20.86262  eV     1   --> A              
     e( 11 - 11) =    -20.85984  eV     1   --> A              
     e( 12 - 12) =    -20.83695  eV     1   --> A              
     e( 13 - 13) =    -20.82561  eV     1   --> A              
     e( 14 - 14) =    -20.79870  eV     1   --> A              
     e( 15 - 15) =    -20.77280  eV     1   --> A              
[...]
     e( 12 - 12) =    -20.83909  eV     1   --> A'             
     e( 13 - 13) =    -20.83683  eV     1   --> A''            
     e( 14 - 14) =    -20.81249  eV     1   --> A'             
     e( 15 - 15) =    -20.75830  eV     1   --> A''            
     e( 16 - 16) =    -20.54085  eV     1   --> A'             
     e( 17 - 17) =    -20.50601  eV     1   --> A'             
     e( 18 - 18) =    -20.50401  eV     1   --> A''            
     e( 19 - 19) =    -20.48550  eV     1   --> A''            
     e( 20 - 20) =    -20.45150  eV     1   --> A'             
     e( 21 - 21) =    -20.44670  eV     1   --> A'             
     e( 22 - 22) =    -20.44499  eV     1   --> A''            
     e( 23 - 23) =    -13.88227  eV     1   --> A'             
     e( 24 - 24) =     -8.18644  eV     1   --> A'             
     e( 25 - 25) =     -5.53228  eV     1   --> A'             
     e( 26 - 26) =     -4.95703  eV     1   --> A''            
     e( 27 - 27) =     -4.15639  eV     1   --> A'             
     e( 28 - 28) =     -2.75742  eV     1   --> A'             
     e( 29 - 29) =     -1.75192  eV     1   --> A'             
     e( 30 - 30) =     -1.44726  eV     1   --> A'             
     e( 31 - 31) =     -0.75826  eV     1   --> A''            
     e( 32 - 32) =      0.36442  eV     1   --> A'             
     e( 33 - 33) =      0.76773  eV     1   --> A''            
     e( 34 - 34) =      1.89049  eV     1   --> A'             
     e( 35 - 35) =      2.23656  eV     1   --> A''            
     e( 36 - 36) =      3.41361  eV     1   --> A'             
     e( 37 - 37) =      3.92544  eV     1   --> A'             
     e( 38 - 38) =      4.55536  eV     1   --> A'             
     e( 39 - 39) =      4.96465  eV     1   --> A'             
     e( 40 - 40) =      5.47836  eV     1   --> A'             
     e( 41 - 41) =      5.70338  eV     1   --> A'             
     e( 42 - 42) =      6.13716  eV     1   --> A'             

 **************************************************************************

 **************************************************************************

                    xk=(   0.08005,  -0.04622,   0.00000  )

     Band symmetry, C_s (m)     point group:

     e(  1 -  1) =    -69.20252  eV     1   --> A'             
     e(  2 -  2) =    -68.86468  eV     1   --> A'             
     e(  3 -  3) =    -36.01870  eV     1   --> A'             
     e(  4 -  4) =    -35.38481  eV     1   --> A'             
     e(  5 -  5) =    -35.34033  eV     1   --> A''            
     e(  6 -  6) =    -35.26140  eV     1   --> A'             
     e(  7 -  7) =    -35.16915  eV     1   --> A'             
     e(  8 -  8) =    -35.13363  eV     1   --> A''            
     e(  9 -  9) =    -20.88317  eV     1   --> A'             
     e( 10 - 10) =    -20.84959  eV     1   --> A'             
     e( 11 - 11) =    -20.84836  eV     1   --> A''            
     e( 12 - 12) =    -20.83893  eV     1   --> A'             
     e( 13 - 13) =    -20.83734  eV     1   --> A''            
     e( 14 - 14) =    -20.81362  eV     1   --> A'             
     e( 15 - 15) =    -20.75713  eV     1   --> A''            
     e( 16 - 16) =    -20.54193  eV     1   --> A'             
     e( 17 - 17) =    -20.50589  eV     1   --> A'             
     e( 18 - 18) =    -20.50449  eV     1   --> A''            
     e( 19 - 19) =    -20.48431  eV     1   --> A''            
     e( 20 - 20) =    -20.45203  eV     1   --> A'             
     e( 21 - 21) =    -20.44605  eV     1   --> A'             
     e( 22 - 22) =    -20.44485  eV     1   --> A''            
     e( 23 - 23) =    -13.93040  eV     1   --> A'             
     e( 24 - 24) =     -8.27905  eV     1   --> A'             
     e( 25 - 25) =     -5.39997  eV     1   --> A'             
     e( 26 - 26) =     -4.97067  eV     1   --> A''            
     e( 27 - 27) =     -4.20189  eV     1   --> A'             
     e( 28 - 28) =     -2.78488  eV     1   --> A'             
     e( 29 - 29) =     -1.74525  eV     1   --> A'             
     e( 30 - 30) =     -1.34102  eV     1   --> A'             
     e( 31 - 31) =     -0.83825  eV     1   --> A''            
     e( 32 - 32) =      0.47402  eV     1   --> A'             
     e( 33 - 33) =      0.79888  eV     1   --> A''            
     e( 34 - 34) =      1.90215  eV     1   --> A'             
     e( 35 - 35) =      2.16213  eV     1   --> A''            
     e( 36 - 36) =      3.20064  eV     1   --> A'             
     e( 37 - 37) =      3.82821  eV     1   --> A'             
     e( 38 - 38) =      4.45259  eV     1   --> A'             
     e( 39 - 39) =      4.89498  eV     1   --> A'             
     e( 40 - 40) =      5.41124  eV     1   --> A'             
     e( 41 - 41) =      5.63169  eV     1   --> A'             
     e( 42 - 42) =      6.16940  eV     1   --> A'             

 **************************************************************************

 **************************************************************************

                    xk=(   0.06404,  -0.03697,   0.00000  )

     Band symmetry, C_s (m)     point group:

     e(  1 -  1) =    -69.20360  eV     1   --> A'             
     e(  2 -  2) =    -68.86573  eV     1   --> A'             
     e(  3 -  3) =    -36.02219  eV     1   --> A'             
     e(  4 -  4) =    -35.36603  eV     1   --> A'             
     e(  5 -  5) =    -35.33608  eV     1   --> A''            
     e(  6 -  6) =    -35.26419  eV     1   --> A'             
     e(  7 -  7) =    -35.15322  eV     1   --> A'             
     e(  8 -  8) =    -35.13022  eV     1   --> A''            
     e(  9 -  9) =    -20.88364  eV     1   --> A'             
     e( 10 - 10) =    -20.84904  eV     1   --> A'             
     e( 11 - 11) =    -20.84825  eV     1   --> A''            
     e( 12 - 12) =    -20.83879  eV     1   --> A'             
     e( 13 - 13) =    -20.83776  eV     1   --> A''            
     e( 14 - 14) =    -20.81456  eV     1   --> A'             
     e( 15 - 15) =    -20.75615  eV     1   --> A''            
     e( 16 - 16) =    -20.54283  eV     1   --> A'             
     e( 17 - 17) =    -20.50579  eV     1   --> A'             
     e( 18 - 18) =    -20.50488  eV     1   --> A''            
     e( 19 - 19) =    -20.48331  eV     1   --> A''            
     e( 20 - 20) =    -20.45248  eV     1   --> A'             
     e( 21 - 21) =    -20.44551  eV     1   --> A'             
     e( 22 - 22) =    -20.44474  eV     1   --> A''            
     e( 23 - 23) =    -13.97074  eV     1   --> A'             
     e( 24 - 24) =     -8.35645  eV     1   --> A'             
     e( 25 - 25) =     -5.27799  eV     1   --> A'             
     e( 26 - 26) =     -4.98297  eV     1   --> A''            
     e( 27 - 27) =     -4.24641  eV     1   --> A'             
     e( 28 - 28) =     -2.81214  eV     1   --> A'             
     e( 29 - 29) =     -1.75054  eV     1   --> A'             
     e( 30 - 30) =     -1.23694  eV     1   --> A'             
     e( 31 - 31) =     -0.90470  eV     1   --> A''            
     e( 32 - 32) =      0.59381  eV     1   --> A'             
     e( 33 - 33) =      0.83688  eV     1   --> A''            
     e( 34 - 34) =      1.91379  eV     1   --> A'             
     e( 35 - 35) =      2.08953  eV     1   --> A''            
     e( 36 - 36) =      2.99032  eV     1   --> A'             
     e( 37 - 37) =      3.74791  eV     1   --> A'             
     e( 38 - 38) =      4.36632  eV     1   --> A'             
     e( 39 - 39) =      4.83791  eV     1   --> A'             
     e( 40 - 40) =      5.35545  eV     1   --> A'             
     e( 41 - 41) =      5.56992  eV     1   --> A'             
     e( 42 - 42) =      6.20107  eV     1   --> A'             

 **************************************************************************

 **************************************************************************

                    xk=(   0.04803,  -0.02773,   0.00000  )

     Band symmetry, C_s (m)     point group:

     e(  1 -  1) =    -69.20444  eV     1   --> A'             
     e(  2 -  2) =    -68.86656  eV     1   --> A'             
     e(  3 -  3) =    -36.02497  eV     1   --> A'             
     e(  4 -  4) =    -35.35052  eV     1   --> A'             
     e(  5 -  5) =    -35.33272  eV     1   --> A''            
     e(  6 -  6) =    -35.26706  eV     1   --> A'             
     e(  7 -  7) =    -35.14059  eV     1   --> A'             
     e(  8 -  8) =    -35.12753  eV     1   --> A''            
     e(  9 -  9) =    -20.88401  eV     1   --> A'             
     e( 10 - 10) =    -20.84861  eV     1   --> A'             
     e( 11 - 11) =    -20.84815  eV     1   --> A''            
     e( 12 - 12) =    -20.83868  eV     1   --> A'             
     e( 13 - 13) =    -20.83809  eV     1   --> A''            
     e( 14 - 14) =    -20.81530  eV     1   --> A'             
     e( 15 - 15) =    -20.75537  eV     1   --> A''            
     e( 16 - 16) =    -20.54354  eV     1   --> A'             
     e( 17 - 17) =    -20.50571  eV     1   --> A'             
     e( 18 - 18) =    -20.50520  eV     1   --> A''            
     e( 19 - 19) =    -20.48252  eV     1   --> A''            
     e( 20 - 20) =    -20.45283  eV     1   --> A'             
     e( 21 - 21) =    -20.44508  eV     1   --> A'             
     e( 22 - 22) =    -20.44464  eV     1   --> A''            
     e( 23 - 23) =    -14.00272  eV     1   --> A'             
     e( 24 - 24) =     -8.41764  eV     1   --> A'             
     e( 25 - 25) =     -5.17096  eV     1   --> A'             
     e( 26 - 26) =     -4.99327  eV     1   --> A''            
     e( 27 - 27) =     -4.28866  eV     1   --> A'             
     e( 28 - 28) =     -2.83654  eV     1   --> A'             
     e( 29 - 29) =     -1.75912  eV     1   --> A'             
     e( 30 - 30) =     -1.14789  eV     1   --> A'             
     e( 31 - 31) =     -0.95698  eV     1   --> A''            
     e( 32 - 32) =      0.71664  eV     1   --> A'             
     e( 33 - 33) =      0.87669  eV     1   --> A''            
     e( 34 - 34) =      1.92258  eV     1   --> A'             
     e( 35 - 35) =      2.02325  eV     1   --> A''            
     e( 36 - 36) =      2.79633  eV     1   --> A'             
     e( 37 - 37) =      3.68390  eV     1   --> A'             
     e( 38 - 38) =      4.29786  eV     1   --> A'             
     e( 39 - 39) =      4.79352  eV     1   --> A'             
     e( 40 - 40) =      5.31169  eV     1   --> A'             
     e( 41 - 41) =      5.52009  eV     1   --> A'             
     e( 42 - 42) =      6.22587  eV     1   --> A'             

 **************************************************************************

 **************************************************************************

                    xk=(   0.03202,  -0.01849,   0.00000  )

     Band symmetry, C_s (m)     point group:

     e(  1 -  1) =    -69.20505  eV     1   --> A'             
     e(  2 -  2) =    -68.86715  eV     1   --> A'             
     e(  3 -  3) =    -36.02698  eV     1   --> A'             
     e(  4 -  4) =    -35.33865  eV     1   --> A'             
     e(  5 -  5) =    -35.33030  eV     1   --> A''            
     e(  6 -  6) =    -35.26979  eV     1   --> A'             
     e(  7 -  7) =    -35.13143  eV     1   --> A'             
     e(  8 -  8) =    -35.12559  eV     1   --> A''            
     e(  9 -  9) =    -20.88427  eV     1   --> A'             
     e( 10 - 10) =    -20.84829  eV     1   --> A'             
     e( 11 - 11) =    -20.84809  eV     1   --> A''            
     e( 12 - 12) =    -20.83859  eV     1   --> A'             
     e( 13 - 13) =    -20.83833  eV     1   --> A''            
     e( 14 - 14) =    -20.81584  eV     1   --> A'             
     e( 15 - 15) =    -20.75481  eV     1   --> A''            
     e( 16 - 16) =    -20.54406  eV     1   --> A'             
     e( 17 - 17) =    -20.50565  eV     1   --> A'             
     e( 18 - 18) =    -20.50542  eV     1   --> A''            
     e( 19 - 19) =    -20.48195  eV     1   --> A''            
     e( 20 - 20) =    -20.45308  eV     1   --> A'             
     e( 21 - 21) =    -20.44477  eV     1   --> A'             
     e( 22 - 22) =    -20.44457  eV     1   --> A''            
     e( 23 - 23) =    -14.02590  eV     1   --> A'             
     e( 24 - 24) =     -8.46185  eV     1   --> A'             
     e( 25 - 25) =     -5.08496  eV     1   --> A'             
     e( 26 - 26) =     -5.00104  eV     1   --> A''            
     e( 27 - 27) =     -4.32570  eV     1   --> A'             
     e( 28 - 28) =     -2.85584  eV     1   --> A'             
     e( 29 - 29) =     -1.76713  eV     1   --> A'             
     e( 30 - 30) =     -1.08065  eV     1   --> A'             
     e( 31 - 31) =     -0.99464  eV     1   --> A''            
     e( 32 - 32) =      0.83008  eV     1   --> A'             
     e( 33 - 33) =      0.91236  eV     1   --> A''            
     e( 34 - 34) =      1.92556  eV     1   --> A'             
     e( 35 - 35) =      1.96889  eV     1   --> A''            
     e( 36 - 36) =      2.63559  eV     1   --> A'             
     e( 37 - 37) =      3.63680  eV     1   --> A'             
     e( 38 - 38) =      4.24821  eV     1   --> A'             
     e( 39 - 39) =      4.76182  eV     1   --> A'             
     e( 40 - 40) =      5.28028  eV     1   --> A'             
     e( 41 - 41) =      5.48357  eV     1   --> A'             
     e( 42 - 42) =      6.23854  eV     1   --> A'             

 **************************************************************************

 **************************************************************************

                    xk=(   0.01601,  -0.00924,   0.00000  )

     Band symmetry, C_s (m)     point group:

     e(  1 -  1) =    -69.20542  eV     1   --> A'             
     e(  2 -  2) =    -68.86752  eV     1   --> A'             
     e(  3 -  3) =    -36.02819  eV     1   --> A'             
     e(  4 -  4) =    -35.33101  eV     1   --> A'             
     e(  5 -  5) =    -35.32883  eV     1   --> A''            
     e(  6 -  6) =    -35.27189  eV     1   --> A'             
     e(  7 -  7) =    -35.12589  eV     1   --> A'             
     e(  8 -  8) =    -35.12442  eV     1   --> A''            
     e(  9 -  9) =    -20.88443  eV     1   --> A'             
     e( 10 - 11) =    -20.84810  eV     2   --> A'             
     e( 10 - 11) =    -20.84810  eV     2   --> A''            
     e( 12 - 13) =    -20.83854  eV     2   --> A'             
     e( 12 - 13) =    -20.83854  eV     2   --> A''            
     e( 14 - 14) =    -20.81617  eV     1   --> A'             
     e( 15 - 15) =    -20.75447  eV     1   --> A''            
     e( 16 - 16) =    -20.54437  eV     1   --> A'             
     e( 17 - 18) =    -20.50562  eV     2   --> A'             
     e( 17 - 18) =    -20.50562  eV     2   --> A''            
     e( 19 - 19) =    -20.48161  eV     1   --> A''            
     e( 20 - 20) =    -20.45323  eV     1   --> A'             
     e( 21 - 22) =    -20.44458  eV     2   --> A'             
     e( 21 - 22) =    -20.44458  eV     2   --> A''            
     e( 23 - 23) =    -14.03994  eV     1   --> A'             
     e( 24 - 24) =     -8.48858  eV     1   --> A'             
     e( 25 - 25) =     -5.02779  eV     1   --> A'             
     e( 26 - 26) =     -5.00586  eV     1   --> A''            
     e( 27 - 27) =     -4.35231  eV     1   --> A'             
     e( 28 - 28) =     -2.86822  eV     1   --> A'             
     e( 29 - 29) =     -1.77260  eV     1   --> A'             
     e( 30 - 30) =     -1.03902  eV     1   --> A'             
     e( 31 - 31) =     -1.01735  eV     1   --> A''            
     e( 32 - 32) =      0.91450  eV     1   --> A'             
     e( 33 - 33) =      0.93746  eV     1   --> A''            
     e( 34 - 34) =      1.92260  eV     1   --> A'             
     e( 35 - 35) =      1.93266  eV     1   --> A''            
     e( 36 - 36) =      2.52790  eV     1   --> A'             
     e( 37 - 37) =      3.60780  eV     1   --> A'             
     e( 38 - 38) =      4.21813  eV     1   --> A'             
     e( 39 - 39) =      4.74280  eV     1   --> A'             
     e( 40 - 40) =      5.26137  eV     1   --> A'             
     e( 41 - 41) =      5.46128  eV     1   --> A'             
     e( 42 - 42) =      6.23994  eV     1   --> A'             

 **************************************************************************

 **************************************************************************

                    xk=(   0.00000,   0.00000,   0.00000  )

     point group C_3v (3m)  
     there are  3 classes
     the character table:

       E     2C3   3s_v 
A_1    1.00  1.00  1.00
A_2    1.00  1.00 -1.00
E      2.00 -1.00  0.00

     the symmetry operations in each class and the name of the first element:

     E        1
                                                                 
     2C3      2    3
                                                                 
     3s_v     4    5    6
                                                                 

     Band symmetry, C_3v (3m)   point group:

     e(  1 -  1) =    -69.20555  eV     1   --> A_1  L_1       
     e(  2 -  2) =    -68.86764  eV     1   --> A_1  L_1       
     e(  3 -  3) =    -36.02860  eV     1   --> A_1  L_1       
     e(  4 -  5) =    -35.32834  eV     2   --> E    L_3       
     e(  6 -  6) =    -35.27271  eV     1   --> A_1  L_1       
     e(  7 -  8) =    -35.12403  eV     2   --> E    L_3       
     e(  9 -  9) =    -20.88449  eV     1   --> A_1  L_1       
     e( 10 - 11) =    -20.84804  eV     2   --> E    L_3       
     e( 12 - 13) =    -20.83852  eV     2   --> E    L_3       
     e( 14 - 14) =    -20.81628  eV     1   --> A_1  L_1       
     e( 15 - 15) =    -20.75435  eV     1   --> A_2  L_2       
     e( 16 - 16) =    -20.54447  eV     1   --> A_1  L_1       
     e( 17 - 18) =    -20.50561  eV     2   --> E    L_3       
     e( 19 - 19) =    -20.48149  eV     1   --> A_2  L_2       
     e( 20 - 20) =    -20.45328  eV     1   --> A_1  L_1       
     e( 21 - 22) =    -20.44452  eV     2   --> E    L_3       
     e( 23 - 23) =    -14.04464  eV     1   --> A_1  L_1       
     e( 24 - 24) =     -8.49752  eV     1   --> A_1  L_1       
     e( 25 - 26) =     -5.00750  eV     2   --> E    L_3       
     e( 27 - 27) =     -4.36222  eV     1   --> A_1  L_1       
     e( 28 - 28) =     -2.87249  eV     1   --> A_1  L_1       
     e( 29 - 29) =     -1.77452  eV     1   --> A_1  L_1       
     e( 30 - 31) =     -1.02495  eV     2   --> E    L_3       
     e( 32 - 33) =      0.94655  eV     2   --> E    L_3       
     e( 34 - 35) =      1.91986  eV     2   --> E    L_3       
     e( 36 - 36) =      2.48994  eV     1   --> A_1  L_1       
     e( 37 - 37) =      3.59798  eV     1   --> A_1  L_1       
     e( 38 - 38) =      4.20805  eV     1   --> A_1  L_1       
     e( 39 - 39) =      4.73645  eV     1   --> A_1  L_1       
     e( 40 - 40) =      5.25506  eV     1   --> A_1  L_1       
     e( 41 - 41) =      5.45378  eV     1   --> A_1  L_1       
     e( 42 - 42) =      6.23883  eV     1   --> A_1  L_1       

 **************************************************************************
 
     BANDS        :   2m17.22s CPU   1m42.19s WALL

 
   This run was terminated on:  21:46:27  21Apr2022            

=------------------------------------------------------------------------------=
   JOB DONE.
=------------------------------------------------------------------------------=
