
     Program PWSCF v.6.8 starts on 29Mar2022 at 14:58: 5 

     This program is part of the open-source Quantum ESPRESSO suite
     for quantum simulation of materials; please cite
         "P. Giannozzi et al., J. Phys.:Condens. Matter 21 395502 (2009);
         "P. Giannozzi et al., J. Phys.:Condens. Matter 29 465901 (2017);
         "P. Giannozzi et al., J. Chem. Phys. 152 154105 (2020);
          URL http://www.quantum-espresso.org", 
     in publications or presentations arising from this work. More details at
     http://www.quantum-espresso.org/quote

     Parallel version (MPI & OpenMP), running on       4 processor cores
     Number of MPI processes:                 2
     Threads/MPI process:                     2

     MPI processes distributed on     1 nodes
     R & G space division:  proc/nbgrp/npool/nimage =       2
     125217 MiB available memory on the printing compute node when the environment starts
 
     Reading input from Ta2C.vcrelax.in

     Current dimensions of program PWSCF are:
     Max number of different atomic species (ntypx) = 10
     Max number of k-points (npk) =  40000
     Max angular momentum in pseudopotentials (lmaxx) =  4
     file Ta.pbesol-spfn-rrkjus_psl.1.0.0.UPF: wavefunction(s)  5S 5P renormalized
     Message from routine setup:
     using ibrav=0 with symmetry is DISCOURAGED, use correct ibrav instead

     Subspace diagonalization in iterative solution of the eigenvalue problem:
     a serial algorithm will be used

 
     Parallelization info
     --------------------
     sticks:   dense  smooth     PW     G-vecs:    dense   smooth      PW
     Min         807     324     98               250741    63556   10218
     Max         808     325    101               250768    63579   10229
     Sum        1615     649    199               501509   127135   20447
 
     Using Slab Decomposition
 


     bravais-lattice index     =            0
     lattice parameter (alat)  =       5.5500  a.u.
     unit-cell volume          =    1603.2166 (a.u.)^3
     number of atoms/cell      =            3
     number of atomic types    =            2
     number of electrons       =        58.00
     number of Kohn-Sham states=           35
     kinetic-energy cutoff     =      70.0000  Ry
     charge density cutoff     =     700.0000  Ry
     scf convergence threshold =      1.0E-12
     mixing beta               =       0.7000
     number of iterations used =            8  plain     mixing
     energy convergence thresh.=      1.0E-04
     force convergence thresh. =      1.0E-03
     press convergence thresh. =      5.0E-01
     Exchange-correlation= PBESOL
                           (   1   4  10   8   0   0   0)
     nstep                     =           50


     celldm(1)=   5.550000  celldm(2)=   0.000000  celldm(3)=   0.000000
     celldm(4)=   0.000000  celldm(5)=   0.000000  celldm(6)=   0.000000

     crystal axes: (cart. coord. in units of alat)
               a(1) = (   1.040618   0.000000   0.000000 )  
               a(2) = (  -0.520309   0.901202   0.000000 )  
               a(3) = (   0.000000   0.000000  10.000000 )  

     reciprocal axes: (cart. coord. in units 2 pi/alat)
               b(1) = (  0.960967  0.554815  0.000000 )  
               b(2) = (  0.000000  1.109630  0.000000 )  
               b(3) = (  0.000000  0.000000  0.100000 )  


     PseudoPot. # 1 for Ta read from file:
     /shared/home/lcp34/Ta2C_1_pseudo/Ta.pbesol-spfn-rrkjus_psl.1.0.0.UPF
     MD5 check sum: 1207a2a74ffe9312df441bb049ef2fda
     Pseudo is Ultrasoft + core correction, Zval = 27.0
     Generated using &quot;atomic&quot; code by A. Dal Corso  v.6.3
     Using radial grid of 1273 points,  8 beta functions with: 
                l(1) =   0
                l(2) =   0
                l(3) =   1
                l(4) =   1
                l(5) =   2
                l(6) =   2
                l(7) =   3
                l(8) =   3
     Q(r) pseudized with 0 coefficients 


     PseudoPot. # 2 for C  read from file:
     /shared/home/lcp34/Ta2C_1_pseudo/C.pbesol-n-rrkjus_psl.1.0.0.UPF
     MD5 check sum: 501c6de2a498b658dec7f8fb4a585abe
     Pseudo is Ultrasoft + core correction, Zval =  4.0
     Generated using &quot;atomic&quot; code by A. Dal Corso  v.6.3MaX
     Using radial grid of 1073 points,  4 beta functions with: 
                l(1) =   0
                l(2) =   0
                l(3) =   1
                l(4) =   1
     Q(r) pseudized with 0 coefficients 


     atomic species   valence    mass     pseudopotential
        Ta            27.00   180.94788     Ta( 1.00)
        C              4.00    12.01070     C ( 1.00)

     12 Sym. Ops., with inversion, found



   Cartesian axes

     site n.     atom                  positions (alat units)
         1           C   tau(   1) = (   0.0000000   0.0000000   0.0000000  )
         2           Ta  tau(   2) = (   0.5203090   0.3004005  -0.4101496  )
         3           Ta  tau(   3) = (  -0.0000000   0.6008011   0.4101496  )

     number of k points=    19  Marzari-Vanderbilt smearing, width (Ry)=  0.0010
                       cart. coord. in units 2pi/alat
        k(    1) = (   0.0000000   0.0000000   0.0000000), wk =   0.0138889
        k(    2) = (   0.0000000   0.0924691   0.0000000), wk =   0.0833333
        k(    3) = (   0.0000000   0.1849383   0.0000000), wk =   0.0833333
        k(    4) = (   0.0000000   0.2774074   0.0000000), wk =   0.0833333
        k(    5) = (   0.0000000   0.3698766   0.0000000), wk =   0.0833333
        k(    6) = (   0.0000000   0.4623457   0.0000000), wk =   0.0833333
        k(    7) = (   0.0000000  -0.5548148   0.0000000), wk =   0.0416667
        k(    8) = (   0.0800806   0.1387037   0.0000000), wk =   0.0833333
        k(    9) = (   0.0800806   0.2311728   0.0000000), wk =   0.1666667
        k(   10) = (   0.0800806   0.3236420   0.0000000), wk =   0.1666667
        k(   11) = (   0.0800806   0.4161111   0.0000000), wk =   0.1666667
        k(   12) = (   0.0800806   0.5085803   0.0000000), wk =   0.1666667
        k(   13) = (   0.1601612   0.2774074   0.0000000), wk =   0.0833333
        k(   14) = (   0.1601612   0.3698766   0.0000000), wk =   0.1666667
        k(   15) = (   0.1601612   0.4623457   0.0000000), wk =   0.1666667
        k(   16) = (   0.1601612   0.5548148   0.0000000), wk =   0.0833333
        k(   17) = (   0.2402419   0.4161111   0.0000000), wk =   0.0833333
        k(   18) = (   0.2402419   0.5085803   0.0000000), wk =   0.1666667
        k(   19) = (   0.3203225   0.5548148   0.0000000), wk =   0.0277778

     Dense  grid:   501509 G-vectors     FFT dimensions: (  50,  50, 480)

     Smooth grid:   127135 G-vectors     FFT dimensions: (  32,  32, 300)

     Estimated max dynamical RAM per process >       2.43 GB

     Estimated total dynamical RAM >       4.87 GB

     Initial potential from superposition of free atoms

     starting charge   57.99842, renormalised to   58.00000

     negative rho (up, down):  5.520E-05 0.000E+00
     Starting wfcs are   38 randomized atomic wfcs

     total cpu time spent up to now is       18.3 secs

     Self-consistent Calculation

     iteration #  1     ecut=    70.00 Ry     beta= 0.70
     Davidson diagonalization with overlap
     ethr =  1.00E-02,  avg # of iterations =  2.2

     negative rho (up, down):  1.372E-05 0.000E+00

     total cpu time spent up to now is       24.3 secs

     total energy              =   -1372.45391969 Ry
     estimated scf accuracy    <       1.29358603 Ry

     iteration #  2     ecut=    70.00 Ry     beta= 0.70
     Davidson diagonalization with overlap
     ethr =  2.23E-03,  avg # of iterations = 10.5
     Minimization algorithm failed to find Fermi energy: reverting to bisection
     Possible cause: smearing is larger than the electronic band-gap.

     total cpu time spent up to now is       32.2 secs

     total energy              =   -1370.85658623 Ry
     estimated scf accuracy    <      15.21459760 Ry

     iteration #  3     ecut=    70.00 Ry     beta= 0.70
     Davidson diagonalization with overlap
     ethr =  2.23E-03,  avg # of iterations =  7.6

     total cpu time spent up to now is       39.6 secs

     total energy              =   -1373.21675797 Ry
     estimated scf accuracy    <       0.32869327 Ry

     iteration #  4     ecut=    70.00 Ry     beta= 0.70
     Davidson diagonalization with overlap
     ethr =  5.67E-04,  avg # of iterations =  3.2

     total cpu time spent up to now is       45.8 secs

     total energy              =   -1373.26221932 Ry
     estimated scf accuracy    <       0.04616437 Ry

     iteration #  5     ecut=    70.00 Ry     beta= 0.70
     Davidson diagonalization with overlap
     ethr =  7.96E-05,  avg # of iterations =  4.7

     total cpu time spent up to now is       52.0 secs

     total energy              =   -1373.25661216 Ry
     estimated scf accuracy    <       0.03552714 Ry

     iteration #  6     ecut=    70.00 Ry     beta= 0.70
     Davidson diagonalization with overlap
     ethr =  6.13E-05,  avg # of iterations =  1.4

     total cpu time spent up to now is       57.7 secs

     total energy              =   -1373.25262996 Ry
     estimated scf accuracy    <       0.01483764 Ry

     iteration #  7     ecut=    70.00 Ry     beta= 0.70
     Davidson diagonalization with overlap
     ethr =  2.56E-05,  avg # of iterations =  2.3

     total cpu time spent up to now is       63.7 secs

     total energy              =   -1373.25272982 Ry
     estimated scf accuracy    <       0.00307578 Ry

     iteration #  8     ecut=    70.00 Ry     beta= 0.70
     Davidson diagonalization with overlap
     ethr =  5.30E-06,  avg # of iterations =  3.2

     negative rho (up, down):  3.686E-03 0.000E+00

     total cpu time spent up to now is       69.7 secs

     total energy              =   -1373.25215816 Ry
     estimated scf accuracy    <       0.00135589 Ry

     iteration #  9     ecut=    70.00 Ry     beta= 0.70
     Davidson diagonalization with overlap
     ethr =  2.34E-06,  avg # of iterations =  4.4

     negative rho (up, down):  1.926E-03 0.000E+00

     total cpu time spent up to now is       76.1 secs

     total energy              =   -1373.25233270 Ry
     estimated scf accuracy    <       0.00022768 Ry

     iteration # 10     ecut=    70.00 Ry     beta= 0.70
     Davidson diagonalization with overlap
     ethr =  3.93E-07,  avg # of iterations =  1.6

     negative rho (up, down):  4.072E-06 0.000E+00

     total cpu time spent up to now is       81.9 secs

     total energy              =   -1373.25229836 Ry
     estimated scf accuracy    <       0.00005498 Ry

     iteration # 11     ecut=    70.00 Ry     beta= 0.70
     Davidson diagonalization with overlap
     ethr =  9.48E-08,  avg # of iterations =  2.2

     negative rho (up, down):  6.170E-05 0.000E+00

     total cpu time spent up to now is       87.8 secs

     total energy              =   -1373.25230713 Ry
     estimated scf accuracy    <       0.00000273 Ry

     iteration # 12     ecut=    70.00 Ry     beta= 0.70
     Davidson diagonalization with overlap
     ethr =  4.70E-09,  avg # of iterations =  3.1

     negative rho (up, down):  6.191E-05 0.000E+00

     total cpu time spent up to now is       94.0 secs

     total energy              =   -1373.25230788 Ry
     estimated scf accuracy    <       0.00000039 Ry

     iteration # 13     ecut=    70.00 Ry     beta= 0.70
     Davidson diagonalization with overlap
     ethr =  6.65E-10,  avg # of iterations =  3.3

     negative rho (up, down):  6.411E-05 0.000E+00

     total cpu time spent up to now is      100.1 secs

     total energy              =   -1373.25230795 Ry
     estimated scf accuracy    <       0.00000001 Ry

     iteration # 14     ecut=    70.00 Ry     beta= 0.70
     Davidson diagonalization with overlap
     ethr =  2.54E-11,  avg # of iterations =  4.5

     negative rho (up, down):  6.562E-05 0.000E+00

     total cpu time spent up to now is      106.9 secs

     total energy              =   -1373.25230796 Ry
     estimated scf accuracy    <          5.0E-09 Ry

     iteration # 15     ecut=    70.00 Ry     beta= 0.70
     Davidson diagonalization with overlap
     ethr =  8.54E-12,  avg # of iterations =  2.0

     negative rho (up, down):  6.551E-05 0.000E+00

     total cpu time spent up to now is      112.9 secs

     total energy              =   -1373.25230796 Ry
     estimated scf accuracy    <          1.6E-10 Ry

     iteration # 16     ecut=    70.00 Ry     beta= 0.70
     Davidson diagonalization with overlap
     ethr =  2.71E-13,  avg # of iterations =  4.1

     negative rho (up, down):  6.550E-05 0.000E+00

     total cpu time spent up to now is      119.9 secs

     total energy              =   -1373.25230796 Ry
     estimated scf accuracy    <          1.1E-11 Ry

     iteration # 17     ecut=    70.00 Ry     beta= 0.70
     Davidson diagonalization with overlap
     ethr =  1.00E-13,  avg # of iterations =  1.8

     negative rho (up, down):  6.549E-05 0.000E+00

     total cpu time spent up to now is      125.7 secs

     total energy              =   -1373.25230796 Ry
     estimated scf accuracy    <          1.3E-12 Ry

     iteration # 18     ecut=    70.00 Ry     beta= 0.70
     Davidson diagonalization with overlap
     ethr =  1.00E-13,  avg # of iterations =  1.0

     negative rho (up, down):  6.549E-05 0.000E+00

     total cpu time spent up to now is      131.3 secs

     End of self-consistent calculation

          k = 0.0000 0.0000 0.0000 ( 15945 PWs)   bands (ev):

   -68.3665 -68.3176 -35.3862 -34.7811 -34.4924 -34.4924 -34.4236 -34.4236
   -20.0347 -20.0215 -19.9976 -19.9976 -19.9925 -19.9925 -19.9650 -19.9650
   -19.9584 -19.9584 -19.9467 -19.9416 -19.8828 -19.8812 -13.3062  -7.7231
    -4.4718  -4.4718  -1.9673  -1.0297  -0.8110  -0.2931  -0.2931   1.6511
     1.6511   2.7980   2.7980

          k = 0.0000 0.0925 0.0000 ( 15937 PWs)   bands (ev):

   -68.3628 -68.3154 -35.3738 -34.7872 -34.5372 -34.5083 -34.4660 -34.4293
   -20.0332 -20.0206 -19.9991 -19.9980 -19.9927 -19.9914 -19.9665 -19.9647
   -19.9588 -19.9578 -19.9439 -19.9390 -19.8855 -19.8840 -13.1926  -7.5047
    -4.7939  -4.4351  -1.8667  -1.2060  -0.6337  -0.5261  -0.1171   1.3333
     1.5437   2.8055   3.0171

          k = 0.0000 0.1849 0.0000 ( 15883 PWs)   bands (ev):

   -68.3525 -68.3093 -35.3403 -34.8190 -34.6443 -34.5783 -34.5492 -34.4475
   -20.0294 -20.0183 -20.0026 -19.9989 -19.9933 -19.9888 -19.9702 -19.9638
   -19.9596 -19.9559 -19.9365 -19.9320 -19.8927 -19.8915 -12.8927  -6.9269
    -5.4437  -4.3673  -1.8633  -1.5752  -1.0651  -0.1064   0.3641   1.1571
     1.5899   2.8902   3.3439

          k = 0.0000 0.2774 0.0000 ( 15835 PWs)   bands (ev):

   -68.3380 -68.3015 -35.2978 -34.9258 -34.7359 -34.7113 -34.6014 -34.4753
   -20.0252 -20.0151 -20.0066 -20.0002 -19.9945 -19.9864 -19.9743 -19.9623
   -19.9606 -19.9530 -19.9263 -19.9224 -19.9022 -19.9011 -12.5137  -6.5144
    -5.7351  -4.3486  -2.5086  -1.6375  -1.1252   0.5411   1.0374   1.3277
     2.1532   2.9980   3.5202

          k = 0.0000 0.3699 0.0000 ( 15813 PWs)   bands (ev):

   -68.3227 -68.2944 -35.2680 -35.0787 -34.8462 -34.7579 -34.6512 -34.5050
   -20.0233 -20.0110 -20.0093 -20.0016 -19.9966 -19.9852 -19.9767 -19.9614
   -19.9601 -19.9498 -19.9158 -19.9127 -19.9116 -19.9095 -12.1797  -6.8828
    -5.2527  -4.4010  -3.1441  -1.3176  -0.7923   1.2103   1.7564   1.8551
     2.9131   3.1482   3.5942

          k = 0.0000 0.4623 0.0000 ( 15860 PWs)   bands (ev):

   -68.3105 -68.2903 -35.2698 -35.1946 -34.9017 -34.7842 -34.6866 -34.5274
   -20.0236 -20.0102 -20.0078 -20.0028 -19.9987 -19.9852 -19.9773 -19.9619
   -19.9581 -19.9472 -19.9183 -19.9151 -19.9078 -19.9057 -11.9706  -7.1891
    -5.0162  -4.4726  -3.5412  -0.5549  -0.3037   1.7323   2.1363   2.6455
     2.7769   3.6032   4.3087

          k = 0.0000-0.5548 0.0000 ( 15870 PWs)   bands (ev):

   -68.3055 -68.2892 -35.2808 -35.2347 -34.9104 -34.7963 -34.6994 -34.5357
   -20.0239 -20.0099 -20.0074 -20.0033 -19.9993 -19.9854 -19.9772 -19.9621
   -19.9573 -19.9462 -19.9208 -19.9170 -19.9047 -19.9032 -11.9026  -7.2936
    -4.9796  -4.5040  -3.6735  -0.0690  -0.0494   1.8284   2.2311   2.8695
     2.9427   3.7497   4.8530

          k = 0.0801 0.1387 0.0000 ( 15907 PWs)   bands (ev):

   -68.3558 -68.3112 -35.3508 -34.8048 -34.6034 -34.5770 -34.5055 -34.4501
   -20.0305 -20.0190 -20.0012 -19.9993 -19.9927 -19.9897 -19.9691 -19.9643
   -19.9591 -19.9568 -19.9388 -19.9342 -19.8904 -19.8892 -12.9857  -7.0977
    -5.2509  -4.4276  -1.7705  -1.4070  -0.9942  -0.3253   0.1777   1.2669
     1.4064   3.0146   3.2120

          k = 0.0801 0.2312 0.0000 ( 15867 PWs)   bands (ev):

   -68.3434 -68.3043 -35.3123 -34.8680 -34.7074 -34.6808 -34.5641 -34.4816
   -20.0261 -20.0166 -20.0045 -20.0011 -19.9931 -19.9875 -19.9729 -19.9636
   -19.9592 -19.9548 -19.9301 -19.9259 -19.8988 -19.8979 -12.6456  -6.4509
    -5.7952  -4.4984  -2.0370  -1.5505  -1.2328   0.1535   0.3829   1.5112
     1.8481   2.9826   3.7377

          k = 0.0801 0.3236 0.0000 ( 15853 PWs)   bands (ev):

   -68.3284 -68.2969 -35.2743 -35.0002 -34.8163 -34.7429 -34.6299 -34.5148
   -20.0225 -20.0132 -20.0078 -20.0025 -19.9945 -19.9859 -19.9761 -19.9627
   -19.9588 -19.9520 -19.9197 -19.9163 -19.9083 -19.9070 -12.2893  -6.5572
    -5.4800  -4.6146  -2.6908  -1.2884  -1.1600   0.5951   0.9121   2.1342
     2.5945   3.0533   4.0632

          k = 0.0801 0.4161 0.0000 ( 15858 PWs)   bands (ev):

   -68.3145 -68.2914 -35.2584 -35.1342 -34.8864 -34.7838 -34.6797 -34.5441
   -20.0218 -20.0096 -20.0093 -20.0032 -19.9970 -19.9856 -19.9776 -19.9620
   -19.9581 -19.9491 -19.9166 -19.9143 -19.9103 -19.9079 -12.0207  -6.9414
    -5.0453  -4.7047  -3.1375  -0.8479  -0.7067   1.0799   1.7055   2.2802
     3.1473   3.8413   4.2171

          k = 0.0801 0.5086 0.0000 ( 15845 PWs)   bands (ev):

   -68.3055 -68.2892 -35.2646 -35.2128 -34.9032 -34.8145 -34.7050 -34.5615
   -20.0223 -20.0099 -20.0072 -20.0032 -19.9989 -19.9858 -19.9778 -19.9616
   -19.9576 -19.9472 -19.9212 -19.9180 -19.9048 -19.9032 -11.8857  -7.1461
    -4.9337  -4.7606  -3.3471  -0.2784  -0.2166   1.4929   2.0268   2.3359
     3.6668   3.9017   4.9541

          k = 0.1602 0.2774 0.0000 ( 15858 PWs)   bands (ev):

   -68.3305 -68.2978 -35.2770 -34.9522 -34.8251 -34.7293 -34.6072 -34.5410
   -20.0214 -20.0147 -20.0060 -20.0045 -19.9931 -19.9866 -19.9759 -19.9635
   -19.9570 -19.9539 -19.9212 -19.9176 -19.9069 -19.9066 -12.3277  -6.1975
    -5.7474  -4.8237  -2.2140  -1.6946  -0.6991  -0.2742   0.7462   2.2500
     2.5166   2.9444   4.5699

          k = 0.1602 0.3699 0.0000 ( 15848 PWs)   bands (ev):

   -68.3168 -68.2922 -35.2493 -35.0568 -34.9045 -34.7705 -34.6724 -34.5909
   -20.0180 -20.0124 -20.0076 -20.0052 -19.9945 -19.9865 -19.9781 -19.9627
   -19.9558 -19.9523 -19.9157 -19.9150 -19.9116 -19.9091 -12.0396  -6.5247
    -5.2141  -5.0162  -2.4767  -1.4046  -0.7160   0.1466   1.3720   2.3003
     3.2880   3.6088   5.1884

          k = 0.1602 0.4623 0.0000 ( 15846 PWs)   bands (ev):

   -68.3055 -68.2892 -35.2355 -35.1485 -34.9186 -34.8293 -34.7140 -34.6241
   -20.0181 -20.0101 -20.0075 -20.0036 -19.9972 -19.9870 -19.9791 -19.9614
   -19.9569 -19.9500 -19.9220 -19.9202 -19.9049 -19.9032 -11.8518  -6.7687
    -5.2362  -4.8218  -2.6500  -0.8129  -0.6021   0.6383   2.0261   2.2661
     3.6180   4.0690   5.6239

          k = 0.1602 0.5548 0.0000 ( 15864 PWs)   bands (ev):

   -68.3007 -68.2888 -35.2260 -35.1908 -34.8904 -34.8834 -34.7247 -34.6367
   -20.0186 -20.0098 -20.0061 -20.0027 -19.9987 -19.9874 -19.9793 -19.9602
   -19.9580 -19.9491 -19.9243 -19.9221 -19.9023 -19.9012 -11.7886  -6.8577
    -5.2620  -4.7703  -2.7171  -0.4688  -0.4050   0.7798   2.2329   2.3988
     3.6715   3.9020   5.8494

          k = 0.2402 0.4161 0.0000 ( 15846 PWs)   bands (ev):

   -68.3055 -68.2892 -35.2224 -35.0895 -34.9703 -34.8026 -34.7234 -34.6660
   -20.0137 -20.0127 -20.0065 -20.0048 -19.9958 -19.9879 -19.9798 -19.9616
   -19.9546 -19.9529 -19.9220 -19.9216 -19.9050 -19.9033 -11.8348  -6.4758
    -5.5502  -4.7627  -1.9403  -1.4987  -0.7864   0.3337   1.9038   2.3194
     3.6225   4.0570   5.9211

          k = 0.2402 0.5086 0.0000 ( 15834 PWs)   bands (ev):

   -68.2975 -68.2890 -35.1837 -35.1289 -34.9918 -34.8479 -34.7429 -34.7115
   -20.0149 -20.0095 -20.0059 -20.0020 -19.9979 -19.9891 -19.9810 -19.9595
   -19.9570 -19.9519 -19.9261 -19.9252 -19.9009 -19.9000 -11.7222  -6.4722
    -5.7271  -4.6040  -1.8597  -1.0082  -0.7607   0.4099   2.3133   2.3756
     3.5177   3.6491   5.9791

          k = 0.3203 0.5548 0.0000 ( 15774 PWs)   bands (ev):

   -68.2917 -68.2917 -35.1143 -35.1143 -35.0738 -34.8477 -34.7536 -34.7536
   -20.0143 -20.0069 -20.0069 -19.9994 -19.9994 -19.9902 -19.9821 -19.9578
   -19.9578 -19.9532 -19.9274 -19.9274 -19.8991 -19.8991 -11.6733  -6.1287
    -6.1287  -4.5009  -1.2092  -1.0805  -1.0805   0.3253   2.3316   2.3316
     3.3840   3.3840   6.5163

     the Fermi energy is    -0.2676 ev

!    total energy              =   -1373.25230796 Ry
     estimated scf accuracy    <          1.5E-13 Ry
     smearing contrib. (-TS)   =       0.00000332 Ry
     internal energy E=F+TS    =   -1373.25231128 Ry

     The total energy is F=E-TS. E is the sum of the following terms:
     one-electron contribution =  -10822.39368201 Ry
     hartree contribution      =    5439.34590432 Ry
     xc contribution           =    -138.76391305 Ry
     ewald contribution        =    4148.55937946 Ry

     convergence has been achieved in  18 iterations

     negative rho (up, down):  6.549E-05 0.000E+00

     Forces acting on atoms (cartesian axes, Ry/au):

     atom    1 type  2   force =     0.00000000   -0.00000000    0.00000000
     atom    2 type  1   force =     0.00000000    0.00000000   -0.00070004
     atom    3 type  1   force =    -0.00000000   -0.00000000    0.00070004

     Total force =     0.000990     Total SCF correction =     0.000004


     Computing stress (Cartesian axis) and pressure


     negative rho (up, down):  6.549E-05 0.000E+00
          total   stress  (Ry/bohr**3)                   (kbar)     P=       -0.45
  -0.00000360   0.00000000   0.00000000           -0.53        0.00        0.00
   0.00000000  -0.00000360   0.00000000            0.00       -0.53        0.00
   0.00000000   0.00000000  -0.00000197            0.00        0.00       -0.29


     BFGS Geometry Optimization
     Energy error            =      0.0E+00 Ry
     Gradient error          =      7.0E-04 Ry/Bohr
     Cell gradient error     =      5.3E-01 kbar

     number of scf cycles    =   1
     number of bfgs steps    =   0

     enthalpy           new  =   -1373.2523079582 Ry

     new trust radius        =       0.0007210041 bohr
     new conv_thr            =            1.0E-12 Ry

     new unit-cell volume =   1602.92796 a.u.^3 (   237.52942 Ang^3 )
     density =      2.61393 g/cm^3

CELL_PARAMETERS (alat=  5.55000000)
   1.040524263   0.000000000   0.000000000
  -0.520262131   0.901120444   0.000000000
   0.000000000   0.000000000  10.000000000

ATOMIC_POSITIONS (crystal)
C             0.0000000000        0.0000000000        0.0000000000    0   0   0
Ta            0.6666666670        0.3333333330       -0.0410275725
Ta            0.3333333330        0.6666666670        0.0410275725



     Writing output data file /scratch/lcp34/Ta2C_loop/Ta.save/
     NEW-OLD atomic charge density approx. for the potential

     negative rho (up, down):  6.511E-05 0.000E+00
     extrapolated charge   57.98955, renormalised to   58.00000

     total cpu time spent up to now is      172.8 secs

     Self-consistent Calculation

     iteration #  1     ecut=    70.00 Ry     beta= 0.70
     Davidson diagonalization with overlap
     ethr =  1.00E-06,  avg # of iterations =  3.2

     negative rho (up, down):  6.547E-05 0.000E+00

     total cpu time spent up to now is      179.9 secs

     total energy              =   -1373.25128361 Ry
     estimated scf accuracy    <       0.00097596 Ry

     iteration #  2     ecut=    70.00 Ry     beta= 0.70
     Davidson diagonalization with overlap
     ethr =  1.68E-06,  avg # of iterations =  4.9

     negative rho (up, down):  6.889E-05 0.000E+00

     total cpu time spent up to now is      187.6 secs

     total energy              =   -1373.25113231 Ry
     estimated scf accuracy    <       0.01485417 Ry

     iteration #  3     ecut=    70.00 Ry     beta= 0.70
     Davidson diagonalization with overlap
     ethr =  1.68E-06,  avg # of iterations =  3.4

     negative rho (up, down):  6.766E-05 0.000E+00

     total cpu time spent up to now is      194.3 secs

     total energy              =   -1373.25234638 Ry
     estimated scf accuracy    <       0.00070054 Ry

     iteration #  4     ecut=    70.00 Ry     beta= 0.70
     Davidson diagonalization with overlap
     ethr =  1.21E-06,  avg # of iterations =  1.6

     negative rho (up, down):  6.641E-05 0.000E+00

     total cpu time spent up to now is      200.0 secs

     total energy              =   -1373.25233399 Ry
     estimated scf accuracy    <       0.00039118 Ry

     iteration #  5     ecut=    70.00 Ry     beta= 0.70
     Davidson diagonalization with overlap
     ethr =  6.74E-07,  avg # of iterations =  1.1

     negative rho (up, down):  6.619E-05 0.000E+00

     total cpu time spent up to now is      205.7 secs

     total energy              =   -1373.25233178 Ry
     estimated scf accuracy    <       0.00022913 Ry

     iteration #  6     ecut=    70.00 Ry     beta= 0.70
     Davidson diagonalization with overlap
     ethr =  3.95E-07,  avg # of iterations =  1.0

     negative rho (up, down):  6.590E-05 0.000E+00

     total cpu time spent up to now is      211.4 secs

     total energy              =   -1373.25231156 Ry
     estimated scf accuracy    <       0.00017467 Ry

     iteration #  7     ecut=    70.00 Ry     beta= 0.70
     Davidson diagonalization with overlap
     ethr =  3.01E-07,  avg # of iterations =  1.7

     negative rho (up, down):  6.574E-05 0.000E+00

     total cpu time spent up to now is      217.3 secs

     total energy              =   -1373.25231333 Ry
     estimated scf accuracy    <       0.00005254 Ry

     iteration #  8     ecut=    70.00 Ry     beta= 0.70
     Davidson diagonalization with overlap
     ethr =  9.06E-08,  avg # of iterations =  1.2

     negative rho (up, down):  6.568E-05 0.000E+00

     total cpu time spent up to now is      223.0 secs

     total energy              =   -1373.25231442 Ry
     estimated scf accuracy    <       0.00003154 Ry

     iteration #  9     ecut=    70.00 Ry     beta= 0.70
     Davidson diagonalization with overlap
     ethr =  5.44E-08,  avg # of iterations =  1.0

     negative rho (up, down):  6.566E-05 0.000E+00

     total cpu time spent up to now is      228.8 secs

     total energy              =   -1373.25231297 Ry
     estimated scf accuracy    <       0.00003465 Ry

     iteration # 10     ecut=    70.00 Ry     beta= 0.70
     Davidson diagonalization with overlap
     ethr =  5.44E-08,  avg # of iterations =  1.1

     negative rho (up, down):  6.554E-05 0.000E+00

     total cpu time spent up to now is      234.5 secs

     total energy              =   -1373.25230684 Ry
     estimated scf accuracy    <       0.00002422 Ry

     iteration # 11     ecut=    70.00 Ry     beta= 0.70
     Davidson diagonalization with overlap
     ethr =  4.18E-08,  avg # of iterations =  1.9

     negative rho (up, down):  6.543E-05 0.000E+00

     total cpu time spent up to now is      240.4 secs

     total energy              =   -1373.25230965 Ry
     estimated scf accuracy    <       0.00000008 Ry

     iteration # 12     ecut=    70.00 Ry     beta= 0.70
     Davidson diagonalization with overlap
     ethr =  1.34E-10,  avg # of iterations =  4.9

     negative rho (up, down):  6.541E-05 0.000E+00

     total cpu time spent up to now is      247.6 secs

     total energy              =   -1373.25230971 Ry
     estimated scf accuracy    <       0.00000003 Ry

     iteration # 13     ecut=    70.00 Ry     beta= 0.70
     Davidson diagonalization with overlap
     ethr =  5.96E-11,  avg # of iterations =  1.2

     negative rho (up, down):  6.540E-05 0.000E+00

     total cpu time spent up to now is      253.3 secs

     total energy              =   -1373.25230970 Ry
     estimated scf accuracy    <       0.00000003 Ry

     iteration # 14     ecut=    70.00 Ry     beta= 0.70
     Davidson diagonalization with overlap
     ethr =  5.08E-11,  avg # of iterations =  2.0

     negative rho (up, down):  6.540E-05 0.000E+00

     total cpu time spent up to now is      259.6 secs

     total energy              =   -1373.25230971 Ry
     estimated scf accuracy    <          4.4E-09 Ry

     iteration # 15     ecut=    70.00 Ry     beta= 0.70
     Davidson diagonalization with overlap
     ethr =  7.67E-12,  avg # of iterations =  1.0

     negative rho (up, down):  6.539E-05 0.000E+00

     total cpu time spent up to now is      265.3 secs

     total energy              =   -1373.25230971 Ry
     estimated scf accuracy    <          3.0E-09 Ry

     iteration # 16     ecut=    70.00 Ry     beta= 0.70
     Davidson diagonalization with overlap
     ethr =  5.11E-12,  avg # of iterations =  1.0

     negative rho (up, down):  6.538E-05 0.000E+00

     total cpu time spent up to now is      271.1 secs

     total energy              =   -1373.25230971 Ry
     estimated scf accuracy    <          1.9E-09 Ry

     iteration # 17     ecut=    70.00 Ry     beta= 0.70
     Davidson diagonalization with overlap
     ethr =  3.23E-12,  avg # of iterations =  1.0

     negative rho (up, down):  6.538E-05 0.000E+00

     total cpu time spent up to now is      276.9 secs

     total energy              =   -1373.25230971 Ry
     estimated scf accuracy    <          1.4E-09 Ry

     iteration # 18     ecut=    70.00 Ry     beta= 0.70
     Davidson diagonalization with overlap
     ethr =  2.35E-12,  avg # of iterations =  1.2

     negative rho (up, down):  6.538E-05 0.000E+00

     total cpu time spent up to now is      282.7 secs

     total energy              =   -1373.25230971 Ry
     estimated scf accuracy    <          5.0E-10 Ry

     iteration # 19     ecut=    70.00 Ry     beta= 0.70
     Davidson diagonalization with overlap
     ethr =  8.54E-13,  avg # of iterations =  2.0

     negative rho (up, down):  6.538E-05 0.000E+00

     total cpu time spent up to now is      288.7 secs

     total energy              =   -1373.25230971 Ry
     estimated scf accuracy    <          3.6E-11 Ry

     iteration # 20     ecut=    70.00 Ry     beta= 0.70
     Davidson diagonalization with overlap
     ethr =  1.00E-13,  avg # of iterations =  1.9

     negative rho (up, down):  6.538E-05 0.000E+00

     total cpu time spent up to now is      294.7 secs

     total energy              =   -1373.25230971 Ry
     estimated scf accuracy    <          1.1E-11 Ry

     iteration # 21     ecut=    70.00 Ry     beta= 0.70
     Davidson diagonalization with overlap
     ethr =  1.00E-13,  avg # of iterations =  1.0

     negative rho (up, down):  6.538E-05 0.000E+00

     total cpu time spent up to now is      300.4 secs

     End of self-consistent calculation

          k = 0.0000 0.0000 0.0000 ( 15945 PWs)   bands (ev):

   -68.3659 -68.3172 -35.3854 -34.7810 -34.4914 -34.4914 -34.4228 -34.4228
   -20.0342 -20.0210 -19.9971 -19.9971 -19.9920 -19.9920 -19.9645 -19.9645
   -19.9579 -19.9579 -19.9461 -19.9410 -19.8822 -19.8806 -13.3058  -7.7227
    -4.4685  -4.4685  -1.9698  -1.0291  -0.8112  -0.2912  -0.2912   1.6524
     1.6524   2.7973   2.7973

          k =-0.0000 0.0925 0.0000 ( 15937 PWs)   bands (ev):

   -68.3622 -68.3149 -35.3730 -34.7871 -34.5363 -34.5074 -34.4652 -34.4286
   -20.0327 -20.0201 -19.9985 -19.9975 -19.9922 -19.9908 -19.9660 -19.9642
   -19.9582 -19.9573 -19.9433 -19.9385 -19.8849 -19.8834 -13.1921  -7.5042
    -4.7909  -4.4319  -1.8692  -1.2050  -0.6335  -0.5253  -0.1151   1.3344
     1.5446   2.8048   3.0166

          k =-0.0000 0.1850 0.0000 ( 15883 PWs)   bands (ev):

   -68.3519 -68.3089 -35.3395 -34.8186 -34.6437 -34.5776 -34.5482 -34.4467
   -20.0289 -20.0178 -20.0021 -19.9984 -19.9928 -19.9883 -19.9697 -19.9633
   -19.9591 -19.9554 -19.9359 -19.9314 -19.8921 -19.8909 -12.8922  -6.9263
    -5.4413  -4.3643  -1.8646  -1.5742  -1.0653  -0.1063   0.3665   1.1579
     1.5905   2.8892   3.3435

          k =-0.0000 0.2774 0.0000 ( 15835 PWs)   bands (ev):

   -68.3374 -68.3010 -35.2970 -34.9250 -34.7355 -34.7110 -34.6005 -34.4746
   -20.0247 -20.0146 -20.0061 -19.9997 -19.9940 -19.9858 -19.9737 -19.9617
   -19.9601 -19.9525 -19.9257 -19.9218 -19.9016 -19.9005 -12.5131  -6.5131
    -5.7341  -4.3458  -2.5085  -1.6372  -1.1253   0.5409   1.0403   1.3285
     2.1539   2.9963   3.5197

          k =-0.0000 0.3699 0.0000 ( 15813 PWs)   bands (ev):

   -68.3221 -68.2939 -35.2672 -35.0779 -34.8459 -34.7577 -34.6503 -34.5043
   -20.0228 -20.0105 -20.0088 -20.0011 -19.9961 -19.9846 -19.9762 -19.9609
   -19.9595 -19.9493 -19.9152 -19.9121 -19.9110 -19.9089 -12.1789  -6.8816
    -5.2527  -4.3985  -3.1438  -1.3170  -0.7917   1.2096   1.7575   1.8580
     2.9111   3.1495   3.5940

          k =-0.0000 0.4624 0.0000 ( 15860 PWs)   bands (ev):

   -68.3099 -68.2897 -35.2690 -35.1939 -34.9015 -34.7840 -34.6857 -34.5268
   -20.0231 -20.0097 -20.0073 -20.0023 -19.9982 -19.9847 -19.9767 -19.9614
   -19.9575 -19.9467 -19.9178 -19.9145 -19.9072 -19.9051 -11.9696  -7.1884
    -5.0169  -4.4703  -3.5409  -0.5540  -0.3026   1.7319   2.1360   2.6473
     2.7764   3.6048   4.3104

          k = 0.0000-0.5549 0.0000 ( 15870 PWs)   bands (ev):

   -68.3049 -68.2887 -35.2801 -35.2340 -34.9102 -34.7961 -34.6984 -34.5351
   -20.0234 -20.0094 -20.0069 -20.0028 -19.9988 -19.9848 -19.9767 -19.9615
   -19.9567 -19.9456 -19.9202 -19.9165 -19.9041 -19.9026 -11.9015  -7.2931
    -4.9805  -4.5019  -3.6732  -0.0680  -0.0482   1.8287   2.2286   2.8707
     2.9428   3.7533   4.8550

          k = 0.0801 0.1387 0.0000 ( 15907 PWs)   bands (ev):

   -68.3552 -68.3108 -35.3500 -34.8045 -34.6027 -34.5761 -34.5047 -34.4493
   -20.0300 -20.0185 -20.0006 -19.9988 -19.9922 -19.9892 -19.9686 -19.9638
   -19.9586 -19.9562 -19.9383 -19.9337 -19.8898 -19.8886 -12.9852  -7.0971
    -5.2483  -4.4246  -1.7726  -1.4054  -0.9942  -0.3248   0.1797   1.2672
     1.4076   3.0138   3.2117

          k = 0.0801 0.2312 0.0000 ( 15867 PWs)   bands (ev):

   -68.3428 -68.3038 -35.3115 -34.8674 -34.7069 -34.6803 -34.5633 -34.4809
   -20.0256 -20.0161 -20.0040 -20.0006 -19.9925 -19.9869 -19.9724 -19.9630
   -19.9586 -19.9542 -19.9295 -19.9254 -19.8982 -19.8973 -12.6450  -6.4501
    -5.7932  -4.4958  -2.0369  -1.5505  -1.2327   0.1550   0.3831   1.5125
     1.8490   2.9816   3.7370

          k = 0.0801 0.3237 0.0000 ( 15853 PWs)   bands (ev):

   -68.3279 -68.2964 -35.2735 -34.9994 -34.8158 -34.7427 -34.6290 -34.5141
   -20.0220 -20.0127 -20.0073 -20.0020 -19.9939 -19.9854 -19.9756 -19.9621
   -19.9583 -19.9514 -19.9191 -19.9157 -19.9077 -19.9065 -12.2885  -6.5557
    -5.4796  -4.6124  -2.6904  -1.2880  -1.1596   0.5960   0.9122   2.1356
     2.5953   3.0533   4.0622

          k = 0.0801 0.4161 0.0000 ( 15858 PWs)   bands (ev):

   -68.3139 -68.2909 -35.2576 -35.1334 -34.8861 -34.7835 -34.6789 -34.5435
   -20.0213 -20.0091 -20.0088 -20.0027 -19.9965 -19.9850 -19.9771 -19.9615
   -19.9576 -19.9486 -19.9160 -19.9137 -19.9097 -19.9073 -12.0198  -6.9405
    -5.0456  -4.7027  -3.1369  -0.8471  -0.7057   1.0797   1.7062   2.2796
     3.1495   3.8420   4.2170

          k = 0.0801 0.5086 0.0000 ( 15845 PWs)   bands (ev):

   -68.3049 -68.2887 -35.2639 -35.2121 -34.9030 -34.8141 -34.7043 -34.5609
   -20.0218 -20.0094 -20.0067 -20.0026 -19.9984 -19.9853 -19.9773 -19.9611
   -19.9570 -19.9467 -19.9207 -19.9175 -19.9042 -19.9026 -11.8847  -7.1456
    -4.9344  -4.7589  -3.3464  -0.2774  -0.2152   1.4915   2.0269   2.3366
     3.6696   3.9017   4.9558

          k = 0.1602 0.2774 0.0000 ( 15858 PWs)   bands (ev):

   -68.3299 -68.2973 -35.2761 -34.9515 -34.8245 -34.7291 -34.6064 -34.5404
   -20.0208 -20.0142 -20.0054 -20.0039 -19.9925 -19.9860 -19.9753 -19.9629
   -19.9565 -19.9533 -19.9206 -19.9170 -19.9063 -19.9060 -12.3270  -6.1959
    -5.7466  -4.8220  -2.2129  -1.6952  -0.6982  -0.2732   0.7459   2.2503
     2.5185   2.9443   4.5689

          k = 0.1602 0.3699 0.0000 ( 15848 PWs)   bands (ev):

   -68.3162 -68.2916 -35.2485 -35.0560 -34.9039 -34.7703 -34.6718 -34.5903
   -20.0175 -20.0118 -20.0071 -20.0047 -19.9940 -19.9860 -19.9775 -19.9622
   -19.9553 -19.9517 -19.9151 -19.9144 -19.9110 -19.9085 -12.0387  -6.5236
    -5.2125  -5.0159  -2.4757  -1.4040  -0.7154   0.1469   1.3720   2.2997
     3.2896   3.6108   5.1875

          k = 0.1602 0.4624 0.0000 ( 15846 PWs)   bands (ev):

   -68.3050 -68.2887 -35.2347 -35.1478 -34.9181 -34.8290 -34.7135 -34.6236
   -20.0176 -20.0095 -20.0069 -20.0031 -19.9967 -19.9865 -19.9785 -19.9608
   -19.9563 -19.9495 -19.9214 -19.9196 -19.9043 -19.9026 -11.8508  -6.7681
    -5.2349  -4.8220  -2.6489  -0.8116  -0.6013   0.6375   2.0265   2.2663
     3.6191   4.0707   5.6246

          k = 0.1602 0.5549 0.0000 ( 15864 PWs)   bands (ev):

   -68.3002 -68.2883 -35.2253 -35.1900 -34.8898 -34.8831 -34.7242 -34.6362
   -20.0181 -20.0093 -20.0056 -20.0022 -19.9983 -19.9868 -19.9788 -19.9597
   -19.9575 -19.9485 -19.9238 -19.9215 -19.9017 -19.9006 -11.7875  -6.8573
    -5.2608  -4.7708  -2.7160  -0.4674  -0.4039   0.7784   2.2339   2.3994
     3.6729   3.9029   5.8512

          k = 0.2403 0.4161 0.0000 ( 15846 PWs)   bands (ev):

   -68.3050 -68.2887 -35.2216 -35.0888 -34.9697 -34.8023 -34.7230 -34.6655
   -20.0132 -20.0122 -20.0060 -20.0043 -19.9953 -19.9874 -19.9793 -19.9611
   -19.9541 -19.9524 -19.9215 -19.9210 -19.9044 -19.9027 -11.8337  -6.4751
    -5.5491  -4.7627  -1.9387  -1.4977  -0.7860   0.3333   1.9040   2.3198
     3.6228   4.0594   5.9212

          k = 0.2403 0.5086 0.0000 ( 15834 PWs)   bands (ev):

   -68.2969 -68.2885 -35.1829 -35.1282 -34.9911 -34.8476 -34.7426 -34.7111
   -20.0144 -20.0090 -20.0054 -20.0015 -19.9974 -19.9886 -19.9804 -19.9590
   -19.9565 -19.9514 -19.9256 -19.9246 -19.9003 -19.8994 -11.7210  -6.4719
    -5.7264  -4.6041  -1.8583  -1.0067  -0.7599   0.4087   2.3144   2.3771
     3.5174   3.6502   5.9805

          k = 0.3204 0.5549 0.0000 ( 15774 PWs)   bands (ev):

   -68.2912 -68.2912 -35.1134 -35.1134 -35.0731 -34.8474 -34.7533 -34.7533
   -20.0138 -20.0063 -20.0063 -19.9989 -19.9989 -19.9897 -19.9815 -19.9572
   -19.9572 -19.9526 -19.9268 -19.9268 -19.8985 -19.8985 -11.6721  -6.1283
    -6.1283  -4.5008  -1.2079  -1.0791  -1.0791   0.3240   2.3338   2.3338
     3.3834   3.3834   6.5166

     the Fermi energy is    -0.2666 ev

!    total energy              =   -1373.25230971 Ry
     estimated scf accuracy    <          4.0E-13 Ry
     smearing contrib. (-TS)   =       0.00000361 Ry
     internal energy E=F+TS    =   -1373.25231332 Ry

     The total energy is F=E-TS. E is the sum of the following terms:
     one-electron contribution =  -10823.25871171 Ry
     hartree contribution      =    5439.77967467 Ry
     xc contribution           =    -138.76376938 Ry
     ewald contribution        =    4148.99049309 Ry

     convergence has been achieved in  21 iterations

     negative rho (up, down):  6.538E-05 0.000E+00

     Forces acting on atoms (cartesian axes, Ry/au):

     atom    1 type  2   force =     0.00000000   -0.00000000    0.00000000
     atom    2 type  1   force =     0.00000000   -0.00000000   -0.00038862
     atom    3 type  1   force =    -0.00000000    0.00000000    0.00038862

     Total force =     0.000550     Total SCF correction =     0.000002


     Computing stress (Cartesian axis) and pressure


     negative rho (up, down):  6.538E-05 0.000E+00
          total   stress  (Ry/bohr**3)                   (kbar)     P=       -0.46
  -0.00000326   0.00000000  -0.00000000           -0.48        0.00       -0.00
   0.00000000  -0.00000326  -0.00000000            0.00       -0.48       -0.00
   0.00000000   0.00000000  -0.00000284            0.00        0.00       -0.42

     Energy error            =      1.8E-06 Ry
     Gradient error          =      3.9E-04 Ry/Bohr
     Cell gradient error     =      4.8E-01 kbar

     bfgs converged in   2 scf cycles and   1 bfgs steps
     (criteria: energy <  1.0E-04 Ry, force <  1.0E-03Ry/Bohr, cell <  5.0E-01kbar)

     End of BFGS Geometry Optimization

     Final enthalpy           =   -1373.2523097111 Ry

     File /scratch/lcp34/Ta2C_loop/Ta.bfgs deleted, as requested
Begin final coordinates
     new unit-cell volume =   1602.92796 a.u.^3 (   237.52942 Ang^3 )
     density =      2.61393 g/cm^3

CELL_PARAMETERS (alat=  5.55000000)
   1.040524263   0.000000000   0.000000000
  -0.520262131   0.901120444   0.000000000
   0.000000000   0.000000000  10.000000000

ATOMIC_POSITIONS (crystal)
C             0.0000000000        0.0000000000        0.0000000000    0   0   0
Ta            0.6666666670        0.3333333330       -0.0410275725
Ta            0.3333333330        0.6666666670        0.0410275725
End final coordinates



     Writing output data file /scratch/lcp34/Ta2C_loop/Ta.save/

     Final scf calculation at the relaxed structure.
     The G-vectors are recalculated for the final unit cell
     Results may differ from those at the preceding step.
 
     Parallelization info
     --------------------
     sticks:   dense  smooth     PW     G-vecs:    dense   smooth      PW
     Min         807     324     98               250723    63556   10218
     Max         808     325    101               250750    63579   10229
     Sum        1615     649    199               501473   127135   20447
 
     Using Slab Decomposition
 


     bravais-lattice index     =            0
     lattice parameter (alat)  =       5.5500  a.u.
     unit-cell volume          =    1602.9280 (a.u.)^3
     number of atoms/cell      =            3
     number of atomic types    =            2
     number of electrons       =        58.00
     number of Kohn-Sham states=           35
     kinetic-energy cutoff     =      70.0000  Ry
     charge density cutoff     =     700.0000  Ry
     scf convergence threshold =      1.0E-12
     mixing beta               =       0.7000
     number of iterations used =            8  plain     mixing
     press convergence thresh. =      5.0E-01
     Exchange-correlation= PBESOL
                           (   1   4  10   8   0   0   0)

     celldm(1)=   5.550000  celldm(2)=   0.000000  celldm(3)=   0.000000
     celldm(4)=   0.000000  celldm(5)=   0.000000  celldm(6)=   0.000000

     crystal axes: (cart. coord. in units of alat)
               a(1) = (   1.040524   0.000000   0.000000 )  
               a(2) = (  -0.520262   0.901120   0.000000 )  
               a(3) = (   0.000000   0.000000  10.000000 )  

     reciprocal axes: (cart. coord. in units 2 pi/alat)
               b(1) = (  0.961054  0.554865  0.000000 )  
               b(2) = ( -0.000000  1.109730  0.000000 )  
               b(3) = (  0.000000  0.000000  0.100000 )  


     PseudoPot. # 1 for Ta read from file:
     /shared/home/lcp34/Ta2C_1_pseudo/Ta.pbesol-spfn-rrkjus_psl.1.0.0.UPF
     MD5 check sum: 1207a2a74ffe9312df441bb049ef2fda
     Pseudo is Ultrasoft + core correction, Zval = 27.0
     Generated using &quot;atomic&quot; code by A. Dal Corso  v.6.3
     Using radial grid of 1273 points,  8 beta functions with: 
                l(1) =   0
                l(2) =   0
                l(3) =   1
                l(4) =   1
                l(5) =   2
                l(6) =   2
                l(7) =   3
                l(8) =   3
     Q(r) pseudized with 0 coefficients 


     PseudoPot. # 2 for C  read from file:
     /shared/home/lcp34/Ta2C_1_pseudo/C.pbesol-n-rrkjus_psl.1.0.0.UPF
     MD5 check sum: 501c6de2a498b658dec7f8fb4a585abe
     Pseudo is Ultrasoft + core correction, Zval =  4.0
     Generated using &quot;atomic&quot; code by A. Dal Corso  v.6.3MaX
     Using radial grid of 1073 points,  4 beta functions with: 
                l(1) =   0
                l(2) =   0
                l(3) =   1
                l(4) =   1
     Q(r) pseudized with 0 coefficients 


     atomic species   valence    mass     pseudopotential
        Ta            27.00   180.94788     Ta( 1.00)
        C              4.00    12.01070     C ( 1.00)

     12 Sym. Ops., with inversion, found



   Cartesian axes

     site n.     atom                  positions (alat units)
         1           C   tau(   1) = (   0.0000000   0.0000000   0.0000000  )
         2           Ta  tau(   2) = (   0.5202621   0.3003735  -0.4102757  )
         3           Ta  tau(   3) = (  -0.0000000   0.6007470   0.4102757  )

     number of k points=    19  Marzari-Vanderbilt smearing, width (Ry)=  0.0010
                       cart. coord. in units 2pi/alat
        k(    1) = (   0.0000000   0.0000000   0.0000000), wk =   0.0138889
        k(    2) = (  -0.0000000   0.0924775   0.0000000), wk =   0.0833333
        k(    3) = (  -0.0000000   0.1849549   0.0000000), wk =   0.0833333
        k(    4) = (  -0.0000000   0.2774324   0.0000000), wk =   0.0833333
        k(    5) = (  -0.0000000   0.3699099   0.0000000), wk =   0.0833333
        k(    6) = (  -0.0000000   0.4623873   0.0000000), wk =   0.0833333
        k(    7) = (   0.0000000  -0.5548648   0.0000000), wk =   0.0416667
        k(    8) = (   0.0800878   0.1387162   0.0000000), wk =   0.0833333
        k(    9) = (   0.0800878   0.2311937   0.0000000), wk =   0.1666667
        k(   10) = (   0.0800878   0.3236711   0.0000000), wk =   0.1666667
        k(   11) = (   0.0800878   0.4161486   0.0000000), wk =   0.1666667
        k(   12) = (   0.0800878   0.5086261   0.0000000), wk =   0.1666667
        k(   13) = (   0.1601757   0.2774324   0.0000000), wk =   0.0833333
        k(   14) = (   0.1601757   0.3699099   0.0000000), wk =   0.1666667
        k(   15) = (   0.1601757   0.4623873   0.0000000), wk =   0.1666667
        k(   16) = (   0.1601757   0.5548648   0.0000000), wk =   0.0833333
        k(   17) = (   0.2402635   0.4161486   0.0000000), wk =   0.0833333
        k(   18) = (   0.2402635   0.5086261   0.0000000), wk =   0.1666667
        k(   19) = (   0.3203513   0.5548648   0.0000000), wk =   0.0277778

     Dense  grid:   501473 G-vectors     FFT dimensions: (  50,  50, 480)

     Smooth grid:   127135 G-vectors     FFT dimensions: (  32,  32, 300)

     Estimated max dynamical RAM per process >       2.44 GB

     Estimated total dynamical RAM >       4.87 GB

     Initial potential from superposition of free atoms

     starting charge   57.99842, renormalised to   58.00000

     negative rho (up, down):  5.504E-05 0.000E+00
     Starting wfcs are   38 randomized atomic wfcs

     total cpu time spent up to now is      342.0 secs

     Self-consistent Calculation

     iteration #  1     ecut=    70.00 Ry     beta= 0.70
     Davidson diagonalization with overlap
     c_bands:  2 eigenvalues not converged
     c_bands:  1 eigenvalues not converged
     c_bands:  1 eigenvalues not converged
     c_bands:  1 eigenvalues not converged
     ethr =  1.00E-06,  avg # of iterations = 16.4

     negative rho (up, down):  7.923E-05 0.000E+00

     total cpu time spent up to now is      356.0 secs

     total energy              =   -1372.39128148 Ry
     estimated scf accuracy    <       1.39454054 Ry

     iteration #  2     ecut=    70.00 Ry     beta= 0.70
     Davidson diagonalization with overlap
     ethr =  2.40E-03,  avg # of iterations = 11.5

     total cpu time spent up to now is      364.4 secs

     total energy              =   -1370.34259444 Ry
     estimated scf accuracy    <      19.72498426 Ry

     iteration #  3     ecut=    70.00 Ry     beta= 0.70
     Davidson diagonalization with overlap
     ethr =  2.40E-03,  avg # of iterations =  8.3

     total cpu time spent up to now is      372.2 secs

     total energy              =   -1373.20600006 Ry
     estimated scf accuracy    <       0.39387472 Ry

     iteration #  4     ecut=    70.00 Ry     beta= 0.70
     Davidson diagonalization with overlap
     ethr =  6.79E-04,  avg # of iterations =  3.0

     total cpu time spent up to now is      378.4 secs

     total energy              =   -1373.26504365 Ry
     estimated scf accuracy    <       0.04971860 Ry

     iteration #  5     ecut=    70.00 Ry     beta= 0.70
     Davidson diagonalization with overlap
     ethr =  8.57E-05,  avg # of iterations =  4.8

     total cpu time spent up to now is      384.7 secs

     total energy              =   -1373.25928525 Ry
     estimated scf accuracy    <       0.04124095 Ry

     iteration #  6     ecut=    70.00 Ry     beta= 0.70
     Davidson diagonalization with overlap
     ethr =  7.11E-05,  avg # of iterations =  1.3

     total cpu time spent up to now is      390.4 secs

     total energy              =   -1373.25370461 Ry
     estimated scf accuracy    <       0.01986815 Ry

     iteration #  7     ecut=    70.00 Ry     beta= 0.70
     Davidson diagonalization with overlap
     ethr =  3.43E-05,  avg # of iterations =  2.0

     total cpu time spent up to now is      396.4 secs

     total energy              =   -1373.25294650 Ry
     estimated scf accuracy    <       0.00537857 Ry

     iteration #  8     ecut=    70.00 Ry     beta= 0.70
     Davidson diagonalization with overlap
     ethr =  9.27E-06,  avg # of iterations =  3.9
     Minimization algorithm failed to find Fermi energy: reverting to bisection
     Possible cause: smearing is larger than the electronic band-gap.

     total cpu time spent up to now is      402.5 secs

     total energy              =   -1373.25270975 Ry
     estimated scf accuracy    <       0.00203237 Ry

     iteration #  9     ecut=    70.00 Ry     beta= 0.70
     Davidson diagonalization with overlap
     ethr =  3.50E-06,  avg # of iterations =  3.1

     negative rho (up, down):  7.415E-03 0.000E+00

     total cpu time spent up to now is      408.5 secs

     total energy              =   -1373.25230964 Ry
     estimated scf accuracy    <       0.00113708 Ry

     iteration # 10     ecut=    70.00 Ry     beta= 0.70
     Davidson diagonalization with overlap
     ethr =  1.96E-06,  avg # of iterations =  4.4

     negative rho (up, down):  1.192E-08 0.000E+00

     total cpu time spent up to now is      414.9 secs

     total energy              =   -1373.25226761 Ry
     estimated scf accuracy    <       0.00035820 Ry

     iteration # 11     ecut=    70.00 Ry     beta= 0.70
     Davidson diagonalization with overlap
     ethr =  6.18E-07,  avg # of iterations =  2.6

     negative rho (up, down):  4.960E-05 0.000E+00

     total cpu time spent up to now is      420.9 secs

     total energy              =   -1373.25230728 Ry
     estimated scf accuracy    <       0.00001334 Ry

     iteration # 12     ecut=    70.00 Ry     beta= 0.70
     Davidson diagonalization with overlap
     ethr =  2.30E-08,  avg # of iterations =  2.1

     negative rho (up, down):  6.038E-05 0.000E+00

     total cpu time spent up to now is      427.0 secs

     total energy              =   -1373.25230823 Ry
     estimated scf accuracy    <       0.00000302 Ry

     iteration # 13     ecut=    70.00 Ry     beta= 0.70
     Davidson diagonalization with overlap
     ethr =  5.21E-09,  avg # of iterations =  1.5

     negative rho (up, down):  6.615E-05 0.000E+00

     total cpu time spent up to now is      432.9 secs

     total energy              =   -1373.25230800 Ry
     estimated scf accuracy    <       0.00000086 Ry

     iteration # 14     ecut=    70.00 Ry     beta= 0.70
     Davidson diagonalization with overlap
     ethr =  1.49E-09,  avg # of iterations =  2.7

     negative rho (up, down):  6.525E-05 0.000E+00

     total cpu time spent up to now is      439.4 secs

     total energy              =   -1373.25230823 Ry
     estimated scf accuracy    <       0.00000005 Ry

     iteration # 15     ecut=    70.00 Ry     beta= 0.70
     Davidson diagonalization with overlap
     ethr =  8.27E-11,  avg # of iterations =  2.7

     negative rho (up, down):  6.546E-05 0.000E+00

     total cpu time spent up to now is      445.9 secs

     total energy              =   -1373.25230823 Ry
     estimated scf accuracy    <       0.00000003 Ry

     iteration # 16     ecut=    70.00 Ry     beta= 0.70
     Davidson diagonalization with overlap
     ethr =  4.74E-11,  avg # of iterations =  2.6

     negative rho (up, down):  6.539E-05 0.000E+00

     total cpu time spent up to now is      452.1 secs

     total energy              =   -1373.25230824 Ry
     estimated scf accuracy    <          3.0E-10 Ry

     iteration # 17     ecut=    70.00 Ry     beta= 0.70
     Davidson diagonalization with overlap
     ethr =  5.19E-13,  avg # of iterations =  5.9

     negative rho (up, down):  6.545E-05 0.000E+00

     total cpu time spent up to now is      459.7 secs

     total energy              =   -1373.25230824 Ry
     estimated scf accuracy    <          7.7E-10 Ry

     iteration # 18     ecut=    70.00 Ry     beta= 0.70
     Davidson diagonalization with overlap
     ethr =  5.19E-13,  avg # of iterations =  3.0

     negative rho (up, down):  6.542E-05 0.000E+00

     total cpu time spent up to now is      466.4 secs

     total energy              =   -1373.25230824 Ry
     estimated scf accuracy    <          2.0E-11 Ry

     iteration # 19     ecut=    70.00 Ry     beta= 0.70
     Davidson diagonalization with overlap
     ethr =  1.00E-13,  avg # of iterations =  2.6

     negative rho (up, down):  6.543E-05 0.000E+00

     total cpu time spent up to now is      472.4 secs

     total energy              =   -1373.25230823 Ry
     estimated scf accuracy    <          5.3E-12 Ry

     iteration # 20     ecut=    70.00 Ry     beta= 0.70
     Davidson diagonalization with overlap
     ethr =  1.00E-13,  avg # of iterations =  1.0

     negative rho (up, down):  6.543E-05 0.000E+00

     total cpu time spent up to now is      478.2 secs

     total energy              =   -1373.25230824 Ry
     estimated scf accuracy    <          2.8E-12 Ry

     iteration # 21     ecut=    70.00 Ry     beta= 0.70
     Davidson diagonalization with overlap
     ethr =  1.00E-13,  avg # of iterations =  1.0

     negative rho (up, down):  6.543E-05 0.000E+00

     total cpu time spent up to now is      484.0 secs

     End of self-consistent calculation

          k = 0.0000 0.0000 0.0000 ( 15945 PWs)   bands (ev):

   -68.3659 -68.3172 -35.3854 -34.7810 -34.4914 -34.4914 -34.4228 -34.4228
   -20.0342 -20.0210 -19.9971 -19.9971 -19.9920 -19.9920 -19.9645 -19.9645
   -19.9579 -19.9579 -19.9461 -19.9410 -19.8822 -19.8806 -13.3058  -7.7227
    -4.4685  -4.4685  -1.9698  -1.0291  -0.8112  -0.2912  -0.2912   1.6524
     1.6524   2.7973   2.7973

          k =-0.0000 0.0925 0.0000 ( 15933 PWs)   bands (ev):

   -68.3622 -68.3149 -35.3730 -34.7871 -34.5363 -34.5074 -34.4652 -34.4286
   -20.0328 -20.0201 -19.9985 -19.9975 -19.9922 -19.9908 -19.9660 -19.9642
   -19.9583 -19.9573 -19.9433 -19.9385 -19.8849 -19.8835 -13.1921  -7.5042
    -4.7909  -4.4319  -1.8692  -1.2050  -0.6335  -0.5253  -0.1151   1.3344
     1.5446   2.8048   3.0166

          k =-0.0000 0.1850 0.0000 ( 15879 PWs)   bands (ev):

   -68.3519 -68.3089 -35.3396 -34.8186 -34.6437 -34.5776 -34.5482 -34.4467
   -20.0289 -20.0178 -20.0021 -19.9984 -19.9928 -19.9883 -19.9697 -19.9633
   -19.9591 -19.9554 -19.9359 -19.9315 -19.8921 -19.8910 -12.8922  -6.9263
    -5.4413  -4.3643  -1.8646  -1.5742  -1.0653  -0.1063   0.3665   1.1579
     1.5905   2.8892   3.3435

          k =-0.0000 0.2774 0.0000 ( 15835 PWs)   bands (ev):

   -68.3374 -68.3010 -35.2970 -34.9251 -34.7355 -34.7110 -34.6005 -34.4746
   -20.0247 -20.0146 -20.0061 -19.9997 -19.9940 -19.9858 -19.9738 -19.9618
   -19.9601 -19.9525 -19.9257 -19.9218 -19.9016 -19.9005 -12.5131  -6.5131
    -5.7341  -4.3458  -2.5085  -1.6372  -1.1253   0.5409   1.0403   1.3285
     2.1539   2.9963   3.5197

          k =-0.0000 0.3699 0.0000 ( 15813 PWs)   bands (ev):

   -68.3221 -68.2939 -35.2672 -35.0779 -34.8459 -34.7577 -34.6503 -34.5043
   -20.0228 -20.0105 -20.0088 -20.0011 -19.9961 -19.9847 -19.9762 -19.9609
   -19.9596 -19.9493 -19.9152 -19.9122 -19.9110 -19.9089 -12.1789  -6.8816
    -5.2527  -4.3985  -3.1438  -1.3170  -0.7917   1.2096   1.7575   1.8580
     2.9111   3.1495   3.5940

          k =-0.0000 0.4624 0.0000 ( 15850 PWs)   bands (ev):

   -68.3099 -68.2897 -35.2690 -35.1939 -34.9015 -34.7840 -34.6857 -34.5268
   -20.0231 -20.0097 -20.0073 -20.0023 -19.9982 -19.9847 -19.9767 -19.9614
   -19.9575 -19.9467 -19.9178 -19.9146 -19.9072 -19.9051 -11.9696  -7.1884
    -5.0169  -4.4703  -3.5409  -0.5540  -0.3026   1.7319   2.1360   2.6473
     2.7764   3.6048   4.3104

          k = 0.0000-0.5549 0.0000 ( 15870 PWs)   bands (ev):

   -68.3049 -68.2887 -35.2801 -35.2340 -34.9102 -34.7961 -34.6984 -34.5351
   -20.0234 -20.0095 -20.0069 -20.0028 -19.9988 -19.9849 -19.9767 -19.9615
   -19.9567 -19.9456 -19.9202 -19.9165 -19.9041 -19.9026 -11.9015  -7.2931
    -4.9805  -4.5019  -3.6732  -0.0680  -0.0482   1.8287   2.2286   2.8707
     2.9428   3.7533   4.8550

          k = 0.0801 0.1387 0.0000 ( 15899 PWs)   bands (ev):

   -68.3552 -68.3108 -35.3500 -34.8045 -34.6027 -34.5761 -34.5047 -34.4493
   -20.0300 -20.0185 -20.0006 -19.9988 -19.9922 -19.9892 -19.9686 -19.9638
   -19.9586 -19.9562 -19.9383 -19.9337 -19.8898 -19.8886 -12.9852  -7.0971
    -5.2483  -4.4246  -1.7726  -1.4054  -0.9942  -0.3248   0.1797   1.2672
     1.4076   3.0138   3.2117

          k = 0.0801 0.2312 0.0000 ( 15861 PWs)   bands (ev):

   -68.3428 -68.3038 -35.3115 -34.8674 -34.7069 -34.6803 -34.5633 -34.4809
   -20.0256 -20.0161 -20.0040 -20.0006 -19.9926 -19.9869 -19.9724 -19.9630
   -19.9587 -19.9542 -19.9295 -19.9254 -19.8982 -19.8973 -12.6450  -6.4501
    -5.7932  -4.4958  -2.0369  -1.5505  -1.2327   0.1550   0.3831   1.5125
     1.8490   2.9816   3.7370

          k = 0.0801 0.3237 0.0000 ( 15851 PWs)   bands (ev):

   -68.3279 -68.2964 -35.2735 -34.9994 -34.8158 -34.7427 -34.6290 -34.5141
   -20.0220 -20.0127 -20.0074 -20.0020 -19.9940 -19.9854 -19.9756 -19.9622
   -19.9583 -19.9515 -19.9192 -19.9157 -19.9077 -19.9065 -12.2885  -6.5557
    -5.4796  -4.6124  -2.6904  -1.2880  -1.1596   0.5960   0.9122   2.1356
     2.5953   3.0533   4.0622

          k = 0.0801 0.4161 0.0000 ( 15856 PWs)   bands (ev):

   -68.3139 -68.2909 -35.2576 -35.1334 -34.8861 -34.7835 -34.6789 -34.5435
   -20.0213 -20.0091 -20.0088 -20.0027 -19.9965 -19.9851 -19.9771 -19.9615
   -19.9576 -19.9486 -19.9160 -19.9137 -19.9097 -19.9073 -12.0198  -6.9405
    -5.0456  -4.7027  -3.1369  -0.8471  -0.7057   1.0797   1.7062   2.2796
     3.1495   3.8420   4.2170

          k = 0.0801 0.5086 0.0000 ( 15841 PWs)   bands (ev):

   -68.3049 -68.2887 -35.2639 -35.2121 -34.9030 -34.8141 -34.7043 -34.5609
   -20.0218 -20.0094 -20.0067 -20.0027 -19.9984 -19.9853 -19.9773 -19.9611
   -19.9571 -19.9467 -19.9207 -19.9175 -19.9042 -19.9026 -11.8847  -7.1456
    -4.9344  -4.7589  -3.3464  -0.2774  -0.2152   1.4915   2.0269   2.3366
     3.6696   3.9017   4.9558

          k = 0.1602 0.2774 0.0000 ( 15854 PWs)   bands (ev):

   -68.3299 -68.2973 -35.2761 -34.9515 -34.8245 -34.7291 -34.6064 -34.5404
   -20.0209 -20.0142 -20.0055 -20.0039 -19.9925 -19.9860 -19.9754 -19.9629
   -19.9565 -19.9534 -19.9206 -19.9171 -19.9063 -19.9060 -12.3270  -6.1959
    -5.7466  -4.8220  -2.2129  -1.6952  -0.6982  -0.2732   0.7459   2.2503
     2.5185   2.9443   4.5689

          k = 0.1602 0.3699 0.0000 ( 15846 PWs)   bands (ev):

   -68.3162 -68.2917 -35.2485 -35.0560 -34.9039 -34.7703 -34.6718 -34.5903
   -20.0175 -20.0119 -20.0072 -20.0047 -19.9941 -19.9860 -19.9776 -19.9622
   -19.9553 -19.9518 -19.9152 -19.9144 -19.9110 -19.9085 -12.0387  -6.5236
    -5.2125  -5.0160  -2.4757  -1.4040  -0.7154   0.1469   1.3720   2.2997
     3.2896   3.6108   5.1875

          k = 0.1602 0.4624 0.0000 ( 15840 PWs)   bands (ev):

   -68.3050 -68.2887 -35.2347 -35.1478 -34.9181 -34.8290 -34.7135 -34.6236
   -20.0176 -20.0096 -20.0070 -20.0031 -19.9967 -19.9865 -19.9786 -19.9608
   -19.9563 -19.9495 -19.9214 -19.9196 -19.9043 -19.9027 -11.8508  -6.7681
    -5.2349  -4.8220  -2.6489  -0.8116  -0.6013   0.6375   2.0265   2.2663
     3.6191   4.0707   5.6246

          k = 0.1602 0.5549 0.0000 ( 15860 PWs)   bands (ev):

   -68.3002 -68.2883 -35.2253 -35.1900 -34.8898 -34.8832 -34.7242 -34.6362
   -20.0181 -20.0093 -20.0056 -20.0022 -19.9983 -19.9869 -19.9788 -19.9597
   -19.9575 -19.9485 -19.9238 -19.9215 -19.9017 -19.9006 -11.7875  -6.8573
    -5.2608  -4.7708  -2.7160  -0.4674  -0.4039   0.7784   2.2339   2.3994
     3.6729   3.9029   5.8513

          k = 0.2403 0.4161 0.0000 ( 15842 PWs)   bands (ev):

   -68.3050 -68.2887 -35.2216 -35.0888 -34.9697 -34.8023 -34.7230 -34.6655
   -20.0132 -20.0122 -20.0060 -20.0043 -19.9953 -19.9874 -19.9793 -19.9611
   -19.9541 -19.9524 -19.9215 -19.9210 -19.9044 -19.9027 -11.8337  -6.4751
    -5.5491  -4.7627  -1.9387  -1.4977  -0.7860   0.3333   1.9040   2.3198
     3.6228   4.0594   5.9212

          k = 0.2403 0.5086 0.0000 ( 15830 PWs)   bands (ev):

   -68.2969 -68.2885 -35.1829 -35.1282 -34.9911 -34.8476 -34.7426 -34.7111
   -20.0144 -20.0090 -20.0054 -20.0015 -19.9975 -19.9886 -19.9805 -19.9590
   -19.9565 -19.9514 -19.9256 -19.9247 -19.9003 -19.8994 -11.7210  -6.4719
    -5.7264  -4.6041  -1.8583  -1.0067  -0.7599   0.4087   2.3144   2.3771
     3.5174   3.6502   5.9808

          k = 0.3204 0.5549 0.0000 ( 15774 PWs)   bands (ev):

   -68.2912 -68.2912 -35.1134 -35.1134 -35.0731 -34.8474 -34.7533 -34.7533
   -20.0138 -20.0064 -20.0064 -19.9989 -19.9989 -19.9898 -19.9815 -19.9572
   -19.9572 -19.9527 -19.9269 -19.9269 -19.8985 -19.8985 -11.6721  -6.1283
    -6.1283  -4.5008  -1.2079  -1.0791  -1.0791   0.3240   2.3338   2.3338
     3.3834   3.3834   6.5165

     the Fermi energy is    -0.2666 ev

!    total energy              =   -1373.25230824 Ry
     estimated scf accuracy    <          1.1E-13 Ry
     smearing contrib. (-TS)   =       0.00000361 Ry
     internal energy E=F+TS    =   -1373.25231185 Ry

     The total energy is F=E-TS. E is the sum of the following terms:
     one-electron contribution =  -10823.25865980 Ry
     hartree contribution      =    5439.77961856 Ry
     xc contribution           =    -138.76376370 Ry
     ewald contribution        =    4148.99049309 Ry

     convergence has been achieved in  21 iterations

     negative rho (up, down):  6.543E-05 0.000E+00

     Forces acting on atoms (cartesian axes, Ry/au):

     atom    1 type  2   force =    -0.00000000    0.00000000    0.00000000
     atom    2 type  1   force =     0.00000000    0.00000000   -0.00038660
     atom    3 type  1   force =     0.00000000    0.00000000    0.00038660

     Total force =     0.000547     Total SCF correction =     0.000005


     Computing stress (Cartesian axis) and pressure


     negative rho (up, down):  6.543E-05 0.000E+00
          total   stress  (Ry/bohr**3)                   (kbar)     P=       -0.46
  -0.00000328   0.00000000   0.00000000           -0.48        0.00        0.00
   0.00000000  -0.00000328   0.00000000            0.00       -0.48        0.00
   0.00000000   0.00000000  -0.00000286            0.00        0.00       -0.42


     Writing output data file /scratch/lcp34/Ta2C_loop/Ta.save/
 
     init_run     :     45.45s CPU     29.57s WALL (       2 calls)
     electrons    :    697.82s CPU    382.94s WALL (       3 calls)
     update_pot   :     21.98s CPU     13.50s WALL (       1 calls)
     forces       :     42.95s CPU     22.27s WALL (       3 calls)
     stress       :    110.03s CPU     57.40s WALL (       3 calls)

     Called by init_run:
     wfcinit      :      5.32s CPU      2.76s WALL (       2 calls)
     potinit      :     11.36s CPU      5.72s WALL (       2 calls)
     hinit0       :     24.56s CPU     18.38s WALL (       2 calls)

     Called by electrons:
     c_bands      :    359.45s CPU    182.82s WALL (      60 calls)
     sum_band     :    198.82s CPU    114.59s WALL (      60 calls)
     v_of_rho     :     20.64s CPU     11.02s WALL (      63 calls)
     newd         :    119.28s CPU     75.16s WALL (      63 calls)
     mix_rho      :      3.75s CPU      2.03s WALL (      60 calls)

     Called by c_bands:
     init_us_2    :      8.89s CPU      4.46s WALL (    2432 calls)
     cegterg      :    331.01s CPU    168.49s WALL (    1140 calls)

     Called by *egterg:
     cdiaghg      :      9.72s CPU      4.96s WALL (    4713 calls)
     h_psi        :    264.82s CPU    134.99s WALL (    4770 calls)
     s_psi        :     11.27s CPU      5.66s WALL (    4770 calls)
     g_psi        :      1.44s CPU      0.72s WALL (    3592 calls)

     Called by h_psi:
     h_psi:calbec :      9.84s CPU      4.96s WALL (    4770 calls)
     vloc_psi     :    239.23s CPU    122.04s WALL (    4770 calls)
     add_vuspsi   :     13.68s CPU      6.86s WALL (    4770 calls)

     General routines
     calbec       :     13.90s CPU      7.00s WALL (    6195 calls)
     fft          :     12.60s CPU      6.74s WALL (     889 calls)
     ffts         :      0.42s CPU      0.22s WALL (     123 calls)
     fftw         :    246.64s CPU    125.91s WALL (  236478 calls)
     interpolate  :      1.37s CPU      0.70s WALL (      63 calls)
 
     Parallel routines
 
     PWSCF        :  15m20.92s CPU   8m31.05s WALL

 
   This run was terminated on:  15: 6:36  29Mar2022            

=------------------------------------------------------------------------------=
   JOB DONE.
=------------------------------------------------------------------------------=
