
     Program PWSCF v.6.8 starts on 29Mar2022 at 15: 6:37 

     This program is part of the open-source Quantum ESPRESSO suite
     for quantum simulation of materials; please cite
         "P. Giannozzi et al., J. Phys.:Condens. Matter 21 395502 (2009);
         "P. Giannozzi et al., J. Phys.:Condens. Matter 29 465901 (2017);
         "P. Giannozzi et al., J. Chem. Phys. 152 154105 (2020);
          URL http://www.quantum-espresso.org", 
     in publications or presentations arising from this work. More details at
     http://www.quantum-espresso.org/quote

     Parallel version (MPI & OpenMP), running on       4 processor cores
     Number of MPI processes:                 2
     Threads/MPI process:                     2

     MPI processes distributed on     1 nodes
     R & G space division:  proc/nbgrp/npool/nimage =       2
     125003 MiB available memory on the printing compute node when the environment starts
 
     Reading input from Ta2C.relax.in
Warning: card  &CELL ignored
Warning: card     CELL_DYNAMICS='BFGS', CELL_DOFREE ='2DXY' ignored
Warning: card  / ignored

     Current dimensions of program PWSCF are:
     Max number of different atomic species (ntypx) = 10
     Max number of k-points (npk) =  40000
     Max angular momentum in pseudopotentials (lmaxx) =  4
     file Ta.pbesol-spfn-rrkjus_psl.1.0.0.UPF: wavefunction(s)  5S 5P renormalized
     Message from routine setup:
     using ibrav=0 with symmetry is DISCOURAGED, use correct ibrav instead

     Subspace diagonalization in iterative solution of the eigenvalue problem:
     a serial algorithm will be used

 
     Parallelization info
     --------------------
     sticks:   dense  smooth     PW     G-vecs:    dense   smooth      PW
     Min         807     324     98               250723    63556   10218
     Max         808     325    101               250750    63579   10229
     Sum        1615     649    199               501473   127135   20447
 
     Using Slab Decomposition
 


     bravais-lattice index     =            0
     lattice parameter (alat)  =       5.5500  a.u.
     unit-cell volume          =    1602.9280 (a.u.)^3
     number of atoms/cell      =            3
     number of atomic types    =            2
     number of electrons       =        58.00
     number of Kohn-Sham states=           35
     kinetic-energy cutoff     =      70.0000  Ry
     charge density cutoff     =     700.0000  Ry
     scf convergence threshold =      1.0E-12
     mixing beta               =       0.7000
     number of iterations used =            8  plain     mixing
     energy convergence thresh.=      1.0E-04
     force convergence thresh. =      1.0E-03
     Exchange-correlation= PBESOL
                           (   1   4  10   8   0   0   0)
     nstep                     =           50


     celldm(1)=   5.550000  celldm(2)=   0.000000  celldm(3)=   0.000000
     celldm(4)=   0.000000  celldm(5)=   0.000000  celldm(6)=   0.000000

     crystal axes: (cart. coord. in units of alat)
               a(1) = (   1.040524   0.000000   0.000000 )  
               a(2) = (  -0.520262   0.901120   0.000000 )  
               a(3) = (   0.000000   0.000000  10.000000 )  

     reciprocal axes: (cart. coord. in units 2 pi/alat)
               b(1) = (  0.961054  0.554865  0.000000 )  
               b(2) = (  0.000000  1.109730  0.000000 )  
               b(3) = (  0.000000  0.000000  0.100000 )  


     PseudoPot. # 1 for Ta read from file:
     /shared/home/lcp34/Ta2C_1_pseudo/Ta.pbesol-spfn-rrkjus_psl.1.0.0.UPF
     MD5 check sum: 1207a2a74ffe9312df441bb049ef2fda
     Pseudo is Ultrasoft + core correction, Zval = 27.0
     Generated using &quot;atomic&quot; code by A. Dal Corso  v.6.3
     Using radial grid of 1273 points,  8 beta functions with: 
                l(1) =   0
                l(2) =   0
                l(3) =   1
                l(4) =   1
                l(5) =   2
                l(6) =   2
                l(7) =   3
                l(8) =   3
     Q(r) pseudized with 0 coefficients 


     PseudoPot. # 2 for C  read from file:
     /shared/home/lcp34/Ta2C_1_pseudo/C.pbesol-n-rrkjus_psl.1.0.0.UPF
     MD5 check sum: 501c6de2a498b658dec7f8fb4a585abe
     Pseudo is Ultrasoft + core correction, Zval =  4.0
     Generated using &quot;atomic&quot; code by A. Dal Corso  v.6.3MaX
     Using radial grid of 1073 points,  4 beta functions with: 
                l(1) =   0
                l(2) =   0
                l(3) =   1
                l(4) =   1
     Q(r) pseudized with 0 coefficients 


     atomic species   valence    mass     pseudopotential
        Ta            27.00   180.94788     Ta( 1.00)
        C              4.00    12.01070     C ( 1.00)

     12 Sym. Ops., with inversion, found



   Cartesian axes

     site n.     atom                  positions (alat units)
         1           C   tau(   1) = (   0.0000000   0.0000000   0.0000000  )
         2           Ta  tau(   2) = (   0.5202621   0.3003735  -0.4102757  )
         3           Ta  tau(   3) = (   0.0000000   0.6007470   0.4102757  )

     number of k points=    19  Marzari-Vanderbilt smearing, width (Ry)=  0.0010
                       cart. coord. in units 2pi/alat
        k(    1) = (   0.0000000   0.0000000   0.0000000), wk =   0.0138889
        k(    2) = (   0.0000000   0.0924775   0.0000000), wk =   0.0833333
        k(    3) = (   0.0000000   0.1849549   0.0000000), wk =   0.0833333
        k(    4) = (   0.0000000   0.2774324   0.0000000), wk =   0.0833333
        k(    5) = (   0.0000000   0.3699099   0.0000000), wk =   0.0833333
        k(    6) = (   0.0000000   0.4623873   0.0000000), wk =   0.0833333
        k(    7) = (   0.0000000  -0.5548648   0.0000000), wk =   0.0416667
        k(    8) = (   0.0800878   0.1387162   0.0000000), wk =   0.0833333
        k(    9) = (   0.0800878   0.2311937   0.0000000), wk =   0.1666667
        k(   10) = (   0.0800878   0.3236711   0.0000000), wk =   0.1666667
        k(   11) = (   0.0800878   0.4161486   0.0000000), wk =   0.1666667
        k(   12) = (   0.0800878   0.5086261   0.0000000), wk =   0.1666667
        k(   13) = (   0.1601757   0.2774324   0.0000000), wk =   0.0833333
        k(   14) = (   0.1601757   0.3699099   0.0000000), wk =   0.1666667
        k(   15) = (   0.1601757   0.4623873   0.0000000), wk =   0.1666667
        k(   16) = (   0.1601757   0.5548648   0.0000000), wk =   0.0833333
        k(   17) = (   0.2402635   0.4161486   0.0000000), wk =   0.0833333
        k(   18) = (   0.2402635   0.5086261   0.0000000), wk =   0.1666667
        k(   19) = (   0.3203513   0.5548648   0.0000000), wk =   0.0277778

     Dense  grid:   501473 G-vectors     FFT dimensions: (  50,  50, 480)

     Smooth grid:   127135 G-vectors     FFT dimensions: (  32,  32, 300)

     Estimated max dynamical RAM per process >       2.42 GB

     Estimated total dynamical RAM >       4.85 GB

     Initial potential from superposition of free atoms

     starting charge   57.99842, renormalised to   58.00000

     negative rho (up, down):  5.504E-05 0.000E+00
     Starting wfcs are   38 randomized atomic wfcs

     total cpu time spent up to now is        8.5 secs

     Self-consistent Calculation

     iteration #  1     ecut=    70.00 Ry     beta= 0.70
     Davidson diagonalization with overlap
     ethr =  1.00E-02,  avg # of iterations =  2.2

     negative rho (up, down):  1.275E-05 0.000E+00

     total cpu time spent up to now is       14.6 secs

     total energy              =   -1372.45477391 Ry
     estimated scf accuracy    <       1.29240776 Ry

     iteration #  2     ecut=    70.00 Ry     beta= 0.70
     Davidson diagonalization with overlap
     ethr =  2.23E-03,  avg # of iterations = 11.1

     total cpu time spent up to now is       22.9 secs

     total energy              =   -1370.83428931 Ry
     estimated scf accuracy    <      15.36581039 Ry

     iteration #  3     ecut=    70.00 Ry     beta= 0.70
     Davidson diagonalization with overlap
     ethr =  2.23E-03,  avg # of iterations =  7.3

     total cpu time spent up to now is       30.8 secs

     total energy              =   -1373.21586054 Ry
     estimated scf accuracy    <       0.33383753 Ry

     iteration #  4     ecut=    70.00 Ry     beta= 0.70
     Davidson diagonalization with overlap
     ethr =  5.76E-04,  avg # of iterations =  3.2

     total cpu time spent up to now is       37.3 secs

     total energy              =   -1373.26270464 Ry
     estimated scf accuracy    <       0.04655303 Ry

     iteration #  5     ecut=    70.00 Ry     beta= 0.70
     Davidson diagonalization with overlap
     ethr =  8.03E-05,  avg # of iterations =  5.1

     total cpu time spent up to now is       43.7 secs

     total energy              =   -1373.25692098 Ry
     estimated scf accuracy    <       0.03620573 Ry

     iteration #  6     ecut=    70.00 Ry     beta= 0.70
     Davidson diagonalization with overlap
     ethr =  6.24E-05,  avg # of iterations =  1.3

     total cpu time spent up to now is       49.7 secs

     total energy              =   -1373.25278429 Ry
     estimated scf accuracy    <       0.01526000 Ry

     iteration #  7     ecut=    70.00 Ry     beta= 0.70
     Davidson diagonalization with overlap
     ethr =  2.63E-05,  avg # of iterations =  2.4

     total cpu time spent up to now is       55.7 secs

     total energy              =   -1373.25279995 Ry
     estimated scf accuracy    <       0.00333688 Ry

     iteration #  8     ecut=    70.00 Ry     beta= 0.70
     Davidson diagonalization with overlap
     ethr =  5.75E-06,  avg # of iterations =  2.4

     negative rho (up, down):  2.304E-03 0.000E+00

     total cpu time spent up to now is       61.7 secs

     total energy              =   -1373.25212130 Ry
     estimated scf accuracy    <       0.00150567 Ry

     iteration #  9     ecut=    70.00 Ry     beta= 0.70
     Davidson diagonalization with overlap
     ethr =  2.60E-06,  avg # of iterations =  4.2

     negative rho (up, down):  2.293E-03 0.000E+00

     total cpu time spent up to now is       68.1 secs

     total energy              =   -1373.25234617 Ry
     estimated scf accuracy    <       0.00018454 Ry

     iteration # 10     ecut=    70.00 Ry     beta= 0.70
     Davidson diagonalization with overlap
     ethr =  3.18E-07,  avg # of iterations =  1.9

     negative rho (up, down):  1.665E-06 0.000E+00

     total cpu time spent up to now is       73.9 secs

     total energy              =   -1373.25229762 Ry
     estimated scf accuracy    <       0.00006921 Ry

     iteration # 11     ecut=    70.00 Ry     beta= 0.70
     Davidson diagonalization with overlap
     ethr =  1.19E-07,  avg # of iterations =  2.2

     negative rho (up, down):  6.097E-05 0.000E+00

     total cpu time spent up to now is       79.8 secs

     total energy              =   -1373.25230797 Ry
     estimated scf accuracy    <       0.00000188 Ry

     iteration # 12     ecut=    70.00 Ry     beta= 0.70
     Davidson diagonalization with overlap
     ethr =  3.24E-09,  avg # of iterations =  3.4

     negative rho (up, down):  6.401E-05 0.000E+00

     total cpu time spent up to now is       86.4 secs

     total energy              =   -1373.25230849 Ry
     estimated scf accuracy    <       0.00000003 Ry

     iteration # 13     ecut=    70.00 Ry     beta= 0.70
     Davidson diagonalization with overlap
     ethr =  4.78E-11,  avg # of iterations =  5.1

     negative rho (up, down):  6.478E-05 0.000E+00

     total cpu time spent up to now is       93.7 secs

     total energy              =   -1373.25230850 Ry
     estimated scf accuracy    <       0.00000001 Ry

     iteration # 14     ecut=    70.00 Ry     beta= 0.70
     Davidson diagonalization with overlap
     ethr =  2.01E-11,  avg # of iterations =  3.2

     negative rho (up, down):  6.551E-05 0.000E+00

     total cpu time spent up to now is      100.6 secs

     total energy              =   -1373.25230851 Ry
     estimated scf accuracy    <          6.9E-09 Ry

     iteration # 15     ecut=    70.00 Ry     beta= 0.70
     Davidson diagonalization with overlap
     ethr =  1.20E-11,  avg # of iterations =  2.1

     negative rho (up, down):  6.540E-05 0.000E+00

     total cpu time spent up to now is      106.6 secs

     total energy              =   -1373.25230851 Ry
     estimated scf accuracy    <          1.9E-10 Ry

     iteration # 16     ecut=    70.00 Ry     beta= 0.70
     Davidson diagonalization with overlap
     ethr =  3.31E-13,  avg # of iterations =  5.2

     negative rho (up, down):  6.545E-05 0.000E+00

     total cpu time spent up to now is      113.9 secs

     total energy              =   -1373.25230851 Ry
     estimated scf accuracy    <          9.7E-11 Ry

     iteration # 17     ecut=    70.00 Ry     beta= 0.70
     Davidson diagonalization with overlap
     ethr =  1.68E-13,  avg # of iterations =  2.7

     negative rho (up, down):  6.543E-05 0.000E+00

     total cpu time spent up to now is      120.0 secs

     total energy              =   -1373.25230851 Ry
     estimated scf accuracy    <          2.6E-12 Ry

     iteration # 18     ecut=    70.00 Ry     beta= 0.70
     Davidson diagonalization with overlap
     ethr =  1.00E-13,  avg # of iterations =  1.1

     negative rho (up, down):  6.543E-05 0.000E+00

     total cpu time spent up to now is      125.6 secs

     End of self-consistent calculation

          k = 0.0000 0.0000 0.0000 ( 15945 PWs)   bands (ev):

   -68.3659 -68.3172 -35.3854 -34.7810 -34.4914 -34.4914 -34.4228 -34.4228
   -20.0342 -20.0210 -19.9971 -19.9971 -19.9920 -19.9920 -19.9645 -19.9645
   -19.9579 -19.9579 -19.9461 -19.9410 -19.8822 -19.8806 -13.3058  -7.7227
    -4.4685  -4.4685  -1.9698  -1.0291  -0.8112  -0.2912  -0.2912   1.6524
     1.6524   2.7973   2.7973

          k = 0.0000 0.0925 0.0000 ( 15933 PWs)   bands (ev):

   -68.3622 -68.3149 -35.3730 -34.7871 -34.5363 -34.5074 -34.4652 -34.4286
   -20.0327 -20.0201 -19.9985 -19.9975 -19.9922 -19.9908 -19.9660 -19.9642
   -19.9583 -19.9573 -19.9433 -19.9385 -19.8849 -19.8835 -13.1921  -7.5042
    -4.7909  -4.4319  -1.8692  -1.2050  -0.6335  -0.5253  -0.1151   1.3344
     1.5446   2.8048   3.0166

          k = 0.0000 0.1850 0.0000 ( 15879 PWs)   bands (ev):

   -68.3519 -68.3089 -35.3396 -34.8186 -34.6437 -34.5776 -34.5482 -34.4467
   -20.0289 -20.0178 -20.0021 -19.9984 -19.9928 -19.9883 -19.9697 -19.9633
   -19.9591 -19.9554 -19.9359 -19.9315 -19.8921 -19.8910 -12.8922  -6.9263
    -5.4413  -4.3643  -1.8646  -1.5742  -1.0653  -0.1063   0.3665   1.1579
     1.5905   2.8892   3.3435

          k = 0.0000 0.2774 0.0000 ( 15835 PWs)   bands (ev):

   -68.3374 -68.3010 -35.2970 -34.9250 -34.7355 -34.7110 -34.6005 -34.4746
   -20.0247 -20.0146 -20.0061 -19.9997 -19.9940 -19.9858 -19.9738 -19.9617
   -19.9601 -19.9525 -19.9257 -19.9218 -19.9016 -19.9005 -12.5131  -6.5131
    -5.7341  -4.3458  -2.5085  -1.6372  -1.1253   0.5409   1.0403   1.3285
     2.1539   2.9963   3.5197

          k = 0.0000 0.3699 0.0000 ( 15813 PWs)   bands (ev):

   -68.3221 -68.2939 -35.2672 -35.0779 -34.8459 -34.7577 -34.6503 -34.5043
   -20.0228 -20.0105 -20.0088 -20.0011 -19.9961 -19.9847 -19.9762 -19.9609
   -19.9596 -19.9493 -19.9152 -19.9121 -19.9110 -19.9089 -12.1789  -6.8816
    -5.2527  -4.3985  -3.1438  -1.3170  -0.7917   1.2096   1.7575   1.8580
     2.9111   3.1495   3.5940

          k = 0.0000 0.4624 0.0000 ( 15850 PWs)   bands (ev):

   -68.3099 -68.2897 -35.2690 -35.1939 -34.9015 -34.7840 -34.6857 -34.5268
   -20.0231 -20.0097 -20.0073 -20.0023 -19.9982 -19.9847 -19.9767 -19.9614
   -19.9575 -19.9467 -19.9178 -19.9146 -19.9072 -19.9051 -11.9696  -7.1884
    -5.0169  -4.4703  -3.5409  -0.5540  -0.3026   1.7319   2.1360   2.6473
     2.7764   3.6048   4.3104

          k = 0.0000-0.5549 0.0000 ( 15870 PWs)   bands (ev):

   -68.3049 -68.2887 -35.2801 -35.2340 -34.9102 -34.7961 -34.6984 -34.5351
   -20.0234 -20.0094 -20.0069 -20.0028 -19.9988 -19.9849 -19.9767 -19.9615
   -19.9567 -19.9456 -19.9202 -19.9165 -19.9041 -19.9026 -11.9015  -7.2931
    -4.9805  -4.5019  -3.6732  -0.0680  -0.0482   1.8287   2.2286   2.8707
     2.9428   3.7533   4.8550

          k = 0.0801 0.1387 0.0000 ( 15899 PWs)   bands (ev):

   -68.3552 -68.3108 -35.3500 -34.8045 -34.6027 -34.5761 -34.5047 -34.4493
   -20.0300 -20.0185 -20.0006 -19.9988 -19.9922 -19.9892 -19.9686 -19.9638
   -19.9586 -19.9562 -19.9383 -19.9337 -19.8898 -19.8886 -12.9852  -7.0971
    -5.2483  -4.4246  -1.7726  -1.4054  -0.9942  -0.3248   0.1797   1.2672
     1.4076   3.0138   3.2117

          k = 0.0801 0.2312 0.0000 ( 15861 PWs)   bands (ev):

   -68.3428 -68.3038 -35.3115 -34.8674 -34.7069 -34.6803 -34.5633 -34.4809
   -20.0256 -20.0161 -20.0040 -20.0006 -19.9926 -19.9869 -19.9724 -19.9630
   -19.9587 -19.9542 -19.9295 -19.9254 -19.8982 -19.8973 -12.6450  -6.4501
    -5.7932  -4.4958  -2.0369  -1.5505  -1.2327   0.1550   0.3831   1.5125
     1.8490   2.9816   3.7371

          k = 0.0801 0.3237 0.0000 ( 15851 PWs)   bands (ev):

   -68.3279 -68.2964 -35.2735 -34.9994 -34.8158 -34.7427 -34.6290 -34.5141
   -20.0220 -20.0127 -20.0073 -20.0020 -19.9940 -19.9854 -19.9756 -19.9622
   -19.9583 -19.9515 -19.9192 -19.9157 -19.9077 -19.9065 -12.2885  -6.5557
    -5.4796  -4.6124  -2.6904  -1.2880  -1.1596   0.5960   0.9122   2.1356
     2.5953   3.0533   4.0622

          k = 0.0801 0.4161 0.0000 ( 15856 PWs)   bands (ev):

   -68.3139 -68.2909 -35.2576 -35.1334 -34.8861 -34.7835 -34.6789 -34.5435
   -20.0213 -20.0091 -20.0088 -20.0027 -19.9965 -19.9851 -19.9771 -19.9615
   -19.9576 -19.9486 -19.9160 -19.9137 -19.9097 -19.9073 -12.0198  -6.9405
    -5.0456  -4.7027  -3.1369  -0.8471  -0.7057   1.0797   1.7062   2.2796
     3.1495   3.8420   4.2170

          k = 0.0801 0.5086 0.0000 ( 15841 PWs)   bands (ev):

   -68.3049 -68.2887 -35.2639 -35.2121 -34.9030 -34.8141 -34.7043 -34.5609
   -20.0218 -20.0094 -20.0067 -20.0026 -19.9984 -19.9853 -19.9773 -19.9611
   -19.9570 -19.9467 -19.9207 -19.9175 -19.9042 -19.9026 -11.8847  -7.1456
    -4.9344  -4.7589  -3.3464  -0.2774  -0.2152   1.4915   2.0269   2.3366
     3.6696   3.9017   4.9559

          k = 0.1602 0.2774 0.0000 ( 15854 PWs)   bands (ev):

   -68.3299 -68.2973 -35.2761 -34.9515 -34.8245 -34.7291 -34.6064 -34.5404
   -20.0209 -20.0142 -20.0055 -20.0039 -19.9925 -19.9860 -19.9754 -19.9629
   -19.9565 -19.9534 -19.9206 -19.9171 -19.9063 -19.9060 -12.3270  -6.1959
    -5.7466  -4.8220  -2.2129  -1.6952  -0.6982  -0.2732   0.7459   2.2503
     2.5185   2.9443   4.5689

          k = 0.1602 0.3699 0.0000 ( 15846 PWs)   bands (ev):

   -68.3162 -68.2916 -35.2485 -35.0560 -34.9039 -34.7703 -34.6718 -34.5903
   -20.0175 -20.0119 -20.0072 -20.0047 -19.9941 -19.9860 -19.9776 -19.9622
   -19.9553 -19.9518 -19.9152 -19.9144 -19.9110 -19.9085 -12.0387  -6.5236
    -5.2125  -5.0160  -2.4757  -1.4040  -0.7154   0.1469   1.3720   2.2997
     3.2896   3.6108   5.1875

          k = 0.1602 0.4624 0.0000 ( 15840 PWs)   bands (ev):

   -68.3050 -68.2887 -35.2347 -35.1478 -34.9181 -34.8290 -34.7135 -34.6236
   -20.0176 -20.0096 -20.0070 -20.0031 -19.9967 -19.9865 -19.9786 -19.9608
   -19.9563 -19.9495 -19.9214 -19.9196 -19.9043 -19.9027 -11.8508  -6.7681
    -5.2349  -4.8220  -2.6489  -0.8116  -0.6013   0.6375   2.0265   2.2663
     3.6191   4.0707   5.6246

          k = 0.1602 0.5549 0.0000 ( 15860 PWs)   bands (ev):

   -68.3002 -68.2883 -35.2253 -35.1900 -34.8898 -34.8832 -34.7242 -34.6362
   -20.0181 -20.0093 -20.0056 -20.0022 -19.9983 -19.9869 -19.9788 -19.9597
   -19.9575 -19.9485 -19.9238 -19.9215 -19.9017 -19.9006 -11.7875  -6.8573
    -5.2608  -4.7708  -2.7160  -0.4674  -0.4039   0.7784   2.2339   2.3994
     3.6729   3.9029   5.8512

          k = 0.2403 0.4161 0.0000 ( 15842 PWs)   bands (ev):

   -68.3050 -68.2887 -35.2216 -35.0888 -34.9697 -34.8023 -34.7230 -34.6655
   -20.0132 -20.0122 -20.0060 -20.0043 -19.9953 -19.9874 -19.9793 -19.9611
   -19.9541 -19.9524 -19.9215 -19.9210 -19.9044 -19.9027 -11.8337  -6.4751
    -5.5491  -4.7627  -1.9387  -1.4977  -0.7860   0.3333   1.9040   2.3198
     3.6228   4.0594   5.9213

          k = 0.2403 0.5086 0.0000 ( 15830 PWs)   bands (ev):

   -68.2969 -68.2885 -35.1829 -35.1282 -34.9911 -34.8476 -34.7426 -34.7111
   -20.0144 -20.0090 -20.0054 -20.0015 -19.9975 -19.9886 -19.9805 -19.9590
   -19.9565 -19.9514 -19.9256 -19.9247 -19.9003 -19.8994 -11.7210  -6.4719
    -5.7264  -4.6041  -1.8583  -1.0067  -0.7599   0.4087   2.3144   2.3771
     3.5174   3.6502   5.9808

          k = 0.3204 0.5549 0.0000 ( 15774 PWs)   bands (ev):

   -68.2912 -68.2912 -35.1134 -35.1134 -35.0731 -34.8474 -34.7533 -34.7533
   -20.0138 -20.0064 -20.0064 -19.9989 -19.9989 -19.9898 -19.9815 -19.9572
   -19.9572 -19.9526 -19.9269 -19.9269 -19.8985 -19.8985 -11.6721  -6.1283
    -6.1283  -4.5008  -1.2079  -1.0791  -1.0791   0.3240   2.3338   2.3338
     3.3834   3.3834   6.5166

     the Fermi energy is    -0.2666 ev

!    total energy              =   -1373.25230851 Ry
     estimated scf accuracy    <          6.3E-13 Ry
     smearing contrib. (-TS)   =       0.00000361 Ry
     internal energy E=F+TS    =   -1373.25231212 Ry

     The total energy is F=E-TS. E is the sum of the following terms:
     one-electron contribution =  -10823.25882865 Ry
     hartree contribution      =    5439.77970350 Ry
     xc contribution           =    -138.76376248 Ry
     ewald contribution        =    4148.99057550 Ry

     convergence has been achieved in  18 iterations

     negative rho (up, down):  6.543E-05 0.000E+00

     Forces acting on atoms (cartesian axes, Ry/au):

     atom    1 type  2   force =     0.00000000    0.00000000    0.00000000
     atom    2 type  1   force =     0.00000000    0.00000000   -0.00039038
     atom    3 type  1   force =     0.00000000    0.00000000    0.00039038

     Total force =     0.000552     Total SCF correction =     0.000008


     Computing stress (Cartesian axis) and pressure


     negative rho (up, down):  6.543E-05 0.000E+00
          total   stress  (Ry/bohr**3)                   (kbar)     P=       -0.46
  -0.00000329   0.00000000   0.00000000           -0.48        0.00        0.00
   0.00000000  -0.00000329   0.00000000            0.00       -0.48        0.00
   0.00000000   0.00000000  -0.00000287            0.00        0.00       -0.42


     BFGS Geometry Optimization
     Energy error            =      0.0E+00 Ry
     Gradient error          =      3.9E-04 Ry/Bohr

     bfgs converged in   1 scf cycles and   0 bfgs steps
     (criteria: energy <  1.0E-04 Ry, force <  1.0E-03 Ry/Bohr)

     End of BFGS Geometry Optimization

     Final energy             =   -1373.2523085074 Ry
Begin final coordinates

ATOMIC_POSITIONS (alat)
C             0.0000000000        0.0000000000        0.0000000000
Ta            0.5202621000        0.3003735000       -0.4102757000
Ta            0.0000000000        0.6007470000        0.4102757000
End final coordinates



     Writing output data file /scratch/lcp34/Ta2C_loop/Ta.save/
 
     init_run     :     13.11s CPU      8.28s WALL (       1 calls)
     electrons    :    213.92s CPU    117.17s WALL (       1 calls)
     forces       :      8.18s CPU      4.35s WALL (       1 calls)
     stress       :     23.41s CPU     12.50s WALL (       1 calls)

     Called by init_run:
     wfcinit      :      2.67s CPU      1.38s WALL (       1 calls)
     potinit      :      2.72s CPU      1.39s WALL (       1 calls)
     hinit0       :      5.68s CPU      4.15s WALL (       1 calls)

     Called by electrons:
     c_bands      :    112.30s CPU     57.12s WALL (      18 calls)
     sum_band     :     59.74s CPU     34.41s WALL (      18 calls)
     v_of_rho     :      6.22s CPU      3.36s WALL (      19 calls)
     newd         :     36.00s CPU     22.63s WALL (      19 calls)
     mix_rho      :      1.16s CPU      0.63s WALL (      18 calls)

     Called by c_bands:
     init_us_2    :      2.71s CPU      1.36s WALL (     741 calls)
     cegterg      :    103.71s CPU     52.77s WALL (     342 calls)

     Called by *egterg:
     cdiaghg      :      3.30s CPU      1.69s WALL (    1592 calls)
     h_psi        :     82.93s CPU     42.24s WALL (    1611 calls)
     s_psi        :      3.51s CPU      1.76s WALL (    1611 calls)
     g_psi        :      0.45s CPU      0.23s WALL (    1250 calls)

     Called by h_psi:
     h_psi:calbec :      3.17s CPU      1.60s WALL (    1611 calls)
     vloc_psi     :     74.81s CPU     38.15s WALL (    1611 calls)
     add_vuspsi   :      4.33s CPU      2.17s WALL (    1611 calls)

     General routines
     calbec       :      4.41s CPU      2.22s WALL (    2048 calls)
     fft          :      3.93s CPU      2.10s WALL (     270 calls)
     ffts         :      0.13s CPU      0.07s WALL (      37 calls)
     fftw         :     76.47s CPU     39.02s WALL (   72574 calls)
     interpolate  :      0.41s CPU      0.21s WALL (      19 calls)
 
     Parallel routines
 
     PWSCF        :   4m19.36s CPU   2m22.98s WALL

 
   This run was terminated on:  15: 9: 0  29Mar2022            

=------------------------------------------------------------------------------=
   JOB DONE.
=------------------------------------------------------------------------------=
