
     Program PWSCF v.6.8 starts on  8Apr2022 at 17:50:32 

     This program is part of the open-source Quantum ESPRESSO suite
     for quantum simulation of materials; please cite
         "P. Giannozzi et al., J. Phys.:Condens. Matter 21 395502 (2009);
         "P. Giannozzi et al., J. Phys.:Condens. Matter 29 465901 (2017);
         "P. Giannozzi et al., J. Chem. Phys. 152 154105 (2020);
          URL http://www.quantum-espresso.org", 
     in publications or presentations arising from this work. More details at
     http://www.quantum-espresso.org/quote

     Parallel version (MPI & OpenMP), running on       4 processor cores
     Number of MPI processes:                 2
     Threads/MPI process:                     2

     MPI processes distributed on     1 nodes
     R & G space division:  proc/nbgrp/npool/nimage =       2
     125245 MiB available memory on the printing compute node when the environment starts
 
     Reading input from MoS2.vcrelax.in

     Current dimensions of program PWSCF are:
     Max number of different atomic species (ntypx) = 10
     Max number of k-points (npk) =  40000
     Max angular momentum in pseudopotentials (lmaxx) =  4
     file Mo.pbesol-spn-kjpaw_psl.1.0.0.UPF: wavefunction(s)  4S 4D renormalized
     file S.pbesol-nl-kjpaw_psl.1.0.0.UPF: wavefunction(s)  3S renormalized
     Message from routine setup:
     using ibrav=0 with symmetry is DISCOURAGED, use correct ibrav instead

     Subspace diagonalization in iterative solution of the eigenvalue problem:
     a serial algorithm will be used

 
     Parallelization info
     --------------------
     sticks:   dense  smooth     PW     G-vecs:    dense   smooth      PW
     Min         366     291     93                64972    46541    8519
     Max         367     292     94                64991    46568    8544
     Sum         733     583    187               129963    93109   17063
 
     Using Slab Decomposition
 


     bravais-lattice index     =            0
     lattice parameter (alat)  =       6.0720  a.u.
     unit-cell volume          =    1479.6792 (a.u.)^3
     number of atoms/cell      =            6
     number of atomic types    =            2
     number of electrons       =        52.00
     number of Kohn-Sham states=           26
     kinetic-energy cutoff     =      60.0000  Ry
     charge density cutoff     =     300.0000  Ry
     scf convergence threshold =      1.0E-12
     mixing beta               =       0.3000
     number of iterations used =            8  plain     mixing
     energy convergence thresh.=      1.0E-04
     force convergence thresh. =      1.0E-03
     press convergence thresh. =      5.0E-01
     Exchange-correlation= SLA  PW   PSX  PSC
                           (   1   4  10   8   0   0   0)
     nstep                     =           50


     celldm(1)=   6.072000  celldm(2)=   0.000000  celldm(3)=   0.000000
     celldm(4)=   0.000000  celldm(5)=   0.000000  celldm(6)=   0.000000

     crystal axes: (cart. coord. in units of alat)
               a(1) = (   0.976384  -0.000017   0.000000 )  
               a(2) = (  -0.487931   0.846187   0.000000 )  
               a(3) = (   0.000000   0.000000   8.000000 )  

     reciprocal axes: (cart. coord. in units 2 pi/alat)
               b(1) = (  1.024198  0.590577  0.000000 )  
               b(2) = (  0.000021  1.181785  0.000000 )  
               b(3) = (  0.000000  0.000000  0.125000 )  


     PseudoPot. # 1 for Mo read from file:
     /shared/home/as3359/pseudo/Mo.pbesol-spn-kjpaw_psl.1.0.0.UPF
     MD5 check sum: de57925cfc675213e43241dcc441eda8
     Pseudo is Projector augmented-wave + core cor, Zval = 14.0
     Generated using &quot;atomic&quot; code by A. Dal Corso  v.6.3
     Shape of augmentation charge: PSQ
     Using radial grid of 1229 points,  6 beta functions with: 
                l(1) =   0
                l(2) =   0
                l(3) =   1
                l(4) =   1
                l(5) =   2
                l(6) =   2
     Q(r) pseudized with 0 coefficients 


     PseudoPot. # 2 for S  read from file:
     /shared/home/as3359/pseudo/S.pbesol-nl-kjpaw_psl.1.0.0.UPF
     MD5 check sum: bf3db50ec3f960682bbc396f1aadd1dd
     Pseudo is Projector augmented-wave + core cor, Zval =  6.0
     Generated using &quot;atomic&quot; code by A. Dal Corso  v.6.3
     Shape of augmentation charge: PSQ
     Using radial grid of 1151 points,  4 beta functions with: 
                l(1) =   0
                l(2) =   0
                l(3) =   1
                l(4) =   1
     Q(r) pseudized with 0 coefficients 


     atomic species   valence    mass     pseudopotential
        Mo            14.00    95.94000     Mo( 1.00)
        S              6.00    32.06500     S ( 1.00)

      2 Sym. Ops., with inversion, found ( 1 have fractional translation)



   Cartesian axes

     site n.     atom                  positions (alat units)
         1           Mo  tau(   1) = (   0.0000000   0.0000000   1.2000000  )
         2           S   tau(   2) = (   0.4883508   0.2821722   1.6000000  )
         3           S   tau(   3) = (   0.4883508   0.2821722   0.8000000  )
         4           Mo  tau(   4) = (   0.0000000   0.0000000   2.8000000  )
         5           S   tau(   5) = (  -0.4883508  -0.2821722   3.2000000  )
         6           S   tau(   6) = (  -0.4883508  -0.2821722   2.4000000  )

     number of k points=    74
                       cart. coord. in units 2pi/alat
        k(    1) = (   0.0000000   0.0000000   0.0000000), wk =   0.0138889
        k(    2) = (   0.0000017   0.0984820   0.0000000), wk =   0.0277778
        k(    3) = (   0.0000035   0.1969641   0.0000000), wk =   0.0277778
        k(    4) = (   0.0000052   0.2954461   0.0000000), wk =   0.0277778
        k(    5) = (   0.0000070   0.3939282   0.0000000), wk =   0.0277778
        k(    6) = (   0.0000087   0.4924102   0.0000000), wk =   0.0277778
        k(    7) = (  -0.0000105  -0.5908923   0.0000000), wk =   0.0138889
        k(    8) = (   0.0853498   0.0492147   0.0000000), wk =   0.0277778
        k(    9) = (   0.0853516   0.1476968   0.0000000), wk =   0.0277778
        k(   10) = (   0.0853533   0.2461788   0.0000000), wk =   0.0277778
        k(   11) = (   0.0853550   0.3446609   0.0000000), wk =   0.0277778
        k(   12) = (   0.0853568   0.4431429   0.0000000), wk =   0.0277778
        k(   13) = (   0.0853585   0.5416249   0.0000000), wk =   0.0277778
        k(   14) = (   0.0853394  -0.5416775   0.0000000), wk =   0.0277778
        k(   15) = (   0.0853411  -0.4431955   0.0000000), wk =   0.0277778
        k(   16) = (   0.0853428  -0.3447135   0.0000000), wk =   0.0277778
        k(   17) = (   0.0853446  -0.2462314   0.0000000), wk =   0.0277778
        k(   18) = (   0.0853463  -0.1477494   0.0000000), wk =   0.0277778
        k(   19) = (   0.0853481  -0.0492673   0.0000000), wk =   0.0277778
        k(   20) = (   0.1706996   0.0984294   0.0000000), wk =   0.0277778
        k(   21) = (   0.1707014   0.1969115   0.0000000), wk =   0.0277778
        k(   22) = (   0.1707031   0.2953935   0.0000000), wk =   0.0277778
        k(   23) = (   0.1707049   0.3938756   0.0000000), wk =   0.0277778
        k(   24) = (   0.1707066   0.4923576   0.0000000), wk =   0.0277778
        k(   25) = (   0.1707083   0.5908397   0.0000000), wk =   0.0277778
        k(   26) = (   0.1706892  -0.4924628   0.0000000), wk =   0.0277778
        k(   27) = (   0.1706909  -0.3939808   0.0000000), wk =   0.0277778
        k(   28) = (   0.1706927  -0.2954987   0.0000000), wk =   0.0277778
        k(   29) = (   0.1706944  -0.1970167   0.0000000), wk =   0.0277778
        k(   30) = (   0.1706961  -0.0985346   0.0000000), wk =   0.0277778
        k(   31) = (   0.1706979  -0.0000526   0.0000000), wk =   0.0277778
        k(   32) = (   0.2560494   0.1476442   0.0000000), wk =   0.0277778
        k(   33) = (   0.2560512   0.2461262   0.0000000), wk =   0.0277778
        k(   34) = (   0.2560529   0.3446082   0.0000000), wk =   0.0277778
        k(   35) = (   0.2560547   0.4430903   0.0000000), wk =   0.0277778
        k(   36) = (   0.2560564   0.5415723   0.0000000), wk =   0.0277778
        k(   37) = (   0.2560582   0.6400544   0.0000000), wk =   0.0277778
        k(   38) = (   0.2560390  -0.4432481   0.0000000), wk =   0.0277778
        k(   39) = (   0.2560407  -0.3447661   0.0000000), wk =   0.0277778
        k(   40) = (   0.2560425  -0.2462840   0.0000000), wk =   0.0277778
        k(   41) = (   0.2560442  -0.1478020   0.0000000), wk =   0.0277778
        k(   42) = (   0.2560460  -0.0493199   0.0000000), wk =   0.0277778
        k(   43) = (   0.2560477   0.0491621   0.0000000), wk =   0.0277778
        k(   44) = (   0.3413993   0.1968589   0.0000000), wk =   0.0277778
        k(   45) = (   0.3414010   0.2953409   0.0000000), wk =   0.0277778
        k(   46) = (   0.3414027   0.3938230   0.0000000), wk =   0.0277778
        k(   47) = (   0.3414045   0.4923050   0.0000000), wk =   0.0277778
        k(   48) = (   0.3414062   0.5907871   0.0000000), wk =   0.0277778
        k(   49) = (   0.3414080   0.6892691   0.0000000), wk =   0.0277778
        k(   50) = (   0.3413888  -0.3940334   0.0000000), wk =   0.0277778
        k(   51) = (   0.3413905  -0.2955513   0.0000000), wk =   0.0277778
        k(   52) = (   0.3413923  -0.1970693   0.0000000), wk =   0.0277778
        k(   53) = (   0.3413940  -0.0985872   0.0000000), wk =   0.0277778
        k(   54) = (   0.3413958  -0.0001052   0.0000000), wk =   0.0277778
        k(   55) = (   0.3413975   0.0983768   0.0000000), wk =   0.0277778
        k(   56) = (   0.4267491   0.2460736   0.0000000), wk =   0.0277778
        k(   57) = (   0.4267508   0.3445556   0.0000000), wk =   0.0277778
        k(   58) = (   0.4267526   0.4430377   0.0000000), wk =   0.0277778
        k(   59) = (   0.4267543   0.5415197   0.0000000), wk =   0.0277778
        k(   60) = (   0.4267560   0.6400018   0.0000000), wk =   0.0277778
        k(   61) = (   0.4267578   0.7384838   0.0000000), wk =   0.0277778
        k(   62) = (   0.4267386  -0.3448187   0.0000000), wk =   0.0277778
        k(   63) = (   0.4267404  -0.2463366   0.0000000), wk =   0.0277778
        k(   64) = (   0.4267421  -0.1478546   0.0000000), wk =   0.0277778
        k(   65) = (   0.4267438  -0.0493725   0.0000000), wk =   0.0277778
        k(   66) = (   0.4267456   0.0491095   0.0000000), wk =   0.0277778
        k(   67) = (   0.4267473   0.1475916   0.0000000), wk =   0.0277778
        k(   68) = (  -0.5120989  -0.2952883   0.0000000), wk =   0.0138889
        k(   69) = (  -0.5120971  -0.1968063   0.0000000), wk =   0.0277778
        k(   70) = (  -0.5120954  -0.0983242   0.0000000), wk =   0.0277778
        k(   71) = (  -0.5120937   0.0001578   0.0000000), wk =   0.0277778
        k(   72) = (  -0.5120919   0.0986398   0.0000000), wk =   0.0277778
        k(   73) = (  -0.5120902   0.1971219   0.0000000), wk =   0.0277778
        k(   74) = (  -0.5121093  -0.8861806   0.0000000), wk =   0.0138889

     Dense  grid:   129963 G-vectors     FFT dimensions: (  36,  36, 270)

     Smooth grid:    93109 G-vectors     FFT dimensions: (  30,  30, 240)

     Estimated max dynamical RAM per process >     424.55 MB

     Estimated total dynamical RAM >     849.10 MB

     Initial potential from superposition of free atoms

     starting charge   51.99828, renormalised to   52.00000

     negative rho (up, down):  3.422E-04 0.000E+00
     Starting wfcs are   36 randomized atomic wfcs
     Checking if some PAW data can be deallocated... 

     total cpu time spent up to now is        7.8 secs

     Self-consistent Calculation

     iteration #  1     ecut=    60.00 Ry     beta= 0.30
     Davidson diagonalization with overlap
     ethr =  1.00E-02,  avg # of iterations =  2.0

     Threshold (ethr) on eigenvalues was too large:
     Diagonalizing with lowered threshold

     Davidson diagonalization with overlap
     ethr =  3.38E-04,  avg # of iterations =  4.6

     negative rho (up, down):  3.596E-04 0.000E+00

     total cpu time spent up to now is       25.9 secs

     total energy              =    -979.21335564 Ry
     estimated scf accuracy    <       0.25797169 Ry

     iteration #  2     ecut=    60.00 Ry     beta= 0.30
     Davidson diagonalization with overlap
     ethr =  4.96E-04,  avg # of iterations =  2.0

     negative rho (up, down):  3.762E-04 0.000E+00

     total cpu time spent up to now is       33.7 secs

     total energy              =    -979.22252790 Ry
     estimated scf accuracy    <       0.04820625 Ry

     iteration #  3     ecut=    60.00 Ry     beta= 0.30
     Davidson diagonalization with overlap
     ethr =  9.27E-05,  avg # of iterations =  2.9

     negative rho (up, down):  3.928E-04 0.000E+00

     total cpu time spent up to now is       42.3 secs

     total energy              =    -979.22794533 Ry
     estimated scf accuracy    <       0.01110536 Ry

     iteration #  4     ecut=    60.00 Ry     beta= 0.30
     Davidson diagonalization with overlap
     ethr =  2.14E-05,  avg # of iterations =  4.3

     negative rho (up, down):  4.042E-04 0.000E+00

     total cpu time spent up to now is       51.0 secs

     total energy              =    -979.22924016 Ry
     estimated scf accuracy    <       0.00403171 Ry

     iteration #  5     ecut=    60.00 Ry     beta= 0.30
     Davidson diagonalization with overlap
     ethr =  7.75E-06,  avg # of iterations =  2.5

     negative rho (up, down):  4.151E-04 0.000E+00

     total cpu time spent up to now is       58.9 secs

     total energy              =    -979.22898444 Ry
     estimated scf accuracy    <       0.00140292 Ry

     iteration #  6     ecut=    60.00 Ry     beta= 0.30
     Davidson diagonalization with overlap
     ethr =  2.70E-06,  avg # of iterations =  5.3

     negative rho (up, down):  4.197E-04 0.000E+00

     total cpu time spent up to now is       70.8 secs

     total energy              =    -979.22870173 Ry
     estimated scf accuracy    <       0.00555628 Ry

     iteration #  7     ecut=    60.00 Ry     beta= 0.30
     Davidson diagonalization with overlap
     ethr =  2.70E-06,  avg # of iterations =  4.3

     negative rho (up, down):  4.231E-04 0.000E+00

     total cpu time spent up to now is       80.6 secs

     total energy              =    -979.22938820 Ry
     estimated scf accuracy    <       0.00015027 Ry

     iteration #  8     ecut=    60.00 Ry     beta= 0.30
     Davidson diagonalization with overlap
     ethr =  2.89E-07,  avg # of iterations =  6.3

     negative rho (up, down):  4.257E-04 0.000E+00

     total cpu time spent up to now is       94.1 secs

     total energy              =    -979.22937719 Ry
     estimated scf accuracy    <       0.00068915 Ry

     iteration #  9     ecut=    60.00 Ry     beta= 0.30
     Davidson diagonalization with overlap
     ethr =  2.89E-07,  avg # of iterations =  5.0

     negative rho (up, down):  4.275E-04 0.000E+00

     total cpu time spent up to now is      104.9 secs

     total energy              =    -979.22951222 Ry
     estimated scf accuracy    <       0.00000442 Ry

     iteration # 10     ecut=    60.00 Ry     beta= 0.30
     Davidson diagonalization with overlap
     ethr =  8.50E-09,  avg # of iterations =  5.7

     negative rho (up, down):  4.290E-04 0.000E+00

     total cpu time spent up to now is      116.7 secs

     total energy              =    -979.22950882 Ry
     estimated scf accuracy    <       0.00001728 Ry

     iteration # 11     ecut=    60.00 Ry     beta= 0.30
     Davidson diagonalization with overlap
     ethr =  8.50E-09,  avg # of iterations =  4.6

     negative rho (up, down):  4.299E-04 0.000E+00

     total cpu time spent up to now is      127.5 secs

     total energy              =    -979.22951283 Ry
     estimated scf accuracy    <       0.00000059 Ry

     iteration # 12     ecut=    60.00 Ry     beta= 0.30
     Davidson diagonalization with overlap
     ethr =  1.14E-09,  avg # of iterations =  2.9

     negative rho (up, down):  4.306E-04 0.000E+00

     total cpu time spent up to now is      135.2 secs

     total energy              =    -979.22951272 Ry
     estimated scf accuracy    <       0.00000036 Ry

     iteration # 13     ecut=    60.00 Ry     beta= 0.30
     Davidson diagonalization with overlap
     ethr =  6.88E-10,  avg # of iterations =  4.6

     negative rho (up, down):  4.311E-04 0.000E+00

     total cpu time spent up to now is      144.4 secs

     total energy              =    -979.22951284 Ry
     estimated scf accuracy    <       0.00000004 Ry

     iteration # 14     ecut=    60.00 Ry     beta= 0.30
     Davidson diagonalization with overlap
     ethr =  6.87E-11,  avg # of iterations =  3.3

     negative rho (up, down):  4.314E-04 0.000E+00

     total cpu time spent up to now is      152.4 secs

     total energy              =    -979.22951283 Ry
     estimated scf accuracy    <       0.00000004 Ry

     iteration # 15     ecut=    60.00 Ry     beta= 0.30
     Davidson diagonalization with overlap
     ethr =  6.87E-11,  avg # of iterations =  3.9

     negative rho (up, down):  4.316E-04 0.000E+00

     total cpu time spent up to now is      161.2 secs

     total energy              =    -979.22951284 Ry
     estimated scf accuracy    <          9.4E-10 Ry

     iteration # 16     ecut=    60.00 Ry     beta= 0.30
     Davidson diagonalization with overlap
     ethr =  1.81E-12,  avg # of iterations =  6.0

     negative rho (up, down):  4.318E-04 0.000E+00

     total cpu time spent up to now is      173.0 secs

     total energy              =    -979.22951284 Ry
     estimated scf accuracy    <          1.2E-09 Ry

     iteration # 17     ecut=    60.00 Ry     beta= 0.30
     Davidson diagonalization with overlap
     ethr =  1.81E-12,  avg # of iterations =  3.2

     negative rho (up, down):  4.319E-04 0.000E+00

     total cpu time spent up to now is      181.3 secs

     total energy              =    -979.22951284 Ry
     estimated scf accuracy    <          7.8E-11 Ry

     iteration # 18     ecut=    60.00 Ry     beta= 0.30
     Davidson diagonalization with overlap
     ethr =  1.50E-13,  avg # of iterations =  4.8

     negative rho (up, down):  4.320E-04 0.000E+00

     total cpu time spent up to now is      191.9 secs

     total energy              =    -979.22951284 Ry
     estimated scf accuracy    <          1.7E-11 Ry

     iteration # 19     ecut=    60.00 Ry     beta= 0.30
     Davidson diagonalization with overlap
     ethr =  1.00E-13,  avg # of iterations =  2.0

     negative rho (up, down):  4.321E-04 0.000E+00

     total cpu time spent up to now is      199.3 secs

     End of self-consistent calculation

          k = 0.0000 0.0000 0.0000 ( 11709 PWs)   bands (ev):

   -58.9767 -58.9767 -33.2725 -33.2717 -33.1358 -33.1357 -33.1345 -33.1345
   -13.9310 -13.6736 -11.2403 -10.6356  -5.6452  -4.6251  -2.9643  -2.9559
    -2.9383  -2.9300  -1.0579  -1.0569  -1.0512  -1.0500   0.1544   1.7222
     2.6153   3.9843

          k = 0.0000 0.0985 0.0000 ( 11683 PWs)   bands (ev):

   -58.9730 -58.9729 -33.2646 -33.2639 -33.1750 -33.1750 -33.1428 -33.1428
   -13.8079 -13.5512 -11.2199 -10.6387  -5.5552  -4.5521  -3.1109  -3.0877
    -2.8181  -2.7883  -1.4605  -1.2491  -1.2391  -1.1984   0.4968   1.8087
     2.4935   3.4606

          k = 0.0000 0.1970 0.0000 ( 11647 PWs)   bands (ev):

   -58.9628 -58.9628 -33.2808 -33.2808 -33.2432 -33.2425 -33.1656 -33.1655
   -13.4635 -13.2119 -11.1635 -10.6487  -5.3596  -4.4676  -3.3553  -3.3116
    -2.4223  -2.3794  -2.1014  -1.6792  -1.6521  -1.5832   0.7936   1.7914
     2.0139   2.5566

          k = 0.0000 0.2954 0.0000 ( 11649 PWs)   bands (ev):

   -58.9490 -58.9489 -33.4225 -33.4224 -33.2137 -33.2132 -33.1965 -33.1964
   -12.9702 -12.7363 -11.0848 -10.6667  -5.2688  -4.6408  -3.3952  -3.1830
    -2.6438  -2.1376  -2.1264  -2.0273  -1.8129  -1.7587   0.5524   1.2335
     1.3105   1.9305

          k = 0.0000 0.3939 0.0000 ( 11567 PWs)   bands (ev):

   -58.9349 -58.9349 -33.5609 -33.5608 -33.2271 -33.2271 -33.1841 -33.1836
   -12.4408 -12.2479 -11.0023 -10.6925  -5.3176  -4.8710  -3.4188  -3.0820
    -2.8395  -2.5067  -2.4775  -2.4032  -1.1407  -1.0390   0.1009   0.6864
     0.7758   1.6659

          k = 0.0000 0.4924 0.0000 ( 11578 PWs)   bands (ev):

   -58.9248 -58.9247 -33.6603 -33.6602 -33.2494 -33.2494 -33.1623 -33.1619
   -12.0155 -11.8905 -10.9366 -10.7214  -5.2950  -4.9621  -3.7000  -3.2366
    -2.9660  -2.7571  -2.7038  -2.6487  -0.5682  -0.4087  -0.0421   0.6891
     0.7388   1.5706

          k =-0.0000-0.5909 0.0000 ( 11612 PWs)   bands (ev):

   -58.9211 -58.9210 -33.6963 -33.6962 -33.2576 -33.2576 -33.1543 -33.1539
   -11.8411 -11.7691 -10.9099 -10.7365  -5.2172  -4.9838  -3.8422  -3.3541
    -3.1200  -2.8434  -2.8082  -2.7334  -0.3362  -0.1433  -0.0561   0.8595
     0.8975   1.5856

          k = 0.0853 0.0492 0.0000 ( 11681 PWs)   bands (ev):

   -58.9730 -58.9729 -33.2646 -33.2639 -33.1740 -33.1740 -33.1438 -33.1438
   -13.8078 -13.5511 -11.2197 -10.6386  -5.5551  -4.5521  -3.1079  -3.0847
    -2.8214  -2.7917  -1.4559  -1.2458  -1.2430  -1.2043   0.4976   1.8089
     2.4942   3.4613

          k = 0.0854 0.1477 0.0000 ( 11651 PWs)   bands (ev):

   -58.9660 -58.9660 -33.2500 -33.2493 -33.2451 -33.2451 -33.1608 -33.1608
   -13.5739 -13.3202 -11.1811 -10.6448  -5.4088  -4.4658  -3.3009  -3.2873
    -2.5475  -2.5142  -1.8717  -1.6518  -1.5651  -1.4327   0.8288   1.8565
     2.1975   2.7664

          k = 0.0854 0.2462 0.0000 ( 11630 PWs)   bands (ev):

   -58.9540 -58.9539 -33.3640 -33.3639 -33.2245 -33.2239 -33.1924 -33.1924
   -13.1538 -12.9111 -11.1121 -10.6570  -5.2562  -4.5209  -3.4369  -3.2785
    -2.4348  -2.2360  -2.1017  -2.0109  -1.9968  -1.6780   0.9152   1.5523
     1.5912   1.9991

          k = 0.0854 0.3447 0.0000 ( 11615 PWs)   bands (ev):

   -58.9401 -58.9400 -33.4981 -33.4980 -33.2290 -33.2290 -33.1950 -33.1945
   -12.6385 -12.4249 -11.0274 -10.6748  -5.2487  -4.7376  -3.3648  -3.1513
    -2.9148  -2.7493  -2.3113  -1.8757  -1.4755  -1.4048   0.4358   0.8681
     0.9671   1.6907

          k = 0.0854 0.4431 0.0000 ( 11610 PWs)   bands (ev):

   -58.9280 -58.9280 -33.6120 -33.6119 -33.2605 -33.2605 -33.1692 -33.1688
   -12.1545 -11.9964 -10.9464 -10.6976  -5.2495  -4.8601  -3.7484  -3.4422
    -2.9400  -2.8686  -2.4062  -2.0107  -0.9993  -0.8360   0.1133   0.5485
     0.6719   1.4898

          k = 0.0854 0.5416 0.0000 ( 11605 PWs)   bands (ev):

   -58.9210 -58.9210 -33.6768 -33.6767 -33.2786 -33.2786 -33.1543 -33.1539
   -11.8443 -11.7574 -10.8930 -10.7189  -5.1297  -4.8773  -4.0446  -3.7091
    -3.1778  -3.0305  -2.4465  -2.0767  -0.6606  -0.3988   0.0089   0.7014
     0.7314   1.4236

          k = 0.0853-0.5417 0.0000 ( 11609 PWs)   bands (ev):

   -58.9210 -58.9210 -33.6769 -33.6768 -33.2786 -33.2785 -33.1543 -33.1539
   -11.8441 -11.7573 -10.8931 -10.7189  -5.1297  -4.8774  -4.0442  -3.7086
    -3.1778  -3.0307  -2.4472  -2.0774  -0.6597  -0.3980   0.0088   0.7004
     0.7306   1.4237

          k = 0.0853-0.4432 0.0000 ( 11610 PWs)   bands (ev):

   -58.9280 -58.9280 -33.6122 -33.6121 -33.2604 -33.2604 -33.1692 -33.1688
   -12.1542 -11.9961 -10.9465 -10.6977  -5.2495  -4.8603  -3.7474  -3.4411
    -2.9400  -2.8688  -2.4079  -2.0126  -0.9976  -0.8348   0.1126   0.5467
     0.6716   1.4906

          k = 0.0853-0.3447 0.0000 ( 11617 PWs)   bands (ev):

   -58.9401 -58.9400 -33.4985 -33.4984 -33.2288 -33.2288 -33.1950 -33.1944
   -12.6381 -12.4245 -11.0274 -10.6749  -5.2487  -4.7376  -3.3641  -3.1506
    -2.9136  -2.7480  -2.3133  -1.8783  -1.4749  -1.4046   0.4350   0.8669
     0.9670   1.6919

          k = 0.0853-0.2462 0.0000 ( 11624 PWs)   bands (ev):

   -58.9540 -58.9539 -33.3644 -33.3643 -33.2245 -33.2239 -33.1922 -33.1922
   -13.1534 -12.9108 -11.1121 -10.6571  -5.2560  -4.5207  -3.4358  -3.2775
    -2.4342  -2.2348  -2.1021  -2.0121  -1.9976  -1.6805   0.9148   1.5516
     1.5907   2.0001

          k = 0.0853-0.1477 0.0000 ( 11651 PWs)   bands (ev):

   -58.9660 -58.9659 -33.2500 -33.2492 -33.2453 -33.2453 -33.1607 -33.1607
   -13.5737 -13.3199 -11.1811 -10.6448  -5.4086  -4.4655  -3.2983  -3.2848
    -2.5505  -2.5172  -1.8736  -1.6505  -1.5632  -1.4344   0.8283   1.8568
     2.1972   2.7667

          k = 0.0853-0.0493 0.0000 ( 11677 PWs)   bands (ev):

   -58.9730 -58.9729 -33.2646 -33.2638 -33.1741 -33.1741 -33.1438 -33.1438
   -13.8077 -13.5510 -11.2197 -10.6386  -5.5550  -4.5520  -3.1045  -3.0813
    -2.8251  -2.7954  -1.4574  -1.2466  -1.2424  -1.2028   0.4974   1.8091
     2.4942   3.4618

          k = 0.1707 0.0984 0.0000 ( 11653 PWs)   bands (ev):

   -58.9628 -58.9628 -33.2800 -33.2800 -33.2432 -33.2424 -33.1667 -33.1666
   -13.4633 -13.2118 -11.1629 -10.6480  -5.3596  -4.4676  -3.3532  -3.3092
    -2.4255  -2.3825  -2.0978  -1.6753  -1.6584  -1.5895   0.7948   1.7922
     2.0166   2.5573

          k = 0.1707 0.1969 0.0000 ( 11626 PWs)   bands (ev):

   -58.9540 -58.9539 -33.3636 -33.3635 -33.2245 -33.2239 -33.1930 -33.1930
   -13.1537 -12.9111 -11.1116 -10.6565  -5.2563  -4.5209  -3.4357  -3.2771
    -2.4318  -2.2375  -2.1041  -2.0126  -1.9996  -1.6798   0.9161   1.5539
     1.5923   1.9983

          k = 0.1707 0.2954 0.0000 ( 11599 PWs)   bands (ev):

   -58.9419 -58.9418 -33.4660 -33.4659 -33.2392 -33.2392 -33.1989 -33.1984
   -12.7084 -12.4879 -11.0332 -10.6650  -5.1928  -4.6437  -3.3606  -3.2126
    -2.9521  -2.8856  -2.2741  -1.6907  -1.6221  -1.5406   0.7514   0.8873
     1.1796   1.6463

          k = 0.1707 0.3939 0.0000 ( 11599 PWs)   bands (ev):

   -58.9298 -58.9298 -33.5620 -33.5619 -33.2901 -33.2900 -33.1732 -33.1728
   -12.2303 -12.0533 -10.9411 -10.6722  -5.1388  -4.6969  -3.8682  -3.7356
    -2.9298  -2.7050  -2.2077  -1.6108  -1.4362  -1.3141   0.3065   0.4370
     0.8660   1.3784

          k = 0.1707 0.4924 0.0000 ( 11614 PWs)   bands (ev):

   -58.9211 -58.9210 -33.6298 -33.6297 -33.3287 -33.3287 -33.1543 -33.1540
   -11.8479 -11.7368 -10.8584 -10.6827  -4.9580  -4.6116  -4.3683  -4.1967
    -2.9451  -2.8433  -2.0452  -1.5524  -1.3951  -1.1367   0.2080   0.5148
     0.6058   1.1794

          k = 0.1707 0.5908 0.0000 ( 11610 PWs)   bands (ev):

   -58.9178 -58.9178 -33.6544 -33.6543 -33.3430 -33.3429 -33.1474 -33.1471
   -11.6912 -11.6304 -10.8213 -10.6916  -4.7242  -4.6645  -4.4838  -4.3616
    -3.1195  -3.0897  -1.9441  -1.4448  -1.3933  -0.9858   0.1019   0.6223
     0.6985   1.1409

          k = 0.1707-0.4925 0.0000 ( 11612 PWs)   bands (ev):

   -58.9210 -58.9210 -33.6302 -33.6301 -33.3285 -33.3285 -33.1543 -33.1539
   -11.8475 -11.7364 -10.8585 -10.6828  -4.9580  -4.6118  -4.3676  -4.1959
    -2.9457  -2.8438  -2.0466  -1.5525  -1.3942  -1.1349   0.2072   0.5127
     0.6049   1.1803

          k = 0.1707-0.3940 0.0000 ( 11593 PWs)   bands (ev):

   -58.9298 -58.9298 -33.5626 -33.5625 -33.2898 -33.2898 -33.1732 -33.1727
   -12.2296 -12.0527 -10.9412 -10.6723  -5.1389  -4.6971  -3.8669  -3.7343
    -2.9298  -2.7048  -2.2097  -1.6129  -1.4345  -1.3130   0.3042   0.4342
     0.8667   1.3801

          k = 0.1707-0.2955 0.0000 ( 11601 PWs)   bands (ev):

   -58.9419 -58.9418 -33.4666 -33.4665 -33.2390 -33.2390 -33.1989 -33.1983
   -12.7076 -12.4872 -11.0333 -10.6651  -5.1927  -4.6436  -3.3594  -3.2111
    -2.9506  -2.8843  -2.2762  -1.6933  -1.6226  -1.5414   0.7495   0.8855
     1.1797   1.6482

          k = 0.1707-0.1970 0.0000 ( 11624 PWs)   bands (ev):

   -58.9539 -58.9539 -33.3640 -33.3640 -33.2244 -33.2238 -33.1929 -33.1929
   -13.1530 -12.9104 -11.1116 -10.6566  -5.2559  -4.5204  -3.4334  -3.2748
    -2.4318  -2.2365  -2.1054  -2.0152  -2.0011  -1.6820   0.9161   1.5532
     1.5917   1.9989

          k = 0.1707-0.0985 0.0000 ( 11651 PWs)   bands (ev):

   -58.9627 -58.9627 -33.2802 -33.2801 -33.2431 -33.2424 -33.1667 -33.1667
   -13.4630 -13.2114 -11.1629 -10.6480  -5.3593  -4.4672  -3.3505  -3.3065
    -2.4288  -2.3858  -2.0986  -1.6762  -1.6581  -1.5891   0.7950   1.7927
     2.0165   2.5570

          k = 0.1707-0.0001 0.0000 ( 11645 PWs)   bands (ev):

   -58.9660 -58.9659 -33.2500 -33.2492 -33.2447 -33.2446 -33.1616 -33.1616
   -13.5735 -13.3198 -11.1806 -10.6444  -5.4085  -4.4654  -3.2969  -3.2835
    -2.5527  -2.5195  -1.8709  -1.6530  -1.5675  -1.4333   0.8290   1.8571
     2.1989   2.7674

          k = 0.2560 0.1476 0.0000 ( 11645 PWs)   bands (ev):

   -58.9489 -58.9488 -33.4218 -33.4217 -33.2137 -33.2131 -33.1976 -33.1976
   -12.9699 -12.7361 -11.0834 -10.6653  -5.2691  -4.6409  -3.3932  -3.1808
    -2.6417  -2.1358  -2.1329  -2.0340  -1.8160  -1.7616   0.5546   1.2364
     1.3132   1.9299

          k = 0.2561 0.2461 0.0000 ( 11615 PWs)   bands (ev):

   -58.9400 -58.9400 -33.4976 -33.4975 -33.2299 -33.2299 -33.1949 -33.1944
   -12.6383 -12.4249 -11.0261 -10.6736  -5.2489  -4.7374  -3.3636  -3.1499
    -2.9143  -2.7502  -2.3154  -1.8784  -1.4780  -1.4071   0.4385   0.8701
     0.9681   1.6900

          k = 0.2561 0.3446 0.0000 ( 11595 PWs)   bands (ev):

   -58.9298 -58.9298 -33.5617 -33.5616 -33.2906 -33.2906 -33.1732 -33.1728
   -12.2302 -12.0534 -10.9403 -10.6714  -5.1388  -4.6966  -3.8689  -3.7366
    -2.9288  -2.7042  -2.2090  -1.6120  -1.4377  -1.3152   0.3077   0.4375
     0.8666   1.3782

          k = 0.2561 0.4431 0.0000 ( 11581 PWs)   bands (ev):

   -58.9210 -58.9209 -33.5990 -33.5989 -33.3613 -33.3612 -33.1543 -33.1540
   -11.8489 -11.7275 -10.8402 -10.6637  -4.8748  -4.5052  -4.4396  -4.3817
    -2.7175  -2.4983  -2.0804  -1.8080  -1.7633  -1.2512   0.3099   0.4529
     0.6859   1.0023

          k = 0.2561 0.5416 0.0000 ( 11590 PWs)   bands (ev):

   -58.9159 -58.9158 -33.6104 -33.6104 -33.4121 -33.4120 -33.1434 -33.1431
   -11.6057 -11.5492 -10.7594 -10.6672  -4.8789  -4.8078  -4.3431  -4.0793
    -3.0550  -2.7263  -2.3581  -1.9136  -1.5646  -0.9813   0.2302   0.5098
     0.8132   0.9139

          k = 0.2561 0.6401 0.0000 ( 11588 PWs)   bands (ev):

   -58.9159 -58.9158 -33.6108 -33.6107 -33.4119 -33.4118 -33.1434 -33.1430
   -11.6054 -11.5490 -10.7594 -10.6673  -4.8787  -4.8075  -4.3429  -4.0794
    -3.0562  -2.7272  -2.3564  -1.9124  -1.5652  -0.9822   0.2304   0.5101
     0.8120   0.9131

          k = 0.2560-0.4432 0.0000 ( 11585 PWs)   bands (ev):

   -58.9209 -58.9209 -33.5997 -33.5996 -33.3609 -33.3609 -33.1542 -33.1539
   -11.8481 -11.7267 -10.8403 -10.6638  -4.8747  -4.5047  -4.4397  -4.3809
    -2.7182  -2.4974  -2.0802  -1.8076  -1.7628  -1.2531   0.3081   0.4507
     0.6857   1.0035

          k = 0.2560-0.3448 0.0000 ( 11597 PWs)   bands (ev):

   -58.9298 -58.9297 -33.5625 -33.5624 -33.2904 -33.2904 -33.1731 -33.1726
   -12.2292 -12.0523 -10.9403 -10.6715  -5.1388  -4.6966  -3.8680  -3.7354
    -2.9273  -2.7019  -2.2110  -1.6139  -1.4380  -1.3157   0.3056   0.4345
     0.8668   1.3795

          k = 0.2560-0.2463 0.0000 ( 11615 PWs)   bands (ev):

   -58.9400 -58.9399 -33.4982 -33.4981 -33.2299 -33.2299 -33.1948 -33.1943
   -12.6374 -12.4239 -11.0261 -10.6736  -5.2486  -4.7371  -3.3618  -3.1478
    -2.9125  -2.7487  -2.3174  -1.8806  -1.4797  -1.4089   0.4379   0.8681
     0.9672   1.6907

          k = 0.2560-0.1478 0.0000 ( 11641 PWs)   bands (ev):

   -58.9488 -58.9488 -33.4221 -33.4220 -33.2136 -33.2130 -33.1977 -33.1977
   -12.9692 -12.7354 -11.0834 -10.6653  -5.2687  -4.6403  -3.3908  -3.1782
    -2.6417  -2.1357  -2.1339  -2.0346  -1.8187  -1.7643   0.5551   1.2359
     1.3126   1.9296

          k = 0.2560-0.0493 0.0000 ( 11624 PWs)   bands (ev):

   -58.9539 -58.9538 -33.3638 -33.3638 -33.2244 -33.2238 -33.1934 -33.1933
   -13.1528 -12.9103 -11.1110 -10.6560  -5.2560  -4.5205  -3.4340  -3.2756
    -2.4338  -2.2382  -2.1060  -2.0155  -2.0009  -1.6806   0.9165   1.5544
     1.5928   1.9986

          k = 0.2560 0.0492 0.0000 ( 11626 PWs)   bands (ev):

   -58.9539 -58.9539 -33.3638 -33.3637 -33.2244 -33.2238 -33.1933 -33.1933
   -13.1531 -12.9105 -11.1110 -10.6560  -5.2561  -4.5208  -3.4352  -3.2769
    -2.4333  -2.2379  -2.1050  -2.0141  -2.0003  -1.6810   0.9162   1.5544
     1.5928   1.9990

          k = 0.3414 0.1969 0.0000 ( 11563 PWs)   bands (ev):

   -58.9348 -58.9348 -33.5603 -33.5602 -33.2284 -33.2284 -33.1840 -33.1835
   -12.4405 -12.2479 -11.0001 -10.6904  -5.3178  -4.8707  -3.4184  -3.0801
    -2.8383  -2.5138  -2.4770  -2.4103  -1.1439  -1.0420   0.1043   0.6896
     0.7785   1.6659

          k = 0.3414 0.2953 0.0000 ( 11614 PWs)   bands (ev):

   -58.9280 -58.9279 -33.6115 -33.6114 -33.2617 -33.2617 -33.1691 -33.1687
   -12.1544 -11.9965 -10.9442 -10.6956  -5.2492  -4.8592  -3.7499  -3.4443
    -2.9399  -2.8672  -2.4102  -2.0144  -1.0021  -0.8384   0.1160   0.5509
     0.6741   1.4900

          k = 0.3414 0.3938 0.0000 ( 11614 PWs)   bands (ev):

   -58.9210 -58.9209 -33.6294 -33.6293 -33.3296 -33.3296 -33.1543 -33.1539
   -11.8478 -11.7370 -10.8567 -10.6812  -4.9577  -4.6106  -4.3703  -4.1989
    -2.9432  -2.8429  -2.0476  -1.5549  -1.3981  -1.1387   0.2099   0.5165
     0.6078   1.1798

          k = 0.3414 0.4923 0.0000 ( 11592 PWs)   bands (ev):

   -58.9159 -58.9158 -33.6102 -33.6101 -33.4126 -33.4125 -33.1433 -33.1430
   -11.6056 -11.5494 -10.7583 -10.6666  -4.8798  -4.8091  -4.3430  -4.0793
    -3.0527  -2.7257  -2.3608  -1.9148  -1.5662  -0.9828   0.2320   0.5104
     0.8138   0.9142

          k = 0.3414 0.5908 0.0000 ( 11591 PWs)   bands (ev):

   -58.9139 -58.9139 -33.5844 -33.5844 -33.4619 -33.4619 -33.1393 -33.1390
   -11.4975 -11.4972 -10.6873 -10.6869  -5.0334  -5.0331  -3.7060  -3.3914
    -3.3904  -3.3103  -2.4818  -2.4811  -1.3107  -0.7027   0.2079   0.2095
     1.1246   1.1251

          k = 0.3414 0.6893 0.0000 ( 11592 PWs)   bands (ev):

   -58.9158 -58.9157 -33.6108 -33.6107 -33.4123 -33.4122 -33.1433 -33.1430
   -11.6050 -11.5487 -10.7584 -10.6666  -4.8798  -4.8086  -4.3427  -4.0791
    -3.0519  -2.7245  -2.3614  -1.9156  -1.5670  -0.9841   0.2321   0.5107
     0.8128   0.9135

          k = 0.3414-0.3940 0.0000 ( 11616 PWs)   bands (ev):

   -58.9209 -58.9209 -33.6301 -33.6300 -33.3295 -33.3294 -33.1541 -33.1538
   -11.8467 -11.7359 -10.8567 -10.6813  -4.9574  -4.6104  -4.3700  -4.1984
    -2.9413  -2.8408  -2.0492  -1.5564  -1.3993  -1.1400   0.2096   0.5148
     0.6068   1.1802

          k = 0.3414-0.2956 0.0000 ( 11612 PWs)   bands (ev):

   -58.9279 -58.9278 -33.6121 -33.6120 -33.2618 -33.2618 -33.1690 -33.1686
   -12.1532 -11.9952 -10.9443 -10.6956  -5.2489  -4.8588  -3.7490  -3.4433
    -2.9374  -2.8652  -2.4119  -2.0164  -1.0033  -0.8398   0.1156   0.5484
     0.6729   1.4902

          k = 0.3414-0.1971 0.0000 ( 11565 PWs)   bands (ev):

   -58.9348 -58.9347 -33.5608 -33.5607 -33.2286 -33.2286 -33.1839 -33.1834
   -12.4394 -12.2468 -11.0000 -10.6903  -5.3174  -4.8702  -3.4169  -3.0777
    -2.8363  -2.5152  -2.4762  -2.4116  -1.1462  -1.0441   0.1044   0.6881
     0.7773   1.6655

          k = 0.3414-0.0986 0.0000 ( 11615 PWs)   bands (ev):

   -58.9399 -58.9399 -33.4982 -33.4981 -33.2301 -33.2301 -33.1948 -33.1942
   -12.6371 -12.4237 -11.0254 -10.6730  -5.2490  -4.7378  -3.3630  -3.1492
    -2.9140  -2.7501  -2.3169  -1.8802  -1.4786  -1.4085   0.4383   0.8688
     0.9677   1.6904

          k = 0.3414-0.0001 0.0000 ( 11606 PWs)   bands (ev):

   -58.9418 -58.9418 -33.4664 -33.4663 -33.2397 -33.2396 -33.1988 -33.1982
   -12.7072 -12.4869 -11.0319 -10.6638  -5.1932  -4.6445  -3.3606  -3.2130
    -2.9529  -2.8860  -2.2768  -1.6939  -1.6217  -1.5411   0.7519   0.8869
     1.1801   1.6468

          k = 0.3414 0.0984 0.0000 ( 11621 PWs)   bands (ev):

   -58.9400 -58.9399 -33.4980 -33.4979 -33.2300 -33.2299 -33.1948 -33.1943
   -12.6377 -12.4243 -11.0255 -10.6730  -5.2493  -4.7382  -3.3642  -3.1506
    -2.9145  -2.7504  -2.3169  -1.8806  -1.4764  -1.4064   0.4381   0.8696
     0.9684   1.6909

          k = 0.4267 0.2461 0.0000 ( 11584 PWs)   bands (ev):

   -58.9247 -58.9246 -33.6599 -33.6598 -33.2508 -33.2508 -33.1621 -33.1617
   -12.0153 -11.8907 -10.9335 -10.7187  -5.2944  -4.9608  -3.7016  -3.2365
    -2.9657  -2.7644  -2.7037  -2.6560  -0.5720  -0.4122  -0.0380   0.6926
     0.7423   1.5712

          k = 0.4268 0.3446 0.0000 ( 11609 PWs)   bands (ev):

   -58.9209 -58.9209 -33.6764 -33.6763 -33.2799 -33.2799 -33.1542 -33.1538
   -11.8441 -11.7577 -10.8900 -10.7164  -5.1287  -4.8756  -4.0475  -3.7124
    -3.1786  -3.0296  -2.4514  -2.0813  -0.6643  -0.4021   0.0125   0.7047
     0.7349   1.4246

          k = 0.4268 0.4430 0.0000 ( 11612 PWs)   bands (ev):

   -58.9177 -58.9177 -33.6540 -33.6539 -33.3440 -33.3440 -33.1473 -33.1469
   -11.6909 -11.6308 -10.8188 -10.6898  -4.7240  -4.6650  -4.4852  -4.3645
    -3.1196  -3.0880  -1.9478  -1.4484  -1.3967  -0.9878   0.1047   0.6244
     0.7002   1.1416

          k = 0.4268 0.5415 0.0000 ( 11590 PWs)   bands (ev):

   -58.9158 -58.9157 -33.6106 -33.6105 -33.4125 -33.4124 -33.1433 -33.1430
   -11.6050 -11.5491 -10.7577 -10.6662  -4.8804  -4.8095  -4.3437  -4.0806
    -3.0540  -2.7259  -2.3584  -1.9131  -1.5674  -0.9845   0.2327   0.5101
     0.8109   0.9121

          k = 0.4268 0.6400 0.0000 ( 11592 PWs)   bands (ev):

   -58.9158 -58.9157 -33.6108 -33.6107 -33.4124 -33.4124 -33.1432 -33.1429
   -11.6047 -11.5488 -10.7577 -10.6662  -4.8806  -4.8093  -4.3436  -4.0804
    -3.0520  -2.7238  -2.3606  -1.9151  -1.5676  -0.9849   0.2327   0.5102
     0.8111   0.9123

          k = 0.4268 0.7385 0.0000 ( 11610 PWs)   bands (ev):

   -58.9177 -58.9176 -33.6545 -33.6544 -33.3440 -33.3440 -33.1472 -33.1468
   -11.6900 -11.6298 -10.8188 -10.6897  -4.7234  -4.6647  -4.4851  -4.3644
    -3.1176  -3.0862  -1.9485  -1.4494  -1.3990  -0.9899   0.1049   0.6245
     0.7002   1.1415

          k = 0.4267-0.3448 0.0000 ( 11611 PWs)   bands (ev):

   -58.9209 -58.9208 -33.6770 -33.6768 -33.2801 -33.2800 -33.1540 -33.1537
   -11.8428 -11.7564 -10.8900 -10.7164  -5.1279  -4.8749  -4.0470  -3.7120
    -3.1767  -3.0280  -2.4528  -2.0827  -0.6660  -0.4036   0.0128   0.7037
     0.7340   1.4242

          k = 0.4267-0.2463 0.0000 ( 11586 PWs)   bands (ev):

   -58.9246 -58.9245 -33.6604 -33.6603 -33.2510 -33.2510 -33.1620 -33.1616
   -12.0140 -11.8894 -10.9335 -10.7187  -5.2938  -4.9600  -3.7004  -3.2349
    -2.9634  -2.7662  -2.7028  -2.6577  -0.5740  -0.4139  -0.0377   0.6914
     0.7414   1.5706

          k = 0.4267-0.1479 0.0000 ( 11614 PWs)   bands (ev):

   -58.9279 -58.9278 -33.6122 -33.6121 -33.2618 -33.2618 -33.1690 -33.1685
   -12.1529 -11.9951 -10.9437 -10.6952  -5.2495  -4.8597  -3.7500  -3.4442
    -2.9378  -2.8658  -2.4119  -2.0164  -1.0028  -0.8399   0.1159   0.5482
     0.6729   1.4901

          k = 0.4267-0.0494 0.0000 ( 11593 PWs)   bands (ev):

   -58.9297 -58.9297 -33.5626 -33.5624 -33.2907 -33.2907 -33.1730 -33.1726
   -12.2287 -12.0521 -10.9391 -10.6704  -5.1398  -4.6982  -3.8700  -3.7372
    -2.9290  -2.7031  -2.2115  -1.6143  -1.4359  -1.3144   0.3051   0.4343
     0.8674   1.3790

          k = 0.4267 0.0491 0.0000 ( 11599 PWs)   bands (ev):

   -58.9297 -58.9297 -33.5624 -33.5623 -33.2906 -33.2906 -33.1730 -33.1726
   -12.2291 -12.0524 -10.9391 -10.6705  -5.1399  -4.6984  -3.8697  -3.7371
    -2.9303  -2.7052  -2.2115  -1.6144  -1.4340  -1.3128   0.3049   0.4346
     0.8679   1.3794

          k = 0.4267 0.1476 0.0000 ( 11612 PWs)   bands (ev):

   -58.9279 -58.9279 -33.6119 -33.6117 -33.2616 -33.2616 -33.1691 -33.1686
   -12.1538 -11.9961 -10.9438 -10.6952  -5.2499  -4.8603  -3.7498  -3.4440
    -2.9402  -2.8680  -2.4119  -2.0163  -0.9999  -0.8373   0.1156   0.5489
     0.6737   1.4907

          k =-0.5121-0.2953 0.0000 ( 11612 PWs)   bands (ev):

   -58.9210 -58.9209 -33.6959 -33.6958 -33.2590 -33.2590 -33.1541 -33.1537
   -11.8408 -11.7696 -10.9065 -10.7337  -5.2159  -4.9819  -3.8444  -3.3547
    -3.1205  -2.8508  -2.8088  -2.7408  -0.3404  -0.1472  -0.0515   0.8633
     0.9015   1.5863

          k =-0.5121-0.1968 0.0000 ( 11611 PWs)   bands (ev):

   -58.9209 -58.9209 -33.6765 -33.6764 -33.2799 -33.2798 -33.1541 -33.1538
   -11.8438 -11.7576 -10.8899 -10.7163  -5.1290  -4.8761  -4.0474  -3.7122
    -3.1786  -3.0297  -2.4522  -2.0821  -0.6635  -0.4011   0.0125   0.7032
     0.7334   1.4244

          k =-0.5121-0.0983 0.0000 ( 11614 PWs)   bands (ev):

   -58.9209 -58.9209 -33.6299 -33.6298 -33.3295 -33.3295 -33.1542 -33.1538
   -11.8470 -11.7365 -10.8560 -10.6807  -4.9587  -4.6124  -4.3707  -4.1992
    -2.9444  -2.8435  -2.0496  -1.5550  -1.3965  -1.1360   0.2083   0.5128
     0.6061   1.1805

          k =-0.5121 0.0002 0.0000 ( 11583 PWs)   bands (ev):

   -58.9209 -58.9208 -33.5997 -33.5996 -33.3614 -33.3613 -33.1542 -33.1538
   -11.8476 -11.7266 -10.8387 -10.6625  -4.8760  -4.5068  -4.4416  -4.3830
    -2.7188  -2.4989  -2.0797  -1.8052  -1.7626  -1.2549   0.3061   0.4490
     0.6874   1.0029

          k =-0.5121 0.0986 0.0000 ( 11614 PWs)   bands (ev):

   -58.9209 -58.9208 -33.6303 -33.6301 -33.3296 -33.3295 -33.1541 -33.1537
   -11.8464 -11.7358 -10.8560 -10.6807  -4.9584  -4.6118  -4.3710  -4.1994
    -2.9418  -2.8408  -2.0497  -1.5562  -1.3986  -1.1390   0.2088   0.5132
     0.6060   1.1801

          k =-0.5121 0.1971 0.0000 ( 11613 PWs)   bands (ev):

   -58.9209 -58.9208 -33.6770 -33.6769 -33.2801 -33.2800 -33.1540 -33.1536
   -11.8427 -11.7563 -10.8899 -10.7162  -5.1283  -4.8754  -4.0473  -3.7123
    -3.1766  -3.0280  -2.4529  -2.0828  -0.6662  -0.4035   0.0129   0.7032
     0.7333   1.4240

          k =-0.5121-0.8862 0.0000 ( 11612 PWs)   bands (ev):

   -58.9209 -58.9208 -33.6965 -33.6963 -33.2592 -33.2592 -33.1540 -33.1536
   -11.8395 -11.7681 -10.9065 -10.7336  -5.2148  -4.9811  -3.8433  -3.3533
    -3.1188  -2.8528  -2.8081  -2.7427  -0.3423  -0.1487  -0.0511   0.8629
     0.9010   1.5854

     highest occupied level (ev):     3.9843

!    total energy              =    -979.22951284 Ry

     total all-electron energy =    -19376.145203 Ry
     estimated scf accuracy    <          6.9E-13 Ry

     The total energy is the sum of the following terms:
     one-electron contribution =   -3673.50063183 Ry
     hartree contribution      =    1846.80998899 Ry
     xc contribution           =     -60.13715868 Ry
     ewald contribution        =    1533.49404602 Ry
     one-center paw contrib.   =    -625.89575734 Ry

     convergence has been achieved in  19 iterations

     negative rho (up, down):  4.321E-04 0.000E+00

     Forces acting on atoms (cartesian axes, Ry/au):

     atom    1 type  1   force =     0.00061930   -0.00013564    0.00130760
     atom    2 type  2   force =    -0.00030700    0.00003489    0.28424424
     atom    3 type  2   force =    -0.00031497    0.00006631   -0.29757496
     atom    4 type  1   force =    -0.00061930    0.00013564   -0.00130760
     atom    5 type  2   force =     0.00031497   -0.00006631    0.29757496
     atom    6 type  2   force =     0.00030700   -0.00003489   -0.28424424

     Total force =     0.581975     Total SCF correction =     0.000003


     Computing stress (Cartesian axis) and pressure


     negative rho (up, down):  4.321E-04 0.000E+00
          total   stress  (Ry/bohr**3)                   (kbar)     P=      189.77
   0.00094661  -0.00000137   0.00000004          139.25       -0.20        0.01
  -0.00000137   0.00094452   0.00000012           -0.20      138.94        0.02
   0.00000004   0.00000012   0.00197902            0.01        0.02      291.12


     BFGS Geometry Optimization
     Energy error            =      0.0E+00 Ry
     Gradient error          =      3.0E-01 Ry/Bohr
     Cell gradient error     =      1.4E+02 kbar

     number of scf cycles    =   1
     number of bfgs steps    =   0

     enthalpy           new  =    -979.2295128391 Ry

     new trust radius        =       0.2975751391 bohr
     new conv_thr            =            1.0E-12 Ry

     new unit-cell volume =   1550.46290 a.u.^3 (   229.75490 Ang^3 )
     density =      2.31379 g/cm^3

CELL_PARAMETERS (alat=  6.07200000)
   0.999490364  -0.000051209   0.000000000
  -0.499507309   0.866184334   0.000000000
   0.000000000   0.000000000   8.000000000

ATOMIC_POSITIONS (crystal)
Mo            0.0000000000        0.0000000000        0.1500269186    0   0   1
S             0.6667637867        0.3334837730        0.2058515365
S             0.6667654997        0.3334898918        0.0938740332
Mo            0.0000000000        0.0000000000        0.3499730814    0   0   1
S            -0.6667654989       -0.3334898889        0.4061259668
S            -0.6667637875       -0.3334837759        0.2941484635



     Writing output data file /scratch/as3359/MoS2_loop/Ta.save/
     NEW-OLD atomic charge density approx. for the potential

     negative rho (up, down):  2.654E-04 0.000E+00
     extrapolated charge   54.37389, renormalised to   52.00000

     total cpu time spent up to now is      212.0 secs

     Self-consistent Calculation

     iteration #  1     ecut=    60.00 Ry     beta= 0.30
     Davidson diagonalization with overlap
     c_bands:  2 eigenvalues not converged
     c_bands:  1 eigenvalues not converged
     c_bands:  5 eigenvalues not converged
     c_bands:  2 eigenvalues not converged
     c_bands:  2 eigenvalues not converged
     c_bands:  4 eigenvalues not converged
     c_bands:  4 eigenvalues not converged
     c_bands:  1 eigenvalues not converged
     c_bands:  1 eigenvalues not converged
     c_bands:  2 eigenvalues not converged
     c_bands:  4 eigenvalues not converged
     c_bands:  3 eigenvalues not converged
     c_bands:  1 eigenvalues not converged
     c_bands:  2 eigenvalues not converged
     c_bands:  3 eigenvalues not converged
     c_bands:  4 eigenvalues not converged
     c_bands:  3 eigenvalues not converged
     c_bands:  2 eigenvalues not converged
     c_bands:  1 eigenvalues not converged
     c_bands:  2 eigenvalues not converged
     c_bands:  3 eigenvalues not converged
     c_bands:  4 eigenvalues not converged
     c_bands:  4 eigenvalues not converged
     c_bands:  3 eigenvalues not converged
     c_bands:  5 eigenvalues not converged
     c_bands:  5 eigenvalues not converged
     c_bands:  3 eigenvalues not converged
     c_bands:  4 eigenvalues not converged
     c_bands:  2 eigenvalues not converged
     c_bands:  3 eigenvalues not converged
     c_bands:  3 eigenvalues not converged
     c_bands:  5 eigenvalues not converged
     c_bands:  3 eigenvalues not converged
     c_bands:  2 eigenvalues not converged
     c_bands:  4 eigenvalues not converged
     c_bands:  4 eigenvalues not converged
     c_bands:  5 eigenvalues not converged
     c_bands:  2 eigenvalues not converged
     c_bands:  2 eigenvalues not converged
     c_bands:  2 eigenvalues not converged
     c_bands:  3 eigenvalues not converged
     c_bands:  3 eigenvalues not converged
     c_bands:  3 eigenvalues not converged
     c_bands:  1 eigenvalues not converged
     c_bands:  2 eigenvalues not converged
     c_bands:  2 eigenvalues not converged
     c_bands:  2 eigenvalues not converged
     c_bands:  4 eigenvalues not converged
     c_bands:  4 eigenvalues not converged
     c_bands:  1 eigenvalues not converged
     c_bands:  1 eigenvalues not converged
     c_bands:  3 eigenvalues not converged
     c_bands:  3 eigenvalues not converged
     c_bands:  1 eigenvalues not converged
     c_bands:  1 eigenvalues not converged
     c_bands:  2 eigenvalues not converged
     c_bands:  4 eigenvalues not converged
     c_bands:  3 eigenvalues not converged
     c_bands:  2 eigenvalues not converged
     c_bands:  2 eigenvalues not converged
     c_bands:  1 eigenvalues not converged
     c_bands:  2 eigenvalues not converged
     c_bands:  2 eigenvalues not converged
     c_bands:  2 eigenvalues not converged
     c_bands:  1 eigenvalues not converged
     c_bands:  2 eigenvalues not converged
     ethr =  1.00E-06,  avg # of iterations = 42.2

     total cpu time spent up to now is      294.3 secs

     total energy              =    2099.53132250 Ry
     estimated scf accuracy    <    5871.54380783 Ry

     iteration #  2     ecut=    60.00 Ry     beta= 0.30
     Davidson diagonalization with overlap
     c_bands:  2 eigenvalues not converged
     c_bands:  2 eigenvalues not converged
     c_bands:  1 eigenvalues not converged
     c_bands:  1 eigenvalues not converged
     c_bands:  1 eigenvalues not converged
     c_bands:  2 eigenvalues not converged
     c_bands:  1 eigenvalues not converged
     c_bands:  4 eigenvalues not converged
     c_bands:  1 eigenvalues not converged
     c_bands:  1 eigenvalues not converged
     c_bands:  1 eigenvalues not converged
     c_bands:  1 eigenvalues not converged
     c_bands:  3 eigenvalues not converged
     c_bands:  2 eigenvalues not converged
     c_bands:  2 eigenvalues not converged
     c_bands:  1 eigenvalues not converged
     c_bands:  1 eigenvalues not converged
     c_bands:  3 eigenvalues not converged
     c_bands:  1 eigenvalues not converged
     c_bands:  1 eigenvalues not converged
     c_bands:  1 eigenvalues not converged
     c_bands:  1 eigenvalues not converged
     c_bands:  1 eigenvalues not converged
     c_bands:  1 eigenvalues not converged
     c_bands:  1 eigenvalues not converged
     c_bands:  1 eigenvalues not converged
     c_bands:  2 eigenvalues not converged
     c_bands:  2 eigenvalues not converged
     c_bands:  1 eigenvalues not converged
     c_bands:  1 eigenvalues not converged
     c_bands:  4 eigenvalues not converged
     c_bands:  1 eigenvalues not converged
     c_bands:  1 eigenvalues not converged
     c_bands:  1 eigenvalues not converged
     c_bands:  2 eigenvalues not converged
     ethr =  1.00E-02,  avg # of iterations = 58.2

     total cpu time spent up to now is      411.7 secs

     total energy              =   -1273.33294483 Ry
     estimated scf accuracy    <    1263.65193560 Ry

     iteration #  3     ecut=    60.00 Ry     beta= 0.30
     Davidson diagonalization with overlap
     c_bands:  5 eigenvalues not converged
     ethr =  1.00E-02,  avg # of iterations = 30.2

     total cpu time spent up to now is      465.8 secs

     total energy              =   -1230.91891250 Ry
     estimated scf accuracy    <     492.68330709 Ry

     iteration #  4     ecut=    60.00 Ry     beta= 0.30
     Davidson diagonalization with overlap
     ethr =  1.00E-02,  avg # of iterations =  9.1

     negative rho (up, down):  6.208E-03 0.000E+00

     total cpu time spent up to now is      478.8 secs

     total energy              =    -986.88218967 Ry
     estimated scf accuracy    <     345.70703978 Ry

     iteration #  5     ecut=    60.00 Ry     beta= 0.30
     Davidson diagonalization with overlap
     c_bands:  1 eigenvalues not converged
     c_bands:  3 eigenvalues not converged
     c_bands:  4 eigenvalues not converged
     c_bands:  2 eigenvalues not converged
     c_bands:  1 eigenvalues not converged
     c_bands:  2 eigenvalues not converged
     c_bands:  2 eigenvalues not converged
     c_bands:  1 eigenvalues not converged
     c_bands:  3 eigenvalues not converged
     c_bands:  2 eigenvalues not converged
     c_bands:  1 eigenvalues not converged
     c_bands:  4 eigenvalues not converged
     c_bands:  1 eigenvalues not converged
     c_bands:  4 eigenvalues not converged
     c_bands:  1 eigenvalues not converged
     c_bands:  1 eigenvalues not converged
     c_bands:  1 eigenvalues not converged
     c_bands:  1 eigenvalues not converged
     c_bands:  2 eigenvalues not converged
     c_bands:  2 eigenvalues not converged
     c_bands:  4 eigenvalues not converged
     c_bands:  4 eigenvalues not converged
     c_bands:  1 eigenvalues not converged
     c_bands:  2 eigenvalues not converged
     c_bands:  2 eigenvalues not converged
     c_bands:  3 eigenvalues not converged
     c_bands:  1 eigenvalues not converged
     c_bands:  1 eigenvalues not converged
     c_bands:  5 eigenvalues not converged
     c_bands:  3 eigenvalues not converged
     c_bands:  1 eigenvalues not converged
     c_bands:  4 eigenvalues not converged
     c_bands:  1 eigenvalues not converged
     c_bands:  4 eigenvalues not converged
     c_bands:  2 eigenvalues not converged
     c_bands:  2 eigenvalues not converged
     c_bands:  1 eigenvalues not converged
     c_bands:  1 eigenvalues not converged
     c_bands:  5 eigenvalues not converged
     c_bands:  2 eigenvalues not converged
     c_bands:  4 eigenvalues not converged
     c_bands:  5 eigenvalues not converged
     c_bands:  1 eigenvalues not converged
     c_bands:  2 eigenvalues not converged
     c_bands:  1 eigenvalues not converged
     c_bands:  1 eigenvalues not converged
     c_bands:  4 eigenvalues not converged
     c_bands:  2 eigenvalues not converged
     c_bands:  2 eigenvalues not converged
     c_bands:  4 eigenvalues not converged
     c_bands:  2 eigenvalues not converged
     c_bands:  3 eigenvalues not converged
     c_bands:  3 eigenvalues not converged
     c_bands:  2 eigenvalues not converged
     ethr =  1.00E-02,  avg # of iterations = 20.8

     total cpu time spent up to now is      523.0 secs

     total energy              =   -1062.17428514 Ry
     estimated scf accuracy    <     173.79323041 Ry

     iteration #  6     ecut=    60.00 Ry     beta= 0.30
     Davidson diagonalization with overlap
     c_bands:  1 eigenvalues not converged
     c_bands:  2 eigenvalues not converged
     c_bands:  2 eigenvalues not converged
     c_bands:  3 eigenvalues not converged
     c_bands:  1 eigenvalues not converged
     c_bands:  1 eigenvalues not converged
     c_bands:  1 eigenvalues not converged
     c_bands:  1 eigenvalues not converged
     c_bands:  2 eigenvalues not converged
     c_bands:  1 eigenvalues not converged
     c_bands:  3 eigenvalues not converged
     c_bands:  1 eigenvalues not converged
     c_bands:  2 eigenvalues not converged
     c_bands:  1 eigenvalues not converged
     c_bands:  1 eigenvalues not converged
     c_bands:  1 eigenvalues not converged
     c_bands:  1 eigenvalues not converged
     c_bands:  1 eigenvalues not converged
     ethr =  1.00E-02,  avg # of iterations = 18.2

     total cpu time spent up to now is      549.0 secs

     total energy              =   -1112.34093764 Ry
     estimated scf accuracy    <     196.83687061 Ry

     iteration #  7     ecut=    60.00 Ry     beta= 0.30
     Davidson diagonalization with overlap
     ethr =  1.00E-02,  avg # of iterations =  1.1

     total cpu time spent up to now is      555.3 secs

     total energy              =   -1103.42667319 Ry
     estimated scf accuracy    <     198.17958645 Ry

     iteration #  8     ecut=    60.00 Ry     beta= 0.30
     Davidson diagonalization with overlap
     ethr =  1.00E-02,  avg # of iterations =  1.0

     total cpu time spent up to now is      561.6 secs

     total energy              =   -1100.88435989 Ry
     estimated scf accuracy    <     189.33895107 Ry

     iteration #  9     ecut=    60.00 Ry     beta= 0.30
     Davidson diagonalization with overlap
     ethr =  1.00E-02,  avg # of iterations =  9.2

     negative rho (up, down):  4.985E+00 0.000E+00

     total cpu time spent up to now is      573.0 secs

     total energy              =   -1116.62013716 Ry
     estimated scf accuracy    <     194.10870091 Ry

     iteration # 10     ecut=    60.00 Ry     beta= 0.30
     Davidson diagonalization with overlap
     c_bands:  4 eigenvalues not converged
     c_bands:  5 eigenvalues not converged
     c_bands:  3 eigenvalues not converged
     c_bands:  4 eigenvalues not converged
     c_bands:  4 eigenvalues not converged
     c_bands:  4 eigenvalues not converged
     c_bands:  4 eigenvalues not converged
     c_bands:  2 eigenvalues not converged
     c_bands:  2 eigenvalues not converged
     c_bands:  4 eigenvalues not converged
     c_bands:  5 eigenvalues not converged
     c_bands:  4 eigenvalues not converged
     c_bands:  4 eigenvalues not converged
     c_bands:  3 eigenvalues not converged
     c_bands:  5 eigenvalues not converged
     c_bands:  4 eigenvalues not converged
     c_bands:  5 eigenvalues not converged
     c_bands:  3 eigenvalues not converged
     c_bands:  4 eigenvalues not converged
     c_bands:  5 eigenvalues not converged
     c_bands:  5 eigenvalues not converged
     c_bands:  2 eigenvalues not converged
     c_bands:  5 eigenvalues not converged
     c_bands:  5 eigenvalues not converged
     ethr =  1.00E-02,  avg # of iterations = 28.6

     negative rho (up, down):  4.641E+01 0.000E+00

     total cpu time spent up to now is      619.8 secs

     total energy              =   -2982.73634864 Ry
     estimated scf accuracy    <     659.40165698 Ry

     iteration # 11     ecut=    60.00 Ry     beta= 0.30
     Davidson diagonalization with overlap
     c_bands:  1 eigenvalues not converged
     c_bands:  3 eigenvalues not converged
     c_bands:  1 eigenvalues not converged
     c_bands:  1 eigenvalues not converged
     c_bands:  3 eigenvalues not converged
     c_bands:  1 eigenvalues not converged
     c_bands:  3 eigenvalues not converged
     c_bands:  1 eigenvalues not converged
     c_bands:  3 eigenvalues not converged
     c_bands:  3 eigenvalues not converged
     c_bands:  4 eigenvalues not converged
     c_bands:  1 eigenvalues not converged
     c_bands:  1 eigenvalues not converged
     c_bands:  2 eigenvalues not converged
     c_bands:  2 eigenvalues not converged
     c_bands:  2 eigenvalues not converged
     c_bands:  2 eigenvalues not converged
     c_bands:  1 eigenvalues not converged
     c_bands:  3 eigenvalues not converged
     c_bands:  2 eigenvalues not converged
     c_bands:  2 eigenvalues not converged
     c_bands:  2 eigenvalues not converged
     c_bands:  5 eigenvalues not converged
     c_bands:  3 eigenvalues not converged
     c_bands:  1 eigenvalues not converged
     c_bands:  1 eigenvalues not converged
     c_bands:  1 eigenvalues not converged
     c_bands:  2 eigenvalues not converged
     c_bands:  1 eigenvalues not converged
     c_bands:  1 eigenvalues not converged
     c_bands:  3 eigenvalues not converged
     c_bands:  2 eigenvalues not converged
     c_bands:  1 eigenvalues not converged
     c_bands:  2 eigenvalues not converged
     c_bands:  1 eigenvalues not converged
     c_bands:  2 eigenvalues not converged
     c_bands:  2 eigenvalues not converged
     c_bands:  1 eigenvalues not converged
     ethr =  1.00E-02,  avg # of iterations = 38.2

     negative rho (up, down):  2.676E+01 0.000E+00

     total cpu time spent up to now is      684.5 secs

     total energy              =   -2277.88803101 Ry
     estimated scf accuracy    <    4266.98536402 Ry

     iteration # 12     ecut=    60.00 Ry     beta= 0.30
     Davidson diagonalization with overlap
     c_bands:  1 eigenvalues not converged
     c_bands:  1 eigenvalues not converged
     c_bands:  1 eigenvalues not converged
     c_bands:  1 eigenvalues not converged
     c_bands:  1 eigenvalues not converged
     c_bands:  1 eigenvalues not converged
     c_bands:  2 eigenvalues not converged
     c_bands:  1 eigenvalues not converged
     c_bands:  1 eigenvalues not converged
     ethr =  1.00E-02,  avg # of iterations = 16.0

     negative rho (up, down):  2.769E+01 0.000E+00

     total cpu time spent up to now is      700.0 secs

     total energy              =   -1656.57325415 Ry
     estimated scf accuracy    <    3013.53477623 Ry

     iteration # 13     ecut=    60.00 Ry     beta= 0.30
     Davidson diagonalization with overlap
     c_bands:  5 eigenvalues not converged
     c_bands:  5 eigenvalues not converged
     c_bands:  4 eigenvalues not converged
     c_bands:  5 eigenvalues not converged
     c_bands:  1 eigenvalues not converged
     c_bands:  4 eigenvalues not converged
     c_bands:  5 eigenvalues not converged
     c_bands:  1 eigenvalues not converged
     c_bands:  1 eigenvalues not converged
     c_bands:  5 eigenvalues not converged
     c_bands:  4 eigenvalues not converged
     c_bands:  3 eigenvalues not converged
     c_bands:  4 eigenvalues not converged
     c_bands:  5 eigenvalues not converged
     c_bands:  5 eigenvalues not converged
     c_bands:  5 eigenvalues not converged
     c_bands:  5 eigenvalues not converged
     c_bands:  5 eigenvalues not converged
     c_bands:  5 eigenvalues not converged
     c_bands:  3 eigenvalues not converged
     c_bands:  2 eigenvalues not converged
     c_bands:  4 eigenvalues not converged
     c_bands:  4 eigenvalues not converged
     c_bands:  5 eigenvalues not converged
     c_bands:  5 eigenvalues not converged
     c_bands:  5 eigenvalues not converged
     c_bands:  4 eigenvalues not converged
     c_bands:  4 eigenvalues not converged
     c_bands:  5 eigenvalues not converged
     c_bands:  5 eigenvalues not converged
     c_bands:  3 eigenvalues not converged
     c_bands:  4 eigenvalues not converged
     c_bands:  5 eigenvalues not converged
     c_bands:  1 eigenvalues not converged
     c_bands:  5 eigenvalues not converged
     c_bands:  5 eigenvalues not converged
     c_bands:  5 eigenvalues not converged
     c_bands:  3 eigenvalues not converged
     c_bands:  1 eigenvalues not converged
     c_bands:  4 eigenvalues not converged
     c_bands:  5 eigenvalues not converged
     c_bands:  4 eigenvalues not converged
     c_bands:  5 eigenvalues not converged
     c_bands:  4 eigenvalues not converged
     c_bands:  5 eigenvalues not converged
     c_bands:  4 eigenvalues not converged
     c_bands:  5 eigenvalues not converged
     c_bands:  4 eigenvalues not converged
     c_bands:  4 eigenvalues not converged
     c_bands:  3 eigenvalues not converged
     c_bands:  5 eigenvalues not converged
     c_bands:  3 eigenvalues not converged
     c_bands:  5 eigenvalues not converged
     c_bands:  2 eigenvalues not converged
     c_bands:  5 eigenvalues not converged
     c_bands:  4 eigenvalues not converged
     c_bands:  1 eigenvalues not converged
     c_bands:  4 eigenvalues not converged
     c_bands:  1 eigenvalues not converged
     c_bands:  4 eigenvalues not converged
     c_bands:  3 eigenvalues not converged
     c_bands:  1 eigenvalues not converged
     c_bands:  3 eigenvalues not converged
     c_bands:  4 eigenvalues not converged
     ethr =  1.00E-02,  avg # of iterations = 23.9

     negative rho (up, down):  1.548E+00 0.000E+00

     total cpu time spent up to now is      740.3 secs

     total energy              =   -1114.96151612 Ry
     estimated scf accuracy    <    1697.12298341 Ry

     iteration # 14     ecut=    60.00 Ry     beta= 0.30
     Davidson diagonalization with overlap
     c_bands:  1 eigenvalues not converged
     c_bands:  1 eigenvalues not converged
     c_bands:  2 eigenvalues not converged
     c_bands:  1 eigenvalues not converged
     c_bands:  1 eigenvalues not converged
     c_bands:  1 eigenvalues not converged
     c_bands:  1 eigenvalues not converged
     c_bands:  1 eigenvalues not converged
     c_bands:  1 eigenvalues not converged
     c_bands:  1 eigenvalues not converged
     c_bands:  2 eigenvalues not converged
     c_bands:  1 eigenvalues not converged
     c_bands:  2 eigenvalues not converged
     c_bands:  3 eigenvalues not converged
     c_bands:  1 eigenvalues not converged
     c_bands:  1 eigenvalues not converged
     ethr =  1.00E-02,  avg # of iterations = 16.1

     negative rho (up, down):  1.806E+00 0.000E+00

     total cpu time spent up to now is      760.8 secs

     total energy              =   -1132.30884920 Ry
     estimated scf accuracy    <     566.01932823 Ry

     iteration # 15     ecut=    60.00 Ry     beta= 0.30
     Davidson diagonalization with overlap
     ethr =  1.00E-02,  avg # of iterations =  5.2

     negative rho (up, down):  6.160E-01 0.000E+00

     total cpu time spent up to now is      769.5 secs

     total energy              =   -1050.98029824 Ry
     estimated scf accuracy    <     575.45576527 Ry

     iteration # 16     ecut=    60.00 Ry     beta= 0.30
     Davidson diagonalization with overlap
     c_bands:  1 eigenvalues not converged
     c_bands:  3 eigenvalues not converged
     c_bands:  3 eigenvalues not converged
     c_bands:  4 eigenvalues not converged
     c_bands:  4 eigenvalues not converged
     c_bands:  4 eigenvalues not converged
     c_bands:  1 eigenvalues not converged
     c_bands:  4 eigenvalues not converged
     c_bands:  3 eigenvalues not converged
     c_bands:  3 eigenvalues not converged
     c_bands:  5 eigenvalues not converged
     c_bands:  3 eigenvalues not converged
     c_bands:  4 eigenvalues not converged
     c_bands:  4 eigenvalues not converged
     c_bands:  4 eigenvalues not converged
     c_bands:  3 eigenvalues not converged
     c_bands:  4 eigenvalues not converged
     c_bands:  4 eigenvalues not converged
     c_bands:  3 eigenvalues not converged
     c_bands:  5 eigenvalues not converged
     c_bands:  4 eigenvalues not converged
     c_bands:  4 eigenvalues not converged
     c_bands:  3 eigenvalues not converged
     c_bands:  3 eigenvalues not converged
     c_bands:  1 eigenvalues not converged
     c_bands:  3 eigenvalues not converged
     c_bands:  1 eigenvalues not converged
     c_bands:  3 eigenvalues not converged
     c_bands:  2 eigenvalues not converged
     c_bands:  4 eigenvalues not converged
     c_bands:  2 eigenvalues not converged
     c_bands:  5 eigenvalues not converged
     c_bands:  4 eigenvalues not converged
     c_bands:  4 eigenvalues not converged
     c_bands:  2 eigenvalues not converged
     c_bands:  1 eigenvalues not converged
     c_bands:  2 eigenvalues not converged
     c_bands:  4 eigenvalues not converged
     c_bands:  4 eigenvalues not converged
     c_bands:  2 eigenvalues not converged
     c_bands:  2 eigenvalues not converged
     c_bands:  2 eigenvalues not converged
     c_bands:  2 eigenvalues not converged
     c_bands:  4 eigenvalues not converged
     c_bands:  3 eigenvalues not converged
     c_bands:  3 eigenvalues not converged
     c_bands:  3 eigenvalues not converged
     c_bands:  4 eigenvalues not converged
     c_bands:  3 eigenvalues not converged
     c_bands:  2 eigenvalues not converged
     c_bands:  4 eigenvalues not converged
     c_bands:  2 eigenvalues not converged
     c_bands:  3 eigenvalues not converged
     c_bands:  3 eigenvalues not converged
     c_bands:  2 eigenvalues not converged
     c_bands:  3 eigenvalues not converged
     c_bands:  3 eigenvalues not converged
     ethr =  1.00E-02,  avg # of iterations = 20.2

     negative rho (up, down):  7.839E-01 0.000E+00

     total cpu time spent up to now is      797.8 secs

     total energy              =   -1054.93187628 Ry
     estimated scf accuracy    <     175.80728847 Ry

     iteration # 17     ecut=    60.00 Ry     beta= 0.30
     Davidson diagonalization with overlap
     ethr =  1.00E-02,  avg # of iterations =  7.4

     negative rho (up, down):  5.725E-01 0.000E+00

     total cpu time spent up to now is      808.2 secs

     total energy              =   -1000.62063849 Ry
     estimated scf accuracy    <     156.24685972 Ry

     iteration # 18     ecut=    60.00 Ry     beta= 0.30
     Davidson diagonalization with overlap
     c_bands:  1 eigenvalues not converged
     ethr =  1.00E-02,  avg # of iterations =  9.9

     negative rho (up, down):  6.403E-01 0.000E+00

     total cpu time spent up to now is      822.9 secs

     total energy              =   -1001.26260365 Ry
     estimated scf accuracy    <      53.53877114 Ry

     iteration # 19     ecut=    60.00 Ry     beta= 0.30
     Davidson diagonalization with overlap
     ethr =  1.00E-02,  avg # of iterations =  8.2

     negative rho (up, down):  8.241E-01 0.000E+00

     total cpu time spent up to now is      837.7 secs

     total energy              =   -1002.39522284 Ry
     estimated scf accuracy    <      32.56165009 Ry

     iteration # 20     ecut=    60.00 Ry     beta= 0.30
     Davidson diagonalization with overlap
     ethr =  1.00E-02,  avg # of iterations = 10.8

     negative rho (up, down):  5.391E-01 0.000E+00

     total cpu time spent up to now is      852.8 secs

     total energy              =   -1006.94784854 Ry
     estimated scf accuracy    <      67.46321192 Ry

     iteration # 21     ecut=    60.00 Ry     beta= 0.30
     Davidson diagonalization with overlap
     ethr =  1.00E-02,  avg # of iterations =  9.2

     negative rho (up, down):  6.178E-01 0.000E+00

     total cpu time spent up to now is      866.3 secs

     total energy              =   -1009.26109051 Ry
     estimated scf accuracy    <     320.76570468 Ry

     iteration # 22     ecut=    60.00 Ry     beta= 0.30
     Davidson diagonalization with overlap
     ethr =  1.00E-02,  avg # of iterations =  4.8

     negative rho (up, down):  8.186E-01 0.000E+00

     total cpu time spent up to now is      876.4 secs

     total energy              =   -1000.12091250 Ry
     estimated scf accuracy    <     325.43796068 Ry

     iteration # 23     ecut=    60.00 Ry     beta= 0.30
     Davidson diagonalization with overlap
     ethr =  1.00E-02,  avg # of iterations =  5.4

     negative rho (up, down):  7.225E-01 0.000E+00

     total cpu time spent up to now is      886.0 secs

     total energy              =    -996.67371408 Ry
     estimated scf accuracy    <     238.58599171 Ry

     iteration # 24     ecut=    60.00 Ry     beta= 0.30
     Davidson diagonalization with overlap
     ethr =  1.00E-02,  avg # of iterations =  7.2

     negative rho (up, down):  1.945E-01 0.000E+00

     total cpu time spent up to now is      896.3 secs

     total energy              =    -958.94884857 Ry
     estimated scf accuracy    <     254.50513985 Ry

     iteration # 25     ecut=    60.00 Ry     beta= 0.30
     Davidson diagonalization with overlap
     c_bands:  1 eigenvalues not converged
     c_bands:  1 eigenvalues not converged
     c_bands:  1 eigenvalues not converged
     ethr =  1.00E-02,  avg # of iterations = 12.6

     negative rho (up, down):  3.664E-02 0.000E+00

     total cpu time spent up to now is      912.6 secs

     total energy              =    -980.92069390 Ry
     estimated scf accuracy    <      24.34477262 Ry

     iteration # 26     ecut=    60.00 Ry     beta= 0.30
     Davidson diagonalization with overlap
     ethr =  1.00E-02,  avg # of iterations =  8.9

     total cpu time spent up to now is      925.6 secs

     total energy              =    -982.36487944 Ry
     estimated scf accuracy    <      21.84294100 Ry

     iteration # 27     ecut=    60.00 Ry     beta= 0.30
     Davidson diagonalization with overlap
     ethr =  1.00E-02,  avg # of iterations =  2.3

     negative rho (up, down):  1.214E-02 0.000E+00

     total cpu time spent up to now is      932.9 secs

     total energy              =    -979.28209365 Ry
     estimated scf accuracy    <      14.52895030 Ry

     iteration # 28     ecut=    60.00 Ry     beta= 0.30
     Davidson diagonalization with overlap
     ethr =  1.00E-02,  avg # of iterations =  4.3

     negative rho (up, down):  3.211E-02 0.000E+00

     total cpu time spent up to now is      941.7 secs

     total energy              =    -980.09024595 Ry
     estimated scf accuracy    <       2.97549238 Ry

     iteration # 29     ecut=    60.00 Ry     beta= 0.30
     Davidson diagonalization with overlap
     ethr =  5.72E-03,  avg # of iterations =  1.2

     negative rho (up, down):  7.560E-02 0.000E+00

     total cpu time spent up to now is      948.3 secs

     total energy              =    -979.78359299 Ry
     estimated scf accuracy    <       2.22263172 Ry

     iteration # 30     ecut=    60.00 Ry     beta= 0.30
     Davidson diagonalization with overlap
     ethr =  4.27E-03,  avg # of iterations =  1.3

     negative rho (up, down):  5.337E-02 0.000E+00

     total cpu time spent up to now is      954.8 secs

     total energy              =    -979.39259222 Ry
     estimated scf accuracy    <       1.49658554 Ry

     iteration # 31     ecut=    60.00 Ry     beta= 0.30
     Davidson diagonalization with overlap
     ethr =  2.88E-03,  avg # of iterations =  3.5

     negative rho (up, down):  4.405E-02 0.000E+00

     total cpu time spent up to now is      963.0 secs

     total energy              =    -979.36406709 Ry
     estimated scf accuracy    <       0.64552892 Ry

     iteration # 32     ecut=    60.00 Ry     beta= 0.30
     Davidson diagonalization with overlap
     ethr =  1.24E-03,  avg # of iterations =  3.7

     negative rho (up, down):  3.338E-02 0.000E+00

     total cpu time spent up to now is      971.1 secs

     total energy              =    -979.45642904 Ry
     estimated scf accuracy    <       0.06160723 Ry

     iteration # 33     ecut=    60.00 Ry     beta= 0.30
     Davidson diagonalization with overlap
     ethr =  1.18E-04,  avg # of iterations =  5.1

     negative rho (up, down):  2.392E-02 0.000E+00

     total cpu time spent up to now is      981.3 secs

     total energy              =    -979.46665338 Ry
     estimated scf accuracy    <       0.15167469 Ry

     iteration # 34     ecut=    60.00 Ry     beta= 0.30
     Davidson diagonalization with overlap
     ethr =  1.18E-04,  avg # of iterations =  1.7

     negative rho (up, down):  1.450E-02 0.000E+00

     total cpu time spent up to now is      988.0 secs

     total energy              =    -979.45095473 Ry
     estimated scf accuracy    <       0.08138750 Ry

     iteration # 35     ecut=    60.00 Ry     beta= 0.30
     Davidson diagonalization with overlap
     ethr =  1.18E-04,  avg # of iterations =  3.1

     negative rho (up, down):  6.435E-03 0.000E+00

     total cpu time spent up to now is      996.2 secs

     total energy              =    -979.46102996 Ry
     estimated scf accuracy    <       0.00223394 Ry

     iteration # 36     ecut=    60.00 Ry     beta= 0.30
     Davidson diagonalization with overlap
     ethr =  4.30E-06,  avg # of iterations =  6.9

     negative rho (up, down):  1.603E-03 0.000E+00

     total cpu time spent up to now is     1009.5 secs

     total energy              =    -979.46147474 Ry
     estimated scf accuracy    <       0.03160330 Ry

     iteration # 37     ecut=    60.00 Ry     beta= 0.30
     Davidson diagonalization with overlap
     ethr =  4.30E-06,  avg # of iterations =  5.1

     negative rho (up, down):  1.221E-03 0.000E+00

     total cpu time spent up to now is     1019.9 secs

     total energy              =    -979.46251827 Ry
     estimated scf accuracy    <       0.00505036 Ry

     iteration # 38     ecut=    60.00 Ry     beta= 0.30
     Davidson diagonalization with overlap
     ethr =  4.30E-06,  avg # of iterations =  3.4

     negative rho (up, down):  9.330E-05 0.000E+00

     total cpu time spent up to now is     1028.2 secs

     total energy              =    -979.46262539 Ry
     estimated scf accuracy    <       0.00070439 Ry

     iteration # 39     ecut=    60.00 Ry     beta= 0.30
     Davidson diagonalization with overlap
     ethr =  1.35E-06,  avg # of iterations =  4.9

     negative rho (up, down):  8.646E-05 0.000E+00

     total cpu time spent up to now is     1038.4 secs

     total energy              =    -979.46292867 Ry
     estimated scf accuracy    <       0.00077114 Ry

     iteration # 40     ecut=    60.00 Ry     beta= 0.30
     Davidson diagonalization with overlap
     ethr =  1.35E-06,  avg # of iterations =  1.0

     negative rho (up, down):  1.830E-04 0.000E+00

     total cpu time spent up to now is     1044.9 secs

     total energy              =    -979.46276501 Ry
     estimated scf accuracy    <       0.00044554 Ry

     iteration # 41     ecut=    60.00 Ry     beta= 0.30
     Davidson diagonalization with overlap
     ethr =  8.57E-07,  avg # of iterations =  4.4

     negative rho (up, down):  1.365E-04 0.000E+00

     total cpu time spent up to now is     1054.4 secs

     total energy              =    -979.46287461 Ry
     estimated scf accuracy    <       0.00039975 Ry

     iteration # 42     ecut=    60.00 Ry     beta= 0.30
     Davidson diagonalization with overlap
     ethr =  7.69E-07,  avg # of iterations =  2.3

     negative rho (up, down):  1.576E-04 0.000E+00

     total cpu time spent up to now is     1061.6 secs

     total energy              =    -979.46288378 Ry
     estimated scf accuracy    <       0.00007052 Ry

     iteration # 43     ecut=    60.00 Ry     beta= 0.30
     Davidson diagonalization with overlap
     ethr =  1.36E-07,  avg # of iterations =  4.9

     negative rho (up, down):  2.162E-04 0.000E+00

     total cpu time spent up to now is     1072.0 secs

     total energy              =    -979.46291304 Ry
     estimated scf accuracy    <       0.00004116 Ry

     iteration # 44     ecut=    60.00 Ry     beta= 0.30
     Davidson diagonalization with overlap
     ethr =  7.92E-08,  avg # of iterations =  1.0

     negative rho (up, down):  2.310E-04 0.000E+00

     total cpu time spent up to now is     1078.3 secs

     total energy              =    -979.46290854 Ry
     estimated scf accuracy    <       0.00002273 Ry

     iteration # 45     ecut=    60.00 Ry     beta= 0.30
     Davidson diagonalization with overlap
     ethr =  4.37E-08,  avg # of iterations =  3.1

     negative rho (up, down):  2.392E-04 0.000E+00

     total cpu time spent up to now is     1086.2 secs

     total energy              =    -979.46291077 Ry
     estimated scf accuracy    <       0.00000144 Ry

     iteration # 46     ecut=    60.00 Ry     beta= 0.30
     Davidson diagonalization with overlap
     ethr =  2.77E-09,  avg # of iterations =  5.9

     negative rho (up, down):  2.434E-04 0.000E+00

     total cpu time spent up to now is     1098.2 secs

     total energy              =    -979.46291190 Ry
     estimated scf accuracy    <       0.00000258 Ry

     iteration # 47     ecut=    60.00 Ry     beta= 0.30
     Davidson diagonalization with overlap
     ethr =  2.77E-09,  avg # of iterations =  1.8

     negative rho (up, down):  2.442E-04 0.000E+00

     total cpu time spent up to now is     1104.9 secs

     total energy              =    -979.46291169 Ry
     estimated scf accuracy    <       0.00000114 Ry

     iteration # 48     ecut=    60.00 Ry     beta= 0.30
     Davidson diagonalization with overlap
     ethr =  2.19E-09,  avg # of iterations =  3.2

     negative rho (up, down):  2.452E-04 0.000E+00

     total cpu time spent up to now is     1113.0 secs

     total energy              =    -979.46291185 Ry
     estimated scf accuracy    <       0.00000006 Ry

     iteration # 49     ecut=    60.00 Ry     beta= 0.30
     Davidson diagonalization with overlap
     ethr =  1.20E-10,  avg # of iterations =  4.9

     negative rho (up, down):  2.449E-04 0.000E+00

     total cpu time spent up to now is     1123.3 secs

     total energy              =    -979.46291188 Ry
     estimated scf accuracy    <          1.4E-09 Ry

     iteration # 50     ecut=    60.00 Ry     beta= 0.30
     Davidson diagonalization with overlap
     ethr =  2.66E-12,  avg # of iterations =  5.7

     negative rho (up, down):  2.436E-04 0.000E+00

     total cpu time spent up to now is     1133.1 secs

     total energy              =    -979.46291188 Ry
     estimated scf accuracy    <          4.8E-10 Ry

     iteration # 51     ecut=    60.00 Ry     beta= 0.30
     Davidson diagonalization with overlap
     ethr =  9.25E-13,  avg # of iterations =  4.2

     negative rho (up, down):  2.433E-04 0.000E+00

     total cpu time spent up to now is     1143.1 secs

     total energy              =    -979.46291188 Ry
     estimated scf accuracy    <          2.7E-10 Ry

     iteration # 52     ecut=    60.00 Ry     beta= 0.30
     Davidson diagonalization with overlap
     ethr =  5.24E-13,  avg # of iterations =  3.3

     negative rho (up, down):  2.432E-04 0.000E+00

[...]
    -1.8860  -1.7846  -1.5183  -1.3532  -0.3528  -0.3179   0.4857   0.6800
     1.1749   1.2228

          k = 0.1706 0.4923 0.0000 ( 11628 PWs)   bands (ev):

   -58.7348 -58.7348 -33.1014 -33.1014 -32.9006 -32.9006 -32.8790 -32.8790
   -10.2989 -10.2681 -10.1213 -10.0886  -3.5630  -3.5154  -3.1377  -3.0832
    -1.9889  -1.9460  -1.4117  -1.2904  -0.4860  -0.4207   0.0796   0.2905
     1.4252   1.4884

          k = 0.1706 0.5908 0.0000 ( 11620 PWs)   bands (ev):

   -58.7322 -58.7321 -33.1200 -33.1200 -32.8954 -32.8954 -32.8907 -32.8907
   -10.1363 -10.1178 -10.0515 -10.0309  -3.6201  -3.6149  -3.3418  -3.2853
    -2.1211  -2.0922  -1.3066  -1.2349  -0.4808  -0.4000  -0.1247   0.1082
     1.5999   1.6793

          k = 0.1704-0.4924 0.0000 ( 11628 PWs)   bands (ev):

   -58.7348 -58.7348 -33.1013 -33.1013 -32.9006 -32.9006 -32.8790 -32.8790
   -10.2989 -10.2682 -10.1214 -10.0887  -3.5629  -3.5153  -3.1376  -3.0831
    -1.9889  -1.9460  -1.4117  -1.2904  -0.4861  -0.4208   0.0795   0.2905
     1.4254   1.4885

          k = 0.1705-0.3939 0.0000 ( 11617 PWs)   bands (ev):

   -58.7420 -58.7420 -33.0494 -33.0494 -32.9148 -32.9148 -32.8476 -32.8475
   -10.6998 -10.6535 -10.2941 -10.2407  -3.3770  -3.2838  -2.5790  -2.5307
    -1.8859  -1.7846  -1.5183  -1.3531  -0.3530  -0.3181   0.4856   0.6800
     1.1751   1.2230

          k = 0.1705-0.2954 0.0000 ( 11623 PWs)   bands (ev):

   -58.7519 -58.7518 -32.9759 -32.9759 -32.9341 -32.9341 -32.8064 -32.8064
   -11.1811 -11.1248 -10.5019 -10.4293  -3.2288  -3.0493  -2.0076  -1.9130
    -1.8399  -1.7602  -1.3836  -1.2476  -0.0308  -0.0009   0.7876   1.0161
     1.1270   1.1411

          k = 0.1705-0.1970 0.0000 ( 11632 PWs)   bands (ev):

   -58.7618 -58.7617 -32.9534 -32.9534 -32.8976 -32.8976 -32.7691 -32.7691
   -11.6097 -11.5484 -10.6868 -10.5990  -3.3593  -3.0863  -1.7989  -1.7798
    -1.5168  -1.2741  -0.6900  -0.6437  -0.0198  -0.0088   0.7753   1.0784
     1.2998   1.4413

          k = 0.1705-0.0985 0.0000 ( 11661 PWs)   bands (ev):

   -58.7690 -58.7690 -32.9675 -32.9674 -32.8336 -32.8336 -32.7477 -32.7477
   -11.8988 -11.8353 -10.8109 -10.7135  -3.5816  -3.2795  -1.4607  -1.4575
    -1.2159  -0.9145  -0.2359  -0.2282  -0.0926  -0.0820   0.6684   1.0328
     1.5033   1.7592

          k = 0.1705-0.0000 0.0000 ( 11661 PWs)   bands (ev):

   -58.7717 -58.7716 -32.9726 -32.9726 -32.8066 -32.8066 -32.7434 -32.7434
   -12.0002 -11.9361 -10.8544 -10.7535  -3.6734  -3.3653  -1.2974  -1.2952
    -1.0234  -0.6707  -0.3457  -0.3403  -0.0878  -0.0847   0.8056   1.1367
     1.5752   1.8837

          k = 0.2558 0.1477 0.0000 ( 11663 PWs)   bands (ev):

   -58.7577 -58.7576 -32.9453 -32.9452 -32.9426 -32.9426 -32.7728 -32.7728
   -11.4329 -11.3735 -10.6125 -10.5310  -3.3249  -3.0967  -1.9699  -1.9130
    -1.8157  -1.6271  -0.5481  -0.5345   0.2083   0.2223   0.3891   0.7590
     1.1121   1.2464

          k = 0.2558 0.2461 0.0000 ( 11629 PWs)   bands (ev):

   -58.7504 -58.7504 -33.0010 -33.0009 -32.9311 -32.9311 -32.7987 -32.7987
   -11.1084 -11.0537 -10.4737 -10.4042  -3.3211  -3.1709  -2.1792  -2.0414
    -1.9741  -1.8895  -1.0994  -1.0092   0.1999   0.2341   0.4786   0.7645
     1.0346   1.1100

          k = 0.2559 0.3446 0.0000 ( 11618 PWs)   bands (ev):

   -58.7420 -58.7420 -33.0495 -33.0495 -32.9148 -32.9148 -32.8475 -32.8475
   -10.6998 -10.6535 -10.2941 -10.2408  -3.3771  -3.2840  -2.5792  -2.5308
    -1.8862  -1.7848  -1.5180  -1.3528  -0.3524  -0.3176   0.4856   0.6800
     1.1748   1.2227

          k = 0.2559 0.4431 0.0000 ( 11593 PWs)   bands (ev):

   -58.7348 -58.7348 -33.0758 -33.0758 -32.9053 -32.9053 -32.9006 -32.9006
   -10.3080 -10.2750 -10.1157 -10.0814  -3.3722  -3.2985  -3.1418  -3.1302
    -1.7636  -1.6597  -1.4716  -1.3074  -1.0534  -1.0520   0.2083   0.3368
     1.4125   1.4412

          k = 0.2559 0.5416 0.0000 ( 11596 PWs)   bands (ev):

   -58.7306 -58.7306 -33.0812 -33.0812 -32.9485 -32.9485 -32.8925 -32.8925
   -10.0594 -10.0424  -9.9977  -9.9824  -3.5116  -3.4919  -3.2304  -3.1841
    -2.0164  -1.9252  -1.3790  -1.2844  -1.2427  -1.1235  -0.1404  -0.0241
     1.7308   1.7605

          k = 0.2559 0.6400 0.0000 ( 11596 PWs)   bands (ev):

   -58.7306 -58.7306 -33.0812 -33.0811 -32.9485 -32.9485 -32.8925 -32.8925
   -10.0595 -10.0424  -9.9978  -9.9824  -3.5115  -3.4918  -3.2303  -3.1840
    -2.0164  -1.9252  -1.3790  -1.2844  -1.2427  -1.1234  -0.1404  -0.0241
     1.7309   1.7606

          k = 0.2557-0.4432 0.0000 ( 11595 PWs)   bands (ev):

   -58.7348 -58.7348 -33.0758 -33.0758 -32.9052 -32.9052 -32.9007 -32.9006
   -10.3081 -10.2751 -10.1158 -10.0815  -3.3720  -3.2984  -3.1417  -3.1300
    -1.7636  -1.6597  -1.4715  -1.3073  -1.0536  -1.0521   0.2082   0.3367
     1.4127   1.4414

          k = 0.2557-0.3447 0.0000 ( 11620 PWs)   bands (ev):

   -58.7421 -58.7420 -33.0495 -33.0495 -32.9148 -32.9148 -32.8474 -32.8474
   -10.6999 -10.6536 -10.2942 -10.2409  -3.3770  -3.2839  -2.5791  -2.5307
    -1.8862  -1.7849  -1.5178  -1.3527  -0.3525  -0.3176   0.4856   0.6800
     1.1750   1.2229

          k = 0.2558-0.2462 0.0000 ( 11633 PWs)   bands (ev):

   -58.7504 -58.7504 -33.0010 -33.0010 -32.9311 -32.9311 -32.7987 -32.7987
   -11.1085 -11.0537 -10.4738 -10.4043  -3.3211  -3.1709  -2.1792  -2.0414
    -1.9742  -1.8896  -1.0991  -1.0089   0.2000   0.2342   0.4786   0.7645
     1.0346   1.1100

          k = 0.2558-0.1477 0.0000 ( 11665 PWs)   bands (ev):

   -58.7577 -58.7576 -32.9453 -32.9452 -32.9426 -32.9426 -32.7727 -32.7727
   -11.4329 -11.3735 -10.6125 -10.5311  -3.3249  -3.0967  -1.9700  -1.9132
    -1.8158  -1.6272  -0.5477  -0.5341   0.2086   0.2226   0.3890   0.7589
     1.1119   1.2462

          k = 0.2558-0.0493 0.0000 ( 11632 PWs)   bands (ev):

   -58.7618 -58.7617 -32.9534 -32.9534 -32.8976 -32.8976 -32.7690 -32.7690
   -11.6098 -11.5485 -10.6869 -10.5992  -3.3594  -3.0864  -1.7988  -1.7798
    -1.5167  -1.2740  -0.6898  -0.6436  -0.0197  -0.0087   0.7752   1.0784
     1.2997   1.4412

          k = 0.2558 0.0492 0.0000 ( 11632 PWs)   bands (ev):

   -58.7618 -58.7617 -32.9534 -32.9534 -32.8976 -32.8976 -32.7691 -32.7691
   -11.6098 -11.5485 -10.6869 -10.5991  -3.3594  -3.0864  -1.7987  -1.7797
    -1.5166  -1.2738  -0.6900  -0.6439  -0.0199  -0.0088   0.7752   1.0784
     1.2998   1.4412

          k = 0.3411 0.1969 0.0000 ( 11583 PWs)   bands (ev):

   -58.7461 -58.7461 -33.0497 -33.0497 -32.9230 -32.9230 -32.7977 -32.7976
   -10.9041 -10.8538 -10.3919 -10.3309  -3.5094  -3.4082  -2.4705  -2.3174
    -2.0500  -1.9764  -0.9293  -0.9141   0.0634   0.4322   0.6466   0.6722
     0.8577   0.9868

          k = 0.3411 0.2954 0.0000 ( 11618 PWs)   bands (ev):

   -58.7405 -58.7405 -33.0892 -33.0892 -32.9118 -32.9118 -32.8243 -32.8243
   -10.6102 -10.5680 -10.2666 -10.2184  -3.6329  -3.5672  -2.7519  -2.6382
    -2.0450  -1.9935  -1.2655  -1.1894   0.0976   0.3090   0.3233   0.4409
     1.1659   1.2474

          k = 0.3411 0.3938 0.0000 ( 11626 PWs)   bands (ev):

   -58.7348 -58.7348 -33.1014 -33.1014 -32.9006 -32.9006 -32.8788 -32.8788
   -10.2991 -10.2683 -10.1217 -10.0889  -3.5632  -3.5156  -3.1375  -3.0829
    -1.9891  -1.9460  -1.4112  -1.2899  -0.4854  -0.4202   0.0794   0.2904
     1.4250   1.4881

          k = 0.3412 0.4923 0.0000 ( 11594 PWs)   bands (ev):

   -58.7306 -58.7306 -33.0812 -33.0812 -32.9484 -32.9484 -32.8925 -32.8925
   -10.0595 -10.0424  -9.9979  -9.9825  -3.5114  -3.4917  -3.2305  -3.1842
    -2.0165  -1.9253  -1.3786  -1.2841  -1.2425  -1.1232  -0.1406  -0.0242
     1.7308   1.7604

          k = 0.3412 0.5908 0.0000 ( 11595 PWs)   bands (ev):

   -58.7291 -58.7290 -33.0488 -33.0488 -32.9989 -32.9989 -32.8895 -32.8895
    -9.9638  -9.9638  -9.9448  -9.9448  -3.6563  -3.6563  -2.8286  -2.7590
    -2.2789  -2.2789  -1.6460  -1.6459  -1.0845  -0.9600  -0.2794  -0.2793
     1.9418   1.9418

          k = 0.3412 0.6892 0.0000 ( 11594 PWs)   bands (ev):

   -58.7306 -58.7306 -33.0812 -33.0812 -32.9484 -32.9484 -32.8925 -32.8925
   -10.0596 -10.0425  -9.9980  -9.9826  -3.5113  -3.4916  -3.2304  -3.1841
    -2.0166  -1.9253  -1.3785  -1.2840  -1.2423  -1.1231  -0.1407  -0.0243
     1.7308   1.7605

          k = 0.3410-0.3939 0.0000 ( 11626 PWs)   bands (ev):

   -58.7348 -58.7348 -33.1014 -33.1014 -32.9007 -32.9006 -32.8788 -32.8788
   -10.2992 -10.2684 -10.1218 -10.0891  -3.5631  -3.5155  -3.1373  -3.0828
    -1.9892  -1.9461  -1.4110  -1.2897  -0.4853  -0.4201   0.0793   0.2903
     1.4251   1.4882

          k = 0.3410-0.2955 0.0000 ( 11618 PWs)   bands (ev):

   -58.7405 -58.7405 -33.0892 -33.0892 -32.9118 -32.9118 -32.8242 -32.8242
   -10.6104 -10.5681 -10.2668 -10.2185  -3.6329  -3.5672  -2.7518  -2.6381
    -2.0451  -1.9936  -1.2652  -1.1891   0.0975   0.3090   0.3233   0.4408
     1.1660   1.2475

          k = 0.3410-0.1970 0.0000 ( 11583 PWs)   bands (ev):

   -58.7461 -58.7461 -33.0498 -33.0498 -32.9230 -32.9230 -32.7976 -32.7976
   -10.9042 -10.8539 -10.3920 -10.3310  -3.5094  -3.4082  -2.4705  -2.3174
    -2.0501  -1.9765  -0.9289  -0.9136   0.0633   0.4321   0.6470   0.6726
     0.8575   0.9866

          k = 0.3410-0.0985 0.0000 ( 11629 PWs)   bands (ev):

   -58.7504 -58.7504 -33.0010 -33.0009 -32.9312 -32.9311 -32.7986 -32.7986
   -11.1086 -11.0538 -10.4739 -10.4044  -3.3210  -3.1708  -2.1790  -2.0412
    -1.9740  -1.8894  -1.0991  -1.0090   0.1996   0.2338   0.4786   0.7645
     1.0348   1.1102

          k = 0.3411-0.0000 0.0000 ( 11625 PWs)   bands (ev):

   -58.7520 -58.7518 -32.9759 -32.9759 -32.9341 -32.9341 -32.8063 -32.8063
   -11.1812 -11.1250 -10.5022 -10.4296  -3.2287  -3.0492  -2.0075  -1.9128
    -1.8397  -1.7599  -1.3834  -1.2475  -0.0311  -0.0012   0.7876   1.0161
     1.1272   1.1413

          k = 0.3411 0.0984 0.0000 ( 11629 PWs)   bands (ev):

   -58.7504 -58.7504 -33.0009 -33.0009 -32.9311 -32.9311 -32.7987 -32.7987
   -11.1086 -11.0538 -10.4739 -10.4043  -3.3210  -3.1708  -2.1789  -2.0411
    -1.9738  -1.8893  -1.0995  -1.0093   0.1994   0.2336   0.4786   0.7645
     1.0349   1.1103

          k = 0.4264 0.2461 0.0000 ( 11602 PWs)   bands (ev):

   -58.7379 -58.7378 -33.1272 -33.1272 -32.9066 -32.9066 -32.8158 -32.8158
   -10.4554 -10.4207 -10.2112 -10.1716  -3.8738  -3.8283  -2.9166  -2.7859
    -2.1628  -2.1314  -1.1763  -1.1601  -0.1360   0.2299   0.9425   0.9813
     1.0305   1.1779

          k = 0.4264 0.3446 0.0000 ( 11625 PWs)   bands (ev):

   -58.7349 -58.7348 -33.1396 -33.1396 -32.9006 -32.9006 -32.8389 -32.8389
   -10.2803 -10.2549 -10.1333 -10.1038  -3.8921  -3.8629  -3.1057  -3.0019
    -2.1762  -2.1656  -1.2990  -1.2586  -0.1238   0.1969   0.4428   0.4871
     1.4055   1.5051

          k = 0.4264 0.4431 0.0000 ( 11618 PWs)   bands (ev):

   -58.7322 -58.7321 -33.1201 -33.1201 -32.8954 -32.8954 -32.8905 -32.8905
   -10.1366 -10.1180 -10.0519 -10.0313  -3.6203  -3.6150  -3.3414  -3.2849
    -2.1212  -2.0922  -1.3059  -1.2342  -0.4803  -0.3995  -0.1252   0.1078
     1.5997   1.6791

          k = 0.4264 0.5415 0.0000 ( 11594 PWs)   bands (ev):

   -58.7306 -58.7306 -33.0812 -33.0812 -32.9484 -32.9484 -32.8925 -32.8925
   -10.0597 -10.0426  -9.9981  -9.9827  -3.5112  -3.4915  -3.2302  -3.1839
    -2.0166  -1.9254  -1.3788  -1.2842  -1.2423  -1.1231  -0.1408  -0.0244
     1.7311   1.7608

          k = 0.4264 0.6400 0.0000 ( 11594 PWs)   bands (ev):

   -58.7306 -58.7306 -33.0812 -33.0812 -32.9483 -32.9483 -32.8925 -32.8925
   -10.0597 -10.0426  -9.9981  -9.9827  -3.5111  -3.4914  -3.2302  -3.1839
    -2.0167  -1.9255  -1.3786  -1.2841  -1.2423  -1.1230  -0.1409  -0.0244
     1.7311   1.7607

          k = 0.4265 0.7385 0.0000 ( 11616 PWs)   bands (ev):

   -58.7322 -58.7322 -33.1201 -33.1201 -32.8955 -32.8955 -32.8904 -32.8904
   -10.1367 -10.1181 -10.0521 -10.0315  -3.6203  -3.6151  -3.3413  -3.2847
    -2.1212  -2.0922  -1.3056  -1.2339  -0.4801  -0.3994  -0.1253   0.1077
     1.5996   1.6791

          k = 0.4263-0.3447 0.0000 ( 11625 PWs)   bands (ev):

   -58.7349 -58.7348 -33.1396 -33.1396 -32.9006 -32.9006 -32.8389 -32.8389
   -10.2804 -10.2550 -10.1335 -10.1040  -3.8921  -3.8630  -3.1055  -3.0018
    -2.1762  -2.1656  -1.2986  -1.2582  -0.1240   0.1967   0.4430   0.4873
     1.4055   1.5050

          k = 0.4263-0.2462 0.0000 ( 11602 PWs)   bands (ev):

   -58.7379 -58.7378 -33.1272 -33.1272 -32.9066 -32.9066 -32.8157 -32.8157
   -10.4555 -10.4208 -10.2114 -10.1718  -3.8739  -3.8284  -2.9165  -2.7858
    -2.1628  -2.1315  -1.1758  -1.1597  -0.1362   0.2298   0.9429   0.9817
     1.0302   1.1777

          k = 0.4263-0.1478 0.0000 ( 11618 PWs)   bands (ev):

   -58.7405 -58.7405 -33.0892 -33.0892 -32.9118 -32.9118 -32.8242 -32.8242
   -10.6104 -10.5682 -10.2669 -10.2186  -3.6327  -3.5670  -2.7516  -2.6379
    -2.0451  -1.9936  -1.2651  -1.1891   0.0974   0.3087   0.3231   0.4406
     1.1664   1.2479

          k = 0.4263-0.0493 0.0000 ( 11616 PWs)   bands (ev):

   -58.7421 -58.7420 -33.0495 -33.0494 -32.9148 -32.9148 -32.8474 -32.8474
   -10.7001 -10.6538 -10.2945 -10.2411  -3.3768  -3.2836  -2.5787  -2.5302
    -1.8861  -1.7847  -1.5178  -1.3526  -0.3531  -0.3182   0.4854   0.6799
     1.1755   1.2234

          k = 0.4263 0.0492 0.0000 ( 11616 PWs)   bands (ev):

   -58.7421 -58.7420 -33.0494 -33.0494 -32.9148 -32.9148 -32.8474 -32.8474
   -10.7001 -10.6537 -10.2944 -10.2411  -3.3767  -3.2836  -2.5786  -2.5302
    -1.8860  -1.7847  -1.5180  -1.3528  -0.3532  -0.3183   0.4854   0.6799
     1.1755   1.2234

          k = 0.4264 0.1476 0.0000 ( 11618 PWs)   bands (ev):

   -58.7405 -58.7405 -33.0891 -33.0891 -32.9118 -32.9118 -32.8242 -32.8242
   -10.6104 -10.5681 -10.2667 -10.2185  -3.6326  -3.5669  -2.7516  -2.6379
    -2.0450  -1.9935  -1.2655  -1.1895   0.0974   0.3086   0.3230   0.4406
     1.1664   1.2479

          k =-0.5117-0.2953 0.0000 ( 11612 PWs)   bands (ev):

   -58.7348 -58.7348 -33.1553 -33.1553 -32.9006 -32.9006 -32.8224 -32.8224
   -10.2704 -10.2483 -10.1391 -10.1113  -4.0365  -4.0077  -3.0853  -2.9604
    -2.2449  -2.2290  -1.2613  -1.2449  -0.1977   0.1649   1.0405   1.0852
     1.2094   1.3468

          k =-0.5116-0.1969 0.0000 ( 11623 PWs)   bands (ev):

   -58.7349 -58.7348 -33.1396 -33.1396 -32.9006 -32.9006 -32.8389 -32.8389
   -10.2803 -10.2549 -10.1334 -10.1039  -3.8919  -3.8628  -3.1056  -3.0018
    -2.1762  -2.1656  -1.2990  -1.2586  -0.1239   0.1968   0.4426   0.4869
     1.4058   1.5053

          k =-0.5116-0.0984 0.0000 ( 11624 PWs)   bands (ev):

   -58.7348 -58.7348 -33.1014 -33.1014 -32.9007 -32.9006 -32.8788 -32.8788
   -10.2992 -10.2684 -10.1219 -10.0891  -3.5628  -3.5151  -3.1371  -3.0826
    -1.9892  -1.9461  -1.4111  -1.2898  -0.4859  -0.4206   0.0792   0.2902
     1.4256   1.4887

          k =-0.5116 0.0001 0.0000 ( 11595 PWs)   bands (ev):

   -58.7348 -58.7348 -33.0758 -33.0758 -32.9052 -32.9052 -32.9007 -32.9007
   -10.3084 -10.2753 -10.1161 -10.0818  -3.3717  -3.2980  -3.1412  -3.1296
    -1.7636  -1.6596  -1.4713  -1.3071  -1.0540  -1.0525   0.2080   0.3366
     1.4131   1.4419

          k =-0.5116 0.0985 0.0000 ( 11624 PWs)   bands (ev):

   -58.7348 -58.7348 -33.1014 -33.1014 -32.9007 -32.9007 -32.8788 -32.8788
   -10.2993 -10.2685 -10.1220 -10.0892  -3.5628  -3.5152  -3.1371  -3.0825
    -1.9892  -1.9461  -1.4109  -1.2896  -0.4857  -0.4204   0.0791   0.2901
     1.4255   1.4887

          k =-0.5116 0.1970 0.0000 ( 11623 PWs)   bands (ev):

   -58.7349 -58.7348 -33.1396 -33.1396 -32.9006 -32.9006 -32.8389 -32.8389
   -10.2804 -10.2550 -10.1336 -10.1041  -3.8920  -3.8629  -3.1055  -3.0017
    -2.1762  -2.1656  -1.2986  -1.2582  -0.1241   0.1967   0.4428   0.4872
     1.4057   1.5052

          k =-0.5118-0.8862 0.0000 ( 11612 PWs)   bands (ev):

   -58.7348 -58.7348 -33.1553 -33.1553 -32.9006 -32.9006 -32.8223 -32.8223
   -10.2705 -10.2485 -10.1393 -10.1115  -4.0366  -4.0078  -3.0852  -2.9603
    -2.2449  -2.2290  -1.2608  -1.2444  -0.1979   0.1647   1.0409   1.0856
     1.2091   1.3465

     highest occupied level (ev):     2.1886

!    total energy              =    -979.51269202 Ry

     total all-electron energy =    -19376.428383 Ry
     estimated scf accuracy    <          6.8E-15 Ry

     The total energy is the sum of the following terms:
     one-electron contribution =   -2744.82551468 Ry
     hartree contribution      =    1383.04738239 Ry
     xc contribution           =     -59.05239522 Ry
     ewald contribution        =    1067.10015483 Ry
     one-center paw contrib.   =    -625.78231934 Ry

     convergence has been achieved in  44 iterations

     negative rho (up, down):  3.767E-04 0.000E+00

     Forces acting on atoms (cartesian axes, Ry/au):

     atom    1 type  1   force =     0.00001339   -0.00005889   -0.00002447
     atom    2 type  2   force =    -0.00000579    0.00002573   -0.00045192
     atom    3 type  2   force =    -0.00000771    0.00003360    0.00044178
     atom    4 type  1   force =    -0.00001339    0.00005889    0.00002447
     atom    5 type  2   force =     0.00000771   -0.00003360   -0.00044178
     atom    6 type  2   force =     0.00000579   -0.00002573    0.00045192

     Total force =     0.000897     Total SCF correction =     0.000000


     Computing stress (Cartesian axis) and pressure


     negative rho (up, down):  3.767E-04 0.000E+00
          total   stress  (Ry/bohr**3)                   (kbar)     P=       -0.85
  -0.00000237   0.00000009   0.00000001           -0.35        0.01        0.00
   0.00000009  -0.00000169  -0.00000004            0.01       -0.25       -0.01
   0.00000001  -0.00000004  -0.00001332            0.00       -0.01       -1.96


     Writing output data file /scratch/as3359/MoS2_loop/Ta.save/
 
     init_run     :     26.18s CPU     14.79s WALL (       2 calls)
     electrons    :  14473.62s CPU   7384.90s WALL (      18 calls)
     update_pot   :     97.17s CPU     57.98s WALL (      16 calls)
     forces       :     81.62s CPU     41.41s WALL (      18 calls)
     stress       :    227.16s CPU    115.23s WALL (      18 calls)

     Called by init_run:
     wfcinit      :     14.37s CPU      7.39s WALL (       2 calls)
     potinit      :      3.44s CPU      1.75s WALL (       2 calls)
     hinit0       :      7.71s CPU      5.25s WALL (       2 calls)

     Called by electrons:
     c_bands      :  12252.05s CPU   6213.20s WALL (     787 calls)
     sum_band     :   1827.69s CPU    952.00s WALL (     787 calls)
     v_of_rho     :     68.33s CPU     34.81s WALL (     804 calls)
     newd         :    130.28s CPU     85.83s WALL (     804 calls)
     PAW_pot      :    176.06s CPU     89.27s WALL (     820 calls)
     mix_rho      :     20.69s CPU     10.60s WALL (     787 calls)

     Called by c_bands:
     init_us_2    :    224.02s CPU    112.75s WALL (  120472 calls)
     cegterg      :  11686.45s CPU   5927.03s WALL (   58837 calls)

     Called by *egterg:
     cdiaghg      :    347.03s CPU    177.75s WALL (  282835 calls)
     h_psi        :   9434.28s CPU   4792.97s WALL (  284456 calls)
     s_psi        :    335.43s CPU    168.66s WALL (  284456 calls)
     g_psi        :     67.57s CPU     33.98s WALL (  225471 calls)

     Called by h_psi:
     h_psi:calbec :    335.81s CPU    169.49s WALL (  284456 calls)
     vloc_psi     :   8630.08s CPU   4388.19s WALL (  284456 calls)
     add_vuspsi   :    405.40s CPU    203.74s WALL (  284456 calls)

     General routines
     calbec       :    427.98s CPU    216.12s WALL (  350538 calls)
     fft          :     30.97s CPU     15.88s WALL (   10883 calls)
     ffts         :      3.11s CPU      1.60s WALL (    1591 calls)
     fftw         :   8847.08s CPU   4497.14s WALL (10814150 calls)
     interpolate  :      5.90s CPU      3.04s WALL (     804 calls)
 
     Parallel routines
 
     PWSCF        :      4h 8m CPU      2h 7m WALL

 
   This run was terminated on:  19:57:34   8Apr2022            

=------------------------------------------------------------------------------=
   JOB DONE.
=------------------------------------------------------------------------------=
