
     Program PWSCF v.6.8 starts on  8Apr2022 at 20: 4:42 

     This program is part of the open-source Quantum ESPRESSO suite
     for quantum simulation of materials; please cite
         "P. Giannozzi et al., J. Phys.:Condens. Matter 21 395502 (2009);
         "P. Giannozzi et al., J. Phys.:Condens. Matter 29 465901 (2017);
         "P. Giannozzi et al., J. Chem. Phys. 152 154105 (2020);
          URL http://www.quantum-espresso.org", 
     in publications or presentations arising from this work. More details at
     http://www.quantum-espresso.org/quote

     Parallel version (MPI & OpenMP), running on       4 processor cores
     Number of MPI processes:                 2
     Threads/MPI process:                     2

     MPI processes distributed on     1 nodes
     R & G space division:  proc/nbgrp/npool/nimage =       2
     124603 MiB available memory on the printing compute node when the environment starts
 
     Waiting for input...
     Reading input from standard input

     Current dimensions of program PWSCF are:
     Max number of different atomic species (ntypx) = 10
     Max number of k-points (npk) =  40000
     Max angular momentum in pseudopotentials (lmaxx) =  4
     file Mo.pbesol-spn-kjpaw_psl.1.0.0.UPF: wavefunction(s)  4S 4D renormalized
     file S.pbesol-nl-kjpaw_psl.1.0.0.UPF: wavefunction(s)  3S renormalized
     Message from routine setup:
     using ibrav=0 with symmetry is DISCOURAGED, use correct ibrav instead

     Subspace diagonalization in iterative solution of the eigenvalue problem:
     a serial algorithm will be used

 
     Parallelization info
     --------------------
     sticks:   dense  smooth     PW     G-vecs:    dense   smooth      PW
     Min         366     291     93                65058    46565    8523
     Max         367     292     94                65077    46596    8548
     Sum         733     583    187               130135    93161   17071
 
     Using Slab Decomposition
 


     bravais-lattice index     =            0
     lattice parameter (alat)  =       6.0720  a.u.
     unit-cell volume          =    1481.2748 (a.u.)^3
     number of atoms/cell      =            6
     number of atomic types    =            2
     number of electrons       =        52.00
     number of Kohn-Sham states=           26
     kinetic-energy cutoff     =      60.0000  Ry
     charge density cutoff     =     300.0000  Ry
     scf convergence threshold =      1.0E-12
     mixing beta               =       0.7000
     number of iterations used =            8  plain     mixing
     Exchange-correlation= SLA  PW   PSX  PSC
                           (   1   4  10   8   0   0   0)

     celldm(1)=   6.072000  celldm(2)=   0.000000  celldm(3)=   0.000000
     celldm(4)=   0.000000  celldm(5)=   0.000000  celldm(6)=   0.000000

     crystal axes: (cart. coord. in units of alat)
               a(1) = (   0.977326  -0.000176   0.000000 )  
               a(2) = (  -0.488540   0.846362   0.000000 )  
               a(3) = (   0.000000   0.000000   8.000000 )  

     reciprocal axes: (cart. coord. in units 2 pi/alat)
               b(1) = (  1.023307  0.590676  0.000000 )  
               b(2) = (  0.000213  1.181651  0.000000 )  
               b(3) = (  0.000000  0.000000  0.125000 )  


     PseudoPot. # 1 for Mo read from file:
     /shared/home/as3359/pseudo/Mo.pbesol-spn-kjpaw_psl.1.0.0.UPF
     MD5 check sum: de57925cfc675213e43241dcc441eda8
     Pseudo is Projector augmented-wave + core cor, Zval = 14.0
     Generated using &quot;atomic&quot; code by A. Dal Corso  v.6.3
     Shape of augmentation charge: PSQ
     Using radial grid of 1229 points,  6 beta functions with: 
                l(1) =   0
                l(2) =   0
                l(3) =   1
                l(4) =   1
                l(5) =   2
                l(6) =   2
     Q(r) pseudized with 0 coefficients 


     PseudoPot. # 2 for S  read from file:
     /shared/home/as3359/pseudo/S.pbesol-nl-kjpaw_psl.1.0.0.UPF
     MD5 check sum: bf3db50ec3f960682bbc396f1aadd1dd
     Pseudo is Projector augmented-wave + core cor, Zval =  6.0
     Generated using &quot;atomic&quot; code by A. Dal Corso  v.6.3
     Shape of augmentation charge: PSQ
     Using radial grid of 1151 points,  4 beta functions with: 
                l(1) =   0
                l(2) =   0
                l(3) =   1
                l(4) =   1
     Q(r) pseudized with 0 coefficients 


     atomic species   valence    mass     pseudopotential
        Mo            14.00    95.94000     Mo( 1.00)
        S              6.00    32.06500     S ( 1.00)

      2 Sym. Ops., with inversion, found ( 1 have fractional translation)



   Cartesian axes

     site n.     atom                  positions (alat units)
         1           Mo  tau(   1) = (   0.0000000   0.0000000   0.9844997  )
         2           S   tau(   2) = (   0.4887119   0.2819702   1.4701535  )
         3           S   tau(   3) = (   0.4887135   0.2819635   0.4988906  )
         4           Mo  tau(   4) = (   0.0000000   0.0000000   3.0155003  )
         5           S   tau(   5) = (  -0.4887135  -0.2819635   3.5011094  )
         6           S   tau(   6) = (  -0.4887119  -0.2819702   2.5298465  )

     number of k points=    74
                       cart. coord. in units 2pi/alat
        k(    1) = (   0.0000000   0.0000000   0.0000000), wk =   0.0138889
        k(    2) = (   0.0000178   0.0984709   0.0000000), wk =   0.0277778
        k(    3) = (   0.0000355   0.1969418   0.0000000), wk =   0.0277778
        k(    4) = (   0.0000533   0.2954127   0.0000000), wk =   0.0277778
        k(    5) = (   0.0000711   0.3938835   0.0000000), wk =   0.0277778
        k(    6) = (   0.0000888   0.4923544   0.0000000), wk =   0.0277778
        k(    7) = (  -0.0001066  -0.5908253   0.0000000), wk =   0.0138889
        k(    8) = (   0.0852756   0.0492230   0.0000000), wk =   0.0277778
        k(    9) = (   0.0852933   0.1476939   0.0000000), wk =   0.0277778
        k(   10) = (   0.0853111   0.2461648   0.0000000), wk =   0.0277778
        k(   11) = (   0.0853288   0.3446357   0.0000000), wk =   0.0277778
        k(   12) = (   0.0853466   0.4431066   0.0000000), wk =   0.0277778
        k(   13) = (   0.0853644   0.5415775   0.0000000), wk =   0.0277778
        k(   14) = (   0.0851690  -0.5416023   0.0000000), wk =   0.0277778
        k(   15) = (   0.0851867  -0.4431314   0.0000000), wk =   0.0277778
        k(   16) = (   0.0852045  -0.3446605   0.0000000), wk =   0.0277778
        k(   17) = (   0.0852223  -0.2461896   0.0000000), wk =   0.0277778
        k(   18) = (   0.0852400  -0.1477187   0.0000000), wk =   0.0277778
        k(   19) = (   0.0852578  -0.0492479   0.0000000), wk =   0.0277778
        k(   20) = (   0.1705511   0.0984460   0.0000000), wk =   0.0277778
        k(   21) = (   0.1705689   0.1969169   0.0000000), wk =   0.0277778
        k(   22) = (   0.1705866   0.2953878   0.0000000), wk =   0.0277778
        k(   23) = (   0.1706044   0.3938587   0.0000000), wk =   0.0277778
        k(   24) = (   0.1706222   0.4923296   0.0000000), wk =   0.0277778
        k(   25) = (   0.1706399   0.5908005   0.0000000), wk =   0.0277778
        k(   26) = (   0.1704445  -0.4923793   0.0000000), wk =   0.0277778
        k(   27) = (   0.1704623  -0.3939084   0.0000000), wk =   0.0277778
        k(   28) = (   0.1704800  -0.2954375   0.0000000), wk =   0.0277778
        k(   29) = (   0.1704978  -0.1969666   0.0000000), wk =   0.0277778
        k(   30) = (   0.1705156  -0.0984957   0.0000000), wk =   0.0277778
        k(   31) = (   0.1705333  -0.0000248   0.0000000), wk =   0.0277778
        k(   32) = (   0.2558267   0.1476691   0.0000000), wk =   0.0277778
        k(   33) = (   0.2558444   0.2461400   0.0000000), wk =   0.0277778
        k(   34) = (   0.2558622   0.3446108   0.0000000), wk =   0.0277778
        k(   35) = (   0.2558800   0.4430817   0.0000000), wk =   0.0277778
        k(   36) = (   0.2558977   0.5415526   0.0000000), wk =   0.0277778
        k(   37) = (   0.2559155   0.6400235   0.0000000), wk =   0.0277778
        k(   38) = (   0.2557201  -0.4431562   0.0000000), wk =   0.0277778
        k(   39) = (   0.2557378  -0.3446854   0.0000000), wk =   0.0277778
        k(   40) = (   0.2557556  -0.2462145   0.0000000), wk =   0.0277778
        k(   41) = (   0.2557734  -0.1477436   0.0000000), wk =   0.0277778
        k(   42) = (   0.2557911  -0.0492727   0.0000000), wk =   0.0277778
        k(   43) = (   0.2558089   0.0491982   0.0000000), wk =   0.0277778
        k(   44) = (   0.3411022   0.1968921   0.0000000), wk =   0.0277778
        k(   45) = (   0.3411200   0.2953630   0.0000000), wk =   0.0277778
        k(   46) = (   0.3411377   0.3938339   0.0000000), wk =   0.0277778
        k(   47) = (   0.3411555   0.4923048   0.0000000), wk =   0.0277778
        k(   48) = (   0.3411733   0.5907756   0.0000000), wk =   0.0277778
        k(   49) = (   0.3411910   0.6892465   0.0000000), wk =   0.0277778
        k(   50) = (   0.3409956  -0.3939332   0.0000000), wk =   0.0277778
        k(   51) = (   0.3410134  -0.2954623   0.0000000), wk =   0.0277778
        k(   52) = (   0.3410311  -0.1969914   0.0000000), wk =   0.0277778
        k(   53) = (   0.3410489  -0.0985206   0.0000000), wk =   0.0277778
        k(   54) = (   0.3410667  -0.0000497   0.0000000), wk =   0.0277778
        k(   55) = (   0.3410844   0.0984212   0.0000000), wk =   0.0277778
        k(   56) = (   0.4263778   0.2461151   0.0000000), wk =   0.0277778
        k(   57) = (   0.4263955   0.3445860   0.0000000), wk =   0.0277778
        k(   58) = (   0.4264133   0.4430569   0.0000000), wk =   0.0277778
        k(   59) = (   0.4264311   0.5415278   0.0000000), wk =   0.0277778
        k(   60) = (   0.4264488   0.6399987   0.0000000), wk =   0.0277778
        k(   61) = (   0.4264666   0.7384695   0.0000000), wk =   0.0277778
        k(   62) = (   0.4262712  -0.3447102   0.0000000), wk =   0.0277778
        k(   63) = (   0.4262889  -0.2462393   0.0000000), wk =   0.0277778
        k(   64) = (   0.4263067  -0.1477684   0.0000000), wk =   0.0277778
        k(   65) = (   0.4263245  -0.0492975   0.0000000), wk =   0.0277778
        k(   66) = (   0.4263422   0.0491734   0.0000000), wk =   0.0277778
        k(   67) = (   0.4263600   0.1476442   0.0000000), wk =   0.0277778
        k(   68) = (  -0.5116533  -0.2953381   0.0000000), wk =   0.0138889
        k(   69) = (  -0.5116355  -0.1968673   0.0000000), wk =   0.0277778
        k(   70) = (  -0.5116178  -0.0983964   0.0000000), wk =   0.0277778
        k(   71) = (  -0.5116000   0.0000745   0.0000000), wk =   0.0277778
        k(   72) = (  -0.5115822   0.0985454   0.0000000), wk =   0.0277778
        k(   73) = (  -0.5115645   0.1970163   0.0000000), wk =   0.0277778
        k(   74) = (  -0.5117599  -0.8861635   0.0000000), wk =   0.0138889

     Dense  grid:   130135 G-vectors     FFT dimensions: (  36,  36, 270)

     Smooth grid:    93161 G-vectors     FFT dimensions: (  30,  30, 240)

     Estimated max dynamical RAM per process >     422.19 MB

     Estimated total dynamical RAM >     844.38 MB

     Initial potential from superposition of free atoms

     starting charge   51.99828, renormalised to   52.00000

     negative rho (up, down):  2.821E-04 0.000E+00
     Starting wfcs are   36 randomized atomic wfcs
     Checking if some PAW data can be deallocated... 

     total cpu time spent up to now is        5.8 secs

     Self-consistent Calculation

     iteration #  1     ecut=    60.00 Ry     beta= 0.70
     Davidson diagonalization with overlap
     ethr =  1.00E-02,  avg # of iterations =  2.0

     Threshold (ethr) on eigenvalues was too large:
     Diagonalizing with lowered threshold

     Davidson diagonalization with overlap
     ethr =  3.35E-04,  avg # of iterations =  3.9

     negative rho (up, down):  3.411E-04 0.000E+00

     total cpu time spent up to now is       23.1 secs

     total energy              =    -979.39070552 Ry
     estimated scf accuracy    <       0.27618978 Ry

     iteration #  2     ecut=    60.00 Ry     beta= 0.70
     Davidson diagonalization with overlap
     ethr =  5.31E-04,  avg # of iterations =  5.2

     negative rho (up, down):  3.468E-04 0.000E+00

     total cpu time spent up to now is       34.5 secs

     total energy              =    -979.31113890 Ry
     estimated scf accuracy    <       1.02489728 Ry

     iteration #  3     ecut=    60.00 Ry     beta= 0.70
     Davidson diagonalization with overlap
     ethr =  5.31E-04,  avg # of iterations =  5.4

     negative rho (up, down):  3.443E-04 0.000E+00

     total cpu time spent up to now is       45.5 secs

     total energy              =    -979.49971809 Ry
     estimated scf accuracy    <       0.08089650 Ry

     iteration #  4     ecut=    60.00 Ry     beta= 0.70
     Davidson diagonalization with overlap
     ethr =  1.56E-04,  avg # of iterations =  3.0

     negative rho (up, down):  3.482E-04 0.000E+00

     total cpu time spent up to now is       53.9 secs

     total energy              =    -979.50677981 Ry
     estimated scf accuracy    <       0.02467549 Ry

     iteration #  5     ecut=    60.00 Ry     beta= 0.70
     Davidson diagonalization with overlap
     ethr =  4.75E-05,  avg # of iterations =  3.9

     negative rho (up, down):  3.637E-04 0.000E+00

     total cpu time spent up to now is       63.1 secs

     total energy              =    -979.51176697 Ry
     estimated scf accuracy    <       0.00757654 Ry

     iteration #  6     ecut=    60.00 Ry     beta= 0.70
     Davidson diagonalization with overlap
     ethr =  1.46E-05,  avg # of iterations =  2.8

     negative rho (up, down):  3.711E-04 0.000E+00

     total cpu time spent up to now is       71.1 secs

     total energy              =    -979.51237455 Ry
     estimated scf accuracy    <       0.00105739 Ry

     iteration #  7     ecut=    60.00 Ry     beta= 0.70
     Davidson diagonalization with overlap
     ethr =  2.03E-06,  avg # of iterations =  4.6

     negative rho (up, down):  3.743E-04 0.000E+00

     total cpu time spent up to now is       81.0 secs

     total energy              =    -979.51265797 Ry
     estimated scf accuracy    <       0.00092480 Ry

     iteration #  8     ecut=    60.00 Ry     beta= 0.70
     Davidson diagonalization with overlap
     ethr =  1.78E-06,  avg # of iterations =  1.7

     negative rho (up, down):  3.762E-04 0.000E+00

     total cpu time spent up to now is       87.9 secs

     total energy              =    -979.51262240 Ry
     estimated scf accuracy    <       0.00034474 Ry

     iteration #  9     ecut=    60.00 Ry     beta= 0.70
     Davidson diagonalization with overlap
     ethr =  6.63E-07,  avg # of iterations =  4.4

     negative rho (up, down):  3.765E-04 0.000E+00

     total cpu time spent up to now is       97.0 secs

     total energy              =    -979.51269110 Ry
     estimated scf accuracy    <       0.00007996 Ry

     iteration # 10     ecut=    60.00 Ry     beta= 0.70
     Davidson diagonalization with overlap
     ethr =  1.54E-07,  avg # of iterations =  2.0

     negative rho (up, down):  3.765E-04 0.000E+00

     total cpu time spent up to now is      104.3 secs

     total energy              =    -979.51268142 Ry
     estimated scf accuracy    <       0.00005193 Ry

     iteration # 11     ecut=    60.00 Ry     beta= 0.70
     Davidson diagonalization with overlap
     ethr =  9.99E-08,  avg # of iterations =  3.4

     negative rho (up, down):  3.766E-04 0.000E+00

     total cpu time spent up to now is      112.9 secs

     total energy              =    -979.51269140 Ry
     estimated scf accuracy    <       0.00000061 Ry

     iteration # 12     ecut=    60.00 Ry     beta= 0.70
     Davidson diagonalization with overlap
     ethr =  1.18E-09,  avg # of iterations =  6.3

     negative rho (up, down):  3.766E-04 0.000E+00

     total cpu time spent up to now is      125.5 secs

     total energy              =    -979.51269200 Ry
     estimated scf accuracy    <       0.00000110 Ry

     iteration # 13     ecut=    60.00 Ry     beta= 0.70
     Davidson diagonalization with overlap
     ethr =  1.18E-09,  avg # of iterations =  2.3

     negative rho (up, down):  3.767E-04 0.000E+00

     total cpu time spent up to now is      132.7 secs

     total energy              =    -979.51269191 Ry
     estimated scf accuracy    <       0.00000043 Ry

     iteration # 14     ecut=    60.00 Ry     beta= 0.70
     Davidson diagonalization with overlap
     ethr =  8.28E-10,  avg # of iterations =  4.0

     negative rho (up, down):  3.767E-04 0.000E+00

     total cpu time spent up to now is      141.8 secs

     total energy              =    -979.51269203 Ry
     estimated scf accuracy    <       0.00000005 Ry

     iteration # 15     ecut=    60.00 Ry     beta= 0.70
     Davidson diagonalization with overlap
     ethr =  9.10E-11,  avg # of iterations =  3.5

     negative rho (up, down):  3.767E-04 0.000E+00

     total cpu time spent up to now is      149.8 secs

     total energy              =    -979.51269201 Ry
     estimated scf accuracy    <       0.00000006 Ry

     iteration # 16     ecut=    60.00 Ry     beta= 0.70
     Davidson diagonalization with overlap
     ethr =  9.10E-11,  avg # of iterations =  3.1

     negative rho (up, down):  3.767E-04 0.000E+00

     total cpu time spent up to now is      158.0 secs

     total energy              =    -979.51269202 Ry
     estimated scf accuracy    <          3.6E-09 Ry

     iteration # 17     ecut=    60.00 Ry     beta= 0.70
     Davidson diagonalization with overlap
     ethr =  6.97E-12,  avg # of iterations =  5.0

     negative rho (up, down):  3.767E-04 0.000E+00

     total cpu time spent up to now is      168.5 secs

     total energy              =    -979.51269202 Ry
     estimated scf accuracy    <          4.6E-10 Ry

     iteration # 18     ecut=    60.00 Ry     beta= 0.70
     Davidson diagonalization with overlap
     ethr =  8.79E-13,  avg # of iterations =  4.6

     negative rho (up, down):  3.767E-04 0.000E+00

     total cpu time spent up to now is      178.6 secs

     total energy              =    -979.51269202 Ry
     estimated scf accuracy    <          2.1E-10 Ry

     iteration # 19     ecut=    60.00 Ry     beta= 0.70
     Davidson diagonalization with overlap
     ethr =  4.10E-13,  avg # of iterations =  4.7

     negative rho (up, down):  3.767E-04 0.000E+00

     total cpu time spent up to now is      188.0 secs

     total energy              =    -979.51269202 Ry
     estimated scf accuracy    <          9.2E-10 Ry

     iteration # 20     ecut=    60.00 Ry     beta= 0.70
     Davidson diagonalization with overlap
     ethr =  4.10E-13,  avg # of iterations =  2.5

     negative rho (up, down):  3.767E-04 0.000E+00

     total cpu time spent up to now is      195.7 secs

     total energy              =    -979.51269202 Ry
     estimated scf accuracy    <          3.9E-10 Ry

     iteration # 21     ecut=    60.00 Ry     beta= 0.70
     Davidson diagonalization with overlap
     ethr =  4.10E-13,  avg # of iterations =  4.5

     negative rho (up, down):  3.767E-04 0.000E+00

     total cpu time spent up to now is      205.2 secs

     End of self-consistent calculation

          k = 0.0000 0.0000 0.0000 ( 11729 PWs)   bands (ev):

   -58.7805 -58.7804 -32.9895 -32.9895 -32.7229 -32.7228 -32.7226 -32.7226
   -12.3215 -12.2562 -10.9924 -10.8812  -4.0195  -3.7051  -0.6693  -0.6679
    -0.6659  -0.6644  -0.3296   0.4474   0.4898   0.4914   0.4920   0.4936
     1.6759   2.1886

          k = 0.0000 0.0985 0.0000 ( 11707 PWs)   bands (ev):

   -58.7773 -58.7773 -32.9836 -32.9836 -32.7525 -32.7525 -32.7296 -32.7296
   -12.2117 -12.1467 -10.9452 -10.8375  -3.8958  -3.5825  -0.9094  -0.9052
    -0.6445  -0.5550  -0.5507  -0.1953   0.3143   0.3207   0.6488   0.9482
     1.6586   2.0999

          k = 0.0000 0.1969 0.0000 ( 11665 PWs)   bands (ev):

   -58.7690 -58.7690 -32.9674 -32.9674 -32.8334 -32.8334 -32.7480 -32.7480
   -11.8987 -11.8352 -10.8108 -10.7133  -3.5815  -3.2794  -1.4600  -1.4568
    -1.2152  -0.9137  -0.2370  -0.2293  -0.0941  -0.0836   0.6689   1.0332
     1.5037   1.7597

          k = 0.0001 0.2954 0.0000 ( 11665 PWs)   bands (ev):

   -58.7576 -58.7576 -32.9452 -32.9452 -32.9425 -32.9425 -32.7730 -32.7730
   -11.4327 -11.3733 -10.6122 -10.5308  -3.3249  -3.0967  -1.9694  -1.9125
    -1.8152  -1.6266  -0.5494  -0.5358   0.2075   0.2215   0.3893   0.7592
     1.1127   1.2469

          k = 0.0001 0.3939 0.0000 ( 11585 PWs)   bands (ev):

   -58.7461 -58.7461 -33.0497 -33.0497 -32.9229 -32.9229 -32.7979 -32.7979
   -10.9039 -10.8536 -10.3915 -10.3305  -3.5094  -3.4082  -2.4703  -2.3172
    -2.0496  -1.9760  -0.9307  -0.9154   0.0638   0.4326   0.6457   0.6713
     0.8583   0.9873

          k = 0.0001 0.4924 0.0000 ( 11602 PWs)   bands (ev):

   -58.7378 -58.7378 -33.1271 -33.1271 -32.9066 -32.9065 -32.8160 -32.8160
   -10.4551 -10.4204 -10.2106 -10.1711  -3.8737  -3.8281  -2.9168  -2.7861
    -2.1626  -2.1313  -1.1777  -1.1616  -0.1354   0.2304   0.9414   0.9802
     1.0312   1.1786

          k =-0.0001-0.5908 0.0000 ( 11612 PWs)   bands (ev):

   -58.7348 -58.7348 -33.1552 -33.1552 -32.9006 -32.9005 -32.8226 -32.8226
   -10.2701 -10.2480 -10.1385 -10.1107  -4.0362  -4.0074  -3.0856  -2.9608
    -2.2449  -2.2289  -1.2627  -1.2463  -0.1970   0.1655   1.0392   1.0840
     1.2103   1.3475

          k = 0.0853 0.0492 0.0000 ( 11703 PWs)   bands (ev):

   -58.7773 -58.7773 -32.9836 -32.9836 -32.7526 -32.7526 -32.7294 -32.7294
   -12.2117 -12.1467 -10.9452 -10.8376  -3.8959  -3.5825  -0.9102  -0.9060
    -0.6448  -0.5542  -0.5498  -0.1959   0.3154   0.3218   0.6481   0.9478
     1.6586   2.0998

          k = 0.0853 0.1477 0.0000 ( 11661 PWs)   bands (ev):

   -58.7717 -58.7715 -32.9726 -32.9725 -32.8064 -32.8064 -32.7436 -32.7436
   -12.0002 -11.9361 -10.8543 -10.7534  -3.6734  -3.3652  -1.2969  -1.2947
    -1.0230  -0.6702  -0.3465  -0.3411  -0.0887  -0.0856   0.8059   1.1369
     1.5755   1.8840

          k = 0.0853 0.2462 0.0000 ( 11632 PWs)   bands (ev):

   -58.7617 -58.7617 -32.9534 -32.9534 -32.8975 -32.8975 -32.7693 -32.7692
   -11.6096 -11.5483 -10.6866 -10.5989  -3.3593  -3.0863  -1.7985  -1.7794
    -1.5163  -1.2735  -0.6909  -0.6448  -0.0204  -0.0094   0.7753   1.0785
     1.3002   1.4416

          k = 0.0853 0.3446 0.0000 ( 11629 PWs)   bands (ev):

   -58.7504 -58.7504 -33.0009 -33.0009 -32.9311 -32.9311 -32.7989 -32.7989
   -11.1083 -11.0535 -10.4735 -10.4039  -3.3211  -3.1709  -2.1788  -2.0410
    -1.9736  -1.8891  -1.1003  -1.0102   0.1994   0.2335   0.4786   0.7646
     1.0349   1.1103

          k = 0.0853 0.4431 0.0000 ( 11618 PWs)   bands (ev):

   -58.7405 -58.7405 -33.0891 -33.0891 -32.9118 -32.9118 -32.8244 -32.8244
   -10.6100 -10.5678 -10.2662 -10.2180  -3.6327  -3.5670  -2.7519  -2.6382
    -2.0447  -1.9932  -1.2665  -1.1905   0.0978   0.3085   0.3230   0.4408
     1.1661   1.2476

          k = 0.0854 0.5416 0.0000 ( 11625 PWs)   bands (ev):

   -58.7348 -58.7348 -33.1395 -33.1395 -32.9006 -32.9006 -32.8392 -32.8391
   -10.2800 -10.2546 -10.1328 -10.1033  -3.8918  -3.8626  -3.1060  -3.0022
    -2.1761  -2.1655  -1.3002  -1.2598  -0.1233   0.1973   0.4421   0.4865
     1.4058   1.5054

          k = 0.0852-0.5416 0.0000 ( 11625 PWs)   bands (ev):

   -58.7348 -58.7348 -33.1395 -33.1395 -32.9006 -32.9006 -32.8392 -32.8391
   -10.2800 -10.2546 -10.1328 -10.1033  -3.8918  -3.8626  -3.1059  -3.0022
    -2.1762  -2.1655  -1.3002  -1.2598  -0.1233   0.1973   0.4420   0.4865
     1.4059   1.5055

          k = 0.0852-0.4431 0.0000 ( 11618 PWs)   bands (ev):

   -58.7405 -58.7405 -33.0891 -33.0891 -32.9118 -32.9118 -32.8244 -32.8244
   -10.6101 -10.5678 -10.2662 -10.2180  -3.6327  -3.5669  -2.7518  -2.6382
    -2.0447  -1.9932  -1.2665  -1.1905   0.0978   0.3084   0.3229   0.4407
     1.1662   1.2478

          k = 0.0852-0.3447 0.0000 ( 11629 PWs)   bands (ev):

   -58.7504 -58.7504 -33.0009 -33.0009 -32.9311 -32.9311 -32.7989 -32.7989
   -11.1083 -11.0536 -10.4735 -10.4040  -3.3211  -3.1709  -2.1787  -2.0409
    -1.9736  -1.8890  -1.1004  -1.0103   0.1992   0.2334   0.4786   0.7646
     1.0350   1.1103

          k = 0.0852-0.2462 0.0000 ( 11632 PWs)   bands (ev):

   -58.7618 -58.7617 -32.9534 -32.9534 -32.8975 -32.8975 -32.7692 -32.7692
   -11.6096 -11.5483 -10.6867 -10.5989  -3.3593  -3.0863  -1.7985  -1.7794
    -1.5162  -1.2735  -0.6908  -0.6448  -0.0204  -0.0094   0.7753   1.0785
     1.3001   1.4415

          k = 0.0852-0.1477 0.0000 ( 11663 PWs)   bands (ev):

   -58.7717 -58.7716 -32.9726 -32.9726 -32.8065 -32.8064 -32.7436 -32.7436
   -12.0002 -11.9361 -10.8543 -10.7535  -3.6734  -3.3652  -1.2970  -1.2948
    -1.0231  -0.6703  -0.3463  -0.3409  -0.0885  -0.0854   0.8058   1.1368
     1.5754   1.8839

          k = 0.0853-0.0492 0.0000 ( 11703 PWs)   bands (ev):

   -58.7773 -58.7773 -32.9836 -32.9836 -32.7527 -32.7527 -32.7294 -32.7294
   -12.2117 -12.1467 -10.9452 -10.8376  -3.8959  -3.5825  -0.9105  -0.9062
    -0.6449  -0.5539  -0.5495  -0.1961   0.3157   0.3222   0.6479   0.9476
     1.6585   2.0998

          k = 0.1706 0.0984 0.0000 ( 11661 PWs)   bands (ev):

   -58.7690 -58.7690 -32.9674 -32.9674 -32.8336 -32.8336 -32.7478 -32.7478
   -11.8987 -11.8352 -10.8109 -10.7134  -3.5816  -3.2795  -1.4605  -1.4573
    -1.2157  -0.9143  -0.2361  -0.2285  -0.0930  -0.0824   0.6685   1.0329
     1.5034   1.7593

          k = 0.1706 0.1969 0.0000 ( 11632 PWs)   bands (ev):

   -58.7618 -58.7617 -32.9534 -32.9534 -32.8975 -32.8975 -32.7691 -32.7691
   -11.6097 -11.5484 -10.6867 -10.5990  -3.3593  -3.0863  -1.7988  -1.7797
    -1.5167  -1.2740  -0.6902  -0.6440  -0.0200  -0.0089   0.7753   1.0784
     1.2999   1.4414

          k = 0.1706 0.2954 0.0000 ( 11623 PWs)   bands (ev):

   -58.7519 -58.7518 -32.9759 -32.9759 -32.9341 -32.9341 -32.8064 -32.8064
   -11.1810 -11.1248 -10.5018 -10.4292  -3.2288  -3.0493  -2.0077  -1.9130
    -1.8400  -1.7603  -1.3837  -1.2476  -0.0307  -0.0008   0.7877   1.0161
     1.1270   1.1411

          k = 0.1706 0.3939 0.0000 ( 11617 PWs)   bands (ev):

   -58.7420 -58.7420 -33.0494 -33.0494 -32.9148 -32.9148 -32.8476 -32.8476
   -10.6997 -10.6534 -10.2940 -10.2406  -3.3771  -3.2839  -2.5791  -2.5308
    -1.8860  -1.7846  -1.5183  -1.3531  -0.3528  -0.3179   0.4857   0.6800
     1.1749   1.2228

          k = 0.1706 0.4923 0.0000 ( 11628 PWs)   bands (ev):

   -58.7348 -58.7348 -33.1013 -33.1013 -32.9006 -32.9006 -32.8790 -32.8790
   -10.2989 -10.2681 -10.1213 -10.0886  -3.5630  -3.5154  -3.1377  -3.0832
    -1.9889  -1.9460  -1.4117  -1.2904  -0.4860  -0.4207   0.0796   0.2905
     1.4252   1.4884

          k = 0.1706 0.5908 0.0000 ( 11620 PWs)   bands (ev):

   -58.7322 -58.7321 -33.1200 -33.1200 -32.8954 -32.8954 -32.8907 -32.8907
   -10.1363 -10.1178 -10.0515 -10.0309  -3.6201  -3.6149  -3.3418  -3.2853
    -2.1211  -2.0922  -1.3066  -1.2349  -0.4808  -0.4000  -0.1247   0.1082
     1.5999   1.6793

          k = 0.1704-0.4924 0.0000 ( 11628 PWs)   bands (ev):

   -58.7348 -58.7348 -33.1013 -33.1013 -32.9006 -32.9006 -32.8790 -32.8790
   -10.2989 -10.2682 -10.1214 -10.0887  -3.5629  -3.5153  -3.1376  -3.0831
    -1.9889  -1.9460  -1.4117  -1.2904  -0.4861  -0.4208   0.0795   0.2905
     1.4254   1.4885

          k = 0.1705-0.3939 0.0000 ( 11617 PWs)   bands (ev):

   -58.7420 -58.7420 -33.0494 -33.0494 -32.9148 -32.9148 -32.8475 -32.8475
   -10.6998 -10.6535 -10.2941 -10.2407  -3.3770  -3.2838  -2.5790  -2.5307
    -1.8859  -1.7846  -1.5183  -1.3531  -0.3530  -0.3181   0.4856   0.6800
     1.1751   1.2230

          k = 0.1705-0.2954 0.0000 ( 11623 PWs)   bands (ev):

   -58.7519 -58.7518 -32.9759 -32.9759 -32.9341 -32.9341 -32.8064 -32.8064
   -11.1811 -11.1248 -10.5019 -10.4293  -3.2288  -3.0493  -2.0076  -1.9130
    -1.8399  -1.7602  -1.3836  -1.2476  -0.0308  -0.0009   0.7876   1.0161
     1.1270   1.1411

          k = 0.1705-0.1970 0.0000 ( 11632 PWs)   bands (ev):

   -58.7618 -58.7617 -32.9534 -32.9534 -32.8976 -32.8976 -32.7691 -32.7691
   -11.6097 -11.5484 -10.6868 -10.5990  -3.3593  -3.0863  -1.7989  -1.7798
    -1.5168  -1.2741  -0.6900  -0.6437  -0.0198  -0.0088   0.7753   1.0784
     1.2998   1.4413

          k = 0.1705-0.0985 0.0000 ( 11661 PWs)   bands (ev):

   -58.7690 -58.7690 -32.9675 -32.9674 -32.8336 -32.8336 -32.7477 -32.7477
   -11.8988 -11.8353 -10.8109 -10.7135  -3.5816  -3.2795  -1.4607  -1.4575
    -1.2159  -0.9145  -0.2359  -0.2282  -0.0926  -0.0820   0.6684   1.0328
     1.5033   1.7592

          k = 0.1705-0.0000 0.0000 ( 11661 PWs)   bands (ev):

   -58.7717 -58.7716 -32.9726 -32.9726 -32.8066 -32.8066 -32.7434 -32.7434
   -12.0002 -11.9361 -10.8544 -10.7535  -3.6734  -3.3653  -1.2974  -1.2952
    -1.0234  -0.6707  -0.3457  -0.3403  -0.0878  -0.0847   0.8056   1.1367
     1.5752   1.8837

          k = 0.2558 0.1477 0.0000 ( 11663 PWs)   bands (ev):

   -58.7577 -58.7576 -32.9453 -32.9452 -32.9426 -32.9426 -32.7728 -32.7728
   -11.4329 -11.3735 -10.6125 -10.5310  -3.3249  -3.0967  -1.9699  -1.9130
    -1.8157  -1.6271  -0.5481  -0.5345   0.2083   0.2223   0.3891   0.7590
     1.1121   1.2464

          k = 0.2558 0.2461 0.0000 ( 11629 PWs)   bands (ev):

   -58.7504 -58.7504 -33.0010 -33.0009 -32.9311 -32.9311 -32.7987 -32.7987
   -11.1084 -11.0537 -10.4737 -10.4042  -3.3211  -3.1709  -2.1792  -2.0414
    -1.9741  -1.8895  -1.0994  -1.0092   0.1999   0.2341   0.4786   0.7645
     1.0346   1.1100

          k = 0.2559 0.3446 0.0000 ( 11618 PWs)   bands (ev):

   -58.7420 -58.7420 -33.0495 -33.0495 -32.9148 -32.9148 -32.8475 -32.8475
   -10.6998 -10.6535 -10.2941 -10.2408  -3.3771  -3.2840  -2.5792  -2.5308
    -1.8862  -1.7848  -1.5180  -1.3528  -0.3524  -0.3176   0.4856   0.6800
     1.1748   1.2228

          k = 0.2559 0.4431 0.0000 ( 11593 PWs)   bands (ev):

   -58.7348 -58.7348 -33.0758 -33.0758 -32.9052 -32.9052 -32.9006 -32.9006
   -10.3080 -10.2750 -10.1157 -10.0814  -3.3722  -3.2985  -3.1418  -3.1302
    -1.7636  -1.6597  -1.4716  -1.3074  -1.0534  -1.0520   0.2083   0.3368
     1.4125   1.4412

          k = 0.2559 0.5416 0.0000 ( 11596 PWs)   bands (ev):

   -58.7306 -58.7306 -33.0812 -33.0811 -32.9485 -32.9485 -32.8925 -32.8925
   -10.0594 -10.0424  -9.9977  -9.9824  -3.5116  -3.4919  -3.2304  -3.1841
    -2.0164  -1.9252  -1.3790  -1.2844  -1.2427  -1.1235  -0.1404  -0.0241
     1.7308   1.7606

          k = 0.2559 0.6400 0.0000 ( 11596 PWs)   bands (ev):

   -58.7306 -58.7306 -33.0811 -33.0811 -32.9485 -32.9485 -32.8925 -32.8925
   -10.0595 -10.0424  -9.9978  -9.9824  -3.5115  -3.4918  -3.2303  -3.1840
    -2.0164  -1.9252  -1.3790  -1.2844  -1.2427  -1.1234  -0.1404  -0.0241
     1.7309   1.7606

          k = 0.2557-0.4432 0.0000 ( 11595 PWs)   bands (ev):

   -58.7348 -58.7348 -33.0758 -33.0758 -32.9052 -32.9052 -32.9006 -32.9006
   -10.3081 -10.2751 -10.1158 -10.0815  -3.3720  -3.2984  -3.1416  -3.1300
    -1.7636  -1.6597  -1.4715  -1.3073  -1.0536  -1.0521   0.2082   0.3367
     1.4127   1.4414

          k = 0.2557-0.3447 0.0000 ( 11620 PWs)   bands (ev):

   -58.7420 -58.7420 -33.0495 -33.0495 -32.9148 -32.9148 -32.8474 -32.8474
   -10.6999 -10.6536 -10.2942 -10.2409  -3.3770  -3.2839  -2.5791  -2.5307
    -1.8862  -1.7849  -1.5178  -1.3527  -0.3525  -0.3176   0.4856   0.6800
     1.1750   1.2229

          k = 0.2558-0.2462 0.0000 ( 11633 PWs)   bands (ev):

   -58.7504 -58.7504 -33.0010 -33.0010 -32.9311 -32.9311 -32.7987 -32.7987
   -11.1085 -11.0537 -10.4738 -10.4043  -3.3211  -3.1709  -2.1792  -2.0414
    -1.9742  -1.8896  -1.0991  -1.0089   0.2000   0.2342   0.4786   0.7645
     1.0346   1.1100

          k = 0.2558-0.1477 0.0000 ( 11665 PWs)   bands (ev):

   -58.7577 -58.7576 -32.9453 -32.9452 -32.9426 -32.9426 -32.7727 -32.7727
   -11.4329 -11.3735 -10.6125 -10.5311  -3.3249  -3.0967  -1.9700  -1.9132
    -1.8158  -1.6272  -0.5477  -0.5341   0.2086   0.2226   0.3890   0.7589
     1.1119   1.2462

          k = 0.2558-0.0493 0.0000 ( 11632 PWs)   bands (ev):

   -58.7618 -58.7617 -32.9534 -32.9534 -32.8976 -32.8976 -32.7690 -32.7690
   -11.6098 -11.5485 -10.6869 -10.5992  -3.3594  -3.0864  -1.7988  -1.7798
    -1.5167  -1.2740  -0.6898  -0.6436  -0.0197  -0.0087   0.7752   1.0784
     1.2997   1.4412

          k = 0.2558 0.0492 0.0000 ( 11632 PWs)   bands (ev):

   -58.7618 -58.7617 -32.9534 -32.9534 -32.8976 -32.8976 -32.7691 -32.7690
   -11.6098 -11.5485 -10.6869 -10.5991  -3.3594  -3.0864  -1.7987  -1.7797
    -1.5166  -1.2738  -0.6900  -0.6439  -0.0199  -0.0088   0.7752   1.0784
     1.2998   1.4412

          k = 0.3411 0.1969 0.0000 ( 11583 PWs)   bands (ev):

   -58.7461 -58.7461 -33.0497 -33.0497 -32.9230 -32.9229 -32.7976 -32.7976
   -10.9041 -10.8538 -10.3919 -10.3309  -3.5094  -3.4082  -2.4705  -2.3174
    -2.0500  -1.9764  -0.9293  -0.9141   0.0634   0.4322   0.6466   0.6722
     0.8577   0.9868

          k = 0.3411 0.2954 0.0000 ( 11618 PWs)   bands (ev):

   -58.7405 -58.7405 -33.0892 -33.0892 -32.9118 -32.9118 -32.8242 -32.8242
   -10.6102 -10.5680 -10.2666 -10.2184  -3.6329  -3.5672  -2.7519  -2.6382
    -2.0450  -1.9935  -1.2655  -1.1894   0.0976   0.3090   0.3233   0.4409
     1.1659   1.2474

          k = 0.3411 0.3938 0.0000 ( 11626 PWs)   bands (ev):

   -58.7348 -58.7348 -33.1014 -33.1014 -32.9006 -32.9006 -32.8788 -32.8788
   -10.2991 -10.2683 -10.1217 -10.0889  -3.5632  -3.5156  -3.1375  -3.0829
    -1.9891  -1.9460  -1.4112  -1.2899  -0.4854  -0.4202   0.0794   0.2904
     1.4250   1.4881

          k = 0.3412 0.4923 0.0000 ( 11594 PWs)   bands (ev):

   -58.7306 -58.7306 -33.0812 -33.0812 -32.9484 -32.9484 -32.8925 -32.8925
   -10.0595 -10.0424  -9.9979  -9.9825  -3.5114  -3.4917  -3.2305  -3.1842
    -2.0165  -1.9253  -1.3786  -1.2841  -1.2425  -1.1232  -0.1406  -0.0242
     1.7308   1.7604

          k = 0.3412 0.5908 0.0000 ( 11595 PWs)   bands (ev):

   -58.7291 -58.7290 -33.0488 -33.0488 -32.9989 -32.9989 -32.8895 -32.8895
    -9.9638  -9.9638  -9.9448  -9.9448  -3.6563  -3.6563  -2.8286  -2.7590
    -2.2789  -2.2789  -1.6460  -1.6459  -1.0845  -0.9600  -0.2794  -0.2793
     1.9418   1.9418

          k = 0.3412 0.6892 0.0000 ( 11594 PWs)   bands (ev):

   -58.7306 -58.7306 -33.0812 -33.0812 -32.9484 -32.9483 -32.8925 -32.8925
   -10.0596 -10.0425  -9.9980  -9.9826  -3.5113  -3.4916  -3.2304  -3.1841
    -2.0166  -1.9253  -1.3785  -1.2840  -1.2423  -1.1231  -0.1407  -0.0243
     1.7308   1.7605

          k = 0.3410-0.3939 0.0000 ( 11626 PWs)   bands (ev):

   -58.7348 -58.7348 -33.1014 -33.1014 -32.9006 -32.9006 -32.8788 -32.8788
   -10.2992 -10.2684 -10.1218 -10.0891  -3.5631  -3.5155  -3.1373  -3.0828
    -1.9892  -1.9461  -1.4110  -1.2897  -0.4853  -0.4201   0.0793   0.2903
     1.4251   1.4882

          k = 0.3410-0.2955 0.0000 ( 11618 PWs)   bands (ev):

   -58.7405 -58.7405 -33.0892 -33.0892 -32.9118 -32.9118 -32.8242 -32.8242
   -10.6104 -10.5681 -10.2668 -10.2185  -3.6329  -3.5672  -2.7518  -2.6381
    -2.0451  -1.9936  -1.2652  -1.1891   0.0975   0.3090   0.3233   0.4408
     1.1660   1.2475

          k = 0.3410-0.1970 0.0000 ( 11583 PWs)   bands (ev):

   -58.7461 -58.7461 -33.0498 -33.0498 -32.9230 -32.9230 -32.7976 -32.7976
   -10.9042 -10.8539 -10.3920 -10.3310  -3.5094  -3.4082  -2.4705  -2.3174
    -2.0501  -1.9765  -0.9289  -0.9136   0.0633   0.4321   0.6470   0.6726
     0.8575   0.9866

          k = 0.3410-0.0985 0.0000 ( 11629 PWs)   bands (ev):

   -58.7504 -58.7504 -33.0010 -33.0009 -32.9311 -32.9311 -32.7986 -32.7986
   -11.1086 -11.0538 -10.4739 -10.4044  -3.3210  -3.1708  -2.1790  -2.0412
    -1.9740  -1.8894  -1.0991  -1.0090   0.1996   0.2338   0.4786   0.7645
     1.0348   1.1102

          k = 0.3411-0.0000 0.0000 ( 11625 PWs)   bands (ev):

   -58.7519 -58.7518 -32.9759 -32.9759 -32.9341 -32.9341 -32.8063 -32.8063
   -11.1812 -11.1250 -10.5022 -10.4296  -3.2287  -3.0492  -2.0075  -1.9128
    -1.8397  -1.7599  -1.3834  -1.2475  -0.0311  -0.0012   0.7876   1.0161
     1.1272   1.1413

          k = 0.3411 0.0984 0.0000 ( 11629 PWs)   bands (ev):

   -58.7504 -58.7504 -33.0009 -33.0009 -32.9311 -32.9311 -32.7987 -32.7987
   -11.1086 -11.0538 -10.4739 -10.4043  -3.3210  -3.1708  -2.1789  -2.0411
    -1.9738  -1.8893  -1.0995  -1.0093   0.1994   0.2336   0.4786   0.7645
     1.0349   1.1103

          k = 0.4264 0.2461 0.0000 ( 11602 PWs)   bands (ev):

   -58.7378 -58.7378 -33.1272 -33.1271 -32.9066 -32.9066 -32.8158 -32.8158
   -10.4554 -10.4207 -10.2112 -10.1716  -3.8738  -3.8283  -2.9166  -2.7859
    -2.1628  -2.1314  -1.1763  -1.1601  -0.1360   0.2299   0.9425   0.9813
     1.0305   1.1779

          k = 0.4264 0.3446 0.0000 ( 11625 PWs)   bands (ev):

   -58.7349 -58.7348 -33.1396 -33.1396 -32.9006 -32.9006 -32.8389 -32.8389
   -10.2803 -10.2549 -10.1333 -10.1038  -3.8921  -3.8629  -3.1057  -3.0019
    -2.1762  -2.1656  -1.2990  -1.2586  -0.1238   0.1969   0.4428   0.4871
     1.4055   1.5051

          k = 0.4264 0.4431 0.0000 ( 11618 PWs)   bands (ev):

   -58.7322 -58.7321 -33.1201 -33.1201 -32.8954 -32.8954 -32.8905 -32.8905
   -10.1366 -10.1180 -10.0519 -10.0313  -3.6203  -3.6150  -3.3414  -3.2849
    -2.1212  -2.0922  -1.3059  -1.2342  -0.4803  -0.3995  -0.1252   0.1078
     1.5997   1.6791

          k = 0.4264 0.5415 0.0000 ( 11594 PWs)   bands (ev):

   -58.7306 -58.7306 -33.0812 -33.0812 -32.9484 -32.9484 -32.8925 -32.8925
   -10.0597 -10.0426  -9.9981  -9.9827  -3.5112  -3.4915  -3.2302  -3.1839
    -2.0166  -1.9254  -1.3788  -1.2842  -1.2423  -1.1231  -0.1408  -0.0244
     1.7311   1.7608

          k = 0.4264 0.6400 0.0000 ( 11594 PWs)   bands (ev):

   -58.7306 -58.7306 -33.0812 -33.0812 -32.9483 -32.9483 -32.8925 -32.8925
   -10.0597 -10.0426  -9.9981  -9.9827  -3.5111  -3.4914  -3.2302  -3.1839
    -2.0167  -1.9254  -1.3786  -1.2841  -1.2423  -1.1230  -0.1409  -0.0244
     1.7311   1.7607

          k = 0.4265 0.7385 0.0000 ( 11616 PWs)   bands (ev):

   -58.7322 -58.7321 -33.1201 -33.1201 -32.8954 -32.8954 -32.8904 -32.8904
   -10.1367 -10.1181 -10.0521 -10.0315  -3.6203  -3.6151  -3.3413  -3.2847
    -2.1212  -2.0922  -1.3056  -1.2339  -0.4801  -0.3994  -0.1253   0.1077
     1.5997   1.6791

          k = 0.4263-0.3447 0.0000 ( 11625 PWs)   bands (ev):

   -58.7349 -58.7348 -33.1396 -33.1396 -32.9006 -32.9006 -32.8389 -32.8389
   -10.2804 -10.2550 -10.1335 -10.1040  -3.8921  -3.8630  -3.1055  -3.0018
    -2.1762  -2.1656  -1.2986  -1.2582  -0.1240   0.1967   0.4430   0.4873
     1.4055   1.5050

          k = 0.4263-0.2462 0.0000 ( 11602 PWs)   bands (ev):

   -58.7379 -58.7378 -33.1272 -33.1272 -32.9066 -32.9066 -32.8157 -32.8157
   -10.4555 -10.4208 -10.2114 -10.1718  -3.8739  -3.8284  -2.9165  -2.7858
    -2.1628  -2.1315  -1.1758  -1.1597  -0.1362   0.2298   0.9429   0.9817
     1.0302   1.1777

          k = 0.4263-0.1478 0.0000 ( 11618 PWs)   bands (ev):

   -58.7405 -58.7405 -33.0892 -33.0891 -32.9118 -32.9118 -32.8242 -32.8242
   -10.6104 -10.5682 -10.2669 -10.2186  -3.6327  -3.5670  -2.7516  -2.6379
    -2.0451  -1.9936  -1.2651  -1.1891   0.0974   0.3087   0.3231   0.4406
     1.1664   1.2479

          k = 0.4263-0.0493 0.0000 ( 11616 PWs)   bands (ev):

   -58.7420 -58.7420 -33.0494 -33.0494 -32.9148 -32.9148 -32.8474 -32.8474
   -10.7001 -10.6538 -10.2945 -10.2411  -3.3768  -3.2836  -2.5787  -2.5302
    -1.8861  -1.7847  -1.5178  -1.3526  -0.3531  -0.3182   0.4854   0.6799
     1.1755   1.2234

          k = 0.4263 0.0492 0.0000 ( 11616 PWs)   bands (ev):

   -58.7420 -58.7420 -33.0494 -33.0494 -32.9148 -32.9148 -32.8474 -32.8474
   -10.7001 -10.6537 -10.2944 -10.2411  -3.3767  -3.2836  -2.5786  -2.5302
    -1.8860  -1.7847  -1.5180  -1.3528  -0.3532  -0.3183   0.4854   0.6799
     1.1755   1.2234

          k = 0.4264 0.1476 0.0000 ( 11618 PWs)   bands (ev):

   -58.7405 -58.7405 -33.0891 -33.0891 -32.9118 -32.9118 -32.8242 -32.8242
   -10.6104 -10.5681 -10.2667 -10.2185  -3.6326  -3.5669  -2.7516  -2.6379
    -2.0450  -1.9935  -1.2655  -1.1895   0.0974   0.3086   0.3230   0.4406
     1.1664   1.2479

          k =-0.5117-0.2953 0.0000 ( 11612 PWs)   bands (ev):

   -58.7348 -58.7348 -33.1553 -33.1553 -32.9006 -32.9006 -32.8224 -32.8224
   -10.2704 -10.2483 -10.1391 -10.1113  -4.0365  -4.0077  -3.0853  -2.9604
    -2.2449  -2.2290  -1.2613  -1.2449  -0.1977   0.1649   1.0405   1.0852
     1.2094   1.3468

          k =-0.5116-0.1969 0.0000 ( 11623 PWs)   bands (ev):

   -58.7349 -58.7348 -33.1396 -33.1396 -32.9006 -32.9006 -32.8389 -32.8389
   -10.2803 -10.2549 -10.1334 -10.1039  -3.8919  -3.8628  -3.1056  -3.0018
    -2.1762  -2.1656  -1.2990  -1.2586  -0.1239   0.1968   0.4426   0.4869
     1.4058   1.5053

          k =-0.5116-0.0984 0.0000 ( 11624 PWs)   bands (ev):

   -58.7348 -58.7348 -33.1013 -33.1013 -32.9006 -32.9006 -32.8788 -32.8788
   -10.2992 -10.2684 -10.1219 -10.0891  -3.5628  -3.5151  -3.1371  -3.0826
    -1.9892  -1.9461  -1.4111  -1.2898  -0.4859  -0.4206   0.0792   0.2902
     1.4256   1.4887

          k =-0.5116 0.0001 0.0000 ( 11595 PWs)   bands (ev):

   -58.7348 -58.7348 -33.0758 -33.0758 -32.9052 -32.9052 -32.9007 -32.9007
   -10.3084 -10.2753 -10.1161 -10.0818  -3.3717  -3.2980  -3.1412  -3.1296
    -1.7636  -1.6596  -1.4713  -1.3071  -1.0540  -1.0525   0.2080   0.3366
     1.4131   1.4419

          k =-0.5116 0.0985 0.0000 ( 11624 PWs)   bands (ev):

   -58.7348 -58.7348 -33.1014 -33.1014 -32.9007 -32.9006 -32.8788 -32.8788
   -10.2993 -10.2685 -10.1220 -10.0892  -3.5628  -3.5152  -3.1371  -3.0825
    -1.9892  -1.9461  -1.4109  -1.2896  -0.4857  -0.4204   0.0791   0.2901
     1.4255   1.4887

          k =-0.5116 0.1970 0.0000 ( 11623 PWs)   bands (ev):

   -58.7349 -58.7348 -33.1396 -33.1396 -32.9006 -32.9006 -32.8389 -32.8389
   -10.2804 -10.2550 -10.1336 -10.1041  -3.8920  -3.8629  -3.1055  -3.0017
    -2.1762  -2.1656  -1.2986  -1.2582  -0.1241   0.1967   0.4428   0.4872
     1.4057   1.5052

          k =-0.5118-0.8862 0.0000 ( 11612 PWs)   bands (ev):

   -58.7348 -58.7348 -33.1553 -33.1553 -32.9006 -32.9006 -32.8223 -32.8223
   -10.2705 -10.2485 -10.1393 -10.1115  -4.0366  -4.0078  -3.0852  -2.9603
    -2.2449  -2.2290  -1.2608  -1.2444  -0.1979   0.1647   1.0409   1.0856
     1.2091   1.3465

     highest occupied level (ev):     2.1886

!    total energy              =    -979.51269202 Ry

     total all-electron energy =    -19376.428383 Ry
     estimated scf accuracy    <          1.2E-13 Ry

     The total energy is the sum of the following terms:
     one-electron contribution =   -2744.82555397 Ry
     hartree contribution      =    1383.04741387 Ry
     xc contribution           =     -59.05239623 Ry
     ewald contribution        =    1067.10016372 Ry
     one-center paw contrib.   =    -625.78231940 Ry

     convergence has been achieved in  21 iterations

     negative rho (up, down):  3.767E-04 0.000E+00

     Forces acting on atoms (cartesian axes, Ry/au):

     atom    1 type  1   force =     0.00001345   -0.00005889   -0.00002414
     atom    2 type  2   force =    -0.00000580    0.00002567   -0.00045230
     atom    3 type  2   force =    -0.00000775    0.00003362    0.00044211
     atom    4 type  1   force =    -0.00001345    0.00005889    0.00002414
     atom    5 type  2   force =     0.00000775   -0.00003362   -0.00044211
     atom    6 type  2   force =     0.00000580   -0.00002567    0.00045230

     Total force =     0.000901     Total SCF correction =     0.000001


     Computing stress (Cartesian axis) and pressure


     negative rho (up, down):  3.767E-04 0.000E+00
          total   stress  (Ry/bohr**3)                   (kbar)     P=       -0.85
  -0.00000237   0.00000009   0.00000001           -0.35        0.01        0.00
   0.00000009  -0.00000169  -0.00000004            0.01       -0.25       -0.01
   0.00000001  -0.00000004  -0.00001332            0.00       -0.01       -1.96


     Writing output data file /scratch/as3359/MoS2_loop/Ta.save/
 
     init_run     :     10.50s CPU      5.63s WALL (       1 calls)
     electrons    :    390.53s CPU    199.42s WALL (       1 calls)
     forces       :      3.00s CPU      1.54s WALL (       1 calls)
     stress       :      9.41s CPU      4.81s WALL (       1 calls)

     Called by init_run:
     wfcinit      :      7.26s CPU      3.73s WALL (       1 calls)
     potinit      :      0.96s CPU      0.49s WALL (       1 calls)
     hinit0       :      1.96s CPU      1.22s WALL (       1 calls)

     Called by electrons:
     c_bands      :    326.90s CPU    165.74s WALL (      22 calls)
     sum_band     :     52.72s CPU     27.47s WALL (      22 calls)
     v_of_rho     :      2.03s CPU      1.13s WALL (      22 calls)
     newd         :      3.63s CPU      2.37s WALL (      22 calls)
     PAW_pot      :      4.86s CPU      2.51s WALL (      22 calls)
     mix_rho      :      0.54s CPU      0.29s WALL (      22 calls)

     Called by c_bands:
     init_us_2    :      6.67s CPU      3.36s WALL (    3478 calls)
     cegterg      :    310.33s CPU    157.33s WALL (    1628 calls)

     Called by *egterg:
     cdiaghg      :      9.35s CPU      4.79s WALL (    7681 calls)
     h_psi        :    255.09s CPU    129.54s WALL (    7829 calls)
     s_psi        :      9.60s CPU      4.82s WALL (    7829 calls)
     g_psi        :      1.83s CPU      0.92s WALL (    6127 calls)

     Called by h_psi:
     h_psi:calbec :      9.29s CPU      4.68s WALL (    7829 calls)
     vloc_psi     :    232.51s CPU    118.18s WALL (    7829 calls)
     add_vuspsi   :     11.41s CPU      5.74s WALL (    7829 calls)

     General routines
     calbec       :     12.18s CPU      6.15s WALL (    9827 calls)
     fft          :      0.91s CPU      0.47s WALL (     310 calls)
     ffts         :      0.10s CPU      0.06s WALL (      44 calls)
     fftw         :    240.35s CPU    122.14s WALL (  287350 calls)
     interpolate  :      0.18s CPU      0.11s WALL (      22 calls)
 
     Parallel routines
 
     PWSCF        :   6m54.96s CPU   3m32.77s WALL

 
   This run was terminated on:  20: 8:15   8Apr2022            

=------------------------------------------------------------------------------=
   JOB DONE.
=------------------------------------------------------------------------------=
