
     Program PWSCF v.6.8 starts on  7Apr2022 at 15: 4:45 

     This program is part of the open-source Quantum ESPRESSO suite
     for quantum simulation of materials; please cite
         "P. Giannozzi et al., J. Phys.:Condens. Matter 21 395502 (2009);
         "P. Giannozzi et al., J. Phys.:Condens. Matter 29 465901 (2017);
         "P. Giannozzi et al., J. Chem. Phys. 152 154105 (2020);
          URL http://www.quantum-espresso.org", 
     in publications or presentations arising from this work. More details at
     http://www.quantum-espresso.org/quote

     Parallel version (MPI & OpenMP), running on       4 processor cores
     Number of MPI processes:                 2
     Threads/MPI process:                     2

     MPI processes distributed on     1 nodes
     R & G space division:  proc/nbgrp/npool/nimage =       2
     124110 MiB available memory on the printing compute node when the environment starts
 
     Reading input from Ta2CH2.scf.105.in

     Current dimensions of program PWSCF are:
     Max number of different atomic species (ntypx) = 10
     Max number of k-points (npk) =  40000
     Max angular momentum in pseudopotentials (lmaxx) =  4
     file Ta.pbesol-spfn-rrkjus_psl.1.0.0.UPF: wavefunction(s)  5S 5P renormalized

     Subspace diagonalization in iterative solution of the eigenvalue problem:
     a serial algorithm will be used

 
     Parallelization info
     --------------------
     sticks:   dense  smooth     PW     G-vecs:    dense   smooth      PW
     Min         462     462    141               111548   111548   18953
     Max         463     463    142               111567   111567   18986
     Sum         925     925    283               223115   223115   37939
 
     Using Slab Decomposition
 


     bravais-lattice index     =            0
     lattice parameter (alat)  =       5.5500  a.u.
     unit-cell volume          =    1533.2393 (a.u.)^3
     number of atoms/cell      =            5
     number of atomic types    =            3
     number of electrons       =        60.00
     number of Kohn-Sham states=           36
     kinetic-energy cutoff     =     105.0000  Ry
     charge density cutoff     =     420.0000  Ry
     scf convergence threshold =      1.0E-12
     mixing beta               =       0.7000
     number of iterations used =            8  plain     mixing
     Exchange-correlation= PBESOL
                           (   1   4  10   8   0   0   0)

     celldm(1)=   5.550000  celldm(2)=   0.000000  celldm(3)=   0.000000
     celldm(4)=   0.000000  celldm(5)=   0.000000  celldm(6)=   0.000000

     crystal axes: (cart. coord. in units of alat)
               a(1) = (   1.017295  -0.000177   0.000000 )  
               a(2) = (  -0.508801   0.881714   0.000000 )  
               a(3) = (   0.000000   0.000000  10.000000 )  

     reciprocal axes: (cart. coord. in units 2 pi/alat)
               b(1) = (  0.983098  0.567305  0.000000 )  
               b(2) = (  0.000198  1.134269  0.000000 )  
               b(3) = (  0.000000  0.000000  0.100000 )  


     PseudoPot. # 1 for Ta read from file:
     /shared/home/as3359/pseudo/Ta.pbesol-spfn-rrkjus_psl.1.0.0.UPF
     MD5 check sum: f099565ffaca9b150a52e9412a28e20b
     Pseudo is Ultrasoft + core correction, Zval = 27.0
     Generated using &quot;atomic&quot; code by A. Dal Corso  v.6.3
     Using radial grid of 1273 points,  8 beta functions with: 
                l(1) =   0
                l(2) =   0
                l(3) =   1
                l(4) =   1
                l(5) =   2
                l(6) =   2
                l(7) =   3
                l(8) =   3
     Q(r) pseudized with 0 coefficients 


     PseudoPot. # 2 for C  read from file:
     /shared/home/as3359/pseudo/C.pbesol-n-rrkjus_psl.1.0.0.UPF
     MD5 check sum: 05995be603a8a7c99da3dc4413f31573
     Pseudo is Ultrasoft + core correction, Zval =  4.0
     Generated using &quot;atomic&quot; code by A. Dal Corso  v.6.3MaX
     Using radial grid of 1073 points,  4 beta functions with: 
                l(1) =   0
                l(2) =   0
                l(3) =   1
                l(4) =   1
     Q(r) pseudized with 0 coefficients 


     PseudoPot. # 3 for H  read from file:
     /shared/home/as3359/pseudo/H.pbesol-rrkjus_psl.0.1.UPF
     MD5 check sum: 1dbb1a5c48b1283557b8117eb856a7ca
     Pseudo is Ultrasoft, Zval =  1.0
     Generated using "atomic" code by A. Dal Corso  v.5.0.2 svn rev. 9415
     Using radial grid of  929 points,  2 beta functions with: 
                l(1) =   0
                l(2) =   0
     Q(r) pseudized with 0 coefficients 


     atomic species   valence    mass     pseudopotential
        Ta            27.00   180.94788     Ta( 1.00)
        C              4.00    12.01070     C ( 1.00)
        H              1.00     1.00000     H ( 1.00)

     No symmetry found



   Cartesian axes

     site n.     atom                  positions (alat units)
         1           C   tau(   1) = (   0.0000000   0.0000000   0.0000000  )
         2           Ta  tau(   2) = (   0.5088008   0.2948413  -0.4364511  )
         3           Ta  tau(   3) = (  -0.0007447   0.5869407   0.4364532  )
         4           H   tau(   4) = (  -0.0017928  -0.0015314   0.8341930  )
         5           H   tau(   5) = (   0.0002769   0.0024412  -0.8341930  )

     number of k points=    74  Marzari-Vanderbilt smearing, width (Ry)=  0.0010
                       cart. coord. in units 2pi/alat
        k(    1) = (   0.0000000   0.0000000   0.0000000), wk =   0.0138889
        k(    2) = (   0.0000165   0.0945224   0.0000000), wk =   0.0277778
        k(    3) = (   0.0000329   0.1890448   0.0000000), wk =   0.0277778
        k(    4) = (   0.0000494   0.2835672   0.0000000), wk =   0.0277778
        k(    5) = (   0.0000659   0.3780896   0.0000000), wk =   0.0277778
        k(    6) = (   0.0000823   0.4726120   0.0000000), wk =   0.0277778
        k(    7) = (  -0.0000988  -0.5671343   0.0000000), wk =   0.0138889
        k(    8) = (   0.0819248   0.0472755   0.0000000), wk =   0.0277778
        k(    9) = (   0.0819413   0.1417978   0.0000000), wk =   0.0277778
        k(   10) = (   0.0819577   0.2363202   0.0000000), wk =   0.0277778
        k(   11) = (   0.0819742   0.3308426   0.0000000), wk =   0.0277778
        k(   12) = (   0.0819907   0.4253650   0.0000000), wk =   0.0277778
        k(   13) = (   0.0820071   0.5198874   0.0000000), wk =   0.0277778
        k(   14) = (   0.0818260  -0.5198589   0.0000000), wk =   0.0277778
        k(   15) = (   0.0818425  -0.4253365   0.0000000), wk =   0.0277778
        k(   16) = (   0.0818590  -0.3308141   0.0000000), wk =   0.0277778
        k(   17) = (   0.0818754  -0.2362917   0.0000000), wk =   0.0277778
        k(   18) = (   0.0818919  -0.1417693   0.0000000), wk =   0.0277778
        k(   19) = (   0.0819084  -0.0472469   0.0000000), wk =   0.0277778
        k(   20) = (   0.1638496   0.0945509   0.0000000), wk =   0.0277778
        k(   21) = (   0.1638661   0.1890733   0.0000000), wk =   0.0277778
        k(   22) = (   0.1638826   0.2835957   0.0000000), wk =   0.0277778
        k(   23) = (   0.1638990   0.3781181   0.0000000), wk =   0.0277778
        k(   24) = (   0.1639155   0.4726405   0.0000000), wk =   0.0277778
        k(   25) = (   0.1639319   0.5671629   0.0000000), wk =   0.0277778
        k(   26) = (   0.1637508  -0.4725834   0.0000000), wk =   0.0277778
        k(   27) = (   0.1637673  -0.3780610   0.0000000), wk =   0.0277778
        k(   28) = (   0.1637838  -0.2835386   0.0000000), wk =   0.0277778
        k(   29) = (   0.1638002  -0.1890163   0.0000000), wk =   0.0277778
        k(   30) = (   0.1638167  -0.0944939   0.0000000), wk =   0.0277778
        k(   31) = (   0.1638332   0.0000285   0.0000000), wk =   0.0277778
        k(   32) = (   0.2457744   0.1418264   0.0000000), wk =   0.0277778
        k(   33) = (   0.2457909   0.2363488   0.0000000), wk =   0.0277778
        k(   34) = (   0.2458074   0.3308711   0.0000000), wk =   0.0277778
        k(   35) = (   0.2458238   0.4253935   0.0000000), wk =   0.0277778
        k(   36) = (   0.2458403   0.5199159   0.0000000), wk =   0.0277778
        k(   37) = (   0.2458568   0.6144383   0.0000000), wk =   0.0277778
        k(   38) = (   0.2456757  -0.4253080   0.0000000), wk =   0.0277778
        k(   39) = (   0.2456921  -0.3307856   0.0000000), wk =   0.0277778
        k(   40) = (   0.2457086  -0.2362632   0.0000000), wk =   0.0277778
        k(   41) = (   0.2457251  -0.1417408   0.0000000), wk =   0.0277778
        k(   42) = (   0.2457415  -0.0472184   0.0000000), wk =   0.0277778
        k(   43) = (   0.2457580   0.0473040   0.0000000), wk =   0.0277778
        k(   44) = (   0.3276993   0.1891018   0.0000000), wk =   0.0277778
        k(   45) = (   0.3277157   0.2836242   0.0000000), wk =   0.0277778
        k(   46) = (   0.3277322   0.3781466   0.0000000), wk =   0.0277778
        k(   47) = (   0.3277486   0.4726690   0.0000000), wk =   0.0277778
        k(   48) = (   0.3277651   0.5671914   0.0000000), wk =   0.0277778
        k(   49) = (   0.3277816   0.6617138   0.0000000), wk =   0.0277778
        k(   50) = (   0.3276005  -0.3780325   0.0000000), wk =   0.0277778
        k(   51) = (   0.3276169  -0.2835101   0.0000000), wk =   0.0277778
        k(   52) = (   0.3276334  -0.1889877   0.0000000), wk =   0.0277778
        k(   53) = (   0.3276499  -0.0944653   0.0000000), wk =   0.0277778
        k(   54) = (   0.3276663   0.0000570   0.0000000), wk =   0.0277778
        k(   55) = (   0.3276828   0.0945794   0.0000000), wk =   0.0277778
        k(   56) = (   0.4096241   0.2363773   0.0000000), wk =   0.0277778
        k(   57) = (   0.4096405   0.3308997   0.0000000), wk =   0.0277778
        k(   58) = (   0.4096570   0.4254221   0.0000000), wk =   0.0277778
        k(   59) = (   0.4096735   0.5199445   0.0000000), wk =   0.0277778
        k(   60) = (   0.4096899   0.6144668   0.0000000), wk =   0.0277778
        k(   61) = (   0.4097064   0.7089892   0.0000000), wk =   0.0277778
        k(   62) = (   0.4095253  -0.3307571   0.0000000), wk =   0.0277778
        k(   63) = (   0.4095418  -0.2362347   0.0000000), wk =   0.0277778
        k(   64) = (   0.4095582  -0.1417123   0.0000000), wk =   0.0277778
        k(   65) = (   0.4095747  -0.0471899   0.0000000), wk =   0.0277778
        k(   66) = (   0.4095911   0.0473325   0.0000000), wk =   0.0277778
        k(   67) = (   0.4096076   0.1418549   0.0000000), wk =   0.0277778
        k(   68) = (  -0.4915489  -0.2836527   0.0000000), wk =   0.0138889
        k(   69) = (  -0.4915324  -0.1891303   0.0000000), wk =   0.0277778
        k(   70) = (  -0.4915160  -0.0946080   0.0000000), wk =   0.0277778
        k(   71) = (  -0.4914995  -0.0000856   0.0000000), wk =   0.0277778
        k(   72) = (  -0.4914830   0.0944368   0.0000000), wk =   0.0277778
        k(   73) = (  -0.4914666   0.1889592   0.0000000), wk =   0.0277778
        k(   74) = (  -0.4916477  -0.8507871   0.0000000), wk =   0.0138889

     Dense  grid:   223115 G-vectors     FFT dimensions: (  40,  40, 375)

     Estimated max dynamical RAM per process >       1.63 GB

     Estimated total dynamical RAM >       3.25 GB

     Initial potential from superposition of free atoms

     starting charge   59.99840, renormalised to   60.00000

     negative rho (up, down):  2.666E-04 0.000E+00
     Starting wfcs are   40 randomized atomic wfcs

     total cpu time spent up to now is       15.4 secs

     Self-consistent Calculation

     iteration #  1     ecut=   105.00 Ry     beta= 0.70
     Davidson diagonalization with overlap
     ethr =  1.00E-02,  avg # of iterations =  2.0

     negative rho (up, down):  2.621E-05 0.000E+00

     total cpu time spent up to now is       43.3 secs

     total energy              =   -1375.12111313 Ry
     estimated scf accuracy    <       1.04955878 Ry

     iteration #  2     ecut=   105.00 Ry     beta= 0.70
     Davidson diagonalization with overlap
     ethr =  1.75E-03,  avg # of iterations =  7.3

     negative rho (up, down):  2.291E-05 0.000E+00

     total cpu time spent up to now is       81.8 secs

     total energy              =   -1374.71233620 Ry
     estimated scf accuracy    <       5.43675001 Ry

     iteration #  3     ecut=   105.00 Ry     beta= 0.70
     Davidson diagonalization with overlap
     ethr =  1.75E-03,  avg # of iterations =  4.7

     negative rho (up, down):  2.824E-05 0.000E+00

     total cpu time spent up to now is      116.0 secs

     total energy              =   -1375.66725322 Ry
     estimated scf accuracy    <       0.22914615 Ry

     iteration #  4     ecut=   105.00 Ry     beta= 0.70
     Davidson diagonalization with overlap
     ethr =  3.82E-04,  avg # of iterations =  2.4

     negative rho (up, down):  2.873E-05 0.000E+00

     total cpu time spent up to now is      144.3 secs

     total energy              =   -1375.69654727 Ry
     estimated scf accuracy    <       0.02272669 Ry

     iteration #  5     ecut=   105.00 Ry     beta= 0.70
     Davidson diagonalization with overlap
     ethr =  3.79E-05,  avg # of iterations = 12.5

     negative rho (up, down):  3.081E-05 0.000E+00

     total cpu time spent up to now is      186.4 secs

     total energy              =   -1375.69158455 Ry
     estimated scf accuracy    <       0.09884750 Ry

     iteration #  6     ecut=   105.00 Ry     beta= 0.70
     Davidson diagonalization with overlap
     ethr =  3.79E-05,  avg # of iterations = 11.0

     negative rho (up, down):  4.193E-05 0.000E+00

     total cpu time spent up to now is      221.7 secs

     total energy              =   -1375.69881161 Ry
     estimated scf accuracy    <       0.02182666 Ry

     iteration #  7     ecut=   105.00 Ry     beta= 0.70
     Davidson diagonalization with overlap
     ethr =  3.64E-05,  avg # of iterations =  2.7

     negative rho (up, down):  4.692E-05 0.000E+00

     total cpu time spent up to now is      247.6 secs

     total energy              =   -1375.70030734 Ry
     estimated scf accuracy    <       0.00024765 Ry

     iteration #  8     ecut=   105.00 Ry     beta= 0.70
     Davidson diagonalization with overlap
     c_bands:  1 eigenvalues not converged
     c_bands:  1 eigenvalues not converged
     c_bands:  1 eigenvalues not converged
     c_bands:  1 eigenvalues not converged
     ethr =  4.13E-07,  avg # of iterations = 11.2

     negative rho (up, down):  5.276E-05 0.000E+00

     total cpu time spent up to now is      288.0 secs

     total energy              =   -1375.70038042 Ry
     estimated scf accuracy    <       0.00002030 Ry

     iteration #  9     ecut=   105.00 Ry     beta= 0.70
     Davidson diagonalization with overlap
     ethr =  3.38E-08,  avg # of iterations =  2.5

     negative rho (up, down):  5.371E-05 0.000E+00

     total cpu time spent up to now is      315.6 secs

     total energy              =   -1375.70038401 Ry
     estimated scf accuracy    <       0.00000634 Ry

     iteration # 10     ecut=   105.00 Ry     beta= 0.70
     Davidson diagonalization with overlap
     ethr =  1.06E-08,  avg # of iterations =  2.0

     negative rho (up, down):  5.391E-05 0.000E+00

     total cpu time spent up to now is      342.7 secs

     total energy              =   -1375.70038453 Ry
     estimated scf accuracy    <       0.00000124 Ry

     iteration # 11     ecut=   105.00 Ry     beta= 0.70
     Davidson diagonalization with overlap
     ethr =  2.07E-09,  avg # of iterations =  2.4

     negative rho (up, down):  5.392E-05 0.000E+00

     total cpu time spent up to now is      373.0 secs

     total energy              =   -1375.70038471 Ry
     estimated scf accuracy    <       0.00000010 Ry

     iteration # 12     ecut=   105.00 Ry     beta= 0.70
     Davidson diagonalization with overlap
     ethr =  1.75E-10,  avg # of iterations =  3.2

     negative rho (up, down):  5.392E-05 0.000E+00

     total cpu time spent up to now is      404.4 secs

     total energy              =   -1375.70038473 Ry
     estimated scf accuracy    <       0.00000003 Ry

     iteration # 13     ecut=   105.00 Ry     beta= 0.70
     Davidson diagonalization with overlap
     ethr =  5.79E-11,  avg # of iterations =  2.0

     negative rho (up, down):  5.394E-05 0.000E+00

     total cpu time spent up to now is      431.2 secs

     total energy              =   -1375.70038473 Ry
     estimated scf accuracy    <          6.5E-09 Ry

     iteration # 14     ecut=   105.00 Ry     beta= 0.70
     Davidson diagonalization with overlap
     ethr =  1.09E-11,  avg # of iterations =  3.0

     negative rho (up, down):  5.395E-05 0.000E+00

     total cpu time spent up to now is      459.4 secs

     total energy              =   -1375.70038473 Ry
     estimated scf accuracy    <          4.2E-10 Ry

     iteration # 15     ecut=   105.00 Ry     beta= 0.70
     Davidson diagonalization with overlap
     ethr =  6.92E-13,  avg # of iterations =  2.3

     negative rho (up, down):  5.395E-05 0.000E+00

     total cpu time spent up to now is      489.2 secs

     total energy              =   -1375.70038473 Ry
     estimated scf accuracy    <          1.2E-10 Ry

     iteration # 16     ecut=   105.00 Ry     beta= 0.70
     Davidson diagonalization with overlap
     ethr =  1.97E-13,  avg # of iterations =  2.0

     negative rho (up, down):  5.395E-05 0.000E+00

     total cpu time spent up to now is      515.8 secs

     total energy              =   -1375.70038473 Ry
     estimated scf accuracy    <          8.9E-11 Ry

     iteration # 17     ecut=   105.00 Ry     beta= 0.70
     Davidson diagonalization with overlap
     ethr =  1.48E-13,  avg # of iterations =  1.4

     negative rho (up, down):  5.395E-05 0.000E+00

     total cpu time spent up to now is      540.5 secs

     total energy              =   -1375.70038473 Ry
     estimated scf accuracy    <          9.3E-12 Ry

     iteration # 18     ecut=   105.00 Ry     beta= 0.70
     Davidson diagonalization with overlap
     ethr =  1.00E-13,  avg # of iterations =  1.6

     negative rho (up, down):  5.395E-05 0.000E+00

     total cpu time spent up to now is      565.6 secs

     total energy              =   -1375.70038473 Ry
     estimated scf accuracy    <          2.3E-12 Ry

     iteration # 19     ecut=   105.00 Ry     beta= 0.70
     Davidson diagonalization with overlap
     ethr =  1.00E-13,  avg # of iterations =  1.0

     negative rho (up, down):  5.395E-05 0.000E+00

     total cpu time spent up to now is      589.4 secs

     End of self-consistent calculation

          k = 0.0000 0.0000 0.0000 ( 27811 PWs)   bands (ev):

   -67.6108 -67.5793 -34.5971 -34.1137 -33.6990 -33.6976 -33.6589 -33.6587
   -19.2567 -19.2427 -19.2235 -19.2231 -19.2228 -19.2227 -19.2018 -19.2017
   -19.2005 -19.1999 -19.1993 -19.1931 -19.1192 -19.1184 -12.8532  -8.3510
    -5.2550  -3.4728  -3.2164  -3.2016  -1.2333   0.3194   0.3394   2.4916
     2.5034   2.9053   2.9381   3.4867

          k = 0.0000 0.0945 0.0000 ( 27838 PWs)   bands (ev):

   -67.6063 -67.5757 -34.5823 -34.1126 -33.7579 -33.7161 -33.7157 -33.6682
   -19.2550 -19.2420 -19.2246 -19.2232 -19.2229 -19.2215 -19.2039 -19.2019
   -19.2006 -19.1998 -19.1958 -19.1899 -19.1226 -19.1219 -12.7138  -8.1324
    -5.3200  -3.5510  -3.3888  -3.1605  -1.0616  -0.0554   0.5497   1.8789
     2.1876   2.9299   3.3021   4.1837

          k = 0.0000 0.1890 0.0000 ( 27812 PWs)   bands (ev):

   -67.5939 -67.5660 -34.5421 -34.1164 -33.9135 -33.8666 -33.7605 -33.6964
   -19.2509 -19.2404 -19.2286 -19.2233 -19.2226 -19.2177 -19.2090 -19.2026
   -19.2020 -19.1982 -19.1862 -19.1809 -19.1317 -19.1312 -12.3439  -7.5536
    -5.4873  -4.0335  -3.4652  -3.0962  -1.0092  -0.4087   1.1334   1.3098
     2.0980   2.7900   3.6419   4.9377

          k = 0.0000 0.2836 0.0000 ( 27840 PWs)   bands (ev):

   -67.5767 -67.5530 -34.4924 -34.1941 -34.0667 -34.0415 -33.8181 -33.7371
   -19.2476 -19.2375 -19.2337 -19.2244 -19.2223 -19.2141 -19.2135 -19.2045
   -19.2015 -19.1953 -19.1728 -19.1686 -19.1437 -19.1425 -11.8705  -6.9307
    -5.6165  -4.4655  -3.5645  -3.1180  -1.6553   0.3114   1.1534   1.8931
     2.5016   2.6843   3.7585   5.5244

          k = 0.0001 0.3781 0.0000 ( 27908 PWs)   bands (ev):

   -67.5589 -67.5404 -34.4798 -34.3742 -34.2120 -34.0709 -33.8738 -33.7790
   -19.2481 -19.2382 -19.2331 -19.2263 -19.2256 -19.2139 -19.2124 -19.2053
   -19.1989 -19.1919 -19.1592 -19.1562 -19.1551 -19.1524 -11.4463  -6.8502
    -5.3720  -4.6851  -3.6247  -3.2346  -1.9185   1.1163   1.4875   2.0735
     2.6880   3.7809   3.9156   6.0513

          k = 0.0001 0.4726 0.0000 ( 27900 PWs)   bands (ev):

   -67.5451 -67.5319 -34.5601 -34.4951 -34.2404 -34.0837 -33.9136 -33.8099
   -19.2499 -19.2406 -19.2339 -19.2281 -19.2261 -19.2137 -19.2112 -19.2052
   -19.1955 -19.1890 -19.1630 -19.1587 -19.1490 -19.1471 -11.1753  -7.0606
    -5.1833  -4.7672  -3.4534  -3.3573  -1.8317   1.5217   1.7912   2.1380
     3.1449   4.3194   5.1292   6.1964

          k =-0.0001-0.5671 0.0000 ( 27870 PWs)   bands (ev):

   -67.5398 -67.5290 -34.6072 -34.5377 -34.2303 -34.0912 -33.9280 -33.8213
   -19.2507 -19.2410 -19.2357 -19.2289 -19.2255 -19.2145 -19.2095 -19.2054
   -19.1941 -19.1879 -19.1658 -19.1608 -19.1451 -19.1438 -11.0858  -7.1577
    -5.1754  -4.7933  -3.4075  -3.2810  -1.7695   1.4151   2.0585   2.3147
     3.2029   4.7972   5.7628   6.3426

          k = 0.0819 0.0473 0.0000 ( 27848 PWs)   bands (ev):

   -67.6063 -67.5757 -34.5822 -34.1126 -33.7591 -33.7157 -33.7151 -33.6683
   -19.2550 -19.2420 -19.2247 -19.2232 -19.2230 -19.2213 -19.2037 -19.2020
   -19.2012 -19.1992 -19.1959 -19.1899 -19.1226 -19.1219 -12.7136  -8.1321
    -5.3180  -3.5472  -3.3855  -3.1739  -1.0630  -0.0391   0.5333   1.8787
     2.1865   2.9621   3.2865   4.1702

          k = 0.0819 0.1418 0.0000 ( 27823 PWs)   bands (ev):

   -67.5978 -67.5691 -34.5546 -34.1133 -33.8555 -33.8329 -33.7356 -33.6965
   -19.2519 -19.2409 -19.2268 -19.2250 -19.2216 -19.2189 -19.2071 -19.2027
   -19.2019 -19.1985 -19.1892 -19.1838 -19.1288 -19.1284 -12.4586  -7.7278
    -5.4298  -3.8038  -3.6601  -2.9880  -0.7505  -0.6295   0.8723   1.6533
     1.8058   2.9995   3.5720   4.8292

          k = 0.0820 0.2363 0.0000 ( 27810 PWs)   bands (ev):

   -67.5830 -67.5577 -34.5087 -34.1400 -34.0114 -33.9914 -33.7952 -33.7402
   -19.2473 -19.2394 -19.2311 -19.2262 -19.2208 -19.2150 -19.2122 -19.2039
   -19.2021 -19.1966 -19.1778 -19.1731 -19.1394 -19.1389 -12.0357  -7.0695
    -5.5910  -4.3093  -3.8493  -2.7950  -1.3678  -0.1432   0.7435   1.9403
     2.2364   2.7778   3.9443   5.3294

          k = 0.0820 0.3308 0.0000 ( 27884 PWs)   bands (ev):

   -67.5654 -67.5450 -34.4709 -34.2832 -34.1621 -34.0642 -33.8650 -33.7882
   -19.2456 -19.2358 -19.2355 -19.2279 -19.2218 -19.2154 -19.2124 -19.2053
   -19.2000 -19.1938 -19.1643 -19.1608 -19.1513 -19.1498 -11.5864  -6.6418
    -5.5398  -4.6355  -4.0064  -2.8076  -1.8144   0.5099   0.8128   2.1932
     2.8456   3.4095   4.0768   5.9363

          k = 0.0820 0.4254 0.0000 ( 27888 PWs)   bands (ev):

   -67.5496 -67.5345 -34.5052 -34.4340 -34.2357 -34.0824 -33.9223 -33.8303
   -19.2471 -19.2390 -19.2331 -19.2281 -19.2252 -19.2143 -19.2125 -19.2054
   -19.1968 -19.1911 -19.1613 -19.1582 -19.1523 -19.1500 -11.2418  -6.7897
    -5.1711  -4.7569  -4.0131  -3.0092  -1.8174   0.8260   1.5703   2.0189
     3.6579   3.9489   4.7818   6.2964

          k = 0.0820 0.5199 0.0000 ( 27897 PWs)   bands (ev):

   -67.5398 -67.5290 -34.5781 -34.5106 -34.2278 -34.0975 -33.9537 -33.8547
   -19.2487 -19.2402 -19.2346 -19.2289 -19.2249 -19.2149 -19.2108 -19.2053
   -19.1949 -19.1891 -19.1667 -19.1624 -19.1452 -19.1439 -11.0655  -6.9722
    -5.0880  -4.7603  -3.7749  -3.2366  -1.6601   1.1842   1.6764   2.2608
     3.9727   4.4363   5.7497   6.2767

          k = 0.0818-0.5199 0.0000 ( 27891 PWs)   bands (ev):

   -67.5398 -67.5290 -34.5779 -34.5105 -34.2278 -34.0976 -33.9539 -33.8548
   -19.2487 -19.2402 -19.2345 -19.2289 -19.2250 -19.2149 -19.2109 -19.2053
   -19.1948 -19.1891 -19.1667 -19.1624 -19.1452 -19.1439 -11.0657  -6.9719
    -5.0879  -4.7601  -3.7711  -3.2411  -1.6594   1.1847   1.6764   2.2613
     3.9716   4.4369   5.7494   6.2772

          k = 0.0818-0.4253 0.0000 ( 27894 PWs)   bands (ev):

   -67.5496 -67.5345 -34.5048 -34.4336 -34.2356 -34.0825 -33.9226 -33.8304
   -19.2471 -19.2390 -19.2329 -19.2282 -19.2254 -19.2141 -19.2129 -19.2053
   -19.1967 -19.1910 -19.1613 -19.1582 -19.1523 -19.1499 -11.2423  -6.7891
    -5.1720  -4.7555  -4.0081  -3.0150  -1.8163   0.8266   1.5741   2.0168
     3.6535   3.9484   4.7806   6.2946

          k = 0.0819-0.3308 0.0000 ( 27886 PWs)   bands (ev):

   -67.5655 -67.5450 -34.4708 -34.2825 -34.1616 -34.0643 -33.8655 -33.7884
   -19.2456 -19.2358 -19.2355 -19.2279 -19.2218 -19.2154 -19.2127 -19.2051
   -19.1998 -19.1939 -19.1643 -19.1608 -19.1513 -19.1498 -11.5870  -6.6416
    -5.5413  -4.6331  -4.0024  -2.8107  -1.8141   0.5070   0.8189   2.1921
     2.8393   3.4077   4.0759   5.9386

          k = 0.0819-0.2363 0.0000 ( 27816 PWs)   bands (ev):

   -67.5830 -67.5577 -34.5087 -34.1395 -34.0113 -33.9905 -33.7959 -33.7404
   -19.2473 -19.2394 -19.2311 -19.2262 -19.2207 -19.2153 -19.2123 -19.2037
   -19.2020 -19.1967 -19.1778 -19.1731 -19.1394 -19.1389 -12.0361  -7.0698
    -5.5929  -4.3069  -3.8467  -2.7935  -1.3696  -0.1414   0.7406   1.9410
     2.2379   2.7721   3.9398   5.3341

          k = 0.0819-0.1418 0.0000 ( 27825 PWs)   bands (ev):

   -67.5979 -67.5691 -34.5547 -34.1132 -33.8546 -33.8326 -33.7362 -33.6966
   -19.2520 -19.2409 -19.2268 -19.2249 -19.2215 -19.2192 -19.2072 -19.2025
   -19.2017 -19.1988 -19.1892 -19.1837 -19.1288 -19.1284 -12.4589  -7.7282
    -5.4317  -3.8042  -3.6582  -2.9832  -0.7492  -0.6342   0.8748   1.6478
     1.8100   2.9963   3.5658   4.8375

          k = 0.0819-0.0472 0.0000 ( 27844 PWs)   bands (ev):

   -67.6063 -67.5757 -34.5822 -34.1126 -33.7585 -33.7158 -33.7154 -33.6684
   -19.2550 -19.2420 -19.2247 -19.2231 -19.2230 -19.2214 -19.2038 -19.2019
   -19.2009 -19.1994 -19.1959 -19.1899 -19.1226 -19.1219 -12.7137  -8.1323
    -5.3189  -3.5489  -3.3870  -3.1679  -1.0624  -0.0465   0.5408   1.8787
     2.1872   2.9482   3.2926   4.1764

          k = 0.1638 0.0946 0.0000 ( 27810 PWs)   bands (ev):

   -67.5938 -67.5660 -34.5418 -34.1167 -33.9147 -33.8670 -33.7600 -33.6965
   -19.2506 -19.2404 -19.2287 -19.2232 -19.2231 -19.2173 -19.2088 -19.2032
   -19.2022 -19.1976 -19.1862 -19.1810 -19.1317 -19.1311 -12.3431  -7.5526
    -5.4797  -4.0348  -3.4704  -3.1111  -1.0095  -0.3972   1.1206   1.3213
     2.0945   2.8196   3.6310   4.9295

          k = 0.1639 0.1891 0.0000 ( 27812 PWs)   bands (ev):

   -67.5829 -67.5577 -34.5085 -34.1402 -34.0126 -33.9907 -33.7954 -33.7403
   -19.2470 -19.2395 -19.2312 -19.2262 -19.2211 -19.2148 -19.2121 -19.2042
   -19.2023 -19.1964 -19.1778 -19.1732 -19.1394 -19.1389 -12.0352  -7.0685
    -5.5853  -4.3126  -3.8541  -2.8031  -1.3673  -0.1382   0.7508   1.9368
     2.2378   2.7864   3.9418   5.3249

          k = 0.1639 0.2836 0.0000 ( 27846 PWs)   bands (ev):

   -67.5677 -67.5466 -34.4706 -34.2270 -34.1481 -34.0557 -33.8609 -33.8160
   -19.2415 -19.2393 -19.2337 -19.2297 -19.2203 -19.2152 -19.2134 -19.2053
   -19.2002 -19.1948 -19.1662 -19.1625 -19.1497 -19.1495 -11.6352  -6.4254
    -5.6906  -4.6301  -4.2210  -2.5251  -1.6906   0.0605   0.4339   2.2173
     3.0405   3.2027   4.4845   5.7307

          k = 0.1639 0.3781 0.0000 ( 27867 PWs)   bands (ev):

   -67.5520 -67.5360 -34.4658 -34.3527 -34.2293 -34.0820 -33.9450 -33.8861
   -19.2416 -19.2361 -19.2352 -19.2303 -19.2226 -19.2158 -19.2136 -19.2058
   -19.1969 -19.1937 -19.1607 -19.1595 -19.1541 -19.1516 -11.2678  -6.2102
    -5.4666  -4.8015  -4.3834  -2.6462  -1.6842  -0.1877   1.2093   2.1695
     3.6380   4.2116   4.8800   6.3388

          k = 0.1639 0.4726 0.0000 ( 27848 PWs)   bands (ev):

   -67.5397 -67.5290 -34.5107 -34.4429 -34.2272 -34.1174 -34.0032 -33.9350
   -19.2440 -19.2372 -19.2340 -19.2276 -19.2247 -19.2162 -19.2136 -19.2050
   -19.1959 -19.1923 -19.1683 -19.1658 -19.1455 -19.1439 -11.0243  -6.4521
    -4.9283  -4.8664  -4.4036  -3.0259  -1.4537   0.0246   1.9796   2.3106
     3.8266   4.5344   5.4230   6.3568

          k = 0.1639 0.5672 0.0000 ( 27868 PWs)   bands (ev):

   -67.5348 -67.5269 -34.5378 -34.4720 -34.2094 -34.1443 -34.0194 -33.9533
   -19.2450 -19.2375 -19.2327 -19.2300 -19.2229 -19.2167 -19.2131 -19.2048
   -19.1959 -19.1915 -19.1711 -19.1680 -19.1421 -19.1412 -10.9412  -6.5624
    -4.8975  -4.7266  -4.3083  -3.2765  -1.3141   0.2282   2.2187   2.4622
     4.0581   4.4470   5.5833   6.1198

          k = 0.1638-0.4726 0.0000 ( 27854 PWs)   bands (ev):

   -67.5398 -67.5290 -34.5100 -34.4423 -34.2272 -34.1178 -34.0037 -33.9350
   -19.2439 -19.2372 -19.2337 -19.2278 -19.2249 -19.2161 -19.2139 -19.2049
   -19.1958 -19.1922 -19.1683 -19.1658 -19.1455 -19.1439 -11.0250  -6.4510
    -4.9313  -4.8633  -4.3987  -3.0309  -1.4525   0.0252   1.9836   2.3072
     3.8290   4.5247   5.4242   6.3574

          k = 0.1638-0.3781 0.0000 ( 27869 PWs)   bands (ev):

   -67.5521 -67.5360 -34.4652 -34.3515 -34.2291 -34.0822 -33.9459 -33.8863
   -19.2415 -19.2361 -19.2350 -19.2306 -19.2227 -19.2157 -19.2141 -19.2056
   -19.1967 -19.1937 -19.1607 -19.1595 -19.1541 -19.1515 -11.2688  -6.2091
    -5.4691  -4.7973  -4.3787  -2.6510  -1.6820  -0.1897   1.2149   2.1644
     3.6362   4.2046   4.8753   6.3424

          k = 0.1638-0.2835 0.0000 ( 27845 PWs)   bands (ev):

   -67.5678 -67.5466 -34.4706 -34.2256 -34.1475 -34.0555 -33.8618 -33.8163
   -19.2417 -19.2391 -19.2336 -19.2297 -19.2201 -19.2154 -19.2138 -19.2051
   -19.1999 -19.1950 -19.1662 -19.1625 -19.1497 -19.1495 -11.6362  -6.4261
    -5.6936  -4.6249  -4.2163  -2.5245  -1.6904   0.0527   0.4399   2.2142
     3.0349   3.2006   4.4777   5.7395

          k = 0.1638-0.1890 0.0000 ( 27814 PWs)   bands (ev):

   -67.5830 -67.5577 -34.5086 -34.1397 -34.0116 -33.9904 -33.7960 -33.7405
   -19.2472 -19.2394 -19.2312 -19.2261 -19.2208 -19.2152 -19.2123 -19.2038
   -19.2020 -19.1966 -19.1778 -19.1731 -19.1394 -19.1389 -12.0359  -7.0694
    -5.5895  -4.3089  -3.8494  -2.7980  -1.3693  -0.1385   0.7446   1.9391
     2.2386   2.7770   3.9381   5.3317

          k = 0.1638-0.0945 0.0000 ( 27814 PWs)   bands (ev):

   -67.5939 -67.5660 -34.5419 -34.1166 -33.9140 -33.8668 -33.7603 -33.6965
   -19.2507 -19.2404 -19.2287 -19.2232 -19.2228 -19.2175 -19.2089 -19.2028
   -19.2021 -19.1979 -19.1862 -19.1810 -19.1317 -19.1312 -12.3435  -7.5532
    -5.4828  -4.0343  -3.4679  -3.1046  -1.0095  -0.4021   1.1265   1.3162
     2.0961   2.8066   3.6351   4.9332

          k = 0.1638 0.0000 0.0000 ( 27817 PWs)   bands (ev):

   -67.5978 -67.5691 -34.5545 -34.1135 -33.8564 -33.8330 -33.7350 -33.6966
   -19.2518 -19.2409 -19.2269 -19.2251 -19.2217 -19.2187 -19.2071 -19.2028
   -19.2020 -19.1982 -19.1893 -19.1838 -19.1288 -19.1284 -12.4583  -7.7275
    -5.4270  -3.8035  -3.6623  -2.9943  -0.7522  -0.6239   0.8696   1.6613
     1.8005   3.0026   3.5798   4.8184

          k = 0.2458 0.1418 0.0000 ( 27846 PWs)   bands (ev):

   -67.5765 -67.5529 -34.4920 -34.1953 -34.0683 -34.0413 -33.8181 -33.7374
   -19.2470 -19.2375 -19.2339 -19.2241 -19.2229 -19.2140 -19.2131 -19.2052
   -19.2018 -19.1950 -19.1729 -19.1687 -19.1437 -19.1424 -11.8689  -6.9279
    -5.6048  -4.4758  -3.5742  -3.1347  -1.6533   0.3210   1.1721   1.8881
     2.5282   2.6774   3.7509   5.5163

          k = 0.2458 0.2363 0.0000 ( 27894 PWs)   bands (ev):

   -67.5652 -67.5449 -34.4708 -34.2840 -34.1624 -34.0646 -33.8655 -33.7885
   -19.2451 -19.2362 -19.2352 -19.2278 -19.2221 -19.2153 -19.2125 -19.2057
   -19.2001 -19.1936 -19.1643 -19.1608 -19.1513 -19.1496 -11.5852  -6.6371
    -5.5336  -4.6441  -4.0129  -2.8240  -1.8130   0.5275   0.8215   2.2034
     2.8459   3.4038   4.0788   5.9269

          k = 0.2458 0.3309 0.0000 ( 27867 PWs)   bands (ev):

   -67.5519 -67.5360 -34.4661 -34.3534 -34.2289 -34.0822 -33.9457 -33.8860
   -19.2417 -19.2359 -19.2347 -19.2307 -19.2227 -19.2155 -19.2140 -19.2060
   -19.1970 -19.1935 -19.1607 -19.1593 -19.1541 -19.1515 -11.2670  -6.2041
    -5.4714  -4.8028  -4.3863  -2.6558  -1.6845  -0.1764   1.2143   2.1739
     3.6380   4.2092   4.8827   6.3336

          k = 0.2458 0.4254 0.0000 ( 27847 PWs)   bands (ev):

   -67.5396 -67.5290 -34.4725 -34.3881 -34.2494 -34.1155 -34.0342 -33.9843
   -19.2413 -19.2350 -19.2311 -19.2302 -19.2251 -19.2166 -19.2151 -19.2050
   -19.1954 -19.1949 -19.1687 -19.1679 -19.1456 -19.1440 -11.0029  -5.7682
    -5.6047  -4.7460  -4.5331  -2.8584  -1.2601  -0.5968   1.9003   2.4537
     3.6698   4.5719   5.2455   6.6391

          k = 0.2458 0.5199 0.0000 ( 27819 PWs)   bands (ev):

   -67.5316 -67.5259 -34.4638 -34.3989 -34.2519 -34.1835 -34.0664 -34.0416
   -19.2422 -19.2325 -19.2310 -19.2287 -19.2234 -19.2189 -19.2165 -19.2031
   -19.1971 -19.1951 -19.1738 -19.1726 -19.1405 -19.1397 -10.8555  -5.9400
    -5.1446  -4.7279  -4.6207  -3.1525  -0.9459  -0.4718   2.5594   2.7676
     3.5031   4.1696   5.1626   6.3212

          k = 0.2459 0.6144 0.0000 ( 27810 PWs)   bands (ev):

   -67.5316 -67.5259 -34.4630 -34.3983 -34.2519 -34.1843 -34.0676 -34.0407
   -19.2421 -19.2323 -19.2311 -19.2289 -19.2236 -19.2189 -19.2164 -19.2030
   -19.1972 -19.1949 -19.1738 -19.1726 -19.1405 -19.1397 -10.8560  -5.9388
    -5.1446  -4.7279  -4.6186  -3.1541  -0.9455  -0.4717   2.5623   2.7635
     3.5069   4.1617   5.1630   6.3204

          k = 0.2457-0.4253 0.0000 ( 27849 PWs)   bands (ev):

   -67.5397 -67.5290 -34.4714 -34.3864 -34.2500 -34.1161 -34.0352 -33.9841
   -19.2409 -19.2348 -19.2312 -19.2306 -19.2252 -19.2168 -19.2152 -19.2048
   -19.1954 -19.1947 -19.1688 -19.1679 -19.1456 -19.1439 -11.0041  -5.7663
    -5.6050  -4.7439  -4.5290  -2.8611  -1.2574  -0.6000   1.9039   2.4473
     3.6725   4.5587   5.2453   6.6354

          k = 0.2457-0.3308 0.0000 ( 27867 PWs)   bands (ev):

   -67.5520 -67.5360 -34.4654 -34.3517 -34.2290 -34.0822 -33.9463 -33.8863
   -19.2414 -19.2360 -19.2348 -19.2308 -19.2228 -19.2156 -19.2143 -19.2057
   -19.1968 -19.1936 -19.1607 -19.1594 -19.1541 -19.1515 -11.2684  -6.2061
    -5.4716  -4.7979  -4.3804  -2.6560  -1.6820  -0.1835   1.2175   2.1668
     3.6363   4.2032   4.8769   6.3393

          k = 0.2457-0.2363 0.0000 ( 27892 PWs)   bands (ev):

   -67.5654 -67.5449 -34.4707 -34.2829 -34.1618 -34.0644 -33.8658 -33.7886
   -19.2453 -19.2360 -19.2354 -19.2278 -19.2220 -19.2155 -19.2128 -19.2054
   -19.1999 -19.1937 -19.1643 -19.1608 -19.1513 -19.1497 -11.5863  -6.6394
    -5.5375  -4.6379  -4.0060  -2.8196  -1.8131   0.5169   0.8234   2.1977
     2.8395   3.4045   4.0768   5.9334

          k = 0.2457-0.1417 0.0000 ( 27850 PWs)   bands (ev):

   -67.5765 -67.5530 -34.4921 -34.1948 -34.0673 -34.0415 -33.8182 -33.7373
   -19.2473 -19.2375 -19.2339 -19.2243 -19.2226 -19.2141 -19.2133 -19.2048
   -19.2016 -19.1952 -19.1729 -19.1686 -19.1437 -19.1425 -11.8697  -6.9296
    -5.6096  -4.4713  -3.5695  -3.1276  -1.6540   0.3168   1.1635   1.8905
     2.5165   2.6804   3.7537   5.5200

          k = 0.2457-0.0472 0.0000 ( 27814 PWs)   bands (ev):

   -67.5829 -67.5577 -34.5084 -34.1409 -34.0119 -33.9919 -33.7947 -33.7401
   -19.2470 -19.2394 -19.2313 -19.2262 -19.2210 -19.2148 -19.2122 -19.2042
   -19.2022 -19.1964 -19.1778 -19.1732 -19.1394 -19.1389 -12.0349  -7.0688
    -5.5850  -4.3144  -3.8547  -2.8018  -1.3651  -0.1432   0.7516   1.9378
     2.2359   2.7893   3.9481   5.3206

          k = 0.2458 0.0473 0.0000 ( 27820 PWs)   bands (ev):

   -67.5829 -67.5577 -34.5083 -34.1409 -34.0128 -33.9914 -33.7948 -33.7401
   -19.2469 -19.2394 -19.2313 -19.2262 -19.2210 -19.2147 -19.2121 -19.2043
   -19.2023 -19.1963 -19.1778 -19.1732 -19.1394 -19.1389 -12.0346  -7.0682
    -5.5827  -4.3158  -3.8569  -2.8055  -1.3650  -0.1410   0.7549   1.9361
     2.2366   2.7930   3.9474   5.3185

          k = 0.3277 0.1891 0.0000 ( 27914 PWs)   bands (ev):

   -67.5585 -67.5404 -34.4804 -34.3758 -34.2117 -34.0719 -33.8741 -33.7794
   -19.2477 -19.2382 -19.2327 -19.2262 -19.2259 -19.2143 -19.2121 -19.2060
   -19.1990 -19.1917 -19.1592 -19.1562 -19.1551 -19.1522 -11.4438  -6.8448
    -5.3635  -4.6981  -3.6366  -3.2527  -1.9166   1.1359   1.5051   2.0956
     2.6845   3.7781   3.9102   6.0435

          k = 0.3277 0.2836 0.0000 ( 27896 PWs)   bands (ev):

   -67.5492 -67.5344 -34.5062 -34.4354 -34.2341 -34.0836 -33.9230 -33.8307
   -19.2471 -19.2388 -19.2324 -19.2281 -19.2256 -19.2142 -19.2131 -19.2061
   -19.1968 -19.1909 -19.1612 -19.1579 -19.1523 -19.1499 -11.2396  -6.7845
    -5.1666  -4.7679  -4.0202  -3.0286  -1.8151   0.8494   1.5808   2.0329
     3.6563   3.9493   4.7814   6.2856

          k = 0.3277 0.3781 0.0000 ( 27846 PWs)   bands (ev):

   -67.5395 -67.5290 -34.5118 -34.4445 -34.2253 -34.1178 -34.0046 -33.9348
   -19.2444 -19.2365 -19.2335 -19.2275 -19.2252 -19.2159 -19.2142 -19.2056
   -19.1959 -19.1921 -19.1683 -19.1656 -19.1455 -19.1439 -11.0223  -6.4488
    -4.9347  -4.8685  -4.4061  -3.0379  -1.4543   0.0395   1.9902   2.3206
     3.8284   4.5299   5.4241   6.3670

          k = 0.3277 0.4727 0.0000 ( 27819 PWs)   bands (ev):

   -67.5314 -67.5260 -34.4649 -34.4003 -34.2511 -34.1820 -34.0680 -34.0410
   -19.2426 -19.2322 -19.2302 -19.2287 -19.2239 -19.2187 -19.2167 -19.2034
   -19.1973 -19.1948 -19.1739 -19.1724 -19.1405 -19.1397 -10.8543  -5.9395
    -5.1487  -4.7329  -4.6172  -3.1567  -0.9494  -0.4636   2.5682   2.7725
     3.5020   4.1695   5.1611   6.3233

          k = 0.3278 0.5672 0.0000 ( 27813 PWs)   bands (ev):

   -67.5268 -67.5265 -34.3852 -34.3445 -34.3437 -34.2326 -34.0830 -34.0804
   -19.2419 -19.2302 -19.2301 -19.2236 -19.2232 -19.2217 -19.2206 -19.2000
   -19.1984 -19.1980 -19.1756 -19.1755 -19.1385 -19.1384 -10.7907  -5.4411
    -5.4373  -4.9154  -4.5614  -3.1833  -0.6386  -0.6333   2.9579   2.9595
     3.4961   3.5036   4.8875   6.6787

          k = 0.3278 0.6617 0.0000 ( 27817 PWs)   bands (ev):

   -67.5315 -67.5260 -34.4638 -34.3987 -34.2517 -34.1834 -34.0683 -34.0405
   -19.2423 -19.2321 -19.2306 -19.2289 -19.2239 -19.2189 -19.2165 -19.2032
   -19.1973 -19.1948 -19.1738 -19.1725 -19.1405 -19.1397 -10.8553  -5.9388
    -5.1468  -4.7304  -4.6171  -3.1561  -0.9473  -0.4673   2.5672   2.7659
     3.5062   4.1620   5.1623   6.3208

          k = 0.3276-0.3780 0.0000 ( 27848 PWs)   bands (ev):

   -67.5396 -67.5290 -34.5107 -34.4428 -34.2264 -34.1179 -34.0045 -33.9350
   -19.2440 -19.2369 -19.2335 -19.2278 -19.2252 -19.2161 -19.2141 -19.2053
   -19.1959 -19.1921 -19.1683 -19.1657 -19.1455 -19.1439 -11.0239  -6.4496
    -4.9348  -4.8644  -4.4004  -3.0369  -1.4526   0.0332   1.9891   2.3126
     3.8301   4.5221   5.4249   6.3623

          k = 0.3276-0.2835 0.0000 ( 27892 PWs)   bands (ev):

   -67.5494 -67.5345 -34.5054 -34.4341 -34.2349 -34.0831 -33.9231 -33.8307
   -19.2470 -19.2390 -19.2326 -19.2281 -19.2256 -19.2141 -19.2132 -19.2057
   -19.1967 -19.1909 -19.1612 -19.1581 -19.1523 -19.1499 -11.2411  -6.7867
    -5.1694  -4.7617  -4.0120  -3.0252  -1.8146   0.8395   1.5793   2.0246
     3.6524   3.9487   4.7803   6.2878

          k = 0.3276-0.1890 0.0000 ( 27910 PWs)   bands (ev):

   -67.5587 -67.5404 -34.4801 -34.3749 -34.2120 -34.0713 -33.8740 -33.7793
   -19.2478 -19.2383 -19.2329 -19.2262 -19.2258 -19.2142 -19.2123 -19.2057
   -19.1990 -19.1918 -19.1592 -19.1562 -19.1551 -19.1523 -11.4449  -6.8477
    -5.3671  -4.6924  -3.6307  -3.2449  -1.9171   1.1275   1.4965   2.0858
     2.6860   3.7794   3.9124   6.0463

          k = 0.3276-0.0945 0.0000 ( 27892 PWs)   bands (ev):

   -67.5653 -67.5449 -34.4709 -34.2844 -34.1627 -34.0644 -33.8647 -33.7882
   -19.2453 -19.2360 -19.2354 -19.2279 -19.2218 -19.2154 -19.2123 -19.2056
   -19.2002 -19.1937 -19.1643 -19.1609 -19.1513 -19.1497 -11.5850  -6.6400
    -5.5342  -4.6435  -4.0142  -2.8136  -1.8138   0.5234   0.8094   2.2008
     2.8537   3.4092   4.0782   5.9282

          k = 0.3277 0.0001 0.0000 ( 27853 PWs)   bands (ev):

   -67.5676 -67.5466 -34.4706 -34.2288 -34.1484 -34.0558 -33.8602 -33.8157
   -19.2413 -19.2393 -19.2339 -19.2296 -19.2203 -19.2152 -19.2132 -19.2055
   -19.2004 -19.1948 -19.1662 -19.1626 -19.1497 -19.1494 -11.6340  -6.4249
    -5.6867  -4.6368  -4.2263  -2.5266  -1.6910   0.0704   0.4258   2.2218
     3.0474   3.2064   4.4924   5.7192

          k = 0.3277 0.0946 0.0000 ( 27894 PWs)   bands (ev):

   -67.5652 -67.5449 -34.4709 -34.2848 -34.1628 -34.0646 -33.8649 -33.7883
   -19.2452 -19.2362 -19.2352 -19.2279 -19.2220 -19.2153 -19.2123 -19.2058
   -19.2002 -19.1936 -19.1643 -19.1609 -19.1513 -19.1496 -11.5844  -6.6374
    -5.5318  -4.6472  -4.0172  -2.8211  -1.8135   0.5311   0.8137   2.2054
     2.8539   3.4068   4.0793   5.9239

          k = 0.4096 0.2364 0.0000 ( 27894 PWs)   bands (ev):

   -67.5447 -67.5318 -34.5619 -34.4974 -34.2374 -34.0858 -33.9142 -33.8105
   -19.2499 -19.2403 -19.2334 -19.2279 -19.2263 -19.2136 -19.2119 -19.2061
   -19.1955 -19.1889 -19.1630 -19.1584 -19.1489 -19.1471 -11.1720  -7.0568
    -5.1783  -4.7800  -3.4643  -3.3761  -1.8285   1.5322   1.8287   2.1538
     3.1357   4.3232   5.1302   6.1879

          k = 0.4096 0.3309 0.0000 ( 27899 PWs)   bands (ev):

   -67.5393 -67.5290 -34.5798 -34.5130 -34.2243 -34.0999 -33.9545 -33.8552
   -19.2489 -19.2397 -19.2342 -19.2287 -19.2250 -19.2148 -19.2116 -19.2061
   -19.1948 -19.1890 -19.1667 -19.1621 -19.1452 -19.1439 -11.0622  -6.9695
    -5.0853  -4.7719  -3.7842  -3.2516  -1.6579   1.2050   1.6867   2.2807
     3.9743   4.4371   5.7566   6.2764

          k = 0.4097 0.4254 0.0000 ( 27874 PWs)   bands (ev):

   -67.5344 -67.5269 -34.5398 -34.4744 -34.2058 -34.1454 -34.0208 -33.9530
   -19.2456 -19.2366 -19.2327 -19.2297 -19.2228 -19.2166 -19.2137 -19.2054
   -19.1960 -19.1914 -19.1711 -19.1677 -19.1421 -19.1412 -10.9381  -6.5618
    -4.8994  -4.7359  -4.3132  -3.2837  -1.3157   0.2414   2.2283   2.4795
     4.0531   4.4558   5.5793   6.1269

          k = 0.4097 0.5199 0.0000 ( 27829 PWs)   bands (ev):

   -67.5313 -67.5260 -34.4657 -34.4013 -34.2501 -34.1818 -34.0673 -34.0415
   -19.2427 -19.2325 -19.2302 -19.2285 -19.2236 -19.2186 -19.2169 -19.2034
   -19.1972 -19.1950 -19.1738 -19.1724 -19.1405 -19.1397 -10.8535  -5.9412
    -5.1486  -4.7334  -4.6193  -3.1548  -0.9503  -0.4638   2.5641   2.7785
     3.4970   4.1788   5.1617   6.3248

          k = 0.4097 0.6145 0.0000 ( 27821 PWs)   bands (ev):

   -67.5314 -67.5260 -34.4653 -34.4003 -34.2506 -34.1826 -34.0664 -34.0419
   -19.2425 -19.2326 -19.2306 -19.2285 -19.2234 -19.2187 -19.2168 -19.2033
   -19.1972 -19.1950 -19.1738 -19.1725 -19.1405 -19.1397 -10.8541  -5.9417
    -5.1466  -4.7310  -4.6212  -3.1526  -0.9487  -0.4676   2.5601   2.7761
     3.4974   4.1791   5.1625   6.3233

          k = 0.4097 0.7090 0.0000 ( 27870 PWs)   bands (ev):

   -67.5346 -67.5269 -34.5390 -34.4730 -34.2076 -34.1448 -34.0202 -33.9532
   -19.2452 -19.2371 -19.2327 -19.2298 -19.2229 -19.2167 -19.2134 -19.2051
   -19.1960 -19.1914 -19.1711 -19.1679 -19.1421 -19.1412 -10.9394  -6.5625
    -4.8983  -4.7320  -4.3115  -3.2797  -1.3147   0.2352   2.2234   2.4719
     4.0550   4.4522   5.5813   6.1230

          k = 0.4095-0.3308 0.0000 ( 27891 PWs)   bands (ev):

   -67.5396 -67.5290 -34.5789 -34.5114 -34.2261 -34.0988 -33.9544 -33.8551
   -19.2487 -19.2401 -19.2343 -19.2289 -19.2249 -19.2149 -19.2113 -19.2057
   -19.1948 -19.1890 -19.1666 -19.1622 -19.1452 -19.1438 -11.0638  -6.9710
    -5.0863  -4.7668  -3.7766  -3.2484  -1.6578   1.1959   1.6814   2.2723
     3.9722   4.4374   5.7534   6.2755

          k = 0.4095-0.2362 0.0000 ( 27904 PWs)   bands (ev):

   -67.5449 -67.5319 -34.5612 -34.4961 -34.2389 -34.0848 -33.9140 -33.8103
   -19.2497 -19.2405 -19.2337 -19.2280 -19.2262 -19.2137 -19.2116 -19.2057
   -19.1955 -19.1889 -19.1629 -19.1585 -19.1489 -19.1471 -11.1734  -7.0591
    -5.1805  -4.7745  -3.4587  -3.3678  -1.8294   1.5267   1.8123   2.1463
     3.1393   4.3217   5.1297   6.1910

          k = 0.4096-0.1417 0.0000 ( 27898 PWs)   bands (ev):

   -67.5493 -67.5345 -34.5063 -34.4350 -34.2349 -34.0831 -33.9223 -33.8304
   -19.2470 -19.2390 -19.2331 -19.2280 -19.2252 -19.2144 -19.2126 -19.2058
   -19.1969 -19.1910 -19.1612 -19.1581 -19.1523 -19.1500 -11.2399  -6.7881
    -5.1674  -4.7649  -4.0223  -3.0136  -1.8173   0.8379   1.5705   2.0301
     3.6620   3.9496   4.7836   6.2924

          k = 0.4096-0.0472 0.0000 ( 27867 PWs)   bands (ev):

   -67.5518 -67.5360 -34.4666 -34.3546 -34.2289 -34.0822 -33.9446 -33.8858
   -19.2417 -19.2362 -19.2351 -19.2303 -19.2226 -19.2157 -19.2135 -19.2060
   -19.1971 -19.1936 -19.1606 -19.1594 -19.1541 -19.1516 -11.2660  -6.2086
    -5.4664  -4.8074  -4.3903  -2.6462  -1.6875  -0.1791   1.2044   2.1794
     3.6399   4.2192   4.8874   6.3314

          k = 0.4096 0.0473 0.0000 ( 27869 PWs)   bands (ev):

   -67.5518 -67.5360 -34.4667 -34.3550 -34.2286 -34.0823 -33.9449 -33.8857
   -19.2418 -19.2360 -19.2348 -19.2305 -19.2226 -19.2155 -19.2137 -19.2062
   -19.1971 -19.1936 -19.1607 -19.1593 -19.1541 -19.1516 -11.2656  -6.2055
    -5.4689  -4.8079  -4.3915  -2.6507  -1.6879  -0.1739   1.2068   2.1815
     3.6398   4.2183   4.8885   6.3293

          k = 0.4096 0.1419 0.0000 ( 27898 PWs)   bands (ev):

   -67.5492 -67.5344 -34.5067 -34.4360 -34.2340 -34.0837 -33.9226 -33.8305
   -19.2471 -19.2388 -19.2327 -19.2280 -19.2254 -19.2143 -19.2129 -19.2061
   -19.1969 -19.1909 -19.1612 -19.1579 -19.1523 -19.1500 -11.2389  -6.7853
    -5.1655  -4.7697  -4.0255  -3.0228  -1.8166   0.8484   1.5759   2.0363
     3.6615   3.9496   4.7835   6.2883

          k =-0.4915-0.2837 0.0000 ( 27878 PWs)   bands (ev):

   -67.5393 -67.5290 -34.6091 -34.5403 -34.2262 -34.0941 -33.9287 -33.8220
   -19.2508 -19.2407 -19.2353 -19.2286 -19.2254 -19.2145 -19.2102 -19.2063
   -19.1940 -19.1878 -19.1657 -19.1604 -19.1450 -19.1438 -11.0820  -7.1551
    -5.1722  -4.8057  -3.4264  -3.2909  -1.7654   1.4261   2.0953   2.3332
     3.1929   4.7994   5.7720   6.3353

          k =-0.4915-0.1891 0.0000 ( 27891 PWs)   bands (ev):

   -67.5393 -67.5290 -34.5800 -34.5132 -34.2241 -34.0999 -33.9544 -33.8551
   -19.2489 -19.2397 -19.2343 -19.2285 -19.2249 -19.2148 -19.2115 -19.2061
   -19.1949 -19.1891 -19.1666 -19.1621 -19.1452 -19.1439 -11.0619  -6.9699
    -5.0855  -4.7721  -3.7880  -3.2473  -1.6587   1.2042   1.6869   2.2800
     3.9755   4.4361   5.7572   6.2762

          k =-0.4915-0.0946 0.0000 ( 27848 PWs)   bands (ev):

   -67.5394 -67.5290 -34.5126 -34.4453 -34.2248 -34.1179 -34.0041 -33.9346
   -19.2445 -19.2365 -19.2338 -19.2272 -19.2250 -19.2159 -19.2142 -19.2056
   -19.1960 -19.1922 -19.1683 -19.1655 -19.1455 -19.1440 -11.0213  -6.4503
    -4.9315  -4.8721  -4.4115  -3.0325  -1.4562   0.0385   1.9848   2.3257
     3.8250   4.5412   5.4239   6.3673

          k =-0.4915-0.0001 0.0000 ( 27845 PWs)   bands (ev):

   -67.5394 -67.5290 -34.4739 -34.3902 -34.2478 -34.1154 -34.0337 -33.9842
   -19.2415 -19.2352 -19.2307 -19.2301 -19.2250 -19.2164 -19.2153 -19.2052
   -19.1953 -19.1951 -19.1687 -19.1678 -19.1456 -19.1440 -11.0012  -5.7716
    -5.6041  -4.7481  -4.5382  -2.8550  -1.2644  -0.5928   1.8952   2.4628
     3.6658   4.5874   5.2475   6.6436

          k =-0.4915 0.0944 0.0000 ( 27852 PWs)   bands (ev):

   -67.5395 -67.5290 -34.5122 -34.4443 -34.2258 -34.1176 -34.0035 -33.9348
   -19.2442 -19.2369 -19.2341 -19.2273 -19.2248 -19.2161 -19.2138 -19.2054
   -19.1960 -19.1922 -19.1682 -19.1657 -19.1455 -19.1439 -11.0222  -6.4522
    -4.9285  -4.8712  -4.4108  -3.0266  -1.4556   0.0316   1.9797   2.3212
     3.8243   4.5432   5.4234   6.3619

          k =-0.4915 0.1890 0.0000 ( 27887 PWs)   bands (ev):

   -67.5395 -67.5290 -34.5793 -34.5118 -34.2259 -34.0988 -33.9541 -33.8550
   -19.2487 -19.2401 -19.2346 -19.2287 -19.2249 -19.2149 -19.2112 -19.2057
   -19.1949 -19.1891 -19.1666 -19.1622 -19.1452 -19.1439 -11.0633  -6.9716
    -5.0866  -4.7672  -3.7842  -3.2396  -1.6592   1.1947   1.6816   2.2711
     3.9744   4.4357   5.7541   6.2759

          k =-0.4916-0.8508 0.0000 ( 27874 PWs)   bands (ev):

   -67.5395 -67.5290 -34.6083 -34.5388 -34.2282 -34.0927 -33.9284 -33.8218
   -19.2507 -19.2409 -19.2355 -19.2288 -19.2254 -19.2146 -19.2099 -19.2058
   -19.1941 -19.1878 -19.1657 -19.1606 -19.1450 -19.1438 -11.0836  -7.1569
    -5.1736  -4.8005  -3.4184  -3.2853  -1.7667   1.4204   2.0794   2.3241
     3.1968   4.7984   5.7680   6.3381

     the Fermi energy is     0.8294 ev

!    total energy              =   -1375.70038473 Ry
     estimated scf accuracy    <          4.8E-13 Ry
     smearing contrib. (-TS)   =      -0.00000371 Ry
     internal energy E=F+TS    =   -1375.70038103 Ry

     The total energy is F=E-TS. E is the sum of the following terms:
     one-electron contribution =  -11616.53099301 Ry
     hartree contribution      =    5838.41219975 Ry
     xc contribution           =    -140.31309849 Ry
     ewald contribution        =    4542.73151073 Ry

     convergence has been achieved in  19 iterations

     negative rho (up, down):  5.395E-05 0.000E+00

     Forces acting on atoms (cartesian axes, Ry/au):

     atom    1 type  2   force =    -0.00045458    0.00025794   -0.00000129
     atom    2 type  1   force =     0.00003901    0.00027357   -0.00020017
     atom    3 type  1   force =     0.00009900   -0.00034940    0.00020038
     atom    4 type  3   force =     0.00026897   -0.00055487   -0.00005820
     atom    5 type  3   force =     0.00004760    0.00037276    0.00005927

     Total force =     0.001044     Total SCF correction =     0.000007


     Computing stress (Cartesian axis) and pressure


     negative rho (up, down):  5.395E-05 0.000E+00
          total   stress  (Ry/bohr**3)                   (kbar)     P=        0.06
  -0.00000038   0.00000012   0.00000076           -0.06        0.02        0.11
   0.00000012   0.00000240  -0.00000379            0.02        0.35       -0.56
   0.00000076  -0.00000379  -0.00000086            0.11       -0.56       -0.13


     Writing output data file /scratch/as3359/Ta2CH2-VCrelax/Ta.save/
 
     init_run     :     27.70s CPU     15.17s WALL (       1 calls)
     electrons    :   1124.37s CPU    574.08s WALL (       1 calls)
     forces       :      8.57s CPU      4.41s WALL (       1 calls)
     stress       :     33.91s CPU     17.46s WALL (       1 calls)

     Called by init_run:
     wfcinit      :     21.51s CPU     11.01s WALL (       1 calls)
     potinit      :      1.65s CPU      0.84s WALL (       1 calls)
     hinit0       :      3.49s CPU      2.61s WALL (       1 calls)

     Called by electrons:
     c_bands      :    923.71s CPU    467.30s WALL (      19 calls)
     sum_band     :    178.36s CPU     93.02s WALL (      19 calls)
     v_of_rho     :      3.61s CPU      2.01s WALL (      20 calls)
     newd         :     18.12s CPU     11.40s WALL (      20 calls)
     mix_rho      :      1.41s CPU      0.85s WALL (      19 calls)

     Called by c_bands:
     init_us_2    :     22.91s CPU     11.48s WALL (    3034 calls)
     cegterg      :    855.88s CPU    433.07s WALL (    1406 calls)

     Called by *egterg:
     cdiaghg      :     16.14s CPU      8.27s WALL (    7119 calls)
     h_psi        :    689.39s CPU    349.44s WALL (    7193 calls)
     s_psi        :     33.37s CPU     16.71s WALL (    7193 calls)
     g_psi        :      4.05s CPU      2.04s WALL (    5713 calls)

     Called by h_psi:
     h_psi:calbec :     28.34s CPU     14.21s WALL (    7193 calls)
     vloc_psi     :    617.09s CPU    313.17s WALL (    7193 calls)
     add_vuspsi   :     37.98s CPU     19.02s WALL (    7193 calls)

     General routines
     calbec       :     39.98s CPU     20.07s WALL (    8969 calls)
     fft          :      3.46s CPU      1.77s WALL (     245 calls)
     ffts         :      0.12s CPU      0.06s WALL (      19 calls)
     fftw         :    633.70s CPU    322.01s WALL (  302984 calls)
 
     Parallel routines
 
     PWSCF        :  19m58.69s CPU  10m15.01s WALL

 
   This run was terminated on:  15:15: 0   7Apr2022            

=------------------------------------------------------------------------------=
   JOB DONE.
=------------------------------------------------------------------------------=
