
     Program PWSCF v.6.8 starts on  7Apr2022 at 16:34:58 

     This program is part of the open-source Quantum ESPRESSO suite
     for quantum simulation of materials; please cite
         "P. Giannozzi et al., J. Phys.:Condens. Matter 21 395502 (2009);
         "P. Giannozzi et al., J. Phys.:Condens. Matter 29 465901 (2017);
         "P. Giannozzi et al., J. Chem. Phys. 152 154105 (2020);
          URL http://www.quantum-espresso.org", 
     in publications or presentations arising from this work. More details at
     http://www.quantum-espresso.org/quote

     Parallel version (MPI & OpenMP), running on       4 processor cores
     Number of MPI processes:                 2
     Threads/MPI process:                     2

     MPI processes distributed on     1 nodes
     R & G space division:  proc/nbgrp/npool/nimage =       2
     123492 MiB available memory on the printing compute node when the environment starts
 
     Reading input from Ta2CH2.scf.140.in

     Current dimensions of program PWSCF are:
     Max number of different atomic species (ntypx) = 10
     Max number of k-points (npk) =  40000
     Max angular momentum in pseudopotentials (lmaxx) =  4
     file Ta.pbesol-spfn-rrkjus_psl.1.0.0.UPF: wavefunction(s)  5S 5P renormalized

     Subspace diagonalization in iterative solution of the eigenvalue problem:
     a serial algorithm will be used

 
     Parallelization info
     --------------------
     sticks:   dense  smooth     PW     G-vecs:    dense   smooth      PW
     Min         618     618    183               171670   171670   28107
     Max         619     619    184               171701   171701   28124
     Sum        1237    1237    367               343371   343371   56231
 
     Using Slab Decomposition
 


     bravais-lattice index     =            0
     lattice parameter (alat)  =       5.5500  a.u.
     unit-cell volume          =    1533.2393 (a.u.)^3
     number of atoms/cell      =            5
     number of atomic types    =            3
     number of electrons       =        60.00
     number of Kohn-Sham states=           36
     kinetic-energy cutoff     =     140.0000  Ry
     charge density cutoff     =     560.0000  Ry
     scf convergence threshold =      1.0E-12
     mixing beta               =       0.7000
     number of iterations used =            8  plain     mixing
     Exchange-correlation= PBESOL
                           (   1   4  10   8   0   0   0)

     celldm(1)=   5.550000  celldm(2)=   0.000000  celldm(3)=   0.000000
     celldm(4)=   0.000000  celldm(5)=   0.000000  celldm(6)=   0.000000

     crystal axes: (cart. coord. in units of alat)
               a(1) = (   1.017295  -0.000177   0.000000 )  
               a(2) = (  -0.508801   0.881714   0.000000 )  
               a(3) = (   0.000000   0.000000  10.000000 )  

     reciprocal axes: (cart. coord. in units 2 pi/alat)
               b(1) = (  0.983098  0.567305  0.000000 )  
               b(2) = (  0.000198  1.134269  0.000000 )  
               b(3) = (  0.000000  0.000000  0.100000 )  


     PseudoPot. # 1 for Ta read from file:
     /shared/home/as3359/pseudo/Ta.pbesol-spfn-rrkjus_psl.1.0.0.UPF
     MD5 check sum: f099565ffaca9b150a52e9412a28e20b
     Pseudo is Ultrasoft + core correction, Zval = 27.0
     Generated using &quot;atomic&quot; code by A. Dal Corso  v.6.3
     Using radial grid of 1273 points,  8 beta functions with: 
                l(1) =   0
                l(2) =   0
                l(3) =   1
                l(4) =   1
                l(5) =   2
                l(6) =   2
                l(7) =   3
                l(8) =   3
     Q(r) pseudized with 0 coefficients 


     PseudoPot. # 2 for C  read from file:
     /shared/home/as3359/pseudo/C.pbesol-n-rrkjus_psl.1.0.0.UPF
     MD5 check sum: 05995be603a8a7c99da3dc4413f31573
     Pseudo is Ultrasoft + core correction, Zval =  4.0
     Generated using &quot;atomic&quot; code by A. Dal Corso  v.6.3MaX
     Using radial grid of 1073 points,  4 beta functions with: 
                l(1) =   0
                l(2) =   0
                l(3) =   1
                l(4) =   1
     Q(r) pseudized with 0 coefficients 


     PseudoPot. # 3 for H  read from file:
     /shared/home/as3359/pseudo/H.pbesol-rrkjus_psl.0.1.UPF
     MD5 check sum: 1dbb1a5c48b1283557b8117eb856a7ca
     Pseudo is Ultrasoft, Zval =  1.0
     Generated using "atomic" code by A. Dal Corso  v.5.0.2 svn rev. 9415
     Using radial grid of  929 points,  2 beta functions with: 
                l(1) =   0
                l(2) =   0
     Q(r) pseudized with 0 coefficients 


     atomic species   valence    mass     pseudopotential
        Ta            27.00   180.94788     Ta( 1.00)
        C              4.00    12.01070     C ( 1.00)
        H              1.00     1.00000     H ( 1.00)

     No symmetry found



   Cartesian axes

     site n.     atom                  positions (alat units)
         1           C   tau(   1) = (   0.0000000   0.0000000   0.0000000  )
         2           Ta  tau(   2) = (   0.5088008   0.2948413  -0.4364511  )
         3           Ta  tau(   3) = (  -0.0007447   0.5869407   0.4364532  )
         4           H   tau(   4) = (  -0.0017928  -0.0015314   0.8341930  )
         5           H   tau(   5) = (   0.0002769   0.0024412  -0.8341930  )

     number of k points=    74  Marzari-Vanderbilt smearing, width (Ry)=  0.0010
                       cart. coord. in units 2pi/alat
        k(    1) = (   0.0000000   0.0000000   0.0000000), wk =   0.0138889
        k(    2) = (   0.0000165   0.0945224   0.0000000), wk =   0.0277778
        k(    3) = (   0.0000329   0.1890448   0.0000000), wk =   0.0277778
        k(    4) = (   0.0000494   0.2835672   0.0000000), wk =   0.0277778
        k(    5) = (   0.0000659   0.3780896   0.0000000), wk =   0.0277778
        k(    6) = (   0.0000823   0.4726120   0.0000000), wk =   0.0277778
        k(    7) = (  -0.0000988  -0.5671343   0.0000000), wk =   0.0138889
        k(    8) = (   0.0819248   0.0472755   0.0000000), wk =   0.0277778
        k(    9) = (   0.0819413   0.1417978   0.0000000), wk =   0.0277778
        k(   10) = (   0.0819577   0.2363202   0.0000000), wk =   0.0277778
        k(   11) = (   0.0819742   0.3308426   0.0000000), wk =   0.0277778
        k(   12) = (   0.0819907   0.4253650   0.0000000), wk =   0.0277778
        k(   13) = (   0.0820071   0.5198874   0.0000000), wk =   0.0277778
        k(   14) = (   0.0818260  -0.5198589   0.0000000), wk =   0.0277778
        k(   15) = (   0.0818425  -0.4253365   0.0000000), wk =   0.0277778
        k(   16) = (   0.0818590  -0.3308141   0.0000000), wk =   0.0277778
        k(   17) = (   0.0818754  -0.2362917   0.0000000), wk =   0.0277778
        k(   18) = (   0.0818919  -0.1417693   0.0000000), wk =   0.0277778
        k(   19) = (   0.0819084  -0.0472469   0.0000000), wk =   0.0277778
        k(   20) = (   0.1638496   0.0945509   0.0000000), wk =   0.0277778
        k(   21) = (   0.1638661   0.1890733   0.0000000), wk =   0.0277778
        k(   22) = (   0.1638826   0.2835957   0.0000000), wk =   0.0277778
        k(   23) = (   0.1638990   0.3781181   0.0000000), wk =   0.0277778
        k(   24) = (   0.1639155   0.4726405   0.0000000), wk =   0.0277778
        k(   25) = (   0.1639319   0.5671629   0.0000000), wk =   0.0277778
        k(   26) = (   0.1637508  -0.4725834   0.0000000), wk =   0.0277778
        k(   27) = (   0.1637673  -0.3780610   0.0000000), wk =   0.0277778
        k(   28) = (   0.1637838  -0.2835386   0.0000000), wk =   0.0277778
        k(   29) = (   0.1638002  -0.1890163   0.0000000), wk =   0.0277778
        k(   30) = (   0.1638167  -0.0944939   0.0000000), wk =   0.0277778
        k(   31) = (   0.1638332   0.0000285   0.0000000), wk =   0.0277778
        k(   32) = (   0.2457744   0.1418264   0.0000000), wk =   0.0277778
        k(   33) = (   0.2457909   0.2363488   0.0000000), wk =   0.0277778
        k(   34) = (   0.2458074   0.3308711   0.0000000), wk =   0.0277778
        k(   35) = (   0.2458238   0.4253935   0.0000000), wk =   0.0277778
        k(   36) = (   0.2458403   0.5199159   0.0000000), wk =   0.0277778
        k(   37) = (   0.2458568   0.6144383   0.0000000), wk =   0.0277778
        k(   38) = (   0.2456757  -0.4253080   0.0000000), wk =   0.0277778
        k(   39) = (   0.2456921  -0.3307856   0.0000000), wk =   0.0277778
        k(   40) = (   0.2457086  -0.2362632   0.0000000), wk =   0.0277778
        k(   41) = (   0.2457251  -0.1417408   0.0000000), wk =   0.0277778
        k(   42) = (   0.2457415  -0.0472184   0.0000000), wk =   0.0277778
        k(   43) = (   0.2457580   0.0473040   0.0000000), wk =   0.0277778
        k(   44) = (   0.3276993   0.1891018   0.0000000), wk =   0.0277778
        k(   45) = (   0.3277157   0.2836242   0.0000000), wk =   0.0277778
        k(   46) = (   0.3277322   0.3781466   0.0000000), wk =   0.0277778
        k(   47) = (   0.3277486   0.4726690   0.0000000), wk =   0.0277778
        k(   48) = (   0.3277651   0.5671914   0.0000000), wk =   0.0277778
        k(   49) = (   0.3277816   0.6617138   0.0000000), wk =   0.0277778
        k(   50) = (   0.3276005  -0.3780325   0.0000000), wk =   0.0277778
        k(   51) = (   0.3276169  -0.2835101   0.0000000), wk =   0.0277778
        k(   52) = (   0.3276334  -0.1889877   0.0000000), wk =   0.0277778
        k(   53) = (   0.3276499  -0.0944653   0.0000000), wk =   0.0277778
        k(   54) = (   0.3276663   0.0000570   0.0000000), wk =   0.0277778
        k(   55) = (   0.3276828   0.0945794   0.0000000), wk =   0.0277778
        k(   56) = (   0.4096241   0.2363773   0.0000000), wk =   0.0277778
        k(   57) = (   0.4096405   0.3308997   0.0000000), wk =   0.0277778
        k(   58) = (   0.4096570   0.4254221   0.0000000), wk =   0.0277778
        k(   59) = (   0.4096735   0.5199445   0.0000000), wk =   0.0277778
        k(   60) = (   0.4096899   0.6144668   0.0000000), wk =   0.0277778
        k(   61) = (   0.4097064   0.7089892   0.0000000), wk =   0.0277778
        k(   62) = (   0.4095253  -0.3307571   0.0000000), wk =   0.0277778
        k(   63) = (   0.4095418  -0.2362347   0.0000000), wk =   0.0277778
        k(   64) = (   0.4095582  -0.1417123   0.0000000), wk =   0.0277778
        k(   65) = (   0.4095747  -0.0471899   0.0000000), wk =   0.0277778
        k(   66) = (   0.4095911   0.0473325   0.0000000), wk =   0.0277778
        k(   67) = (   0.4096076   0.1418549   0.0000000), wk =   0.0277778
        k(   68) = (  -0.4915489  -0.2836527   0.0000000), wk =   0.0138889
        k(   69) = (  -0.4915324  -0.1891303   0.0000000), wk =   0.0277778
        k(   70) = (  -0.4915160  -0.0946080   0.0000000), wk =   0.0277778
        k(   71) = (  -0.4914995  -0.0000856   0.0000000), wk =   0.0277778
        k(   72) = (  -0.4914830   0.0944368   0.0000000), wk =   0.0277778
        k(   73) = (  -0.4914666   0.1889592   0.0000000), wk =   0.0277778
        k(   74) = (  -0.4916477  -0.8507871   0.0000000), wk =   0.0138889

     Dense  grid:   343371 G-vectors     FFT dimensions: (  45,  45, 432)

     Estimated max dynamical RAM per process >       2.50 GB

     Estimated total dynamical RAM >       5.00 GB

     Initial potential from superposition of free atoms

     starting charge   59.99840, renormalised to   60.00000

     negative rho (up, down):  7.037E-05 0.000E+00
     Starting wfcs are   40 randomized atomic wfcs

     total cpu time spent up to now is       25.3 secs

     Self-consistent Calculation

     iteration #  1     ecut=   140.00 Ry     beta= 0.70
     Davidson diagonalization with overlap
     ethr =  1.00E-02,  avg # of iterations =  2.0

     negative rho (up, down):  9.765E-06 0.000E+00

     total cpu time spent up to now is       72.1 secs

     total energy              =   -1375.12174957 Ry
     estimated scf accuracy    <       1.04916541 Ry

     iteration #  2     ecut=   140.00 Ry     beta= 0.70
     Davidson diagonalization with overlap
     ethr =  1.75E-03,  avg # of iterations =  7.3

     negative rho (up, down):  4.851E-06 0.000E+00

     total cpu time spent up to now is      135.7 secs

     total energy              =   -1374.71521088 Ry
     estimated scf accuracy    <       5.42372372 Ry

     iteration #  3     ecut=   140.00 Ry     beta= 0.70
     Davidson diagonalization with overlap
     ethr =  1.75E-03,  avg # of iterations =  4.7

     negative rho (up, down):  8.914E-06 0.000E+00

     total cpu time spent up to now is      192.6 secs

     total energy              =   -1375.66773991 Ry
     estimated scf accuracy    <       0.22915796 Ry

     iteration #  4     ecut=   140.00 Ry     beta= 0.70
     Davidson diagonalization with overlap
     ethr =  3.82E-04,  avg # of iterations =  2.4

     negative rho (up, down):  3.836E-05 0.000E+00

     total cpu time spent up to now is      240.0 secs

     total energy              =   -1375.69752454 Ry
     estimated scf accuracy    <       0.02173480 Ry

     iteration #  5     ecut=   140.00 Ry     beta= 0.70
     Davidson diagonalization with overlap
     c_bands:  1 eigenvalues not converged
     ethr =  3.62E-05,  avg # of iterations =  9.1

     negative rho (up, down):  5.009E-05 0.000E+00

     total cpu time spent up to now is      303.0 secs

     total energy              =   -1375.69955115 Ry
     estimated scf accuracy    <       0.00490664 Ry

     iteration #  6     ecut=   140.00 Ry     beta= 0.70
     Davidson diagonalization with overlap
     c_bands:  1 eigenvalues not converged
     c_bands:  1 eigenvalues not converged
     c_bands:  1 eigenvalues not converged
     c_bands:  1 eigenvalues not converged
     c_bands:  1 eigenvalues not converged
     c_bands:  1 eigenvalues not converged
     ethr =  8.18E-06,  avg # of iterations = 14.4

     negative rho (up, down):  5.401E-05 0.000E+00

     total cpu time spent up to now is      375.3 secs

     total energy              =   -1375.69733326 Ry
     estimated scf accuracy    <       0.05773614 Ry

     iteration #  7     ecut=   140.00 Ry     beta= 0.70
     Davidson diagonalization with overlap
     c_bands:  1 eigenvalues not converged
     c_bands:  1 eigenvalues not converged
     ethr =  8.18E-06,  avg # of iterations = 12.0

     negative rho (up, down):  6.584E-05 0.000E+00

     total cpu time spent up to now is      436.5 secs

     total energy              =   -1375.70088787 Ry
     estimated scf accuracy    <       0.00097858 Ry

     iteration #  8     ecut=   140.00 Ry     beta= 0.70
     Davidson diagonalization with overlap
     ethr =  1.63E-06,  avg # of iterations =  4.8

     negative rho (up, down):  7.200E-05 0.000E+00

     total cpu time spent up to now is      483.4 secs

     total energy              =   -1375.70097022 Ry
     estimated scf accuracy    <       0.00001581 Ry

     iteration #  9     ecut=   140.00 Ry     beta= 0.70
     Davidson diagonalization with overlap
     ethr =  2.63E-08,  avg # of iterations =  2.6

     negative rho (up, down):  7.256E-05 0.000E+00

     total cpu time spent up to now is      532.9 secs

     total energy              =   -1375.70097359 Ry
     estimated scf accuracy    <       0.00000084 Ry

     iteration # 10     ecut=   140.00 Ry     beta= 0.70
     Davidson diagonalization with overlap
     ethr =  1.40E-09,  avg # of iterations =  3.6

     negative rho (up, down):  7.321E-05 0.000E+00

     total cpu time spent up to now is      588.6 secs

     total energy              =   -1375.70097386 Ry
     estimated scf accuracy    <       0.00000014 Ry

     iteration # 11     ecut=   140.00 Ry     beta= 0.70
     Davidson diagonalization with overlap
     ethr =  2.29E-10,  avg # of iterations =  2.6

     negative rho (up, down):  7.326E-05 0.000E+00

     total cpu time spent up to now is      635.5 secs

     total energy              =   -1375.70097389 Ry
     estimated scf accuracy    <       0.00000002 Ry

     iteration # 12     ecut=   140.00 Ry     beta= 0.70
     Davidson diagonalization with overlap
     ethr =  2.85E-11,  avg # of iterations =  2.8

     negative rho (up, down):  7.326E-05 0.000E+00

     total cpu time spent up to now is      685.5 secs

     total energy              =   -1375.70097390 Ry
     estimated scf accuracy    <          1.3E-09 Ry

     iteration # 13     ecut=   140.00 Ry     beta= 0.70
     Davidson diagonalization with overlap
     ethr =  2.25E-12,  avg # of iterations =  3.4

     negative rho (up, down):  7.327E-05 0.000E+00

     total cpu time spent up to now is      739.1 secs

     total energy              =   -1375.70097390 Ry
     estimated scf accuracy    <          2.2E-10 Ry

     iteration # 14     ecut=   140.00 Ry     beta= 0.70
     Davidson diagonalization with overlap
     ethr =  3.68E-13,  avg # of iterations =  2.8

     negative rho (up, down):  7.327E-05 0.000E+00

     total cpu time spent up to now is      785.6 secs

     total energy              =   -1375.70097390 Ry
     estimated scf accuracy    <          3.6E-11 Ry

     iteration # 15     ecut=   140.00 Ry     beta= 0.70
     Davidson diagonalization with overlap
     ethr =  1.00E-13,  avg # of iterations =  2.0

     negative rho (up, down):  7.327E-05 0.000E+00

     total cpu time spent up to now is      829.6 secs

     total energy              =   -1375.70097390 Ry
     estimated scf accuracy    <          4.6E-12 Ry

     iteration # 16     ecut=   140.00 Ry     beta= 0.70
     Davidson diagonalization with overlap
     ethr =  1.00E-13,  avg # of iterations =  1.0

     negative rho (up, down):  7.327E-05 0.000E+00

     total cpu time spent up to now is      869.6 secs

     End of self-consistent calculation

          k = 0.0000 0.0000 0.0000 ( 43057 PWs)   bands (ev):

   -67.6111 -67.5795 -34.5972 -34.1138 -33.6991 -33.6977 -33.6590 -33.6587
   -19.2564 -19.2424 -19.2233 -19.2228 -19.2226 -19.2224 -19.2015 -19.2014
   -19.2002 -19.1996 -19.1990 -19.1929 -19.1189 -19.1181 -12.8531  -8.3509
    -5.2550  -3.4728  -3.2164  -3.2016  -1.2332   0.3194   0.3393   2.4915
     2.5033   2.9053   2.9381   3.4869

          k = 0.0000 0.0945 0.0000 ( 42991 PWs)   bands (ev):

   -67.6066 -67.5760 -34.5823 -34.1126 -33.7580 -33.7162 -33.7157 -33.6683
   -19.2547 -19.2417 -19.2243 -19.2229 -19.2226 -19.2213 -19.2036 -19.2016
   -19.2003 -19.1995 -19.1956 -19.1896 -19.1223 -19.1217 -12.7138  -8.1323
    -5.3200  -3.5510  -3.3888  -3.1605  -1.0616  -0.0554   0.5496   1.8789
     2.1876   2.9300   3.3020   4.1838

          k = 0.0000 0.1890 0.0000 ( 42967 PWs)   bands (ev):

   -67.5942 -67.5663 -34.5421 -34.1164 -33.9136 -33.8666 -33.7606 -33.6964
   -19.2506 -19.2401 -19.2283 -19.2231 -19.2223 -19.2174 -19.2087 -19.2023
   -19.2017 -19.1979 -19.1859 -19.1806 -19.1314 -19.1309 -12.3438  -7.5535
    -5.4872  -4.0334  -3.4652  -3.0961  -1.0091  -0.4086   1.1333   1.3098
     2.0980   2.7901   3.6418   4.9458

          k = 0.0000 0.2836 0.0000 ( 42930 PWs)   bands (ev):

   -67.5769 -67.5533 -34.4924 -34.1941 -34.0668 -34.0416 -33.8182 -33.7372
   -19.2473 -19.2372 -19.2334 -19.2242 -19.2220 -19.2138 -19.2132 -19.2042
   -19.2012 -19.1950 -19.1726 -19.1683 -19.1434 -19.1422 -11.8705  -6.9306
    -5.6164  -4.4655  -3.5645  -3.1179  -1.6553   0.3114   1.1534   1.8931
     2.5017   2.6843   3.7584   5.5306

          k = 0.0001 0.3781 0.0000 ( 42854 PWs)   bands (ev):

   -67.5591 -67.5407 -34.4799 -34.3743 -34.2121 -34.0709 -33.8738 -33.7790
   -19.2478 -19.2379 -19.2328 -19.2260 -19.2253 -19.2136 -19.2121 -19.2050
   -19.1986 -19.1916 -19.1590 -19.1559 -19.1549 -19.1521 -11.4463  -6.8501
    -5.3720  -4.6850  -3.6246  -3.2346  -1.9184   1.1164   1.4875   2.0735
     2.6880   3.7809   3.9156   6.0521

          k = 0.0001 0.4726 0.0000 ( 42854 PWs)   bands (ev):

   -67.5454 -67.5321 -34.5602 -34.4952 -34.2404 -34.0838 -33.9137 -33.8100
   -19.2496 -19.2403 -19.2336 -19.2279 -19.2259 -19.2134 -19.2109 -19.2050
   -19.1952 -19.1887 -19.1627 -19.1585 -19.1487 -19.1468 -11.1753  -7.0605
    -5.1832  -4.7672  -3.4533  -3.3573  -1.8316   1.5217   1.7912   2.1381
     3.1448   4.3193   5.1291   6.1967

          k =-0.0001-0.5671 0.0000 ( 42888 PWs)   bands (ev):

   -67.5401 -67.5293 -34.6072 -34.5378 -34.2303 -34.0913 -33.9281 -33.8214
   -19.2505 -19.2408 -19.2354 -19.2286 -19.2252 -19.2142 -19.2092 -19.2051
   -19.1938 -19.1876 -19.1655 -19.1605 -19.1448 -19.1435 -11.0858  -7.1576
    -5.1754  -4.7933  -3.4074  -3.2809  -1.7694   1.4152   2.0585   2.3147
     3.2028   4.7971   5.7627   6.3436

          k = 0.0819 0.0473 0.0000 ( 43011 PWs)   bands (ev):

   -67.6066 -67.5760 -34.5822 -34.1127 -33.7592 -33.7158 -33.7151 -33.6684
   -19.2547 -19.2417 -19.2245 -19.2229 -19.2227 -19.2210 -19.2034 -19.2017
   -19.2009 -19.1989 -19.1956 -19.1896 -19.1223 -19.1217 -12.7136  -8.1320
    -5.3180  -3.5471  -3.3854  -3.1739  -1.0630  -0.0391   0.5333   1.8787
     2.1864   2.9621   3.2864   4.1703

          k = 0.0819 0.1418 0.0000 ( 42987 PWs)   bands (ev):

   -67.5981 -67.5693 -34.5546 -34.1133 -33.8556 -33.8329 -33.7357 -33.6966
   -19.2516 -19.2406 -19.2265 -19.2247 -19.2214 -19.2186 -19.2068 -19.2024
   -19.2016 -19.1982 -19.1890 -19.1835 -19.1286 -19.1281 -12.4586  -7.7277
    -5.4297  -3.8037  -3.6601  -2.9880  -0.7505  -0.6295   0.8723   1.6533
     1.8058   2.9995   3.5720   4.8307

          k = 0.0820 0.2363 0.0000 ( 42946 PWs)   bands (ev):

   -67.5832 -67.5580 -34.5087 -34.1400 -34.0115 -33.9914 -33.7953 -33.7402
   -19.2470 -19.2391 -19.2308 -19.2259 -19.2206 -19.2147 -19.2119 -19.2036
   -19.2018 -19.1963 -19.1775 -19.1729 -19.1391 -19.1387 -12.0357  -7.0694
    -5.5910  -4.3092  -3.8492  -2.7950  -1.3678  -0.1432   0.7435   1.9403
     2.2364   2.7778   3.9443   5.3351

          k = 0.0820 0.3308 0.0000 ( 42866 PWs)   bands (ev):

   -67.5657 -67.5452 -34.4710 -34.2832 -34.1622 -34.0643 -33.8650 -33.7883
   -19.2453 -19.2355 -19.2352 -19.2276 -19.2215 -19.2151 -19.2121 -19.2050
   -19.1997 -19.1935 -19.1640 -19.1605 -19.1510 -19.1495 -11.5864  -6.6418
    -5.5397  -4.6354  -4.0064  -2.8076  -1.8144   0.5099   0.8128   2.1932
     2.8455   3.4095   4.0768   5.9396

          k = 0.0820 0.4254 0.0000 ( 42850 PWs)   bands (ev):

   -67.5498 -67.5347 -34.5052 -34.4340 -34.2357 -34.0825 -33.9223 -33.8303
   -19.2469 -19.2387 -19.2329 -19.2278 -19.2249 -19.2140 -19.2122 -19.2051
   -19.1965 -19.1908 -19.1610 -19.1579 -19.1520 -19.1497 -11.2418  -6.7896
    -5.1710  -4.7568  -4.0131  -3.0092  -1.8173   0.8260   1.5703   2.0189
     3.6579   3.9489   4.7818   6.2967

          k = 0.0820 0.5199 0.0000 ( 42873 PWs)   bands (ev):

   -67.5401 -67.5293 -34.5781 -34.5107 -34.2279 -34.0976 -33.9538 -33.8548
   -19.2484 -19.2399 -19.2343 -19.2286 -19.2246 -19.2146 -19.2105 -19.2050
   -19.1946 -19.1888 -19.1664 -19.1621 -19.1449 -19.1436 -11.0655  -6.9721
    -5.0879  -4.7602  -3.7749  -3.2366  -1.6600   1.1842   1.6764   2.2608
     3.9727   4.4363   5.7496   6.2775

          k = 0.0818-0.5199 0.0000 ( 42875 PWs)   bands (ev):

   -67.5401 -67.5293 -34.5779 -34.5105 -34.2279 -34.0976 -33.9539 -33.8548
   -19.2484 -19.2399 -19.2342 -19.2287 -19.2247 -19.2146 -19.2106 -19.2050
   -19.1946 -19.1888 -19.1664 -19.1621 -19.1449 -19.1436 -11.0657  -6.9718
    -5.0878  -4.7601  -3.7711  -3.2410  -1.6594   1.1847   1.6764   2.2613
     3.9716   4.4369   5.7494   6.2776

          k = 0.0818-0.4253 0.0000 ( 42852 PWs)   bands (ev):

   -67.5498 -67.5348 -34.5048 -34.4336 -34.2356 -34.0826 -33.9227 -33.8304
   -19.2468 -19.2387 -19.2326 -19.2279 -19.2251 -19.2138 -19.2126 -19.2050
   -19.1964 -19.1907 -19.1610 -19.1579 -19.1520 -19.1496 -11.2423  -6.7890
    -5.1719  -4.7555  -4.0081  -3.0150  -1.8162   0.8266   1.5742   2.0168
     3.6534   3.9483   4.7806   6.2948

          k = 0.0819-0.3308 0.0000 ( 42867 PWs)   bands (ev):

   -67.5657 -67.5452 -34.4709 -34.2825 -34.1617 -34.0643 -33.8656 -33.7885
   -19.2453 -19.2355 -19.2352 -19.2276 -19.2216 -19.2151 -19.2125 -19.2048
   -19.1996 -19.1936 -19.1640 -19.1605 -19.1510 -19.1495 -11.5870  -6.6415
    -5.5412  -4.6330  -4.0024  -2.8107  -1.8141   0.5070   0.8189   2.1921
     2.8393   3.4076   4.0759   5.9419

          k = 0.0819-0.2363 0.0000 ( 42954 PWs)   bands (ev):

   -67.5833 -67.5580 -34.5088 -34.1395 -34.0114 -33.9906 -33.7960 -33.7404
   -19.2471 -19.2391 -19.2308 -19.2259 -19.2204 -19.2150 -19.2120 -19.2034
   -19.2017 -19.1964 -19.1775 -19.1728 -19.1391 -19.1387 -12.0361  -7.0697
    -5.5928  -4.3069  -3.8467  -2.7935  -1.3696  -0.1414   0.7406   1.9410
     2.2379   2.7721   3.9399   5.3399

          k = 0.0819-0.1418 0.0000 ( 42987 PWs)   bands (ev):

   -67.5981 -67.5693 -34.5547 -34.1132 -33.8547 -33.8327 -33.7363 -33.6967
   -19.2517 -19.2407 -19.2266 -19.2246 -19.2212 -19.2189 -19.2069 -19.2022
   -19.2014 -19.1985 -19.1890 -19.1834 -19.1286 -19.1281 -12.4589  -7.7281
    -5.4316  -3.8041  -3.6582  -2.9832  -0.7492  -0.6342   0.8748   1.6478
     1.8100   2.9963   3.5658   4.8393

          k = 0.0819-0.0472 0.0000 ( 43007 PWs)   bands (ev):

   -67.6066 -67.5760 -34.5823 -34.1127 -33.7586 -33.7159 -33.7155 -33.6684
   -19.2547 -19.2417 -19.2244 -19.2228 -19.2227 -19.2211 -19.2035 -19.2016
   -19.2006 -19.1991 -19.1956 -19.1896 -19.1223 -19.1217 -12.7137  -8.1322
    -5.3188  -3.5488  -3.3870  -3.1679  -1.0624  -0.0465   0.5408   1.8787
     2.1872   2.9482   3.2926   4.1765

          k = 0.1638 0.0946 0.0000 ( 42969 PWs)   bands (ev):

   -67.5941 -67.5662 -34.5419 -34.1168 -33.9148 -33.8671 -33.7600 -33.6966
   -19.2503 -19.2401 -19.2284 -19.2229 -19.2228 -19.2170 -19.2085 -19.2029
   -19.2020 -19.1973 -19.1859 -19.1807 -19.1314 -19.1308 -12.3431  -7.5525
    -5.4796  -4.0348  -3.4704  -3.1111  -1.0095  -0.3972   1.1206   1.3213
     2.0944   2.8196   3.6309   4.9371

          k = 0.1639 0.1891 0.0000 ( 42955 PWs)   bands (ev):

   -67.5832 -67.5580 -34.5085 -34.1403 -34.0127 -33.9908 -33.7955 -33.7404
   -19.2467 -19.2392 -19.2309 -19.2259 -19.2208 -19.2146 -19.2118 -19.2039
   -19.2020 -19.1961 -19.1775 -19.1729 -19.1391 -19.1386 -12.0351  -7.0684
    -5.5852  -4.3126  -3.8541  -2.8030  -1.3672  -0.1382   0.7508   1.9368
     2.2378   2.7864   3.9419   5.3302

          k = 0.1639 0.2836 0.0000 ( 42863 PWs)   bands (ev):

   -67.5680 -67.5469 -34.4707 -34.2271 -34.1482 -34.0557 -33.8610 -33.8160
   -19.2412 -19.2390 -19.2334 -19.2294 -19.2200 -19.2149 -19.2131 -19.2051
   -19.1999 -19.1945 -19.1659 -19.1622 -19.1494 -19.1492 -11.6352  -6.4253
    -5.6905  -4.6300  -4.2210  -2.5251  -1.6906   0.0605   0.4339   2.2173
     3.0405   3.2026   4.4845   5.7320

          k = 0.1639 0.3781 0.0000 ( 42853 PWs)   bands (ev):

   -67.5523 -67.5363 -34.4659 -34.3528 -34.2294 -34.0821 -33.9450 -33.8862
   -19.2414 -19.2359 -19.2349 -19.2301 -19.2223 -19.2155 -19.2133 -19.2055
   -19.1966 -19.1934 -19.1604 -19.1592 -19.1539 -19.1513 -11.2678  -6.2102
    -5.4665  -4.8015  -4.3834  -2.6462  -1.6841  -0.1877   1.2093   2.1695
     3.6380   4.2116   4.8799   6.3393

          k = 0.1639 0.4726 0.0000 ( 42867 PWs)   bands (ev):

   -67.5400 -67.5293 -34.5107 -34.4430 -34.2273 -34.1174 -34.0032 -33.9351
   -19.2437 -19.2369 -19.2337 -19.2273 -19.2245 -19.2159 -19.2134 -19.2047
   -19.1956 -19.1920 -19.1680 -19.1655 -19.1452 -19.1436 -11.0243  -6.4521
    -4.9282  -4.8663  -4.4036  -3.0258  -1.4536   0.0246   1.9796   2.3106
     3.8266   4.5344   5.4229   6.3568

          k = 0.1639 0.5672 0.0000 ( 42860 PWs)   bands (ev):

   -67.5351 -67.5271 -34.5378 -34.4720 -34.2095 -34.1443 -34.0194 -33.9534
   -19.2447 -19.2372 -19.2325 -19.2297 -19.2227 -19.2164 -19.2128 -19.2045
   -19.1957 -19.1912 -19.1708 -19.1677 -19.1419 -19.1409 -10.9412  -6.5623
    -4.8974  -4.7265  -4.3083  -3.2764  -1.3140   0.2283   2.2187   2.4622
     4.0581   4.4470   5.5833   6.1200

          k = 0.1638-0.4726 0.0000 ( 42871 PWs)   bands (ev):

   -67.5400 -67.5293 -34.5100 -34.4423 -34.2272 -34.1178 -34.0038 -33.9351
   -19.2436 -19.2369 -19.2335 -19.2276 -19.2246 -19.2158 -19.2136 -19.2047
   -19.1955 -19.1919 -19.1680 -19.1655 -19.1452 -19.1436 -11.0250  -6.4510
    -4.9312  -4.8632  -4.3987  -3.0308  -1.4525   0.0252   1.9836   2.3072
     3.8290   4.5246   5.4242   6.3575

          k = 0.1638-0.3781 0.0000 ( 42855 PWs)   bands (ev):

   -67.5523 -67.5363 -34.4653 -34.3515 -34.2291 -34.0823 -33.9459 -33.8863
   -19.2412 -19.2358 -19.2347 -19.2303 -19.2224 -19.2154 -19.2138 -19.2053
   -19.1964 -19.1934 -19.1604 -19.1592 -19.1539 -19.1512 -11.2688  -6.2091
    -5.4691  -4.7972  -4.3787  -2.6509  -1.6820  -0.1897   1.2149   2.1645
     3.6362   4.2046   4.8753   6.3430

          k = 0.1638-0.2835 0.0000 ( 42863 PWs)   bands (ev):

   -67.5681 -67.5469 -34.4707 -34.2256 -34.1476 -34.0556 -33.8618 -33.8163
   -19.2414 -19.2388 -19.2333 -19.2295 -19.2198 -19.2151 -19.2135 -19.2048
   -19.1996 -19.1947 -19.1659 -19.1622 -19.1495 -19.1492 -11.6362  -6.4260
    -5.6935  -4.6249  -4.2163  -2.5245  -1.6904   0.0527   0.4399   2.2142
     3.0348   3.2005   4.4777   5.7408

          k = 0.1638-0.1890 0.0000 ( 42954 PWs)   bands (ev):

   -67.5832 -67.5580 -34.5087 -34.1397 -34.0117 -33.9904 -33.7961 -33.7406
   -19.2469 -19.2392 -19.2309 -19.2258 -19.2205 -19.2149 -19.2120 -19.2036
   -19.2018 -19.1963 -19.1775 -19.1728 -19.1391 -19.1386 -12.0358  -7.0693
    -5.5895  -4.3088  -3.8493  -2.7980  -1.3693  -0.1385   0.7446   1.9391
     2.2386   2.7770   3.9381   5.3373

          k = 0.1638-0.0945 0.0000 ( 42969 PWs)   bands (ev):

   -67.5941 -67.5663 -34.5420 -34.1167 -33.9140 -33.8669 -33.7603 -33.6966
   -19.2504 -19.2401 -19.2284 -19.2229 -19.2226 -19.2173 -19.2087 -19.2026
   -19.2018 -19.1976 -19.1859 -19.1807 -19.1314 -19.1309 -12.3434  -7.5531
    -5.4827  -4.0343  -3.4679  -3.1046  -1.0095  -0.4021   1.1264   1.3162
     2.0961   2.8067   3.6351   4.9411

          k = 0.1638 0.0000 0.0000 ( 42981 PWs)   bands (ev):

   -67.5981 -67.5693 -34.5545 -34.1135 -33.8565 -33.8330 -33.7351 -33.6966
   -19.2515 -19.2406 -19.2266 -19.2248 -19.2214 -19.2185 -19.2068 -19.2025
   -19.2017 -19.1979 -19.1890 -19.1836 -19.1285 -19.1281 -12.4583  -7.7274
    -5.4269  -3.8035  -3.6622  -2.9943  -0.7522  -0.6239   0.8695   1.6612
     1.8005   3.0026   3.5798   4.8195

          k = 0.2458 0.1418 0.0000 ( 42928 PWs)   bands (ev):

   -67.5767 -67.5532 -34.4921 -34.1954 -34.0684 -34.0414 -33.8181 -33.7374
   -19.2468 -19.2373 -19.2336 -19.2239 -19.2226 -19.2137 -19.2128 -19.2049
   -19.2015 -19.1947 -19.1726 -19.1684 -19.1434 -19.1421 -11.8689  -6.9278
    -5.6047  -4.4757  -3.5741  -3.1347  -1.6533   0.3210   1.1721   1.8881
     2.5282   2.6774   3.7508   5.5223

          k = 0.2458 0.2363 0.0000 ( 42869 PWs)   bands (ev):

   -67.5655 -67.5452 -34.4709 -34.2840 -34.1625 -34.0646 -33.8656 -33.7886
   -19.2449 -19.2359 -19.2349 -19.2275 -19.2218 -19.2151 -19.2122 -19.2054
   -19.1998 -19.1933 -19.1640 -19.1606 -19.1510 -19.1493 -11.5851  -6.6370
    -5.5335  -4.6440  -4.0129  -2.8240  -1.8130   0.5275   0.8215   2.2034
     2.8459   3.4038   4.0787   5.9300

          k = 0.2458 0.3309 0.0000 ( 42853 PWs)   bands (ev):

   -67.5521 -67.5363 -34.4661 -34.3534 -34.2290 -34.0822 -33.9458 -33.8861
   -19.2414 -19.2356 -19.2344 -19.2304 -19.2225 -19.2152 -19.2137 -19.2058
   -19.1967 -19.1932 -19.1604 -19.1591 -19.1539 -19.1513 -11.2670  -6.2041
    -5.4714  -4.8027  -4.3863  -2.6558  -1.6845  -0.1764   1.2143   2.1739
     3.6379   4.2092   4.8827   6.3342

          k = 0.2458 0.4254 0.0000 ( 42859 PWs)   bands (ev):

   -67.5399 -67.5293 -34.4726 -34.3882 -34.2494 -34.1155 -34.0343 -33.9844
   -19.2410 -19.2347 -19.2308 -19.2300 -19.2248 -19.2163 -19.2149 -19.2047
   -19.1951 -19.1946 -19.1685 -19.1676 -19.1453 -19.1437 -11.0029  -5.7682
    -5.6046  -4.7459  -4.5330  -2.8583  -1.2600  -0.5967   1.9003   2.4537
     3.6698   4.5718   5.2454   6.6390

          k = 0.2458 0.5199 0.0000 ( 42865 PWs)   bands (ev):

   -67.5318 -67.5262 -34.4638 -34.3990 -34.2519 -34.1836 -34.0665 -34.0417
   -19.2419 -19.2322 -19.2308 -19.2284 -19.2231 -19.2186 -19.2162 -19.2028
   -19.1968 -19.1948 -19.1735 -19.1723 -19.1402 -19.1394 -10.8555  -5.9399
    -5.1445  -4.7279  -4.6207  -3.1525  -0.9459  -0.4717   2.5593   2.7676
     3.5031   4.1696   5.1625   6.3218

          k = 0.2459 0.6144 0.0000 ( 42865 PWs)   bands (ev):

   -67.5319 -67.5262 -34.4631 -34.3984 -34.2520 -34.1843 -34.0677 -34.0407
   -19.2418 -19.2320 -19.2308 -19.2286 -19.2233 -19.2186 -19.2161 -19.2027
   -19.1969 -19.1947 -19.1735 -19.1723 -19.1402 -19.1394 -10.8560  -5.9387
    -5.1446  -4.7279  -4.6186  -3.1541  -0.9454  -0.4717   2.5623   2.7635
     3.5069   4.1617   5.1630   6.3208

          k = 0.2457-0.4253 0.0000 ( 42859 PWs)   bands (ev):

   -67.5400 -67.5293 -34.4714 -34.3864 -34.2500 -34.1161 -34.0353 -33.9841
   -19.2406 -19.2346 -19.2309 -19.2303 -19.2249 -19.2166 -19.2149 -19.2045
   -19.1951 -19.1944 -19.1685 -19.1676 -19.1453 -19.1437 -11.0041  -5.7662
    -5.6050  -4.7439  -4.5289  -2.8611  -1.2574  -0.6000   1.9038   2.4474
     3.6725   4.5586   5.2452   6.6357

          k = 0.2457-0.3308 0.0000 ( 42853 PWs)   bands (ev):

   -67.5523 -67.5363 -34.4654 -34.3517 -34.2290 -34.0823 -33.9463 -33.8863
   -19.2412 -19.2358 -19.2345 -19.2305 -19.2225 -19.2153 -19.2140 -19.2054
   -19.1965 -19.1933 -19.1604 -19.1591 -19.1539 -19.1512 -11.2684  -6.2061
    -5.4715  -4.7978  -4.3804  -2.6560  -1.6820  -0.1835   1.2175   2.1668
     3.6363   4.2032   4.8769   6.3398

          k = 0.2457-0.2363 0.0000 ( 42875 PWs)   bands (ev):

   -67.5656 -67.5452 -34.4708 -34.2829 -34.1619 -34.0644 -33.8659 -33.7887
   -19.2450 -19.2357 -19.2352 -19.2275 -19.2217 -19.2152 -19.2125 -19.2051
   -19.1996 -19.1935 -19.1640 -19.1605 -19.1510 -19.1494 -11.5863  -6.6393
    -5.5375  -4.6379  -4.0060  -2.8196  -1.8131   0.5169   0.8234   2.1977
     2.8395   3.4044   4.0768   5.9367

          k = 0.2457-0.1417 0.0000 ( 42928 PWs)   bands (ev):

   -67.5768 -67.5532 -34.4922 -34.1949 -34.0674 -34.0415 -33.8182 -33.7374
   -19.2470 -19.2372 -19.2336 -19.2240 -19.2223 -19.2139 -19.2131 -19.2045
   -19.2013 -19.1949 -19.1726 -19.1684 -19.1434 -19.1422 -11.8697  -6.9295
    -5.6095  -4.4713  -3.5695  -3.1275  -1.6540   0.3168   1.1636   1.8905
     2.5165   2.6804   3.7536   5.5261

          k = 0.2457-0.0472 0.0000 ( 42952 PWs)   bands (ev):

   -67.5831 -67.5579 -34.5085 -34.1409 -34.0120 -33.9920 -33.7948 -33.7402
   -19.2468 -19.2391 -19.2310 -19.2259 -19.2207 -19.2145 -19.2119 -19.2039
   -19.2019 -19.1961 -19.1775 -19.1729 -19.1391 -19.1386 -12.0349  -7.0687
    -5.5850  -4.3144  -3.8546  -2.8018  -1.3651  -0.1431   0.7516   1.9377
     2.2359   2.7893   3.9482   5.3259

          k = 0.2458 0.0473 0.0000 ( 42949 PWs)   bands (ev):

   -67.5831 -67.5579 -34.5084 -34.1410 -34.0129 -33.9915 -33.7949 -33.7402
   -19.2466 -19.2392 -19.2310 -19.2260 -19.2208 -19.2144 -19.2118 -19.2040
   -19.2020 -19.1960 -19.1775 -19.1729 -19.1391 -19.1386 -12.0346  -7.0681
    -5.5826  -4.3158  -3.8568  -2.8054  -1.3650  -0.1410   0.7549   1.9361
     2.2366   2.7930   3.9475   5.3237

          k = 0.3277 0.1891 0.0000 ( 42823 PWs)   bands (ev):

   -67.5588 -67.5406 -34.4805 -34.3758 -34.2117 -34.0719 -33.8741 -33.7795
   -19.2475 -19.2379 -19.2325 -19.2259 -19.2257 -19.2140 -19.2118 -19.2058
   -19.1988 -19.1914 -19.1589 -19.1559 -19.1548 -19.1519 -11.4438  -6.8447
    -5.3634  -4.6980  -3.6365  -3.2527  -1.9166   1.1359   1.5052   2.0956
     2.6845   3.7781   3.9101   6.0442

          k = 0.3277 0.2836 0.0000 ( 42854 PWs)   bands (ev):

   -67.5495 -67.5347 -34.5063 -34.4355 -34.2341 -34.0837 -33.9231 -33.8307
   -19.2468 -19.2385 -19.2322 -19.2278 -19.2253 -19.2139 -19.2128 -19.2058
   -19.1965 -19.1906 -19.1610 -19.1577 -19.1520 -19.1497 -11.2396  -6.7844
    -5.1665  -4.7678  -4.0202  -3.0285  -1.8151   0.8495   1.5808   2.0329
     3.6563   3.9493   4.7814   6.2859

          k = 0.3277 0.3781 0.0000 ( 42881 PWs)   bands (ev):

   -67.5397 -67.5293 -34.5119 -34.4445 -34.2254 -34.1178 -34.0046 -33.9348
   -19.2441 -19.2362 -19.2332 -19.2272 -19.2250 -19.2156 -19.2139 -19.2053
   -19.1956 -19.1918 -19.1680 -19.1653 -19.1452 -19.1436 -11.0223  -6.4487
    -4.9347  -4.8685  -4.4061  -3.0378  -1.4543   0.0395   1.9902   2.3206
     3.8284   4.5299   5.4241   6.3671

          k = 0.3277 0.4727 0.0000 ( 42866 PWs)   bands (ev):

   -67.5316 -67.5263 -34.4650 -34.4004 -34.2511 -34.1820 -34.0680 -34.0411
   -19.2423 -19.2319 -19.2300 -19.2284 -19.2236 -19.2184 -19.2164 -19.2031
   -19.1970 -19.1946 -19.1736 -19.1721 -19.1402 -19.1395 -10.8543  -5.9395
    -5.1486  -4.7328  -4.6171  -3.1567  -0.9493  -0.4636   2.5682   2.7725
     3.5020   4.1695   5.1611   6.3239

          k = 0.3278 0.5672 0.0000 ( 42880 PWs)   bands (ev):

   -67.5270 -67.5268 -34.3853 -34.3446 -34.3437 -34.2326 -34.0830 -34.0805
   -19.2416 -19.2299 -19.2298 -19.2233 -19.2229 -19.2214 -19.2203 -19.1997
   -19.1981 -19.1978 -19.1753 -19.1752 -19.1382 -19.1381 -10.7907  -5.4410
    -5.4373  -4.9154  -4.5614  -3.1832  -0.6386  -0.6333   2.9579   2.9594
     3.4961   3.5036   4.8875   6.6784

          k = 0.3278 0.6617 0.0000 ( 42870 PWs)   bands (ev):

   -67.5318 -67.5262 -34.4638 -34.3988 -34.2517 -34.1835 -34.0684 -34.0405
   -19.2420 -19.2319 -19.2303 -19.2286 -19.2236 -19.2186 -19.2162 -19.2029
   -19.1970 -19.1945 -19.1735 -19.1722 -19.1402 -19.1394 -10.8553  -5.9387
    -5.1468  -4.7304  -4.6170  -3.1561  -0.9473  -0.4673   2.5672   2.7659
     3.5062   4.1620   5.1623   6.3212

          k = 0.3276-0.3780 0.0000 ( 42871 PWs)   bands (ev):

   -67.5399 -67.5293 -34.5108 -34.4429 -34.2264 -34.1179 -34.0045 -33.9350
   -19.2437 -19.2366 -19.2332 -19.2275 -19.2249 -19.2158 -19.2139 -19.2050
   -19.1956 -19.1918 -19.1680 -19.1654 -19.1452 -19.1436 -11.0239  -6.4495
    -4.9347  -4.8644  -4.4004  -3.0368  -1.4526   0.0332   1.9891   2.3126
     3.8301   4.5221   5.4248   6.3623

          k = 0.3276-0.2835 0.0000 ( 42857 PWs)   bands (ev):

   -67.5497 -67.5347 -34.5055 -34.4341 -34.2349 -34.0831 -33.9231 -33.8307
   -19.2467 -19.2387 -19.2323 -19.2279 -19.2253 -19.2138 -19.2129 -19.2054
   -19.1964 -19.1906 -19.1609 -19.1578 -19.1520 -19.1496 -11.2411  -6.7866
    -5.1693  -4.7617  -4.0120  -3.0252  -1.8146   0.8395   1.5793   2.0246
     3.6524   3.9487   4.7803   6.2880

          k = 0.3276-0.1890 0.0000 ( 42842 PWs)   bands (ev):

   -67.5589 -67.5407 -34.4802 -34.3749 -34.2120 -34.0714 -33.8741 -33.7793
   -19.2475 -19.2380 -19.2327 -19.2260 -19.2255 -19.2139 -19.2120 -19.2054
   -19.1987 -19.1915 -19.1589 -19.1559 -19.1548 -19.1520 -11.4449  -6.8477
    -5.3670  -4.6924  -3.6306  -3.2449  -1.9170   1.1275   1.4965   2.0858
     2.6860   3.7793   3.9123   6.0471

          k = 0.3276-0.0945 0.0000 ( 42872 PWs)   bands (ev):

   -67.5655 -67.5452 -34.4709 -34.2845 -34.1628 -34.0644 -33.8648 -33.7883
   -19.2450 -19.2357 -19.2352 -19.2277 -19.2216 -19.2151 -19.2120 -19.2053
   -19.1999 -19.1934 -19.1641 -19.1606 -19.1510 -19.1494 -11.5850  -6.6399
    -5.5342  -4.6434  -4.0142  -2.8136  -1.8138   0.5234   0.8094   2.2008
     2.8537   3.4092   4.0782   5.9314

          k = 0.3277 0.0001 0.0000 ( 42863 PWs)   bands (ev):

   -67.5679 -67.5468 -34.4706 -34.2289 -34.1485 -34.0559 -33.8603 -33.8158
   -19.2410 -19.2390 -19.2336 -19.2293 -19.2200 -19.2149 -19.2129 -19.2052
   -19.2001 -19.1945 -19.1659 -19.1623 -19.1494 -19.1491 -11.6340  -6.4248
    -5.6866  -4.6368  -4.2262  -2.5266  -1.6910   0.0704   0.4258   2.2219
     3.0474   3.2063   4.4925   5.7204

          k = 0.3277 0.0946 0.0000 ( 42874 PWs)   bands (ev):

   -67.5654 -67.5452 -34.4709 -34.2849 -34.1629 -34.0647 -33.8650 -33.7884
   -19.2449 -19.2359 -19.2349 -19.2277 -19.2217 -19.2150 -19.2120 -19.2055
   -19.1999 -19.1933 -19.1641 -19.1606 -19.1510 -19.1493 -11.5844  -6.6374
    -5.5317  -4.6472  -4.0171  -2.8211  -1.8134   0.5311   0.8137   2.2055
     2.8539   3.4067   4.0792   5.9270

          k = 0.4096 0.2364 0.0000 ( 42844 PWs)   bands (ev):

   -67.5450 -67.5321 -34.5619 -34.4975 -34.2375 -34.0858 -33.9142 -33.8106
   -19.2496 -19.2400 -19.2332 -19.2276 -19.2261 -19.2133 -19.2116 -19.2058
   -19.1952 -19.1886 -19.1627 -19.1581 -19.1486 -19.1468 -11.1720  -7.0568
    -5.1782  -4.7799  -3.4642  -3.3760  -1.8284   1.5322   1.8288   2.1538
     3.1357   4.3231   5.1301   6.1881

          k = 0.4096 0.3309 0.0000 ( 42861 PWs)   bands (ev):

   -67.5396 -67.5293 -34.5798 -34.5130 -34.2243 -34.0999 -33.9546 -33.8552
   -19.2487 -19.2395 -19.2339 -19.2284 -19.2247 -19.2146 -19.2113 -19.2058
   -19.1945 -19.1887 -19.1664 -19.1618 -19.1449 -19.1436 -11.0622  -6.9694
    -5.0853  -4.7719  -3.7842  -3.2516  -1.6578   1.2050   1.6867   2.2807
     3.9743   4.4371   5.7566   6.2761

          k = 0.4097 0.4254 0.0000 ( 42868 PWs)   bands (ev):

   -67.5347 -67.5272 -34.5398 -34.4745 -34.2058 -34.1454 -34.0208 -33.9530
   -19.2453 -19.2363 -19.2324 -19.2294 -19.2226 -19.2164 -19.2134 -19.2052
   -19.1957 -19.1911 -19.1708 -19.1674 -19.1418 -19.1409 -10.9381  -6.5617
    -4.8993  -4.7358  -4.3132  -3.2836  -1.3157   0.2414   2.2284   2.4795
     4.0531   4.4557   5.5793   6.1271

          k = 0.4097 0.5199 0.0000 ( 42860 PWs)   bands (ev):

   -67.5315 -67.5263 -34.4658 -34.4013 -34.2501 -34.1819 -34.0673 -34.0416
   -19.2424 -19.2322 -19.2299 -19.2282 -19.2233 -19.2183 -19.2166 -19.2031
   -19.1969 -19.1947 -19.1735 -19.1721 -19.1402 -19.1395 -10.8536  -5.9412
    -5.1485  -4.7334  -4.6192  -3.1548  -0.9503  -0.4638   2.5641   2.7785
     3.4970   4.1788   5.1617   6.3253

          k = 0.4097 0.6145 0.0000 ( 42859 PWs)   bands (ev):

   -67.5316 -67.5263 -34.4654 -34.4004 -34.2507 -34.1826 -34.0665 -34.0420
   -19.2422 -19.2323 -19.2303 -19.2283 -19.2231 -19.2185 -19.2165 -19.2030
   -19.1969 -19.1947 -19.1735 -19.1722 -19.1402 -19.1395 -10.8541  -5.9417
    -5.1466  -4.7310  -4.6212  -3.1526  -0.9487  -0.4675   2.5601   2.7761
     3.4974   4.1791   5.1624   6.3237

          k = 0.4097 0.7090 0.0000 ( 42860 PWs)   bands (ev):

   -67.5348 -67.5272 -34.5390 -34.4730 -34.2076 -34.1449 -34.0202 -33.9533
   -19.2449 -19.2368 -19.2325 -19.2296 -19.2226 -19.2165 -19.2131 -19.2048
   -19.1957 -19.1911 -19.1708 -19.1676 -19.1418 -19.1409 -10.9394  -6.5625
    -4.8982  -4.7319  -4.3114  -3.2797  -1.3147   0.2352   2.2234   2.4718
     4.0550   4.4522   5.5813   6.1233

          k = 0.4095-0.3308 0.0000 ( 42859 PWs)   bands (ev):

   -67.5398 -67.5293 -34.5790 -34.5115 -34.2261 -34.0988 -33.9544 -33.8551
   -19.2484 -19.2398 -19.2340 -19.2286 -19.2247 -19.2146 -19.2110 -19.2054
   -19.1945 -19.1887 -19.1664 -19.1619 -19.1449 -19.1436 -11.0638  -6.9709
    -5.0863  -4.7668  -3.7765  -3.2484  -1.6577   1.1960   1.6814   2.2723
     3.9722   4.4374   5.7533   6.2763

          k = 0.4095-0.2362 0.0000 ( 42836 PWs)   bands (ev):

   -67.5451 -67.5321 -34.5613 -34.4961 -34.2389 -34.0848 -33.9140 -33.8104
   -19.2495 -19.2402 -19.2334 -19.2277 -19.2259 -19.2134 -19.2113 -19.2054
   -19.1952 -19.1886 -19.1627 -19.1583 -19.1487 -19.1468 -11.1734  -7.0590
    -5.1804  -4.7745  -3.4587  -3.3678  -1.8294   1.5268   1.8124   2.1463
     3.1392   4.3216   5.1296   6.1912

          k = 0.4096-0.1417 0.0000 ( 42850 PWs)   bands (ev):

   -67.5496 -67.5347 -34.5063 -34.4350 -34.2349 -34.0831 -33.9224 -33.8305
   -19.2467 -19.2387 -19.2328 -19.2277 -19.2249 -19.2141 -19.2123 -19.2055
   -19.1966 -19.1907 -19.1609 -19.1578 -19.1520 -19.1497 -11.2399  -6.7881
    -5.1673  -4.7648  -4.0223  -3.0136  -1.8172   0.8379   1.5705   2.0301
     3.6619   3.9495   4.7836   6.2926

          k = 0.4096-0.0472 0.0000 ( 42855 PWs)   bands (ev):

   -67.5521 -67.5363 -34.4667 -34.3546 -34.2290 -34.0822 -33.9447 -33.8859
   -19.2414 -19.2359 -19.2348 -19.2300 -19.2223 -19.2154 -19.2132 -19.2057
   -19.1968 -19.1933 -19.1603 -19.1591 -19.1538 -19.1513 -11.2660  -6.2086
    -5.4664  -4.8073  -4.3903  -2.6461  -1.6875  -0.1791   1.2044   2.1794
     3.6398   4.2192   4.8874   6.3319

          k = 0.4096 0.0473 0.0000 ( 42851 PWs)   bands (ev):

   -67.5520 -67.5363 -34.4668 -34.3550 -34.2287 -34.0823 -33.9450 -33.8858
   -19.2415 -19.2358 -19.2345 -19.2302 -19.2223 -19.2152 -19.2134 -19.2059
   -19.1968 -19.1933 -19.1604 -19.1591 -19.1538 -19.1513 -11.2656  -6.2054
    -5.4688  -4.8079  -4.3915  -2.6507  -1.6878  -0.1739   1.2067   2.1815
     3.6398   4.2182   4.8885   6.3299

          k = 0.4096 0.1419 0.0000 ( 42848 PWs)   bands (ev):

   -67.5495 -67.5347 -34.5067 -34.4360 -34.2340 -34.0838 -33.9227 -33.8306
   -19.2468 -19.2385 -19.2324 -19.2277 -19.2251 -19.2140 -19.2126 -19.2058
   -19.1966 -19.1906 -19.1609 -19.1576 -19.1520 -19.1497 -11.2389  -6.7852
    -5.1654  -4.7696  -4.0255  -3.0227  -1.8166   0.8485   1.5759   2.0363
     3.6615   3.9496   4.7835   6.2886

          k =-0.4915-0.2837 0.0000 ( 42876 PWs)   bands (ev):

   -67.5395 -67.5293 -34.6091 -34.5404 -34.2262 -34.0942 -33.9287 -33.8220
   -19.2506 -19.2404 -19.2351 -19.2284 -19.2252 -19.2142 -19.2100 -19.2060
   -19.1937 -19.1875 -19.1655 -19.1602 -19.1447 -19.1436 -11.0820  -7.1550
    -5.1722  -4.8057  -3.4264  -3.2908  -1.7653   1.4261   2.0954   2.3333
     3.1928   4.7993   5.7719   6.3361

          k =-0.4915-0.1891 0.0000 ( 42859 PWs)   bands (ev):

   -67.5396 -67.5293 -34.5800 -34.5132 -34.2242 -34.1000 -33.9544 -33.8552
   -19.2487 -19.2395 -19.2341 -19.2283 -19.2246 -19.2145 -19.2112 -19.2058
   -19.1946 -19.1888 -19.1664 -19.1618 -19.1449 -19.1436 -11.0619  -6.9698
    -5.0854  -4.7720  -3.7880  -3.2472  -1.6586   1.2042   1.6870   2.2800
     3.9754   4.4360   5.7571   6.2770

          k =-0.4915-0.0946 0.0000 ( 42875 PWs)   bands (ev):

   -67.5396 -67.5293 -34.5126 -34.4454 -34.2248 -34.1179 -34.0042 -33.9347
   -19.2442 -19.2362 -19.2335 -19.2269 -19.2248 -19.2156 -19.2139 -19.2053
   -19.1957 -19.1919 -19.1680 -19.1653 -19.1452 -19.1437 -11.0214  -6.4502
    -4.9315  -4.8721  -4.4115  -3.0325  -1.4561   0.0385   1.9848   2.3257
     3.8249   4.5411   5.4239   6.3674

          k =-0.4915-0.0001 0.0000 ( 42867 PWs)   bands (ev):

   -67.5397 -67.5293 -34.4739 -34.3903 -34.2479 -34.1154 -34.0337 -33.9843
   -19.2412 -19.2350 -19.2304 -19.2299 -19.2247 -19.2161 -19.2150 -19.2049
   -19.1950 -19.1948 -19.1684 -19.1675 -19.1453 -19.1437 -11.0012  -5.7715
    -5.6040  -4.7480  -4.5382  -2.8550  -1.2644  -0.5928   1.8951   2.4628
     3.6658   4.5874   5.2475   6.6442

          k =-0.4915 0.0944 0.0000 ( 42869 PWs)   bands (ev):

   -67.5397 -67.5293 -34.5122 -34.4444 -34.2259 -34.1176 -34.0035 -33.9349
   -19.2439 -19.2366 -19.2338 -19.2270 -19.2245 -19.2158 -19.2136 -19.2051
   -19.1957 -19.1919 -19.1680 -19.1654 -19.1452 -19.1437 -11.0222  -6.4521
    -4.9284  -4.8711  -4.4107  -3.0265  -1.4556   0.0316   1.9797   2.3212
     3.8243   4.5432   5.4233   6.3620

          k =-0.4915 0.1890 0.0000 ( 42855 PWs)   bands (ev):

   -67.5398 -67.5293 -34.5794 -34.5118 -34.2259 -34.0988 -33.9542 -33.8551
   -19.2484 -19.2398 -19.2343 -19.2284 -19.2246 -19.2146 -19.2109 -19.2054
   -19.1946 -19.1888 -19.1663 -19.1619 -19.1449 -19.1436 -11.0633  -6.9716
    -5.0865  -4.7671  -3.7841  -3.2396  -1.6592   1.1947   1.6816   2.2711
     3.9744   4.4357   5.7541   6.2771

          k =-0.4916-0.8508 0.0000 ( 42880 PWs)   bands (ev):

   -67.5398 -67.5293 -34.6084 -34.5389 -34.2282 -34.0928 -33.9285 -33.8218
   -19.2504 -19.2407 -19.2353 -19.2285 -19.2251 -19.2143 -19.2096 -19.2056
   -19.1938 -19.1875 -19.1654 -19.1603 -19.1447 -19.1435 -11.0836  -7.1568
    -5.1736  -4.8004  -3.4184  -3.2852  -1.7667   1.4205   2.0795   2.3241
     3.1968   4.7983   5.7679   6.3389

     the Fermi energy is     0.8294 ev

!    total energy              =   -1375.70097390 Ry
     estimated scf accuracy    <          3.9E-13 Ry
     smearing contrib. (-TS)   =      -0.00000368 Ry
     internal energy E=F+TS    =   -1375.70097021 Ry

     The total energy is F=E-TS. E is the sum of the following terms:
     one-electron contribution =  -11616.53269979 Ry
     hartree contribution      =    5838.41327340 Ry
     xc contribution           =    -140.31305455 Ry
     ewald contribution        =    4542.73151073 Ry

     convergence has been achieved in  16 iterations

     negative rho (up, down):  7.327E-05 0.000E+00

     Forces acting on atoms (cartesian axes, Ry/au):

     atom    1 type  2   force =    -0.00045445    0.00025785   -0.00000145
     atom    2 type  1   force =     0.00003889    0.00027318   -0.00018937
     atom    3 type  1   force =     0.00009895   -0.00034884    0.00019010
     atom    4 type  3   force =     0.00026927   -0.00055420   -0.00005809
     atom    5 type  3   force =     0.00004734    0.00037201    0.00005880

     Total force =     0.001039     Total SCF correction =     0.000009


     Computing stress (Cartesian axis) and pressure


     negative rho (up, down):  7.327E-05 0.000E+00
          total   stress  (Ry/bohr**3)                   (kbar)     P=        0.07
  -0.00000032   0.00000012   0.00000076           -0.05        0.02        0.11
   0.00000012   0.00000245  -0.00000378            0.02        0.36       -0.56
   0.00000076  -0.00000378  -0.00000080            0.11       -0.56       -0.12


     Writing output data file /scratch/as3359/Ta2CH2-VCrelax/Ta.save/
 
     init_run     :     45.80s CPU     25.12s WALL (       1 calls)
     electrons    :   1660.49s CPU    844.38s WALL (       1 calls)
     forces       :     13.32s CPU      6.88s WALL (       1 calls)
     stress       :     61.19s CPU     31.35s WALL (       1 calls)

     Called by init_run:
     wfcinit      :     36.53s CPU     18.89s WALL (       1 calls)
     potinit      :      2.58s CPU      1.31s WALL (       1 calls)
     hinit0       :      5.04s CPU      3.81s WALL (       1 calls)

     Called by electrons:
     c_bands      :   1375.02s CPU    694.17s WALL (      16 calls)
     sum_band     :    256.34s CPU    132.45s WALL (      16 calls)
     v_of_rho     :      4.66s CPU      2.54s WALL (      17 calls)
     newd         :     24.15s CPU     15.07s WALL (      17 calls)
     mix_rho      :      1.70s CPU      0.96s WALL (      16 calls)

     Called by c_bands:
     init_us_2    :     30.12s CPU     15.07s WALL (    2590 calls)
     cegterg      :   1289.12s CPU    650.84s WALL (    1184 calls)

     Called by *egterg:
     cdiaghg      :     16.13s CPU      8.24s WALL (    6916 calls)
     h_psi        :   1058.61s CPU    535.39s WALL (    6990 calls)
     s_psi        :     50.21s CPU     25.13s WALL (    6990 calls)
     g_psi        :      5.53s CPU      2.77s WALL (    5732 calls)

     Called by h_psi:
     h_psi:calbec :     40.48s CPU     20.28s WALL (    6990 calls)
     vloc_psi     :    955.25s CPU    483.45s WALL (    6990 calls)
     add_vuspsi   :     54.80s CPU     27.44s WALL (    6990 calls)

     General routines
     calbec       :     55.80s CPU     27.98s WALL (    8544 calls)
     fft          :      2.91s CPU      1.50s WALL (     212 calls)
     ffts         :      0.16s CPU      0.08s WALL (      16 calls)
     fftw         :    983.96s CPU    498.38s WALL (  265930 calls)
 
     Parallel routines
 
     PWSCF        :  29m46.53s CPU  15m12.87s WALL

 
   This run was terminated on:  16:50:11   7Apr2022            

=------------------------------------------------------------------------------=
   JOB DONE.
=------------------------------------------------------------------------------=
