
     Program PWSCF v.6.8 starts on  7Apr2022 at 14:14:54 

     This program is part of the open-source Quantum ESPRESSO suite
     for quantum simulation of materials; please cite
         "P. Giannozzi et al., J. Phys.:Condens. Matter 21 395502 (2009);
         "P. Giannozzi et al., J. Phys.:Condens. Matter 29 465901 (2017);
         "P. Giannozzi et al., J. Chem. Phys. 152 154105 (2020);
          URL http://www.quantum-espresso.org", 
     in publications or presentations arising from this work. More details at
     http://www.quantum-espresso.org/quote

     Parallel version (MPI & OpenMP), running on       4 processor cores
     Number of MPI processes:                 2
     Threads/MPI process:                     2

     MPI processes distributed on     1 nodes
     R & G space division:  proc/nbgrp/npool/nimage =       2
     124643 MiB available memory on the printing compute node when the environment starts
 
     Reading input from Ta2CH2.scf.70.in

     Current dimensions of program PWSCF are:
     Max number of different atomic species (ntypx) = 10
     Max number of k-points (npk) =  40000
     Max angular momentum in pseudopotentials (lmaxx) =  4
     file Ta.pbesol-spfn-rrkjus_psl.1.0.0.UPF: wavefunction(s)  5S 5P renormalized

     Subspace diagonalization in iterative solution of the eigenvalue problem:
     a serial algorithm will be used

 
     Parallelization info
     --------------------
     sticks:   dense  smooth     PW     G-vecs:    dense   smooth      PW
     Min         306     306     99                60489    60489   11079
     Max         307     307    100                60490    60490   11102
     Sum         613     613    199               120979   120979   22181
 
     Using Slab Decomposition
 


     bravais-lattice index     =            0
     lattice parameter (alat)  =       5.5500  a.u.
     unit-cell volume          =    1533.2393 (a.u.)^3
     number of atoms/cell      =            5
     number of atomic types    =            3
     number of electrons       =        60.00
     number of Kohn-Sham states=           36
     kinetic-energy cutoff     =      70.0000  Ry
     charge density cutoff     =     280.0000  Ry
     scf convergence threshold =      1.0E-12
     mixing beta               =       0.7000
     number of iterations used =            8  plain     mixing
     Exchange-correlation= PBESOL
                           (   1   4  10   8   0   0   0)

     celldm(1)=   5.550000  celldm(2)=   0.000000  celldm(3)=   0.000000
     celldm(4)=   0.000000  celldm(5)=   0.000000  celldm(6)=   0.000000

     crystal axes: (cart. coord. in units of alat)
               a(1) = (   1.017295  -0.000177   0.000000 )  
               a(2) = (  -0.508801   0.881714   0.000000 )  
               a(3) = (   0.000000   0.000000  10.000000 )  

     reciprocal axes: (cart. coord. in units 2 pi/alat)
               b(1) = (  0.983098  0.567305  0.000000 )  
               b(2) = (  0.000198  1.134269  0.000000 )  
               b(3) = (  0.000000  0.000000  0.100000 )  


     PseudoPot. # 1 for Ta read from file:
     /shared/home/as3359/pseudo/Ta.pbesol-spfn-rrkjus_psl.1.0.0.UPF
     MD5 check sum: f099565ffaca9b150a52e9412a28e20b
     Pseudo is Ultrasoft + core correction, Zval = 27.0
     Generated using &quot;atomic&quot; code by A. Dal Corso  v.6.3
     Using radial grid of 1273 points,  8 beta functions with: 
                l(1) =   0
                l(2) =   0
                l(3) =   1
                l(4) =   1
                l(5) =   2
                l(6) =   2
                l(7) =   3
                l(8) =   3
     Q(r) pseudized with 0 coefficients 


     PseudoPot. # 2 for C  read from file:
     /shared/home/as3359/pseudo/C.pbesol-n-rrkjus_psl.1.0.0.UPF
     MD5 check sum: 05995be603a8a7c99da3dc4413f31573
     Pseudo is Ultrasoft + core correction, Zval =  4.0
     Generated using &quot;atomic&quot; code by A. Dal Corso  v.6.3MaX
     Using radial grid of 1073 points,  4 beta functions with: 
                l(1) =   0
                l(2) =   0
                l(3) =   1
                l(4) =   1
     Q(r) pseudized with 0 coefficients 


     PseudoPot. # 3 for H  read from file:
     /shared/home/as3359/pseudo/H.pbesol-rrkjus_psl.0.1.UPF
     MD5 check sum: 1dbb1a5c48b1283557b8117eb856a7ca
     Pseudo is Ultrasoft, Zval =  1.0
     Generated using "atomic" code by A. Dal Corso  v.5.0.2 svn rev. 9415
     Using radial grid of  929 points,  2 beta functions with: 
                l(1) =   0
                l(2) =   0
     Q(r) pseudized with 0 coefficients 


     atomic species   valence    mass     pseudopotential
        Ta            27.00   180.94788     Ta( 1.00)
        C              4.00    12.01070     C ( 1.00)
        H              1.00     1.00000     H ( 1.00)

     No symmetry found



   Cartesian axes

     site n.     atom                  positions (alat units)
         1           C   tau(   1) = (   0.0000000   0.0000000   0.0000000  )
         2           Ta  tau(   2) = (   0.5088008   0.2948413  -0.4364511  )
         3           Ta  tau(   3) = (  -0.0007447   0.5869407   0.4364532  )
         4           H   tau(   4) = (  -0.0017928  -0.0015314   0.8341930  )
         5           H   tau(   5) = (   0.0002769   0.0024412  -0.8341930  )

     number of k points=    74  Marzari-Vanderbilt smearing, width (Ry)=  0.0010
                       cart. coord. in units 2pi/alat
        k(    1) = (   0.0000000   0.0000000   0.0000000), wk =   0.0138889
        k(    2) = (   0.0000165   0.0945224   0.0000000), wk =   0.0277778
        k(    3) = (   0.0000329   0.1890448   0.0000000), wk =   0.0277778
        k(    4) = (   0.0000494   0.2835672   0.0000000), wk =   0.0277778
        k(    5) = (   0.0000659   0.3780896   0.0000000), wk =   0.0277778
        k(    6) = (   0.0000823   0.4726120   0.0000000), wk =   0.0277778
        k(    7) = (  -0.0000988  -0.5671343   0.0000000), wk =   0.0138889
        k(    8) = (   0.0819248   0.0472755   0.0000000), wk =   0.0277778
        k(    9) = (   0.0819413   0.1417978   0.0000000), wk =   0.0277778
        k(   10) = (   0.0819577   0.2363202   0.0000000), wk =   0.0277778
        k(   11) = (   0.0819742   0.3308426   0.0000000), wk =   0.0277778
        k(   12) = (   0.0819907   0.4253650   0.0000000), wk =   0.0277778
        k(   13) = (   0.0820071   0.5198874   0.0000000), wk =   0.0277778
        k(   14) = (   0.0818260  -0.5198589   0.0000000), wk =   0.0277778
        k(   15) = (   0.0818425  -0.4253365   0.0000000), wk =   0.0277778
        k(   16) = (   0.0818590  -0.3308141   0.0000000), wk =   0.0277778
        k(   17) = (   0.0818754  -0.2362917   0.0000000), wk =   0.0277778
        k(   18) = (   0.0818919  -0.1417693   0.0000000), wk =   0.0277778
        k(   19) = (   0.0819084  -0.0472469   0.0000000), wk =   0.0277778
        k(   20) = (   0.1638496   0.0945509   0.0000000), wk =   0.0277778
        k(   21) = (   0.1638661   0.1890733   0.0000000), wk =   0.0277778
        k(   22) = (   0.1638826   0.2835957   0.0000000), wk =   0.0277778
        k(   23) = (   0.1638990   0.3781181   0.0000000), wk =   0.0277778
        k(   24) = (   0.1639155   0.4726405   0.0000000), wk =   0.0277778
        k(   25) = (   0.1639319   0.5671629   0.0000000), wk =   0.0277778
        k(   26) = (   0.1637508  -0.4725834   0.0000000), wk =   0.0277778
        k(   27) = (   0.1637673  -0.3780610   0.0000000), wk =   0.0277778
        k(   28) = (   0.1637838  -0.2835386   0.0000000), wk =   0.0277778
        k(   29) = (   0.1638002  -0.1890163   0.0000000), wk =   0.0277778
        k(   30) = (   0.1638167  -0.0944939   0.0000000), wk =   0.0277778
        k(   31) = (   0.1638332   0.0000285   0.0000000), wk =   0.0277778
        k(   32) = (   0.2457744   0.1418264   0.0000000), wk =   0.0277778
        k(   33) = (   0.2457909   0.2363488   0.0000000), wk =   0.0277778
        k(   34) = (   0.2458074   0.3308711   0.0000000), wk =   0.0277778
        k(   35) = (   0.2458238   0.4253935   0.0000000), wk =   0.0277778
        k(   36) = (   0.2458403   0.5199159   0.0000000), wk =   0.0277778
        k(   37) = (   0.2458568   0.6144383   0.0000000), wk =   0.0277778
        k(   38) = (   0.2456757  -0.4253080   0.0000000), wk =   0.0277778
        k(   39) = (   0.2456921  -0.3307856   0.0000000), wk =   0.0277778
        k(   40) = (   0.2457086  -0.2362632   0.0000000), wk =   0.0277778
        k(   41) = (   0.2457251  -0.1417408   0.0000000), wk =   0.0277778
        k(   42) = (   0.2457415  -0.0472184   0.0000000), wk =   0.0277778
        k(   43) = (   0.2457580   0.0473040   0.0000000), wk =   0.0277778
        k(   44) = (   0.3276993   0.1891018   0.0000000), wk =   0.0277778
        k(   45) = (   0.3277157   0.2836242   0.0000000), wk =   0.0277778
        k(   46) = (   0.3277322   0.3781466   0.0000000), wk =   0.0277778
        k(   47) = (   0.3277486   0.4726690   0.0000000), wk =   0.0277778
        k(   48) = (   0.3277651   0.5671914   0.0000000), wk =   0.0277778
        k(   49) = (   0.3277816   0.6617138   0.0000000), wk =   0.0277778
        k(   50) = (   0.3276005  -0.3780325   0.0000000), wk =   0.0277778
        k(   51) = (   0.3276169  -0.2835101   0.0000000), wk =   0.0277778
        k(   52) = (   0.3276334  -0.1889877   0.0000000), wk =   0.0277778
        k(   53) = (   0.3276499  -0.0944653   0.0000000), wk =   0.0277778
        k(   54) = (   0.3276663   0.0000570   0.0000000), wk =   0.0277778
        k(   55) = (   0.3276828   0.0945794   0.0000000), wk =   0.0277778
        k(   56) = (   0.4096241   0.2363773   0.0000000), wk =   0.0277778
        k(   57) = (   0.4096405   0.3308997   0.0000000), wk =   0.0277778
        k(   58) = (   0.4096570   0.4254221   0.0000000), wk =   0.0277778
        k(   59) = (   0.4096735   0.5199445   0.0000000), wk =   0.0277778
        k(   60) = (   0.4096899   0.6144668   0.0000000), wk =   0.0277778
        k(   61) = (   0.4097064   0.7089892   0.0000000), wk =   0.0277778
        k(   62) = (   0.4095253  -0.3307571   0.0000000), wk =   0.0277778
        k(   63) = (   0.4095418  -0.2362347   0.0000000), wk =   0.0277778
        k(   64) = (   0.4095582  -0.1417123   0.0000000), wk =   0.0277778
        k(   65) = (   0.4095747  -0.0471899   0.0000000), wk =   0.0277778
        k(   66) = (   0.4095911   0.0473325   0.0000000), wk =   0.0277778
        k(   67) = (   0.4096076   0.1418549   0.0000000), wk =   0.0277778
        k(   68) = (  -0.4915489  -0.2836527   0.0000000), wk =   0.0138889
        k(   69) = (  -0.4915324  -0.1891303   0.0000000), wk =   0.0277778
        k(   70) = (  -0.4915160  -0.0946080   0.0000000), wk =   0.0277778
        k(   71) = (  -0.4914995  -0.0000856   0.0000000), wk =   0.0277778
        k(   72) = (  -0.4914830   0.0944368   0.0000000), wk =   0.0277778
        k(   73) = (  -0.4914666   0.1889592   0.0000000), wk =   0.0277778
        k(   74) = (  -0.4916477  -0.8507871   0.0000000), wk =   0.0138889

     Dense  grid:   120979 G-vectors     FFT dimensions: (  32,  32, 300)

     Estimated max dynamical RAM per process >     907.41 MB

     Estimated total dynamical RAM >       1.77 GB

     Check: negative core charge=   -0.000002

     Initial potential from superposition of free atoms

     starting charge   59.99840, renormalised to   60.00000

     negative rho (up, down):  7.017E-04 0.000E+00
     Starting wfcs are   40 randomized atomic wfcs

     total cpu time spent up to now is        8.2 secs

     Self-consistent Calculation

     iteration #  1     ecut=    70.00 Ry     beta= 0.70
     Davidson diagonalization with overlap
     ethr =  1.00E-02,  avg # of iterations =  2.0

     negative rho (up, down):  2.970E-04 0.000E+00

     total cpu time spent up to now is       22.4 secs

     total energy              =   -1375.11755512 Ry
     estimated scf accuracy    <       1.05078873 Ry

     iteration #  2     ecut=    70.00 Ry     beta= 0.70
     Davidson diagonalization with overlap
     ethr =  1.75E-03,  avg # of iterations =  7.7

     negative rho (up, down):  1.663E-04 0.000E+00

     total cpu time spent up to now is       42.5 secs

     total energy              =   -1374.69999797 Ry
     estimated scf accuracy    <       5.48713301 Ry

     iteration #  3     ecut=    70.00 Ry     beta= 0.70
     Davidson diagonalization with overlap
     ethr =  1.75E-03,  avg # of iterations =  4.8

     negative rho (up, down):  1.842E-04 0.000E+00

     total cpu time spent up to now is       60.3 secs

     total energy              =   -1375.66381083 Ry
     estimated scf accuracy    <       0.23249152 Ry

     iteration #  4     ecut=    70.00 Ry     beta= 0.70
     Davidson diagonalization with overlap
     ethr =  3.87E-04,  avg # of iterations =  2.4

     negative rho (up, down):  1.871E-04 0.000E+00

     total cpu time spent up to now is       74.8 secs

     total energy              =   -1375.69276931 Ry
     estimated scf accuracy    <       0.02430455 Ry

     iteration #  5     ecut=    70.00 Ry     beta= 0.70
     Davidson diagonalization with overlap
     ethr =  4.05E-05,  avg # of iterations = 11.1

     negative rho (up, down):  1.951E-04 0.000E+00

     total cpu time spent up to now is       95.9 secs

     total energy              =   -1375.68298834 Ry
     estimated scf accuracy    <       0.20945091 Ry

     iteration #  6     ecut=    70.00 Ry     beta= 0.70
     Davidson diagonalization with overlap
     c_bands:  1 eigenvalues not converged
     c_bands:  1 eigenvalues not converged
     c_bands:  1 eigenvalues not converged
     ethr =  4.05E-05,  avg # of iterations = 12.5

     negative rho (up, down):  2.402E-04 0.000E+00

     total cpu time spent up to now is      115.1 secs

     total energy              =   -1375.69608681 Ry
     estimated scf accuracy    <       0.01080332 Ry

     iteration #  7     ecut=    70.00 Ry     beta= 0.70
     Davidson diagonalization with overlap
     c_bands:  1 eigenvalues not converged
     ethr =  1.80E-05,  avg # of iterations =  3.9

     negative rho (up, down):  2.745E-04 0.000E+00

     total cpu time spent up to now is      129.0 secs

     total energy              =   -1375.69704175 Ry
     estimated scf accuracy    <       0.00023749 Ry

     iteration #  8     ecut=    70.00 Ry     beta= 0.70
     Davidson diagonalization with overlap
     ethr =  3.96E-07,  avg # of iterations = 10.6

     negative rho (up, down):  2.991E-04 0.000E+00

     total cpu time spent up to now is      149.7 secs

     total energy              =   -1375.69710535 Ry
     estimated scf accuracy    <       0.00001832 Ry

     iteration #  9     ecut=    70.00 Ry     beta= 0.70
     Davidson diagonalization with overlap
     ethr =  3.05E-08,  avg # of iterations =  2.9

     negative rho (up, down):  3.018E-04 0.000E+00

     total cpu time spent up to now is      164.1 secs

     total energy              =   -1375.69710819 Ry
     estimated scf accuracy    <       0.00000573 Ry

     iteration # 10     ecut=    70.00 Ry     beta= 0.70
     Davidson diagonalization with overlap
     ethr =  9.55E-09,  avg # of iterations =  2.0

     negative rho (up, down):  3.025E-04 0.000E+00

     total cpu time spent up to now is      178.0 secs

     total energy              =   -1375.69710873 Ry
     estimated scf accuracy    <       0.00000057 Ry

     iteration # 11     ecut=    70.00 Ry     beta= 0.70
     Davidson diagonalization with overlap
     ethr =  9.49E-10,  avg # of iterations =  2.9

     negative rho (up, down):  3.024E-04 0.000E+00

     total cpu time spent up to now is      192.5 secs

     total energy              =   -1375.69710884 Ry
     estimated scf accuracy    <       0.00000008 Ry

     iteration # 12     ecut=    70.00 Ry     beta= 0.70
     Davidson diagonalization with overlap
     ethr =  1.26E-10,  avg # of iterations =  2.5

     negative rho (up, down):  3.024E-04 0.000E+00

     total cpu time spent up to now is      208.1 secs

     total energy              =   -1375.69710885 Ry
     estimated scf accuracy    <       0.00000003 Ry

     iteration # 13     ecut=    70.00 Ry     beta= 0.70
     Davidson diagonalization with overlap
     ethr =  5.00E-11,  avg # of iterations =  2.0

     negative rho (up, down):  3.024E-04 0.000E+00

     total cpu time spent up to now is      221.9 secs

     total energy              =   -1375.69710885 Ry
     estimated scf accuracy    <          5.4E-09 Ry

     iteration # 14     ecut=    70.00 Ry     beta= 0.70
     Davidson diagonalization with overlap
     ethr =  9.06E-12,  avg # of iterations =  3.2

     negative rho (up, down):  3.024E-04 0.000E+00

     total cpu time spent up to now is      236.4 secs

     total energy              =   -1375.69710885 Ry
     estimated scf accuracy    <          3.7E-10 Ry

     iteration # 15     ecut=    70.00 Ry     beta= 0.70
     Davidson diagonalization with overlap
     ethr =  6.21E-13,  avg # of iterations =  2.3

     negative rho (up, down):  3.024E-04 0.000E+00

     total cpu time spent up to now is      251.9 secs

     total energy              =   -1375.69710885 Ry
     estimated scf accuracy    <          2.1E-10 Ry

     iteration # 16     ecut=    70.00 Ry     beta= 0.70
     Davidson diagonalization with overlap
     ethr =  3.49E-13,  avg # of iterations =  1.8

     negative rho (up, down):  3.024E-04 0.000E+00

     total cpu time spent up to now is      265.0 secs

     total energy              =   -1375.69710885 Ry
     estimated scf accuracy    <          1.1E-10 Ry

     iteration # 17     ecut=    70.00 Ry     beta= 0.70
     Davidson diagonalization with overlap
     ethr =  1.78E-13,  avg # of iterations =  1.7

     negative rho (up, down):  3.024E-04 0.000E+00

     total cpu time spent up to now is      277.9 secs

     total energy              =   -1375.69710885 Ry
     estimated scf accuracy    <          4.6E-12 Ry

     iteration # 18     ecut=    70.00 Ry     beta= 0.70
     Davidson diagonalization with overlap
     ethr =  1.00E-13,  avg # of iterations =  1.7

     negative rho (up, down):  3.024E-04 0.000E+00

     total cpu time spent up to now is      290.8 secs

     total energy              =   -1375.69710885 Ry
     estimated scf accuracy    <          2.1E-12 Ry

     iteration # 19     ecut=    70.00 Ry     beta= 0.70
     Davidson diagonalization with overlap
     ethr =  1.00E-13,  avg # of iterations =  1.0

     negative rho (up, down):  3.024E-04 0.000E+00

     total cpu time spent up to now is      303.1 secs

     End of self-consistent calculation

          k = 0.0000 0.0000 0.0000 ( 15189 PWs)   bands (ev):

   -67.6126 -67.5811 -34.5970 -34.1135 -33.6987 -33.6973 -33.6586 -33.6584
   -19.2633 -19.2493 -19.2300 -19.2298 -19.2297 -19.2295 -19.2088 -19.2087
   -19.2070 -19.2065 -19.2059 -19.1999 -19.1258 -19.1251 -12.8541  -8.3519
    -5.2558  -3.4734  -3.2170  -3.2022  -1.2339   0.3189   0.3389   2.4910
     2.5028   2.9049   2.9377   3.4852

          k = 0.0000 0.0945 0.0000 ( 15215 PWs)   bands (ev):

   -67.6081 -67.5775 -34.5821 -34.1124 -33.7576 -33.7158 -33.7154 -33.6679
   -19.2616 -19.2486 -19.2315 -19.2300 -19.2295 -19.2281 -19.2109 -19.2089
   -19.2071 -19.2063 -19.2026 -19.1967 -19.1292 -19.1286 -12.7147  -8.1333
    -5.3208  -3.5516  -3.3894  -3.1611  -1.0622  -0.0559   0.5492   1.8783
     2.1871   2.9291   3.3016   4.1820

          k = 0.0000 0.1890 0.0000 ( 15269 PWs)   bands (ev):

   -67.5957 -67.5678 -34.5419 -34.1162 -33.9133 -33.8663 -33.7602 -33.6961
   -19.2575 -19.2470 -19.2355 -19.2303 -19.2291 -19.2243 -19.2160 -19.2091
   -19.2090 -19.2046 -19.1930 -19.1878 -19.1383 -19.1378 -12.3447  -7.5545
    -5.4880  -4.0341  -3.4658  -3.0968  -1.0097  -0.4092   1.1329   1.3091
     2.0975   2.7890   3.6414   4.8885

          k = 0.0000 0.2836 0.0000 ( 15241 PWs)   bands (ev):

   -67.5784 -67.5548 -34.4922 -34.1938 -34.0664 -34.0413 -33.8178 -33.7368
   -19.2542 -19.2441 -19.2407 -19.2314 -19.2291 -19.2209 -19.2202 -19.2110
   -19.2084 -19.2018 -19.1797 -19.1755 -19.1503 -19.1491 -11.8713  -6.9315
    -5.6172  -4.4662  -3.5651  -3.1186  -1.6559   0.3108   1.1527   1.8926
     2.5009   2.6838   3.7580   5.4896

          k = 0.0001 0.3781 0.0000 ( 15185 PWs)   bands (ev):

   -67.5606 -67.5422 -34.4796 -34.3739 -34.2118 -34.0707 -33.8735 -33.7787
   -19.2546 -19.2452 -19.2398 -19.2333 -19.2325 -19.2205 -19.2192 -19.2117
   -19.2055 -19.1984 -19.1661 -19.1631 -19.1617 -19.1590 -11.4470  -6.8510
    -5.3728  -4.6858  -3.6253  -3.2352  -1.9191   1.1157   1.4868   2.0729
     2.6875   3.7805   3.9152   6.0474

          k = 0.0001 0.4726 0.0000 ( 15143 PWs)   bands (ev):

   -67.5469 -67.5336 -34.5599 -34.4949 -34.2401 -34.0835 -33.9133 -33.8096
   -19.2564 -19.2475 -19.2409 -19.2351 -19.2328 -19.2206 -19.2177 -19.2117
   -19.2020 -19.1956 -19.1696 -19.1653 -19.1559 -19.1540 -11.1760  -7.0614
    -5.1840  -4.7678  -3.4541  -3.3580  -1.8324   1.5210   1.7906   2.1374
     3.1443   4.3190   5.1288   6.1957

          k =-0.0001-0.5671 0.0000 ( 15134 PWs)   bands (ev):

   -67.5416 -67.5308 -34.6069 -34.5375 -34.2301 -34.0910 -33.9277 -33.8210
   -19.2573 -19.2480 -19.2427 -19.2358 -19.2321 -19.2214 -19.2160 -19.2119
   -19.2006 -19.1945 -19.1724 -19.1674 -19.1520 -19.1507 -11.0864  -7.1585
    -5.1761  -4.7940  -3.4081  -3.2817  -1.7702   1.4144   2.0578   2.3141
     3.2024   4.7967   5.7624   6.3421

          k = 0.0819 0.0473 0.0000 ( 15215 PWs)   bands (ev):

   -67.6081 -67.5775 -34.5820 -34.1124 -33.7588 -33.7154 -33.7148 -33.6680
   -19.2615 -19.2486 -19.2316 -19.2299 -19.2298 -19.2278 -19.2107 -19.2090
   -19.2077 -19.2057 -19.2026 -19.1967 -19.1292 -19.1286 -12.7145  -8.1330
    -5.3188  -3.5478  -3.3861  -3.1744  -1.0636  -0.0396   0.5329   1.8781
     2.1860   2.9612   3.2860   4.1686

          k = 0.0819 0.1418 0.0000 ( 15237 PWs)   bands (ev):

   -67.5996 -67.5708 -34.5544 -34.1131 -33.8552 -33.8326 -33.7353 -33.6962
   -19.2585 -19.2475 -19.2338 -19.2317 -19.2284 -19.2254 -19.2141 -19.2095
   -19.2086 -19.2049 -19.1960 -19.1906 -19.1354 -19.1350 -12.4595  -7.7287
    -5.4305  -3.8044  -3.6607  -2.9886  -0.7511  -0.6300   0.8719   1.6528
     1.8051   2.9988   3.5708   4.8150

          k = 0.0820 0.2363 0.0000 ( 15230 PWs)   bands (ev):

   -67.5847 -67.5595 -34.5085 -34.1397 -34.0112 -33.9911 -33.7950 -33.7399
   -19.2539 -19.2459 -19.2381 -19.2331 -19.2276 -19.2216 -19.2191 -19.2104
   -19.2090 -19.2030 -19.1846 -19.1800 -19.1460 -19.1455 -12.0365  -7.0703
    -5.5918  -4.3100  -3.8499  -2.7956  -1.3683  -0.1438   0.7429   1.9397
     2.2358   2.7773   3.9432   5.2961

          k = 0.0820 0.3308 0.0000 ( 15193 PWs)   bands (ev):

   -67.5672 -67.5467 -34.4707 -34.2829 -34.1619 -34.0640 -33.8647 -33.7879
   -19.2522 -19.2428 -19.2421 -19.2348 -19.2287 -19.2221 -19.2192 -19.2118
   -19.2067 -19.2003 -19.1712 -19.1677 -19.1579 -19.1564 -11.5872  -6.6426
    -5.5405  -4.6362  -4.0070  -2.8082  -1.8150   0.5093   0.8122   2.1925
     2.8451   3.4090   4.0762   5.9169

          k = 0.0820 0.4254 0.0000 ( 15170 PWs)   bands (ev):

   -67.5513 -67.5362 -34.5049 -34.4337 -34.2355 -34.0822 -33.9220 -33.8300
   -19.2537 -19.2460 -19.2400 -19.2349 -19.2321 -19.2210 -19.2192 -19.2119
   -19.2034 -19.1976 -19.1678 -19.1648 -19.1592 -19.1568 -11.2425  -6.7905
    -5.1718  -4.7576  -4.0137  -3.0099  -1.8181   0.8253   1.5697   2.0183
     3.6573   3.9484   4.7814   6.2955

          k = 0.0820 0.5199 0.0000 ( 15103 PWs)   bands (ev):

   -67.5415 -67.5308 -34.5778 -34.5104 -34.2276 -34.0973 -33.9535 -33.8544
   -19.2553 -19.2471 -19.2416 -19.2358 -19.2316 -19.2218 -19.2174 -19.2118
   -19.2014 -19.1957 -19.1732 -19.1690 -19.1521 -19.1508 -11.0661  -6.9730
    -5.0886  -4.7609  -3.7755  -3.2373  -1.6608   1.1835   1.6757   2.2602
     3.9721   4.4359   5.7492   6.2755

          k = 0.0818-0.5199 0.0000 ( 15115 PWs)   bands (ev):

   -67.5415 -67.5308 -34.5776 -34.5102 -34.2276 -34.0974 -33.9536 -33.8545
   -19.2553 -19.2471 -19.2415 -19.2359 -19.2316 -19.2218 -19.2175 -19.2118
   -19.2014 -19.1957 -19.1733 -19.1690 -19.1521 -19.1507 -11.0663  -6.9727
    -5.0885  -4.7608  -3.7717  -3.2418  -1.6601   1.1840   1.6757   2.2608
     3.9710   4.4365   5.7489   6.2760

          k = 0.0818-0.4253 0.0000 ( 15170 PWs)   bands (ev):

   -67.5513 -67.5362 -34.5045 -34.4333 -34.2353 -34.0823 -33.9223 -33.8301
   -19.2537 -19.2460 -19.2398 -19.2350 -19.2323 -19.2209 -19.2196 -19.2118
   -19.2033 -19.1976 -19.1678 -19.1648 -19.1592 -19.1568 -11.2430  -6.7898
    -5.1727  -4.7562  -4.0087  -3.0156  -1.8170   0.8260   1.5735   2.0161
     3.6529   3.9479   4.7802   6.2938

          k = 0.0819-0.3308 0.0000 ( 15195 PWs)   bands (ev):

   -67.5672 -67.5467 -34.4706 -34.2822 -34.1613 -34.0641 -33.8652 -33.7881
   -19.2521 -19.2428 -19.2421 -19.2348 -19.2288 -19.2221 -19.2195 -19.2116
   -19.2065 -19.2004 -19.1712 -19.1677 -19.1579 -19.1564 -11.5877  -6.6423
    -5.5421  -4.6338  -4.0030  -2.8113  -1.8148   0.5064   0.8183   2.1914
     2.8388   3.4072   4.0753   5.9191

          k = 0.0819-0.2363 0.0000 ( 15234 PWs)   bands (ev):

   -67.5848 -67.5595 -34.5086 -34.1392 -34.0111 -33.9902 -33.7956 -33.7401
   -19.2539 -19.2460 -19.2381 -19.2330 -19.2274 -19.2219 -19.2192 -19.2102
   -19.2089 -19.2032 -19.1846 -19.1800 -19.1460 -19.1455 -12.0370  -7.0707
    -5.5936  -4.3076  -3.8473  -2.7941  -1.3702  -0.1420   0.7400   1.9404
     2.2373   2.7716   3.9388   5.3000

          k = 0.0819-0.1418 0.0000 ( 15239 PWs)   bands (ev):

   -67.5996 -67.5709 -34.5545 -34.1130 -33.8543 -33.8323 -33.7359 -33.6964
   -19.2585 -19.2475 -19.2338 -19.2316 -19.2282 -19.2257 -19.2142 -19.2093
   -19.2083 -19.2053 -19.1960 -19.1906 -19.1354 -19.1350 -12.4598  -7.7290
    -5.4324  -3.8048  -3.6588  -2.9838  -0.7498  -0.6347   0.8743   1.6472
     1.8093   2.9956   3.5646   4.8200

          k = 0.0819-0.0472 0.0000 ( 15215 PWs)   bands (ev):

   -67.6081 -67.5775 -34.5821 -34.1124 -33.7582 -33.7155 -33.7151 -33.6681
   -19.2616 -19.2486 -19.2316 -19.2299 -19.2297 -19.2280 -19.2109 -19.2089
   -19.2074 -19.2060 -19.2026 -19.1967 -19.1292 -19.1286 -12.7146  -8.1332
    -5.3196  -3.5495  -3.3876  -3.1685  -1.0631  -0.0469   0.5403   1.8781
     2.1867   2.9473   3.2921   4.1747

          k = 0.1638 0.0946 0.0000 ( 15271 PWs)   bands (ev):

   -67.5956 -67.5678 -34.5417 -34.1165 -33.9144 -33.8667 -33.7597 -33.6962
   -19.2572 -19.2470 -19.2356 -19.2301 -19.2297 -19.2239 -19.2158 -19.2097
   -19.2093 -19.2041 -19.1930 -19.1879 -19.1383 -19.1377 -12.3439  -7.5535
    -5.4804  -4.0354  -3.4710  -3.1117  -1.0101  -0.3978   1.1202   1.3206
     2.0940   2.8186   3.6305   4.8832

          k = 0.1639 0.1891 0.0000 ( 15236 PWs)   bands (ev):

   -67.5847 -67.5595 -34.5083 -34.1400 -34.0123 -33.9905 -33.7951 -33.7400
   -19.2536 -19.2461 -19.2381 -19.2331 -19.2278 -19.2214 -19.2190 -19.2107
   -19.2092 -19.2028 -19.1846 -19.1800 -19.1460 -19.1455 -12.0360  -7.0693
    -5.5860  -4.3133  -3.8547  -2.8037  -1.3678  -0.1388   0.7502   1.9362
     2.2372   2.7858   3.9407   5.2929

          k = 0.1639 0.2836 0.0000 ( 15173 PWs)   bands (ev):

   -67.5695 -67.5484 -34.4705 -34.2267 -34.1478 -34.0554 -33.8606 -33.8157
   -19.2481 -19.2458 -19.2407 -19.2366 -19.2271 -19.2220 -19.2201 -19.2119
   -19.2069 -19.2013 -19.1731 -19.1694 -19.1563 -19.1560 -11.6360  -6.4262
    -5.6913  -4.6308  -4.2216  -2.5257  -1.6912   0.0600   0.4333   2.2166
     3.0400   3.2021   4.4832   5.7224

          k = 0.1639 0.3781 0.0000 ( 15157 PWs)   bands (ev):

   -67.5537 -67.5378 -34.4656 -34.3525 -34.2291 -34.0818 -33.9447 -33.8858
   -19.2482 -19.2431 -19.2420 -19.2371 -19.2296 -19.2224 -19.2205 -19.2122
   -19.2035 -19.2002 -19.1672 -19.1661 -19.1610 -19.1584 -11.2685  -6.2110
    -5.4673  -4.8022  -4.3840  -2.6468  -1.6848  -0.1883   1.2087   2.1688
     3.6374   4.2110   4.8793   6.3348

          k = 0.1639 0.4726 0.0000 ( 15119 PWs)   bands (ev):

   -67.5415 -67.5307 -34.5104 -34.4427 -34.2270 -34.1171 -34.0029 -33.9347
   -19.2506 -19.2441 -19.2410 -19.2346 -19.2314 -19.2230 -19.2203 -19.2115
   -19.2024 -19.1988 -19.1749 -19.1724 -19.1524 -19.1508 -11.0249  -6.4529
    -4.9290  -4.8671  -4.4043  -3.0265  -1.4544   0.0239   1.9790   2.3100
     3.8261   4.5339   5.4224   6.3558

          k = 0.1639 0.5672 0.0000 ( 15084 PWs)   bands (ev):

   -67.5366 -67.5286 -34.5375 -34.4717 -34.2092 -34.1440 -34.0191 -33.9530
   -19.2517 -19.2443 -19.2397 -19.2370 -19.2296 -19.2237 -19.2196 -19.2113
   -19.2025 -19.1981 -19.1777 -19.1746 -19.1490 -19.1481 -10.9419  -6.5632
    -4.8981  -4.7272  -4.3090  -3.2771  -1.3148   0.2276   2.2180   2.4617
     4.0575   4.4465   5.5827   6.1190

          k = 0.1638-0.4726 0.0000 ( 15123 PWs)   bands (ev):

   -67.5415 -67.5308 -34.5097 -34.4420 -34.2269 -34.1176 -34.0034 -33.9347
   -19.2505 -19.2441 -19.2407 -19.2348 -19.2316 -19.2230 -19.2205 -19.2114
   -19.2023 -19.1988 -19.1749 -19.1724 -19.1524 -19.1508 -11.0256  -6.4518
    -4.9320  -4.8640  -4.3993  -3.0315  -1.4532   0.0245   1.9831   2.3066
     3.8284   4.5241   5.4237   6.3564

          k = 0.1638-0.3781 0.0000 ( 15159 PWs)   bands (ev):

   -67.5538 -67.5378 -34.4650 -34.3512 -34.2288 -34.0820 -33.9456 -33.8860
   -19.2481 -19.2430 -19.2418 -19.2374 -19.2297 -19.2224 -19.2209 -19.2121
   -19.2033 -19.2002 -19.1673 -19.1661 -19.1610 -19.1584 -11.2695  -6.2099
    -5.4699  -4.7980  -4.3793  -2.6516  -1.6826  -0.1903   1.2143   2.1638
     3.6357   4.2040   4.8746   6.3385

          k = 0.1638-0.2835 0.0000 ( 15173 PWs)   bands (ev):

   -67.5696 -67.5484 -34.4704 -34.2253 -34.1472 -34.0553 -33.8615 -33.8160
   -19.2483 -19.2457 -19.2406 -19.2366 -19.2269 -19.2222 -19.2205 -19.2116
   -19.2066 -19.2014 -19.1730 -19.1693 -19.1563 -19.1561 -11.6369  -6.4269
    -5.6943  -4.6256  -4.2169  -2.5251  -1.6910   0.0521   0.4393   2.2134
     3.0344   3.2000   4.4765   5.7310

          k = 0.1638-0.1890 0.0000 ( 15238 PWs)   bands (ev):

   -67.5848 -67.5595 -34.5085 -34.1395 -34.0113 -33.9901 -33.7957 -33.7402
   -19.2537 -19.2460 -19.2382 -19.2330 -19.2276 -19.2218 -19.2192 -19.2104
   -19.2090 -19.2031 -19.1846 -19.1800 -19.1460 -19.1455 -12.0367  -7.0703
    -5.5903  -4.3095  -3.8500  -2.7986  -1.3698  -0.1391   0.7440   1.9384
     2.2380   2.7765   3.9370   5.2983

          k = 0.1638-0.0945 0.0000 ( 15267 PWs)   bands (ev):

   -67.5956 -67.5678 -34.5418 -34.1164 -33.9137 -33.8665 -33.7600 -33.6962
   -19.2573 -19.2470 -19.2357 -19.2301 -19.2294 -19.2241 -19.2160 -19.2093
   -19.2091 -19.2044 -19.1930 -19.1878 -19.1383 -19.1378 -12.3443  -7.5541
    -5.4836  -4.0350  -3.4685  -3.1052  -1.0101  -0.4027   1.1260   1.3155
     2.0956   2.8056   3.6346   4.8858

          k = 0.1638 0.0000 0.0000 ( 15235 PWs)   bands (ev):

   -67.5996 -67.5708 -34.5543 -34.1133 -33.8561 -33.8327 -33.7347 -33.6963
   -19.2584 -19.2475 -19.2339 -19.2317 -19.2285 -19.2252 -19.2141 -19.2096
   -19.2088 -19.2047 -19.1961 -19.1907 -19.1354 -19.1350 -12.4591  -7.7284
    -5.4277  -3.8041  -3.6629  -2.9949  -0.7528  -0.6244   0.8691   1.6607
     1.7998   3.0019   3.5786   4.8057

          k = 0.2458 0.1418 0.0000 ( 15249 PWs)   bands (ev):

   -67.5782 -67.5547 -34.4918 -34.1951 -34.0681 -34.0411 -33.8178 -33.7371
   -19.2536 -19.2441 -19.2408 -19.2311 -19.2297 -19.2208 -19.2197 -19.2116
   -19.2087 -19.2015 -19.1797 -19.1756 -19.1503 -19.1490 -11.8697  -6.9287
    -5.6055  -4.4764  -3.5748  -3.1353  -1.6539   0.3204   1.1714   1.8877
     2.5274   2.6769   3.7504   5.4828

          k = 0.2458 0.2363 0.0000 ( 15193 PWs)   bands (ev):

   -67.5670 -67.5467 -34.4706 -34.2837 -34.1622 -34.0643 -33.8652 -33.7882
   -19.2517 -19.2430 -19.2419 -19.2348 -19.2290 -19.2220 -19.2193 -19.2123
   -19.2068 -19.2001 -19.1712 -19.1677 -19.1579 -19.1562 -11.5859  -6.6379
    -5.5344  -4.6448  -4.0135  -2.8246  -1.8136   0.5269   0.8209   2.2027
     2.8454   3.4034   4.0782   5.9084

          k = 0.2458 0.3309 0.0000 ( 15161 PWs)   bands (ev):

   -67.5536 -67.5378 -34.4659 -34.3531 -34.2287 -34.0819 -33.9454 -33.8857
   -19.2483 -19.2428 -19.2415 -19.2375 -19.2297 -19.2221 -19.2209 -19.2126
   -19.2036 -19.2001 -19.1673 -19.1659 -19.1610 -19.1584 -11.2677  -6.2049
    -5.4722  -4.8035  -4.3869  -2.6564  -1.6852  -0.1770   1.2138   2.1732
     3.6374   4.2086   4.8820   6.3297

          k = 0.2458 0.4254 0.0000 ( 15084 PWs)   bands (ev):

   -67.5413 -67.5307 -34.4723 -34.3879 -34.2491 -34.1152 -34.0339 -33.9841
   -19.2480 -19.2420 -19.2378 -19.2369 -19.2320 -19.2236 -19.2217 -19.2115
   -19.2019 -19.2014 -19.1753 -19.1744 -19.1525 -19.1509 -11.0035  -5.7690
    -5.6054  -4.7467  -4.5337  -2.8590  -1.2607  -0.5974   1.8998   2.4530
     3.6692   4.5713   5.2449   6.6370

          k = 0.2458 0.5199 0.0000 ( 15099 PWs)   bands (ev):

   -67.5333 -67.5277 -34.4635 -34.3987 -34.2516 -34.1833 -34.0662 -34.0414
   -19.2491 -19.2394 -19.2377 -19.2357 -19.2300 -19.2258 -19.2231 -19.2096
   -19.2036 -19.2016 -19.1804 -19.1791 -19.1474 -19.1466 -10.8561  -5.9407
    -5.1453  -4.7286  -4.6214  -3.1531  -0.9466  -0.4724   2.5588   2.7670
     3.5025   4.1691   5.1621   6.3205

          k = 0.2459 0.6144 0.0000 ( 15101 PWs)   bands (ev):

   -67.5333 -67.5276 -34.4628 -34.3980 -34.2517 -34.1840 -34.0674 -34.0404
   -19.2489 -19.2393 -19.2377 -19.2358 -19.2303 -19.2259 -19.2230 -19.2095
   -19.2037 -19.2015 -19.1804 -19.1791 -19.1474 -19.1466 -10.8566  -5.9395
    -5.1453  -4.7286  -4.6193  -3.1547  -0.9461  -0.4723   2.5617   2.7629
     3.5063   4.1612   5.1625   6.3196

          k = 0.2457-0.4253 0.0000 ( 15090 PWs)   bands (ev):

   -67.5414 -67.5307 -34.4711 -34.3861 -34.2498 -34.1158 -34.0349 -33.9838
   -19.2477 -19.2418 -19.2378 -19.2373 -19.2321 -19.2238 -19.2217 -19.2113
   -19.2019 -19.2012 -19.1753 -19.1745 -19.1525 -19.1508 -11.0047  -5.7671
    -5.6058  -4.7446  -4.5296  -2.8617  -1.2580  -0.6006   1.9033   2.4467
     3.6719   4.5581   5.2447   6.6336

          k = 0.2457-0.3308 0.0000 ( 15163 PWs)   bands (ev):

   -67.5538 -67.5378 -34.4652 -34.3514 -34.2287 -34.0820 -33.9460 -33.8860
   -19.2481 -19.2429 -19.2416 -19.2376 -19.2297 -19.2222 -19.2212 -19.2122
   -19.2033 -19.2001 -19.1673 -19.1660 -19.1610 -19.1584 -11.2691  -6.2069
    -5.4723  -4.7986  -4.3810  -2.6566  -1.6827  -0.1842   1.2170   2.1661
     3.6357   4.2026   4.8762   6.3352

          k = 0.2457-0.2363 0.0000 ( 15195 PWs)   bands (ev):

   -67.5671 -67.5467 -34.4706 -34.2826 -34.1615 -34.0642 -33.8656 -33.7883
   -19.2518 -19.2429 -19.2421 -19.2347 -19.2289 -19.2222 -19.2196 -19.2119
   -19.2066 -19.2002 -19.1712 -19.1677 -19.1579 -19.1563 -11.5870  -6.6402
    -5.5383  -4.6386  -4.0066  -2.8202  -1.8137   0.5163   0.8228   2.1970
     2.8390   3.4040   4.0762   5.9145

          k = 0.2457-0.1417 0.0000 ( 15245 PWs)   bands (ev):

   -67.5783 -67.5547 -34.4920 -34.1946 -34.0671 -34.0412 -33.8179 -33.7370
   -19.2538 -19.2441 -19.2408 -19.2313 -19.2293 -19.2210 -19.2200 -19.2113
   -19.2085 -19.2016 -19.1797 -19.1755 -19.1503 -19.1490 -11.8705  -6.9304
    -5.6103  -4.4720  -3.5701  -3.1282  -1.6546   0.3162   1.1629   1.8900
     2.5157   2.6800   3.7532   5.4859

          k = 0.2457-0.0472 0.0000 ( 15232 PWs)   bands (ev):

   -67.5847 -67.5595 -34.5083 -34.1406 -34.0116 -33.9917 -33.7944 -33.7398
   -19.2536 -19.2459 -19.2383 -19.2331 -19.2277 -19.2214 -19.2191 -19.2107
   -19.2092 -19.2028 -19.1846 -19.1801 -19.1460 -19.1455 -12.0357  -7.0697
    -5.5858  -4.3151  -3.8552  -2.8024  -1.3657  -0.1437   0.7511   1.9371
     2.2353   2.7888   3.9470   5.2890

          k = 0.2458 0.0473 0.0000 ( 15230 PWs)   bands (ev):

   -67.5846 -67.5594 -34.5082 -34.1407 -34.0125 -33.9911 -33.7945 -33.7398
   -19.2535 -19.2460 -19.2382 -19.2331 -19.2278 -19.2213 -19.2190 -19.2108
   -19.2093 -19.2027 -19.1846 -19.1801 -19.1460 -19.1455 -12.0354  -7.0691
    -5.5834  -4.3165  -3.8575  -2.8060  -1.3655  -0.1416   0.7544   1.9355
     2.2360   2.7924   3.9464   5.2875

          k = 0.3277 0.1891 0.0000 ( 15181 PWs)   bands (ev):

   -67.5603 -67.5421 -34.4802 -34.3755 -34.2114 -34.0716 -33.8738 -33.7791
   -19.2542 -19.2451 -19.2394 -19.2331 -19.2329 -19.2209 -19.2190 -19.2125
   -19.2057 -19.1982 -19.1661 -19.1631 -19.1617 -19.1588 -11.4445  -6.8456
    -5.3642  -4.6988  -3.6372  -3.2533  -1.9173   1.1353   1.5045   2.0950
     2.6840   3.7777   3.9098   6.0399

          k = 0.3277 0.2836 0.0000 ( 15170 PWs)   bands (ev):

   -67.5510 -67.5362 -34.5060 -34.4352 -34.2338 -34.0834 -33.9227 -33.8304
   -19.2536 -19.2457 -19.2393 -19.2349 -19.2325 -19.2209 -19.2199 -19.2126
   -19.2034 -19.1974 -19.1678 -19.1645 -19.1592 -19.1568 -11.2402  -6.7853
    -5.1673  -4.7685  -4.0208  -3.0292  -1.8158   0.8488   1.5802   2.0323
     3.6558   3.9488   4.7809   6.2847

          k = 0.3277 0.3781 0.0000 ( 15117 PWs)   bands (ev):

   -67.5412 -67.5308 -34.5116 -34.4442 -34.2251 -34.1176 -34.0043 -33.9345
   -19.2511 -19.2433 -19.2404 -19.2344 -19.2319 -19.2228 -19.2209 -19.2121
   -19.2024 -19.1987 -19.1749 -19.1721 -19.1524 -19.1508 -11.0230  -6.4496
    -4.9355  -4.8692  -4.4067  -3.0385  -1.4550   0.0389   1.9896   2.3200
     3.8278   4.5293   5.4236   6.3660

          k = 0.3277 0.4727 0.0000 ( 15099 PWs)   bands (ev):

   -67.5331 -67.5277 -34.4647 -34.4001 -34.2508 -34.1817 -34.0677 -34.0408
   -19.2494 -19.2392 -19.2369 -19.2356 -19.2305 -19.2257 -19.2233 -19.2098
   -19.2039 -19.2014 -19.1804 -19.1790 -19.1474 -19.1466 -10.8549  -5.9403
    -5.1494  -4.7335  -4.6179  -3.1573  -0.9500  -0.4643   2.5676   2.7719
     3.5014   4.1690   5.1606   6.3226

          k = 0.3278 0.5672 0.0000 ( 15116 PWs)   bands (ev):

   -67.5285 -67.5283 -34.3850 -34.3443 -34.3434 -34.2323 -34.0828 -34.0802
   -19.2488 -19.2371 -19.2371 -19.2302 -19.2298 -19.2282 -19.2276 -19.2065
   -19.2049 -19.2046 -19.1822 -19.1821 -19.1453 -19.1453 -10.7913  -5.4419
    -5.4381  -4.9161  -4.5621  -3.1838  -0.6393  -0.6340   2.9574   2.9589
     3.4955   3.5030   4.8871   6.6770

          k = 0.3278 0.6617 0.0000 ( 15095 PWs)   bands (ev):

   -67.5332 -67.5277 -34.4635 -34.3985 -34.2514 -34.1832 -34.0681 -34.0402
   -19.2491 -19.2391 -19.2373 -19.2358 -19.2306 -19.2259 -19.2231 -19.2097
   -19.2038 -19.2013 -19.1804 -19.1791 -19.1474 -19.1466 -10.8559  -5.9395
    -5.1475  -4.7311  -4.6177  -3.1567  -0.9480  -0.4680   2.5666   2.7653
     3.5056   4.1614   5.1619   6.3199

          k = 0.3276-0.3780 0.0000 ( 15123 PWs)   bands (ev):

   -67.5414 -67.5308 -34.5105 -34.4425 -34.2261 -34.1177 -34.0042 -33.9347
   -19.2507 -19.2437 -19.2404 -19.2347 -19.2319 -19.2230 -19.2208 -19.2118
   -19.2024 -19.1986 -19.1748 -19.1723 -19.1524 -19.1508 -11.0245  -6.4504
    -4.9355  -4.8651  -4.4010  -3.0375  -1.4533   0.0326   1.9885   2.3120
     3.8296   4.5216   5.4243   6.3613

          k = 0.3276-0.2835 0.0000 ( 15168 PWs)   bands (ev):

   -67.5512 -67.5362 -34.5052 -34.4338 -34.2346 -34.0829 -33.9228 -33.8304
   -19.2535 -19.2459 -19.2395 -19.2350 -19.2325 -19.2208 -19.2200 -19.2122
   -19.2033 -19.1974 -19.1678 -19.1647 -19.1592 -19.1568 -11.2417  -6.7875
    -5.1701  -4.7624  -4.0127  -3.0258  -1.8153   0.8389   1.5787   2.0239
     3.6519   3.9482   4.7799   6.2870

          k = 0.3276-0.1890 0.0000 ( 15181 PWs)   bands (ev):

   -67.5604 -67.5422 -34.4799 -34.3746 -34.2117 -34.0711 -33.8737 -33.7790
   -19.2543 -19.2452 -19.2396 -19.2332 -19.2327 -19.2208 -19.2191 -19.2122
   -19.2056 -19.1983 -19.1661 -19.1631 -19.1617 -19.1589 -11.4456  -6.8485
    -5.3678  -4.6931  -3.6313  -3.2455  -1.9177   1.1269   1.4958   2.0851
     2.6855   3.7789   3.9119   6.0426

          k = 0.3276-0.0945 0.0000 ( 15197 PWs)   bands (ev):

   -67.5670 -67.5467 -34.4707 -34.2841 -34.1624 -34.0642 -33.8644 -33.7879
   -19.2518 -19.2429 -19.2421 -19.2349 -19.2288 -19.2221 -19.2191 -19.2121
   -19.2069 -19.2002 -19.1712 -19.1677 -19.1579 -19.1563 -11.5858  -6.6408
    -5.5350  -4.6442  -4.0148  -2.8142  -1.8145   0.5228   0.8088   2.2001
     2.8532   3.4088   4.0776   5.9094

          k = 0.3277 0.0001 0.0000 ( 15169 PWs)   bands (ev):

   -67.5694 -67.5483 -34.4704 -34.2286 -34.1481 -34.0556 -33.8599 -33.8154
   -19.2479 -19.2459 -19.2409 -19.2365 -19.2272 -19.2220 -19.2199 -19.2121
   -19.2071 -19.2012 -19.1731 -19.1694 -19.1563 -19.1560 -11.6348  -6.4257
    -5.6874  -4.6375  -4.2268  -2.5272  -1.6916   0.0698   0.4252   2.2211
     3.0469   3.2058   4.4912   5.7112

          k = 0.3277 0.0946 0.0000 ( 15193 PWs)   bands (ev):

   -67.5669 -67.5466 -34.4707 -34.2845 -34.1625 -34.0644 -33.8646 -33.7880
   -19.2517 -19.2430 -19.2419 -19.2349 -19.2289 -19.2220 -19.2191 -19.2123
   -19.2070 -19.2001 -19.1712 -19.1677 -19.1579 -19.1562 -11.5852  -6.6382
    -5.5326  -4.6479  -4.0178  -2.8217  -1.8141   0.5305   0.8131   2.2047
     2.8534   3.4063   4.0786   5.9055

          k = 0.4096 0.2364 0.0000 ( 15157 PWs)   bands (ev):

   -67.5464 -67.5336 -34.5617 -34.4972 -34.2372 -34.0856 -33.9139 -33.8102
   -19.2564 -19.2472 -19.2404 -19.2348 -19.2330 -19.2205 -19.2185 -19.2126
   -19.2020 -19.1955 -19.1695 -19.1650 -19.1558 -19.1540 -11.1726  -7.0576
    -5.1790  -4.7806  -3.4649  -3.3767  -1.8292   1.5315   1.8281   2.1532
     3.1352   4.3227   5.1298   6.1872

          k = 0.4096 0.3309 0.0000 ( 15111 PWs)   bands (ev):

   -67.5411 -67.5308 -34.5795 -34.5127 -34.2240 -34.0997 -33.9542 -33.8549
   -19.2555 -19.2466 -19.2411 -19.2356 -19.2315 -19.2218 -19.2182 -19.2126
   -19.2013 -19.1956 -19.1732 -19.1687 -19.1521 -19.1508 -11.0628  -6.9703
    -5.0860  -4.7725  -3.7848  -3.2523  -1.6586   1.2043   1.6860   2.2801
     3.9738   4.4367   5.7561   6.2742

          k = 0.4097 0.4254 0.0000 ( 15078 PWs)   bands (ev):

   -67.5361 -67.5287 -34.5395 -34.4742 -34.2055 -34.1452 -34.0205 -33.9527
   -19.2522 -19.2433 -19.2397 -19.2367 -19.2294 -19.2236 -19.2203 -19.2119
   -19.2025 -19.1980 -19.1776 -19.1743 -19.1490 -19.1481 -10.9387  -6.5626
    -4.9000  -4.7365  -4.3139  -3.2843  -1.3164   0.2407   2.2277   2.4789
     4.0526   4.4553   5.5788   6.1261

          k = 0.4097 0.5199 0.0000 ( 15095 PWs)   bands (ev):

   -67.5330 -67.5278 -34.4655 -34.4010 -34.2498 -34.1816 -34.0670 -34.0412
   -19.2495 -19.2394 -19.2368 -19.2355 -19.2302 -19.2256 -19.2235 -19.2099
   -19.2038 -19.2015 -19.1804 -19.1789 -19.1473 -19.1466 -10.8542  -5.9420
    -5.1493  -4.7341  -4.6199  -3.1553  -0.9510  -0.4645   2.5635   2.7779
     3.4964   4.1782   5.1612   6.3240

          k = 0.4097 0.6145 0.0000 ( 15095 PWs)   bands (ev):

   -67.5331 -67.5277 -34.4651 -34.4001 -34.2504 -34.1823 -34.0662 -34.0417
   -19.2493 -19.2395 -19.2372 -19.2355 -19.2300 -19.2257 -19.2234 -19.2098
   -19.2037 -19.2016 -19.1803 -19.1790 -19.1474 -19.1466 -10.8547  -5.9425
    -5.1473  -4.7317  -4.6219  -3.1531  -0.9494  -0.4682   2.5596   2.7755
     3.4968   4.1785   5.1620   6.3224

          k = 0.4097 0.7090 0.0000 ( 15080 PWs)   bands (ev):

   -67.5363 -67.5286 -34.5387 -34.4727 -34.2074 -34.1446 -34.0199 -33.9529
   -19.2519 -19.2439 -19.2397 -19.2368 -19.2295 -19.2237 -19.2200 -19.2116
   -19.2025 -19.1980 -19.1776 -19.1744 -19.1490 -19.1481 -10.9400  -6.5633
    -4.8989  -4.7326  -4.3121  -3.2803  -1.3154   0.2345   2.2228   2.4713
     4.0545   4.4517   5.5807   6.1223

          k = 0.4095-0.3308 0.0000 ( 15111 PWs)   bands (ev):

   -67.5413 -67.5308 -34.5787 -34.5112 -34.2258 -34.0986 -33.9541 -33.8548
   -19.2553 -19.2470 -19.2413 -19.2358 -19.2316 -19.2218 -19.2179 -19.2122
   -19.2013 -19.1956 -19.1732 -19.1688 -19.1521 -19.1507 -11.0644  -6.9718
    -5.0870  -4.7674  -3.7772  -3.2491  -1.6585   1.1953   1.6807   2.2717
     3.9717   4.4369   5.7529   6.2745

          k = 0.4095-0.2362 0.0000 ( 15153 PWs)   bands (ev):

   -67.5466 -67.5336 -34.5610 -34.4958 -34.2387 -34.0846 -33.9137 -33.8100
   -19.2563 -19.2474 -19.2407 -19.2350 -19.2329 -19.2206 -19.2182 -19.2122
   -19.2020 -19.1955 -19.1695 -19.1652 -19.1558 -19.1540 -11.1741  -7.0599
    -5.1811  -4.7752  -3.4594  -3.3684  -1.8301   1.5261   1.8117   2.1457
     3.1387   4.3212   5.1293   6.1903

          k = 0.4096-0.1417 0.0000 ( 15170 PWs)   bands (ev):

   -67.5511 -67.5362 -34.5060 -34.4347 -34.2346 -34.0829 -33.9220 -33.8301
   -19.2536 -19.2459 -19.2399 -19.2348 -19.2321 -19.2211 -19.2194 -19.2123
   -19.2035 -19.1975 -19.1678 -19.1647 -19.1591 -19.1569 -11.2406  -6.7889
    -5.1681  -4.7655  -4.0230  -3.0143  -1.8179   0.8373   1.5699   2.0294
     3.6614   3.9491   4.7832   6.2915

          k = 0.4096-0.0472 0.0000 ( 15153 PWs)   bands (ev):

   -67.5536 -67.5377 -34.4664 -34.3543 -34.2287 -34.0819 -33.9443 -33.8855
   -19.2483 -19.2431 -19.2418 -19.2371 -19.2296 -19.2224 -19.2204 -19.2125
   -19.2037 -19.2001 -19.1672 -19.1660 -19.1610 -19.1585 -11.2667  -6.2094
    -5.4672  -4.8081  -4.3909  -2.6468  -1.6882  -0.1797   1.2039   2.1788
     3.6393   4.2186   4.8867   6.3274

          k = 0.4096 0.0473 0.0000 ( 15157 PWs)   bands (ev):

   -67.5535 -67.5377 -34.4665 -34.3547 -34.2284 -34.0821 -33.9446 -33.8854
   -19.2484 -19.2429 -19.2416 -19.2373 -19.2296 -19.2222 -19.2206 -19.2127
   -19.2037 -19.2001 -19.1672 -19.1659 -19.1610 -19.1585 -11.2663  -6.2063
    -5.4696  -4.8086  -4.3921  -2.6513  -1.6885  -0.1745   1.2062   2.1809
     3.6393   4.2177   4.8879   6.3254

          k = 0.4096 0.1419 0.0000 ( 15170 PWs)   bands (ev):

   -67.5509 -67.5362 -34.5064 -34.4357 -34.2337 -34.0835 -33.9223 -33.8302
   -19.2536 -19.2457 -19.2396 -19.2348 -19.2323 -19.2209 -19.2197 -19.2126
   -19.2035 -19.1975 -19.1678 -19.1645 -19.1591 -19.1569 -11.2396  -6.7861
    -5.1662  -4.7703  -4.0261  -3.0234  -1.8173   0.8478   1.5753   2.0357
     3.6609   3.9491   4.7830   6.2874

          k =-0.4915-0.2837 0.0000 ( 15122 PWs)   bands (ev):

   -67.5410 -67.5308 -34.6088 -34.5401 -34.2260 -34.0939 -33.9284 -33.8217
   -19.2574 -19.2475 -19.2423 -19.2356 -19.2320 -19.2214 -19.2168 -19.2128
   -19.2005 -19.1944 -19.1723 -19.1671 -19.1519 -19.1507 -11.0826  -7.1559
    -5.1729  -4.8063  -3.4270  -3.2916  -1.7661   1.4254   2.0947   2.3326
     3.1924   4.7989   5.7716   6.3347

          k =-0.4915-0.1891 0.0000 ( 15105 PWs)   bands (ev):

   -67.5410 -67.5308 -34.5797 -34.5129 -34.2239 -34.0997 -33.9541 -33.8548
   -19.2555 -19.2466 -19.2413 -19.2355 -19.2315 -19.2218 -19.2181 -19.2126
   -19.2014 -19.1956 -19.1732 -19.1687 -19.1521 -19.1508 -11.0625  -6.9706
    -5.0862  -4.7727  -3.7886  -3.2480  -1.6594   1.2036   1.6862   2.2795
     3.9749   4.4356   5.7567   6.2752

          k =-0.4915-0.0946 0.0000 ( 15115 PWs)   bands (ev):

   -67.5411 -67.5308 -34.5123 -34.4451 -34.2245 -34.1177 -34.0038 -33.9343
   -19.2511 -19.2433 -19.2407 -19.2342 -19.2317 -19.2228 -19.2208 -19.2121
   -19.2025 -19.1988 -19.1748 -19.1721 -19.1523 -19.1508 -11.0220  -6.4511
    -4.9322  -4.8728  -4.4121  -3.0331  -1.4568   0.0379   1.9843   2.3251
     3.8244   4.5406   5.4233   6.3663

          k =-0.4915-0.0001 0.0000 ( 15090 PWs)   bands (ev):

   -67.5412 -67.5307 -34.4736 -34.3900 -34.2476 -34.1152 -34.0334 -33.9840
   -19.2483 -19.2422 -19.2373 -19.2368 -19.2320 -19.2233 -19.2219 -19.2117
   -19.2018 -19.2017 -19.1752 -19.1744 -19.1525 -19.1509 -11.0018  -5.7723
    -5.6048  -4.7488  -4.5388  -2.8556  -1.2650  -0.5934   1.8946   2.4622
     3.6652   4.5869   5.2470   6.6418

          k =-0.4915 0.0944 0.0000 ( 15119 PWs)   bands (ev):

   -67.5412 -67.5308 -34.5119 -34.4441 -34.2256 -34.1173 -34.0032 -33.9346
   -19.2508 -19.2438 -19.2410 -19.2342 -19.2315 -19.2230 -19.2205 -19.2119
   -19.2025 -19.1988 -19.1748 -19.1723 -19.1523 -19.1508 -11.0228  -6.4530
    -4.9292  -4.8719  -4.4114  -3.0272  -1.4563   0.0310   1.9791   2.3205
     3.8238   4.5426   5.4228   6.3609

          k =-0.4915 0.1890 0.0000 ( 15105 PWs)   bands (ev):

   -67.5412 -67.5308 -34.5791 -34.5115 -34.2257 -34.0986 -33.9538 -33.8547
   -19.2553 -19.2469 -19.2415 -19.2356 -19.2315 -19.2218 -19.2178 -19.2122
   -19.2014 -19.1956 -19.1732 -19.1688 -19.1521 -19.1507 -11.0639  -6.9724
    -5.0873  -4.7678  -3.7848  -3.2403  -1.6599   1.1940   1.6809   2.2705
     3.9738   4.4352   5.7536   6.2752

          k =-0.4916-0.8508 0.0000 ( 15130 PWs)   bands (ev):

   -67.5413 -67.5308 -34.6081 -34.5386 -34.2280 -34.0925 -33.9282 -33.8215
   -19.2572 -19.2478 -19.2425 -19.2357 -19.2320 -19.2215 -19.2165 -19.2124
   -19.2006 -19.1944 -19.1723 -19.1672 -19.1519 -19.1507 -11.0842  -7.1577
    -5.1743  -4.8011  -3.4190  -3.2860  -1.7674   1.4197   2.0788   2.3234
     3.1963   4.7979   5.7676   6.3375

     the Fermi energy is     0.8288 ev

!    total energy              =   -1375.69710885 Ry
     estimated scf accuracy    <          5.1E-13 Ry
     smearing contrib. (-TS)   =      -0.00000374 Ry
     internal energy E=F+TS    =   -1375.69710511 Ry

     The total energy is F=E-TS. E is the sum of the following terms:
     one-electron contribution =  -11616.51106432 Ry
     hartree contribution      =    5838.39391414 Ry
     xc contribution           =    -140.31146565 Ry
     ewald contribution        =    4542.73151072 Ry

     convergence has been achieved in  19 iterations

     negative rho (up, down):  3.024E-04 0.000E+00

     Forces acting on atoms (cartesian axes, Ry/au):

     atom    1 type  2   force =    -0.00045467    0.00025803   -0.00000143
     atom    2 type  1   force =     0.00003975    0.00027609   -0.00027684
     atom    3 type  1   force =     0.00009800   -0.00035188    0.00027753
     atom    4 type  3   force =     0.00026894   -0.00055562   -0.00005801
     atom    5 type  3   force =     0.00004798    0.00037338    0.00005875

     Total force =     0.001081     Total SCF correction =     0.000007


     Computing stress (Cartesian axis) and pressure


     negative rho (up, down):  3.024E-04 0.000E+00
          total   stress  (Ry/bohr**3)                   (kbar)     P=       -0.30
  -0.00000279   0.00000012   0.00000076           -0.41        0.02        0.11
   0.00000012   0.00000001  -0.00000380            0.02        0.00       -0.56
   0.00000076  -0.00000380  -0.00000340            0.11       -0.56       -0.50


     Writing output data file /scratch/as3359/Ta2CH2-VCrelax/Ta.save/
 
     init_run     :     14.44s CPU      7.97s WALL (       1 calls)
     electrons    :    575.75s CPU    294.96s WALL (       1 calls)
     forces       :      4.53s CPU      2.34s WALL (       1 calls)
     stress       :     16.71s CPU      8.61s WALL (       1 calls)

     Called by init_run:
     wfcinit      :     10.85s CPU      5.58s WALL (       1 calls)
     potinit      :      0.88s CPU      0.45s WALL (       1 calls)
     hinit0       :      2.18s CPU      1.57s WALL (       1 calls)

     Called by electrons:
     c_bands      :    476.24s CPU    241.85s WALL (      19 calls)
     sum_band     :     88.07s CPU     46.13s WALL (      19 calls)
     v_of_rho     :      1.68s CPU      0.88s WALL (      20 calls)
     newd         :      9.59s CPU      6.04s WALL (      20 calls)
     mix_rho      :      0.57s CPU      0.31s WALL (      19 calls)

     Called by c_bands:
     init_us_2    :     11.91s CPU      5.96s WALL (    3034 calls)
     cegterg      :    440.23s CPU    223.63s WALL (    1406 calls)

     Called by *egterg:
     cdiaghg      :     16.60s CPU      8.50s WALL (    7256 calls)
     h_psi        :    347.66s CPU    177.03s WALL (    7330 calls)
     s_psi        :     15.45s CPU      7.75s WALL (    7330 calls)
     g_psi        :      2.05s CPU      1.03s WALL (    5850 calls)

     Called by h_psi:
     h_psi:calbec :     14.57s CPU      7.33s WALL (    7330 calls)
     vloc_psi     :    310.95s CPU    158.56s WALL (    7330 calls)
     add_vuspsi   :     18.95s CPU      9.50s WALL (    7330 calls)

     General routines
     calbec       :     20.15s CPU     10.14s WALL (    9106 calls)
     fft          :      1.10s CPU      0.56s WALL (     245 calls)
     ffts         :      0.06s CPU      0.03s WALL (      19 calls)
     fftw         :    318.52s CPU    162.55s WALL (  301272 calls)
 
     Parallel routines
 
     PWSCF        :  10m14.32s CPU   5m16.61s WALL

 
   This run was terminated on:  14:20:11   7Apr2022            

=------------------------------------------------------------------------------=
   JOB DONE.
=------------------------------------------------------------------------------=
