
     Program PWSCF v.6.8 starts on  7Apr2022 at 17:44:35 

     This program is part of the open-source Quantum ESPRESSO suite
     for quantum simulation of materials; please cite
         "P. Giannozzi et al., J. Phys.:Condens. Matter 21 395502 (2009);
         "P. Giannozzi et al., J. Phys.:Condens. Matter 29 465901 (2017);
         "P. Giannozzi et al., J. Chem. Phys. 152 154105 (2020);
          URL http://www.quantum-espresso.org", 
     in publications or presentations arising from this work. More details at
     http://www.quantum-espresso.org/quote

     Parallel version (MPI & OpenMP), running on       4 processor cores
     Number of MPI processes:                 2
     Threads/MPI process:                     2

     MPI processes distributed on     1 nodes
     R & G space division:  proc/nbgrp/npool/nimage =       2
     123097 MiB available memory on the printing compute node when the environment starts
 
     Reading input from Ta2CH2.scf.160.in

     Current dimensions of program PWSCF are:
     Max number of different atomic species (ntypx) = 10
     Max number of k-points (npk) =  40000
     Max angular momentum in pseudopotentials (lmaxx) =  4
     file Ta.pbesol-spfn-rrkjus_psl.1.0.0.UPF: wavefunction(s)  5S 5P renormalized

     Subspace diagonalization in iterative solution of the eigenvalue problem:
     a serial algorithm will be used

 
     Parallelization info
     --------------------
     sticks:   dense  smooth     PW     G-vecs:    dense   smooth      PW
     Min         703     703    210               209614   209614   33814
     Max         706     706    211               209617   209617   33849
     Sum        1409    1409    421               419231   419231   67663
 
     Using Slab Decomposition
 


     bravais-lattice index     =            0
     lattice parameter (alat)  =       5.5500  a.u.
     unit-cell volume          =    1533.2393 (a.u.)^3
     number of atoms/cell      =            5
     number of atomic types    =            3
     number of electrons       =        60.00
     number of Kohn-Sham states=           36
     kinetic-energy cutoff     =     160.0000  Ry
     charge density cutoff     =     640.0000  Ry
     scf convergence threshold =      1.0E-12
     mixing beta               =       0.7000
     number of iterations used =            8  plain     mixing
     Exchange-correlation= PBESOL
                           (   1   4  10   8   0   0   0)

     celldm(1)=   5.550000  celldm(2)=   0.000000  celldm(3)=   0.000000
     celldm(4)=   0.000000  celldm(5)=   0.000000  celldm(6)=   0.000000

     crystal axes: (cart. coord. in units of alat)
               a(1) = (   1.017295  -0.000177   0.000000 )  
               a(2) = (  -0.508801   0.881714   0.000000 )  
               a(3) = (   0.000000   0.000000  10.000000 )  

     reciprocal axes: (cart. coord. in units 2 pi/alat)
               b(1) = (  0.983098  0.567305  0.000000 )  
               b(2) = (  0.000198  1.134269  0.000000 )  
               b(3) = (  0.000000  0.000000  0.100000 )  


     PseudoPot. # 1 for Ta read from file:
     /shared/home/as3359/pseudo/Ta.pbesol-spfn-rrkjus_psl.1.0.0.UPF
     MD5 check sum: f099565ffaca9b150a52e9412a28e20b
     Pseudo is Ultrasoft + core correction, Zval = 27.0
     Generated using &quot;atomic&quot; code by A. Dal Corso  v.6.3
     Using radial grid of 1273 points,  8 beta functions with: 
                l(1) =   0
                l(2) =   0
                l(3) =   1
                l(4) =   1
                l(5) =   2
                l(6) =   2
                l(7) =   3
                l(8) =   3
     Q(r) pseudized with 0 coefficients 


     PseudoPot. # 2 for C  read from file:
     /shared/home/as3359/pseudo/C.pbesol-n-rrkjus_psl.1.0.0.UPF
     MD5 check sum: 05995be603a8a7c99da3dc4413f31573
     Pseudo is Ultrasoft + core correction, Zval =  4.0
     Generated using &quot;atomic&quot; code by A. Dal Corso  v.6.3MaX
     Using radial grid of 1073 points,  4 beta functions with: 
                l(1) =   0
                l(2) =   0
                l(3) =   1
                l(4) =   1
     Q(r) pseudized with 0 coefficients 


     PseudoPot. # 3 for H  read from file:
     /shared/home/as3359/pseudo/H.pbesol-rrkjus_psl.0.1.UPF
     MD5 check sum: 1dbb1a5c48b1283557b8117eb856a7ca
     Pseudo is Ultrasoft, Zval =  1.0
     Generated using "atomic" code by A. Dal Corso  v.5.0.2 svn rev. 9415
     Using radial grid of  929 points,  2 beta functions with: 
                l(1) =   0
                l(2) =   0
     Q(r) pseudized with 0 coefficients 


     atomic species   valence    mass     pseudopotential
        Ta            27.00   180.94788     Ta( 1.00)
        C              4.00    12.01070     C ( 1.00)
        H              1.00     1.00000     H ( 1.00)

     No symmetry found



   Cartesian axes

     site n.     atom                  positions (alat units)
         1           C   tau(   1) = (   0.0000000   0.0000000   0.0000000  )
         2           Ta  tau(   2) = (   0.5088008   0.2948413  -0.4364511  )
         3           Ta  tau(   3) = (  -0.0007447   0.5869407   0.4364532  )
         4           H   tau(   4) = (  -0.0017928  -0.0015314   0.8341930  )
         5           H   tau(   5) = (   0.0002769   0.0024412  -0.8341930  )

     number of k points=    74  Marzari-Vanderbilt smearing, width (Ry)=  0.0010
                       cart. coord. in units 2pi/alat
        k(    1) = (   0.0000000   0.0000000   0.0000000), wk =   0.0138889
        k(    2) = (   0.0000165   0.0945224   0.0000000), wk =   0.0277778
        k(    3) = (   0.0000329   0.1890448   0.0000000), wk =   0.0277778
        k(    4) = (   0.0000494   0.2835672   0.0000000), wk =   0.0277778
        k(    5) = (   0.0000659   0.3780896   0.0000000), wk =   0.0277778
        k(    6) = (   0.0000823   0.4726120   0.0000000), wk =   0.0277778
        k(    7) = (  -0.0000988  -0.5671343   0.0000000), wk =   0.0138889
        k(    8) = (   0.0819248   0.0472755   0.0000000), wk =   0.0277778
        k(    9) = (   0.0819413   0.1417978   0.0000000), wk =   0.0277778
        k(   10) = (   0.0819577   0.2363202   0.0000000), wk =   0.0277778
        k(   11) = (   0.0819742   0.3308426   0.0000000), wk =   0.0277778
        k(   12) = (   0.0819907   0.4253650   0.0000000), wk =   0.0277778
        k(   13) = (   0.0820071   0.5198874   0.0000000), wk =   0.0277778
        k(   14) = (   0.0818260  -0.5198589   0.0000000), wk =   0.0277778
        k(   15) = (   0.0818425  -0.4253365   0.0000000), wk =   0.0277778
        k(   16) = (   0.0818590  -0.3308141   0.0000000), wk =   0.0277778
        k(   17) = (   0.0818754  -0.2362917   0.0000000), wk =   0.0277778
        k(   18) = (   0.0818919  -0.1417693   0.0000000), wk =   0.0277778
        k(   19) = (   0.0819084  -0.0472469   0.0000000), wk =   0.0277778
        k(   20) = (   0.1638496   0.0945509   0.0000000), wk =   0.0277778
        k(   21) = (   0.1638661   0.1890733   0.0000000), wk =   0.0277778
        k(   22) = (   0.1638826   0.2835957   0.0000000), wk =   0.0277778
        k(   23) = (   0.1638990   0.3781181   0.0000000), wk =   0.0277778
        k(   24) = (   0.1639155   0.4726405   0.0000000), wk =   0.0277778
        k(   25) = (   0.1639319   0.5671629   0.0000000), wk =   0.0277778
        k(   26) = (   0.1637508  -0.4725834   0.0000000), wk =   0.0277778
        k(   27) = (   0.1637673  -0.3780610   0.0000000), wk =   0.0277778
        k(   28) = (   0.1637838  -0.2835386   0.0000000), wk =   0.0277778
        k(   29) = (   0.1638002  -0.1890163   0.0000000), wk =   0.0277778
        k(   30) = (   0.1638167  -0.0944939   0.0000000), wk =   0.0277778
        k(   31) = (   0.1638332   0.0000285   0.0000000), wk =   0.0277778
        k(   32) = (   0.2457744   0.1418264   0.0000000), wk =   0.0277778
        k(   33) = (   0.2457909   0.2363488   0.0000000), wk =   0.0277778
        k(   34) = (   0.2458074   0.3308711   0.0000000), wk =   0.0277778
        k(   35) = (   0.2458238   0.4253935   0.0000000), wk =   0.0277778
        k(   36) = (   0.2458403   0.5199159   0.0000000), wk =   0.0277778
        k(   37) = (   0.2458568   0.6144383   0.0000000), wk =   0.0277778
        k(   38) = (   0.2456757  -0.4253080   0.0000000), wk =   0.0277778
        k(   39) = (   0.2456921  -0.3307856   0.0000000), wk =   0.0277778
        k(   40) = (   0.2457086  -0.2362632   0.0000000), wk =   0.0277778
        k(   41) = (   0.2457251  -0.1417408   0.0000000), wk =   0.0277778
        k(   42) = (   0.2457415  -0.0472184   0.0000000), wk =   0.0277778
        k(   43) = (   0.2457580   0.0473040   0.0000000), wk =   0.0277778
        k(   44) = (   0.3276993   0.1891018   0.0000000), wk =   0.0277778
        k(   45) = (   0.3277157   0.2836242   0.0000000), wk =   0.0277778
        k(   46) = (   0.3277322   0.3781466   0.0000000), wk =   0.0277778
        k(   47) = (   0.3277486   0.4726690   0.0000000), wk =   0.0277778
        k(   48) = (   0.3277651   0.5671914   0.0000000), wk =   0.0277778
        k(   49) = (   0.3277816   0.6617138   0.0000000), wk =   0.0277778
        k(   50) = (   0.3276005  -0.3780325   0.0000000), wk =   0.0277778
        k(   51) = (   0.3276169  -0.2835101   0.0000000), wk =   0.0277778
        k(   52) = (   0.3276334  -0.1889877   0.0000000), wk =   0.0277778
        k(   53) = (   0.3276499  -0.0944653   0.0000000), wk =   0.0277778
        k(   54) = (   0.3276663   0.0000570   0.0000000), wk =   0.0277778
        k(   55) = (   0.3276828   0.0945794   0.0000000), wk =   0.0277778
        k(   56) = (   0.4096241   0.2363773   0.0000000), wk =   0.0277778
        k(   57) = (   0.4096405   0.3308997   0.0000000), wk =   0.0277778
        k(   58) = (   0.4096570   0.4254221   0.0000000), wk =   0.0277778
        k(   59) = (   0.4096735   0.5199445   0.0000000), wk =   0.0277778
        k(   60) = (   0.4096899   0.6144668   0.0000000), wk =   0.0277778
        k(   61) = (   0.4097064   0.7089892   0.0000000), wk =   0.0277778
        k(   62) = (   0.4095253  -0.3307571   0.0000000), wk =   0.0277778
        k(   63) = (   0.4095418  -0.2362347   0.0000000), wk =   0.0277778
        k(   64) = (   0.4095582  -0.1417123   0.0000000), wk =   0.0277778
        k(   65) = (   0.4095747  -0.0471899   0.0000000), wk =   0.0277778
        k(   66) = (   0.4095911   0.0473325   0.0000000), wk =   0.0277778
        k(   67) = (   0.4096076   0.1418549   0.0000000), wk =   0.0277778
        k(   68) = (  -0.4915489  -0.2836527   0.0000000), wk =   0.0138889
        k(   69) = (  -0.4915324  -0.1891303   0.0000000), wk =   0.0277778
        k(   70) = (  -0.4915160  -0.0946080   0.0000000), wk =   0.0277778
        k(   71) = (  -0.4914995  -0.0000856   0.0000000), wk =   0.0277778
        k(   72) = (  -0.4914830   0.0944368   0.0000000), wk =   0.0277778
        k(   73) = (  -0.4914666   0.1889592   0.0000000), wk =   0.0277778
        k(   74) = (  -0.4916477  -0.8507871   0.0000000), wk =   0.0138889

     Dense  grid:   419231 G-vectors     FFT dimensions: (  45,  45, 450)

     Estimated max dynamical RAM per process >       3.04 GB

     Estimated total dynamical RAM >       6.09 GB

     Initial potential from superposition of free atoms

     starting charge   59.99840, renormalised to   60.00000

     negative rho (up, down):  5.759E-05 0.000E+00
     Starting wfcs are   40 randomized atomic wfcs

     total cpu time spent up to now is       29.4 secs

     Self-consistent Calculation

     iteration #  1     ecut=   160.00 Ry     beta= 0.70
     Davidson diagonalization with overlap
     ethr =  1.00E-02,  avg # of iterations =  2.0

     negative rho (up, down):  6.109E-05 0.000E+00

     total cpu time spent up to now is       83.3 secs

     total energy              =   -1375.12227561 Ry
     estimated scf accuracy    <       1.04869864 Ry

     iteration #  2     ecut=   160.00 Ry     beta= 0.70
     Davidson diagonalization with overlap
     ethr =  1.75E-03,  avg # of iterations =  7.1

     negative rho (up, down):  5.652E-05 0.000E+00

     total cpu time spent up to now is      157.0 secs

     total energy              =   -1374.71657038 Ry
     estimated scf accuracy    <       5.41671727 Ry

     iteration #  3     ecut=   160.00 Ry     beta= 0.70
     Davidson diagonalization with overlap
     ethr =  1.75E-03,  avg # of iterations =  4.7

     negative rho (up, down):  7.797E-05 0.000E+00

     total cpu time spent up to now is      222.7 secs

     total energy              =   -1375.66783473 Ry
     estimated scf accuracy    <       0.22947176 Ry

     iteration #  4     ecut=   160.00 Ry     beta= 0.70
     Davidson diagonalization with overlap
     ethr =  3.82E-04,  avg # of iterations =  2.4

     negative rho (up, down):  1.007E-04 0.000E+00

     total cpu time spent up to now is      278.0 secs

     total energy              =   -1375.69438686 Ry
     estimated scf accuracy    <       0.03132127 Ry

     iteration #  5     ecut=   160.00 Ry     beta= 0.70
     Davidson diagonalization with overlap
     ethr =  5.22E-05,  avg # of iterations = 10.5

     negative rho (up, down):  1.205E-04 0.000E+00

     total cpu time spent up to now is      349.4 secs

     total energy              =   -1375.67623431 Ry
     estimated scf accuracy    <       0.44870846 Ry

     iteration #  6     ecut=   160.00 Ry     beta= 0.70
     Davidson diagonalization with overlap
     c_bands:  1 eigenvalues not converged
     c_bands:  1 eigenvalues not converged
     ethr =  5.22E-05,  avg # of iterations = 10.6

     negative rho (up, down):  1.474E-04 0.000E+00

     total cpu time spent up to now is      419.1 secs

     total energy              =   -1375.70040194 Ry
     estimated scf accuracy    <       0.00496913 Ry

     iteration #  7     ecut=   160.00 Ry     beta= 0.70
     Davidson diagonalization with overlap
     c_bands:  1 eigenvalues not converged
     ethr =  8.28E-06,  avg # of iterations =  6.7

     negative rho (up, down):  1.656E-04 0.000E+00

     total cpu time spent up to now is      484.6 secs

     total energy              =   -1375.70116204 Ry
     estimated scf accuracy    <       0.00021799 Ry

     iteration #  8     ecut=   160.00 Ry     beta= 0.70
     Davidson diagonalization with overlap
     ethr =  3.63E-07,  avg # of iterations =  5.2

     negative rho (up, down):  1.766E-04 0.000E+00

     total cpu time spent up to now is      549.0 secs

     total energy              =   -1375.70120663 Ry
     estimated scf accuracy    <       0.00000970 Ry

     iteration #  9     ecut=   160.00 Ry     beta= 0.70
     Davidson diagonalization with overlap
     ethr =  1.62E-08,  avg # of iterations =  3.6

     negative rho (up, down):  1.776E-04 0.000E+00

     total cpu time spent up to now is      610.2 secs

     total energy              =   -1375.70120794 Ry
     estimated scf accuracy    <       0.00000453 Ry

     iteration # 10     ecut=   160.00 Ry     beta= 0.70
     Davidson diagonalization with overlap
     ethr =  7.54E-09,  avg # of iterations =  2.0

     negative rho (up, down):  1.781E-04 0.000E+00

     total cpu time spent up to now is      667.1 secs

     total energy              =   -1375.70120831 Ry
     estimated scf accuracy    <       0.00000075 Ry

     iteration # 11     ecut=   160.00 Ry     beta= 0.70
     Davidson diagonalization with overlap
     ethr =  1.26E-09,  avg # of iterations =  2.9

     negative rho (up, down):  1.781E-04 0.000E+00

     total cpu time spent up to now is      727.2 secs

     total energy              =   -1375.70120847 Ry
     estimated scf accuracy    <       0.00000007 Ry

     iteration # 12     ecut=   160.00 Ry     beta= 0.70
     Davidson diagonalization with overlap
     ethr =  1.12E-10,  avg # of iterations =  2.4

     negative rho (up, down):  1.781E-04 0.000E+00

     total cpu time spent up to now is      779.7 secs

     total energy              =   -1375.70120847 Ry
     estimated scf accuracy    <       0.00000003 Ry

     iteration # 13     ecut=   160.00 Ry     beta= 0.70
     Davidson diagonalization with overlap
     ethr =  5.21E-11,  avg # of iterations =  2.0

     negative rho (up, down):  1.781E-04 0.000E+00

     total cpu time spent up to now is      831.1 secs

     total energy              =   -1375.70120847 Ry
     estimated scf accuracy    <          6.6E-09 Ry

     iteration # 14     ecut=   160.00 Ry     beta= 0.70
     Davidson diagonalization with overlap
     ethr =  1.09E-11,  avg # of iterations =  3.8

     negative rho (up, down):  1.781E-04 0.000E+00

     total cpu time spent up to now is      886.5 secs

     total energy              =   -1375.70120847 Ry
     estimated scf accuracy    <          1.5E-10 Ry

     iteration # 15     ecut=   160.00 Ry     beta= 0.70
     Davidson diagonalization with overlap
     ethr =  2.48E-13,  avg # of iterations =  4.6

     negative rho (up, down):  1.781E-04 0.000E+00

     total cpu time spent up to now is      950.1 secs

     total energy              =   -1375.70120847 Ry
     estimated scf accuracy    <          1.8E-10 Ry

     iteration # 16     ecut=   160.00 Ry     beta= 0.70
     Davidson diagonalization with overlap
     ethr =  2.48E-13,  avg # of iterations =  1.7

     negative rho (up, down):  1.781E-04 0.000E+00

     total cpu time spent up to now is      998.2 secs

     total energy              =   -1375.70120847 Ry
     estimated scf accuracy    <          5.9E-11 Ry

     iteration # 17     ecut=   160.00 Ry     beta= 0.70
     Davidson diagonalization with overlap
     ethr =  1.00E-13,  avg # of iterations =  2.3

     negative rho (up, down):  1.781E-04 0.000E+00

     total cpu time spent up to now is     1049.9 secs

     total energy              =   -1375.70120847 Ry
     estimated scf accuracy    <          1.4E-12 Ry

     iteration # 18     ecut=   160.00 Ry     beta= 0.70
     Davidson diagonalization with overlap
     ethr =  1.00E-13,  avg # of iterations =  1.0

     negative rho (up, down):  1.781E-04 0.000E+00

     total cpu time spent up to now is     1095.1 secs

     End of self-consistent calculation

          k = 0.0000 0.0000 0.0000 ( 52443 PWs)   bands (ev):

   -67.6111 -67.5796 -34.5974 -34.1140 -33.6993 -33.6979 -33.6592 -33.6589
   -19.2567 -19.2427 -19.2235 -19.2231 -19.2228 -19.2227 -19.2018 -19.2017
   -19.2005 -19.1998 -19.1993 -19.1931 -19.1192 -19.1184 -12.8532  -8.3509
    -5.2550  -3.4728  -3.2165  -3.2016  -1.2333   0.3194   0.3393   2.4915
     2.5033   2.9052   2.9380   3.4868

          k = 0.0000 0.0945 0.0000 ( 52525 PWs)   bands (ev):

   -67.6066 -67.5760 -34.5825 -34.1128 -33.7582 -33.7164 -33.7159 -33.6685
   -19.2550 -19.2420 -19.2246 -19.2232 -19.2229 -19.2215 -19.2039 -19.2019
   -19.2006 -19.1997 -19.1958 -19.1899 -19.1226 -19.1219 -12.7138  -8.1323
    -5.3200  -3.5510  -3.3889  -3.1605  -1.0616  -0.0554   0.5496   1.8788
     2.1876   2.9299   3.3020   4.1838

          k = 0.0000 0.1890 0.0000 ( 52534 PWs)   bands (ev):

   -67.5942 -67.5663 -34.5423 -34.1166 -33.9138 -33.8669 -33.7608 -33.6966
   -19.2509 -19.2404 -19.2286 -19.2233 -19.2226 -19.2177 -19.2090 -19.2025
   -19.2020 -19.1981 -19.1862 -19.1809 -19.1317 -19.1312 -12.3439  -7.5536
    -5.4873  -4.0335  -3.4652  -3.0962  -1.0092  -0.4087   1.1333   1.3097
     2.0979   2.7900   3.6418   4.9437

          k = 0.0000 0.2836 0.0000 ( 52424 PWs)   bands (ev):

   -67.5769 -67.5533 -34.4926 -34.1943 -34.0670 -34.0418 -33.8184 -33.7374
   -19.2476 -19.2375 -19.2337 -19.2244 -19.2223 -19.2141 -19.2135 -19.2045
   -19.2015 -19.1953 -19.1728 -19.1686 -19.1437 -19.1425 -11.8705  -6.9307
    -5.6164  -4.4655  -3.5645  -3.1180  -1.6553   0.3113   1.1533   1.8930
     2.5016   2.6842   3.7584   5.5288

          k = 0.0001 0.3781 0.0000 ( 52370 PWs)   bands (ev):

   -67.5591 -67.5407 -34.4801 -34.3745 -34.2123 -34.0711 -33.8740 -33.7792
   -19.2481 -19.2382 -19.2331 -19.2263 -19.2256 -19.2139 -19.2124 -19.2053
   -19.1989 -19.1918 -19.1592 -19.1562 -19.1551 -19.1524 -11.4463  -6.8502
    -5.3720  -4.6851  -3.6247  -3.2346  -1.9185   1.1163   1.4875   2.0735
     2.6879   3.7809   3.9155   6.0518

          k = 0.0001 0.4726 0.0000 ( 52386 PWs)   bands (ev):

   -67.5454 -67.5321 -34.5604 -34.4954 -34.2406 -34.0840 -33.9139 -33.8102
   -19.2499 -19.2406 -19.2339 -19.2281 -19.2261 -19.2137 -19.2112 -19.2052
   -19.1955 -19.1890 -19.1630 -19.1587 -19.1489 -19.1471 -11.1754  -7.0606
    -5.1832  -4.7672  -3.4534  -3.3574  -1.8317   1.5216   1.7912   2.1380
     3.1448   4.3193   5.1291   6.1964

          k =-0.0001-0.5671 0.0000 ( 52384 PWs)   bands (ev):

   -67.5401 -67.5293 -34.6074 -34.5380 -34.2305 -34.0915 -33.9283 -33.8216
   -19.2507 -19.2410 -19.2357 -19.2289 -19.2255 -19.2145 -19.2095 -19.2054
   -19.1941 -19.1879 -19.1658 -19.1608 -19.1450 -19.1438 -11.0858  -7.1577
    -5.1754  -4.7934  -3.4075  -3.2810  -1.7695   1.4151   2.0585   2.3147
     3.2028   4.7971   5.7626   6.3426

          k = 0.0819 0.0473 0.0000 ( 52529 PWs)   bands (ev):

   -67.6066 -67.5760 -34.5824 -34.1129 -33.7594 -33.7160 -33.7153 -33.6686
   -19.2550 -19.2420 -19.2247 -19.2232 -19.2230 -19.2213 -19.2037 -19.2020
   -19.2012 -19.1991 -19.1959 -19.1899 -19.1226 -19.1219 -12.7136  -8.1320
    -5.3180  -3.5472  -3.3855  -3.1739  -1.0630  -0.0392   0.5333   1.8787
     2.1864   2.9621   3.2864   4.1703

          k = 0.0819 0.1418 0.0000 ( 52531 PWs)   bands (ev):

   -67.5981 -67.5693 -34.5548 -34.1136 -33.8558 -33.8331 -33.7359 -33.6968
   -19.2519 -19.2409 -19.2268 -19.2250 -19.2216 -19.2189 -19.2071 -19.2026
   -19.2019 -19.1984 -19.1892 -19.1838 -19.1288 -19.1284 -12.4586  -7.7277
    -5.4297  -3.8038  -3.6601  -2.9880  -0.7505  -0.6296   0.8723   1.6532
     1.8058   2.9994   3.5719   4.8307

          k = 0.0820 0.2363 0.0000 ( 52461 PWs)   bands (ev):

   -67.5833 -67.5580 -34.5089 -34.1402 -34.0117 -33.9916 -33.7955 -33.7404
   -19.2473 -19.2394 -19.2311 -19.2262 -19.2208 -19.2150 -19.2122 -19.2039
   -19.2021 -19.1965 -19.1778 -19.1731 -19.1394 -19.1389 -12.0357  -7.0694
    -5.5910  -4.3093  -3.8493  -2.7950  -1.3678  -0.1432   0.7435   1.9403
     2.2363   2.7778   3.9442   5.3335

          k = 0.0820 0.3308 0.0000 ( 52404 PWs)   bands (ev):

   -67.5657 -67.5452 -34.4712 -34.2834 -34.1624 -34.0645 -33.8653 -33.7885
   -19.2456 -19.2358 -19.2355 -19.2279 -19.2218 -19.2154 -19.2124 -19.2052
   -19.2000 -19.1938 -19.1643 -19.1608 -19.1513 -19.1498 -11.5865  -6.6418
    -5.5398  -4.6355  -4.0064  -2.8076  -1.8144   0.5099   0.8127   2.1932
     2.8455   3.4094   4.0767   5.9385

          k = 0.0820 0.4254 0.0000 ( 52361 PWs)   bands (ev):

   -67.5498 -67.5348 -34.5054 -34.4342 -34.2359 -34.0827 -33.9225 -33.8305
   -19.2471 -19.2390 -19.2331 -19.2281 -19.2252 -19.2143 -19.2125 -19.2054
   -19.1968 -19.1910 -19.1612 -19.1582 -19.1523 -19.1499 -11.2419  -6.7896
    -5.1711  -4.7569  -4.0131  -3.0092  -1.8174   0.8259   1.5702   2.0189
     3.6578   3.9489   4.7817   6.2965

          k = 0.0820 0.5199 0.0000 ( 52362 PWs)   bands (ev):

   -67.5401 -67.5293 -34.5783 -34.5109 -34.2281 -34.0978 -33.9540 -33.8550
   -19.2487 -19.2402 -19.2346 -19.2289 -19.2249 -19.2149 -19.2108 -19.2053
   -19.1949 -19.1891 -19.1667 -19.1624 -19.1452 -19.1438 -11.0655  -6.9721
    -5.0879  -4.7603  -3.7749  -3.2366  -1.6601   1.1841   1.6764   2.2607
     3.9726   4.4363   5.7495   6.2759

          k = 0.0818-0.5199 0.0000 ( 52362 PWs)   bands (ev):

   -67.5401 -67.5293 -34.5781 -34.5107 -34.2281 -34.0979 -33.9541 -33.8550
   -19.2487 -19.2402 -19.2345 -19.2289 -19.2250 -19.2149 -19.2109 -19.2052
   -19.1948 -19.1891 -19.1667 -19.1624 -19.1452 -19.1438 -11.0657  -6.9719
    -5.0878  -4.7601  -3.7711  -3.2411  -1.6594   1.1847   1.6763   2.2613
     3.9716   4.4369   5.7493   6.2761

          k = 0.0818-0.4253 0.0000 ( 52359 PWs)   bands (ev):

   -67.5499 -67.5348 -34.5050 -34.4338 -34.2358 -34.0828 -33.9229 -33.8306
   -19.2471 -19.2390 -19.2329 -19.2282 -19.2254 -19.2141 -19.2129 -19.2053
   -19.1967 -19.1910 -19.1613 -19.1582 -19.1523 -19.1499 -11.2424  -6.7890
    -5.1720  -4.7555  -4.0081  -3.0150  -1.8163   0.8266   1.5741   2.0167
     3.6534   3.9483   4.7805   6.2947

          k = 0.0819-0.3308 0.0000 ( 52404 PWs)   bands (ev):

   -67.5657 -67.5452 -34.4711 -34.2827 -34.1619 -34.0646 -33.8658 -33.7887
   -19.2456 -19.2358 -19.2355 -19.2279 -19.2218 -19.2154 -19.2127 -19.2051
   -19.1998 -19.1938 -19.1643 -19.1608 -19.1513 -19.1498 -11.5870  -6.6415
    -5.5413  -4.6331  -4.0024  -2.8107  -1.8141   0.5070   0.8188   2.1921
     2.8393   3.4076   4.0758   5.9408

          k = 0.0819-0.2363 0.0000 ( 52465 PWs)   bands (ev):

   -67.5833 -67.5580 -34.5090 -34.1397 -34.0116 -33.9908 -33.7962 -33.7406
   -19.2474 -19.2394 -19.2311 -19.2262 -19.2207 -19.2153 -19.2123 -19.2037
   -19.2020 -19.1967 -19.1777 -19.1731 -19.1394 -19.1389 -12.0362  -7.0698
    -5.5929  -4.3069  -3.8467  -2.7935  -1.3696  -0.1415   0.7406   1.9409
     2.2379   2.7721   3.9398   5.3383

          k = 0.0819-0.1418 0.0000 ( 52519 PWs)   bands (ev):

   -67.5981 -67.5694 -34.5549 -34.1135 -33.8549 -33.8329 -33.7365 -33.6969
   -19.2520 -19.2409 -19.2268 -19.2249 -19.2215 -19.2191 -19.2072 -19.2024
   -19.2017 -19.1988 -19.1892 -19.1837 -19.1288 -19.1284 -12.4589  -7.7281
    -5.4317  -3.8042  -3.6582  -2.9832  -0.7492  -0.6343   0.8748   1.6477
     1.8100   2.9962   3.5658   4.8389

          k = 0.0819-0.0472 0.0000 ( 52519 PWs)   bands (ev):

   -67.6066 -67.5760 -34.5825 -34.1129 -33.7588 -33.7161 -33.7157 -33.6686
   -19.2550 -19.2420 -19.2247 -19.2231 -19.2230 -19.2214 -19.2038 -19.2019
   -19.2009 -19.1994 -19.1959 -19.1899 -19.1226 -19.1219 -12.7137  -8.1322
    -5.3188  -3.5489  -3.3870  -3.1680  -1.0625  -0.0465   0.5407   1.8787
     2.1871   2.9481   3.2925   4.1765

          k = 0.1638 0.0946 0.0000 ( 52520 PWs)   bands (ev):

   -67.5941 -67.5663 -34.5421 -34.1170 -33.9150 -33.8673 -33.7602 -33.6968
   -19.2506 -19.2404 -19.2287 -19.2232 -19.2231 -19.2173 -19.2088 -19.2032
   -19.2022 -19.1976 -19.1862 -19.1810 -19.1317 -19.1311 -12.3431  -7.5526
    -5.4797  -4.0348  -3.4704  -3.1111  -1.0096  -0.3973   1.1206   1.3212
     2.0944   2.8195   3.6309   4.9351

          k = 0.1639 0.1891 0.0000 ( 52463 PWs)   bands (ev):

   -67.5832 -67.5580 -34.5087 -34.1405 -34.0129 -33.9910 -33.7957 -33.7406
   -19.2470 -19.2395 -19.2312 -19.2262 -19.2210 -19.2148 -19.2121 -19.2042
   -19.2023 -19.1963 -19.1778 -19.1732 -19.1394 -19.1389 -12.0352  -7.0684
    -5.5853  -4.3126  -3.8542  -2.8031  -1.3673  -0.1382   0.7507   1.9367
     2.2377   2.7863   3.9418   5.3288

          k = 0.1639 0.2836 0.0000 ( 52437 PWs)   bands (ev):

   -67.5680 -67.5469 -34.4709 -34.2273 -34.1484 -34.0559 -33.8612 -33.8162
   -19.2415 -19.2393 -19.2337 -19.2297 -19.2203 -19.2152 -19.2134 -19.2053
   -19.2002 -19.1948 -19.1662 -19.1625 -19.1497 -19.1494 -11.6352  -6.4253
    -5.6906  -4.6301  -4.2211  -2.5251  -1.6907   0.0605   0.4338   2.2173
     3.0404   3.2026   4.4844   5.7315

          k = 0.1639 0.3781 0.0000 ( 52364 PWs)   bands (ev):

   -67.5523 -67.5363 -34.4661 -34.3530 -34.2296 -34.0823 -33.9452 -33.8864
   -19.2416 -19.2361 -19.2352 -19.2303 -19.2226 -19.2158 -19.2136 -19.2057
   -19.1969 -19.1937 -19.1606 -19.1595 -19.1541 -19.1515 -11.2678  -6.2102
    -5.4666  -4.8015  -4.3834  -2.6462  -1.6842  -0.1877   1.2092   2.1695
     3.6379   4.2116   4.8799   6.3391

          k = 0.1639 0.4726 0.0000 ( 52341 PWs)   bands (ev):

   -67.5400 -67.5293 -34.5109 -34.4432 -34.2275 -34.1176 -34.0034 -33.9353
   -19.2440 -19.2372 -19.2340 -19.2276 -19.2247 -19.2162 -19.2136 -19.2050
   -19.1958 -19.1923 -19.1683 -19.1658 -19.1455 -19.1439 -11.0243  -6.4521
    -4.9282  -4.8664  -4.4036  -3.0259  -1.4537   0.0245   1.9795   2.3105
     3.8266   4.5344   5.4229   6.3568

          k = 0.1639 0.5672 0.0000 ( 52306 PWs)   bands (ev):

   -67.5351 -67.5271 -34.5380 -34.4722 -34.2097 -34.1445 -34.0196 -33.9536
   -19.2450 -19.2375 -19.2327 -19.2300 -19.2229 -19.2167 -19.2130 -19.2048
   -19.1959 -19.1915 -19.1711 -19.1680 -19.1421 -19.1412 -10.9413  -6.5624
    -4.8974  -4.7266  -4.3083  -3.2765  -1.3141   0.2282   2.2186   2.4622
     4.0580   4.4469   5.5832   6.1200

          k = 0.1638-0.4726 0.0000 ( 52340 PWs)   bands (ev):

   -67.5400 -67.5293 -34.5102 -34.4425 -34.2274 -34.1180 -34.0040 -33.9353
   -19.2439 -19.2372 -19.2337 -19.2278 -19.2249 -19.2161 -19.2139 -19.2049
   -19.1958 -19.1922 -19.1683 -19.1658 -19.1455 -19.1439 -11.0250  -6.4510
    -4.9313  -4.8633  -4.3987  -3.0309  -1.4525   0.0252   1.9836   2.3071
     3.8289   4.5246   5.4242   6.3574

          k = 0.1638-0.3781 0.0000 ( 52362 PWs)   bands (ev):

   -67.5523 -67.5363 -34.4655 -34.3517 -34.2293 -34.0825 -33.9461 -33.8865
   -19.2415 -19.2361 -19.2350 -19.2306 -19.2227 -19.2157 -19.2141 -19.2056
   -19.1967 -19.1937 -19.1607 -19.1595 -19.1541 -19.1515 -11.2689  -6.2091
    -5.4691  -4.7972  -4.3787  -2.6510  -1.6820  -0.1897   1.2148   2.1644
     3.6362   4.2045   4.8752   6.3427

          k = 0.1638-0.2835 0.0000 ( 52431 PWs)   bands (ev):

   -67.5681 -67.5469 -34.4709 -34.2258 -34.1478 -34.0558 -33.8620 -33.8165
   -19.2417 -19.2391 -19.2336 -19.2297 -19.2201 -19.2154 -19.2138 -19.2051
   -19.1999 -19.1949 -19.1662 -19.1625 -19.1497 -19.1495 -11.6362  -6.4260
    -5.6935  -4.6249  -4.2163  -2.5245  -1.6904   0.0527   0.4398   2.2141
     3.0348   3.2005   4.4776   5.7403

          k = 0.1638-0.1890 0.0000 ( 52463 PWs)   bands (ev):

   -67.5833 -67.5580 -34.5089 -34.1400 -34.0119 -33.9906 -33.7963 -33.7408
   -19.2472 -19.2394 -19.2312 -19.2261 -19.2208 -19.2152 -19.2123 -19.2038
   -19.2020 -19.1966 -19.1777 -19.1731 -19.1394 -19.1389 -12.0359  -7.0694
    -5.5895  -4.3088  -3.8494  -2.7980  -1.3693  -0.1386   0.7445   1.9390
     2.2386   2.7770   3.9381   5.3358

          k = 0.1638-0.0945 0.0000 ( 52520 PWs)   bands (ev):

   -67.5941 -67.5663 -34.5422 -34.1169 -33.9142 -33.8671 -33.7605 -33.6968
   -19.2507 -19.2404 -19.2287 -19.2232 -19.2228 -19.2175 -19.2089 -19.2028
   -19.2021 -19.1979 -19.1862 -19.1810 -19.1317 -19.1311 -12.3435  -7.5532
    -5.4828  -4.0343  -3.4679  -3.1047  -1.0095  -0.4022   1.1264   1.3161
     2.0960   2.8066   3.6350   4.9390

          k = 0.1638 0.0000 0.0000 ( 52527 PWs)   bands (ev):

   -67.5981 -67.5693 -34.5547 -34.1138 -33.8567 -33.8332 -33.7353 -33.6968
   -19.2518 -19.2409 -19.2269 -19.2251 -19.2217 -19.2187 -19.2071 -19.2028
   -19.2020 -19.1982 -19.1893 -19.1838 -19.1288 -19.1284 -12.4583  -7.7274
    -5.4269  -3.8035  -3.6623  -2.9943  -0.7522  -0.6239   0.8695   1.6612
     1.8005   3.0026   3.5798   4.8191

          k = 0.2458 0.1418 0.0000 ( 52430 PWs)   bands (ev):

   -67.5767 -67.5532 -34.4923 -34.1956 -34.0686 -34.0416 -33.8183 -33.7376
   -19.2470 -19.2375 -19.2339 -19.2241 -19.2229 -19.2140 -19.2131 -19.2051
   -19.2018 -19.1950 -19.1729 -19.1687 -19.1437 -19.1424 -11.8690  -6.9278
    -5.6048  -4.4757  -3.5742  -3.1348  -1.6534   0.3210   1.1721   1.8881
     2.5281   2.6773   3.7508   5.5205

          k = 0.2458 0.2363 0.0000 ( 52401 PWs)   bands (ev):

   -67.5655 -67.5452 -34.4711 -34.2842 -34.1627 -34.0648 -33.8658 -33.7888
   -19.2451 -19.2362 -19.2352 -19.2278 -19.2221 -19.2153 -19.2125 -19.2057
   -19.2001 -19.1936 -19.1643 -19.1608 -19.1513 -19.1496 -11.5852  -6.6371
    -5.5336  -4.6441  -4.0129  -2.8240  -1.8130   0.5275   0.8215   2.2034
     2.8459   3.4037   4.0787   5.9289

          k = 0.2458 0.3309 0.0000 ( 52369 PWs)   bands (ev):

   -67.5522 -67.5363 -34.4663 -34.3536 -34.2292 -34.0824 -33.9460 -33.8863
   -19.2417 -19.2359 -19.2347 -19.2307 -19.2227 -19.2155 -19.2140 -19.2060
   -19.1969 -19.1935 -19.1607 -19.1593 -19.1541 -19.1515 -11.2670  -6.2041
    -5.4714  -4.8027  -4.3863  -2.6558  -1.6845  -0.1764   1.2143   2.1739
     3.6379   4.2092   4.8826   6.3339

          k = 0.2458 0.4254 0.0000 ( 52417 PWs)   bands (ev):

   -67.5399 -67.5293 -34.4728 -34.3884 -34.2496 -34.1157 -34.0345 -33.9846
   -19.2413 -19.2350 -19.2311 -19.2302 -19.2251 -19.2166 -19.2151 -19.2050
   -19.1954 -19.1948 -19.1687 -19.1678 -19.1456 -19.1440 -11.0029  -5.7682
    -5.6046  -4.7459  -4.5331  -2.8584  -1.2601  -0.5968   1.9002   2.4536
     3.6697   4.5718   5.2454   6.6387

          k = 0.2458 0.5199 0.0000 ( 52381 PWs)   bands (ev):

   -67.5318 -67.5262 -34.4640 -34.3992 -34.2521 -34.1838 -34.0667 -34.0419
   -19.2422 -19.2325 -19.2310 -19.2287 -19.2234 -19.2189 -19.2165 -19.2031
   -19.1971 -19.1950 -19.1738 -19.1726 -19.1405 -19.1397 -10.8556  -5.9400
    -5.1445  -4.7279  -4.6207  -3.1525  -0.9459  -0.4718   2.5593   2.7676
     3.5031   4.1695   5.1625   6.3219

          k = 0.2459 0.6144 0.0000 ( 52367 PWs)   bands (ev):

   -67.5319 -67.5262 -34.4633 -34.3986 -34.2522 -34.1845 -34.0679 -34.0409
   -19.2421 -19.2323 -19.2310 -19.2289 -19.2236 -19.2189 -19.2164 -19.2030
   -19.1972 -19.1949 -19.1738 -19.1726 -19.1405 -19.1397 -10.8561  -5.9387
    -5.1446  -4.7279  -4.6186  -3.1541  -0.9455  -0.4717   2.5622   2.7634
     3.5069   4.1617   5.1629   6.3210

          k = 0.2457-0.4253 0.0000 ( 52411 PWs)   bands (ev):

   -67.5400 -67.5293 -34.4716 -34.3866 -34.2502 -34.1163 -34.0355 -33.9843
   -19.2409 -19.2348 -19.2312 -19.2306 -19.2252 -19.2168 -19.2151 -19.2048
   -19.1954 -19.1947 -19.1688 -19.1679 -19.1456 -19.1439 -11.0042  -5.7663
    -5.6050  -4.7439  -4.5290  -2.8611  -1.2574  -0.6000   1.9038   2.4473
     3.6725   4.5586   5.2452   6.6353

          k = 0.2457-0.3308 0.0000 ( 52365 PWs)   bands (ev):

   -67.5523 -67.5363 -34.4656 -34.3519 -34.2292 -34.0825 -33.9465 -33.8865
   -19.2414 -19.2360 -19.2348 -19.2308 -19.2228 -19.2156 -19.2143 -19.2057
   -19.1967 -19.1936 -19.1607 -19.1594 -19.1541 -19.1515 -11.2684  -6.2061
    -5.4716  -4.7979  -4.3804  -2.6560  -1.6821  -0.1836   1.2175   2.1667
     3.6362   4.2031   4.8768   6.3395

          k = 0.2457-0.2363 0.0000 ( 52393 PWs)   bands (ev):

   -67.5656 -67.5452 -34.4710 -34.2831 -34.1621 -34.0646 -33.8661 -33.7889
   -19.2453 -19.2360 -19.2354 -19.2278 -19.2220 -19.2155 -19.2128 -19.2054
   -19.1999 -19.1937 -19.1643 -19.1608 -19.1513 -19.1497 -11.5863  -6.6394
    -5.5375  -4.6379  -4.0060  -2.8197  -1.8131   0.5168   0.8233   2.1976
     2.8395   3.4044   4.0767   5.9356

          k = 0.2457-0.1417 0.0000 ( 52434 PWs)   bands (ev):

   -67.5768 -67.5532 -34.4924 -34.1951 -34.0676 -34.0417 -33.8184 -33.7376
   -19.2473 -19.2375 -19.2339 -19.2243 -19.2226 -19.2141 -19.2133 -19.2048
   -19.2016 -19.1951 -19.1728 -19.1686 -19.1437 -19.1424 -11.8697  -6.9295
    -5.6096  -4.4713  -3.5695  -3.1276  -1.6541   0.3168   1.1635   1.8904
     2.5164   2.6804   3.7536   5.5243

          k = 0.2457-0.0472 0.0000 ( 52461 PWs)   bands (ev):

   -67.5832 -67.5580 -34.5087 -34.1411 -34.0122 -33.9922 -33.7950 -33.7404
   -19.2470 -19.2394 -19.2313 -19.2262 -19.2209 -19.2148 -19.2122 -19.2042
   -19.2022 -19.1963 -19.1778 -19.1732 -19.1393 -19.1389 -12.0349  -7.0688
    -5.5850  -4.3144  -3.8547  -2.8019  -1.3652  -0.1432   0.7516   1.9377
     2.2358   2.7893   3.9481   5.3244

          k = 0.2458 0.0473 0.0000 ( 52459 PWs)   bands (ev):

   -67.5831 -67.5579 -34.5086 -34.1412 -34.0131 -33.9917 -33.7951 -33.7404
   -19.2469 -19.2394 -19.2313 -19.2262 -19.2210 -19.2147 -19.2121 -19.2043
   -19.2023 -19.1962 -19.1778 -19.1732 -19.1394 -19.1388 -12.0347  -7.0682
    -5.5827  -4.3158  -3.8569  -2.8055  -1.3650  -0.1410   0.7549   1.9361
     2.2365   2.7929   3.9474   5.3222

          k = 0.3277 0.1891 0.0000 ( 52376 PWs)   bands (ev):

   -67.5588 -67.5406 -34.4807 -34.3760 -34.2119 -34.0721 -33.8743 -33.7797
   -19.2477 -19.2382 -19.2327 -19.2262 -19.2259 -19.2143 -19.2121 -19.2060
   -19.1990 -19.1917 -19.1592 -19.1562 -19.1551 -19.1522 -11.4438  -6.8448
    -5.3634  -4.6981  -3.6366  -3.2527  -1.9166   1.1359   1.5051   2.0956
     2.6844   3.7780   3.9101   6.0439

          k = 0.3277 0.2836 0.0000 ( 52364 PWs)   bands (ev):

   -67.5495 -67.5347 -34.5065 -34.4357 -34.2343 -34.0839 -33.9233 -33.8309
   -19.2471 -19.2388 -19.2324 -19.2281 -19.2256 -19.2142 -19.2130 -19.2061
   -19.1968 -19.1909 -19.1612 -19.1579 -19.1523 -19.1499 -11.2396  -6.7845
    -5.1665  -4.7679  -4.0202  -3.0286  -1.8151   0.8494   1.5808   2.0329
     3.6563   3.9493   4.7813   6.2858

          k = 0.3277 0.3781 0.0000 ( 52345 PWs)   bands (ev):

   -67.5397 -67.5293 -34.5121 -34.4447 -34.2256 -34.1180 -34.0048 -33.9350
   -19.2444 -19.2365 -19.2335 -19.2275 -19.2252 -19.2159 -19.2142 -19.2056
   -19.1959 -19.1921 -19.1683 -19.1655 -19.1455 -19.1439 -11.0224  -6.4488
    -4.9347  -4.8685  -4.4061  -3.0379  -1.4543   0.0395   1.9901   2.3205
     3.8283   4.5298   5.4240   6.3670

          k = 0.3277 0.4727 0.0000 ( 52377 PWs)   bands (ev):

   -67.5316 -67.5263 -34.4652 -34.4006 -34.2513 -34.1822 -34.0682 -34.0413
   -19.2426 -19.2322 -19.2302 -19.2287 -19.2239 -19.2187 -19.2167 -19.2033
   -19.1973 -19.1948 -19.1738 -19.1724 -19.1405 -19.1397 -10.8543  -5.9395
    -5.1487  -4.7328  -4.6172  -3.1568  -0.9494  -0.4636   2.5681   2.7724
     3.5020   4.1695   5.1610   6.3239

          k = 0.3278 0.5672 0.0000 ( 52364 PWs)   bands (ev):

   -67.5271 -67.5268 -34.3855 -34.3448 -34.3439 -34.2328 -34.0832 -34.0807
   -19.2419 -19.2302 -19.2301 -19.2236 -19.2232 -19.2216 -19.2206 -19.2000
   -19.1983 -19.1980 -19.1756 -19.1755 -19.1384 -19.1384 -10.7908  -5.4411
    -5.4373  -4.9154  -4.5614  -3.1833  -0.6387  -0.6333   2.9579   2.9594
     3.4960   3.5036   4.8875   6.6302

          k = 0.3278 0.6617 0.0000 ( 52371 PWs)   bands (ev):

   -67.5318 -67.5262 -34.4640 -34.3990 -34.2519 -34.1837 -34.0686 -34.0407
   -19.2423 -19.2321 -19.2306 -19.2289 -19.2239 -19.2189 -19.2165 -19.2031
   -19.1973 -19.1948 -19.1738 -19.1725 -19.1405 -19.1397 -10.8553  -5.9387
    -5.1468  -4.7304  -4.6170  -3.1561  -0.9473  -0.4673   2.5671   2.7659
     3.5062   4.1619   5.1623   6.3213

          k = 0.3276-0.3780 0.0000 ( 52340 PWs)   bands (ev):

   -67.5399 -67.5293 -34.5110 -34.4431 -34.2266 -34.1181 -34.0047 -33.9352
   -19.2440 -19.2369 -19.2335 -19.2278 -19.2252 -19.2161 -19.2141 -19.2052
   -19.1958 -19.1920 -19.1683 -19.1657 -19.1455 -19.1439 -11.0239  -6.4496
    -4.9347  -4.8644  -4.4004  -3.0369  -1.4526   0.0332   1.9891   2.3126
     3.8301   4.5220   5.4248   6.3623

          k = 0.3276-0.2835 0.0000 ( 52359 PWs)   bands (ev):

   -67.5497 -67.5347 -34.5057 -34.4343 -34.2351 -34.0833 -33.9233 -33.8309
   -19.2470 -19.2390 -19.2326 -19.2281 -19.2256 -19.2141 -19.2132 -19.2057
   -19.1967 -19.1909 -19.1612 -19.1581 -19.1523 -19.1499 -11.2411  -6.7867
    -5.1694  -4.7617  -4.0120  -3.0252  -1.8146   0.8395   1.5793   2.0245
     3.6523   3.9486   4.7802   6.2879

          k = 0.3276-0.1890 0.0000 ( 52376 PWs)   bands (ev):

   -67.5589 -67.5407 -34.4804 -34.3751 -34.2122 -34.0716 -33.8743 -33.7795
   -19.2478 -19.2383 -19.2329 -19.2262 -19.2258 -19.2142 -19.2123 -19.2056
   -19.1989 -19.1917 -19.1592 -19.1562 -19.1551 -19.1523 -11.4449  -6.8477
    -5.3670  -4.6924  -3.6307  -3.2450  -1.9171   1.1274   1.4965   2.0857
     2.6859   3.7793   3.9123   6.0468

          k = 0.3276-0.0945 0.0000 ( 52395 PWs)   bands (ev):

   -67.5655 -67.5452 -34.4711 -34.2847 -34.1630 -34.0647 -33.8650 -33.7885
   -19.2453 -19.2360 -19.2354 -19.2279 -19.2218 -19.2154 -19.2123 -19.2056
   -19.2001 -19.1937 -19.1643 -19.1608 -19.1513 -19.1497 -11.5851  -6.6400
    -5.5342  -4.6435  -4.0142  -2.8136  -1.8138   0.5234   0.8094   2.2008
     2.8537   3.4091   4.0781   5.9303

          k = 0.3277 0.0001 0.0000 ( 52435 PWs)   bands (ev):

   -67.5679 -67.5469 -34.4708 -34.2291 -34.1487 -34.0561 -33.8605 -33.8160
   -19.2413 -19.2393 -19.2339 -19.2296 -19.2203 -19.2152 -19.2132 -19.2055
   -19.2004 -19.1947 -19.1662 -19.1626 -19.1497 -19.1494 -11.6340  -6.4249
    -5.6867  -4.6368  -4.2263  -2.5266  -1.6910   0.0704   0.4257   2.2218
     3.0473   3.2063   4.4924   5.7199

          k = 0.3277 0.0946 0.0000 ( 52410 PWs)   bands (ev):

   -67.5655 -67.5452 -34.4711 -34.2851 -34.1631 -34.0649 -33.8652 -33.7886
   -19.2452 -19.2362 -19.2352 -19.2279 -19.2220 -19.2153 -19.2123 -19.2058
   -19.2002 -19.1936 -19.1643 -19.1609 -19.1513 -19.1496 -11.5845  -6.6374
    -5.5318  -4.6472  -4.0172  -2.8211  -1.8135   0.5311   0.8136   2.2054
     2.8538   3.4067   4.0792   5.9260

          k = 0.4096 0.2364 0.0000 ( 52392 PWs)   bands (ev):

   -67.5450 -67.5321 -34.5621 -34.4977 -34.2377 -34.0860 -33.9144 -33.8108
   -19.2499 -19.2403 -19.2334 -19.2279 -19.2263 -19.2136 -19.2119 -19.2061
   -19.1955 -19.1889 -19.1629 -19.1584 -19.1489 -19.1471 -11.1720  -7.0568
    -5.1782  -4.7800  -3.4642  -3.3761  -1.8284   1.5322   1.8287   2.1537
     3.1356   4.3231   5.1301   6.1878

          k = 0.4096 0.3309 0.0000 ( 52372 PWs)   bands (ev):

   -67.5396 -67.5293 -34.5800 -34.5132 -34.2245 -34.1001 -33.9548 -33.8554
   -19.2489 -19.2397 -19.2342 -19.2287 -19.2250 -19.2148 -19.2116 -19.2061
   -19.1948 -19.1890 -19.1666 -19.1620 -19.1451 -19.1439 -11.0622  -6.9694
    -5.0853  -4.7719  -3.7842  -3.2516  -1.6578   1.2050   1.6867   2.2807
     3.9743   4.4371   5.7565   6.2746

          k = 0.4097 0.4254 0.0000 ( 52315 PWs)   bands (ev):

   -67.5347 -67.5272 -34.5400 -34.4747 -34.2060 -34.1457 -34.0211 -33.9532
   -19.2456 -19.2366 -19.2327 -19.2297 -19.2228 -19.2166 -19.2137 -19.2054
   -19.1960 -19.1914 -19.1711 -19.1677 -19.1421 -19.1412 -10.9382  -6.5618
    -4.8993  -4.7359  -4.3132  -3.2836  -1.3157   0.2414   2.2283   2.4794
     4.0531   4.4557   5.5793   6.1269

          k = 0.4097 0.5199 0.0000 ( 52385 PWs)   bands (ev):

   -67.5315 -67.5263 -34.4660 -34.4015 -34.2503 -34.1821 -34.0676 -34.0418
   -19.2427 -19.2325 -19.2302 -19.2285 -19.2236 -19.2186 -19.2169 -19.2034
   -19.1972 -19.1950 -19.1738 -19.1724 -19.1404 -19.1397 -10.8536  -5.9412
    -5.1485  -4.7334  -4.6192  -3.1548  -0.9503  -0.4638   2.5640   2.7785
     3.4969   4.1787   5.1616   6.3255

          k = 0.4097 0.6145 0.0000 ( 52389 PWs)   bands (ev):

   -67.5316 -67.5263 -34.4656 -34.4006 -34.2509 -34.1828 -34.0667 -34.0422
   -19.2425 -19.2326 -19.2306 -19.2285 -19.2233 -19.2187 -19.2167 -19.2033
   -19.1972 -19.1950 -19.1738 -19.1725 -19.1405 -19.1397 -10.8541  -5.9417
    -5.1466  -4.7310  -4.6212  -3.1526  -0.9487  -0.4676   2.5601   2.7761
     3.4974   4.1790   5.1624   6.3238

          k = 0.4097 0.7090 0.0000 ( 52312 PWs)   bands (ev):

   -67.5349 -67.5272 -34.5392 -34.4732 -34.2078 -34.1451 -34.0204 -33.9535
   -19.2452 -19.2371 -19.2327 -19.2298 -19.2229 -19.2167 -19.2134 -19.2051
   -19.1960 -19.1914 -19.1711 -19.1679 -19.1421 -19.1412 -10.9395  -6.5625
    -4.8982  -4.7320  -4.3115  -3.2797  -1.3147   0.2352   2.2234   2.4718
     4.0550   4.4522   5.5812   6.1231

          k = 0.4095-0.3308 0.0000 ( 52362 PWs)   bands (ev):

   -67.5398 -67.5293 -34.5792 -34.5117 -34.2263 -34.0990 -33.9546 -33.8553
   -19.2487 -19.2401 -19.2343 -19.2289 -19.2249 -19.2149 -19.2113 -19.2057
   -19.1948 -19.1890 -19.1666 -19.1622 -19.1452 -19.1438 -11.0638  -6.9709
    -5.0863  -4.7668  -3.7766  -3.2484  -1.6577   1.1959   1.6814   2.2722
     3.9722   4.4373   5.7533   6.2747

          k = 0.4095-0.2362 0.0000 ( 52390 PWs)   bands (ev):

   -67.5452 -67.5321 -34.5615 -34.4963 -34.2391 -34.0850 -33.9142 -33.8106
   -19.2497 -19.2405 -19.2337 -19.2280 -19.2262 -19.2137 -19.2116 -19.2057
   -19.1955 -19.1889 -19.1629 -19.1585 -19.1489 -19.1471 -11.1735  -7.0591
    -5.1804  -4.7745  -3.4587  -3.3678  -1.8294   1.5267   1.8123   2.1463
     3.1392   4.3216   5.1296   6.1909

          k = 0.4096-0.1417 0.0000 ( 52373 PWs)   bands (ev):

   -67.5496 -67.5347 -34.5065 -34.4352 -34.2351 -34.0833 -33.9226 -33.8307
   -19.2470 -19.2390 -19.2331 -19.2280 -19.2252 -19.2144 -19.2126 -19.2058
   -19.1969 -19.1910 -19.1612 -19.1581 -19.1523 -19.1500 -11.2399  -6.7881
    -5.1674  -4.7649  -4.0223  -3.0136  -1.8173   0.8379   1.5705   2.0300
     3.6619   3.9495   4.7835   6.2924

          k = 0.4096-0.0472 0.0000 ( 52372 PWs)   bands (ev):

   -67.5521 -67.5363 -34.4669 -34.3548 -34.2292 -34.0824 -33.9449 -33.8861
   -19.2417 -19.2362 -19.2351 -19.2303 -19.2226 -19.2157 -19.2135 -19.2060
   -19.1971 -19.1936 -19.1606 -19.1594 -19.1541 -19.1516 -11.2660  -6.2086
    -5.4664  -4.8073  -4.3904  -2.6462  -1.6876  -0.1791   1.2044   2.1794
     3.6398   4.2192   4.8873   6.3316

          k = 0.4096 0.0473 0.0000 ( 52367 PWs)   bands (ev):

   -67.5520 -67.5363 -34.4670 -34.3552 -34.2289 -34.0825 -33.9452 -33.8860
   -19.2418 -19.2360 -19.2348 -19.2305 -19.2226 -19.2155 -19.2137 -19.2061
   -19.1971 -19.1936 -19.1607 -19.1593 -19.1541 -19.1516 -11.2657  -6.2055
    -5.4688  -4.8079  -4.3915  -2.6507  -1.6879  -0.1739   1.2067   2.1815
     3.6397   4.2182   4.8885   6.3296

          k = 0.4096 0.1419 0.0000 ( 52375 PWs)   bands (ev):

   -67.5495 -67.5347 -34.5069 -34.4362 -34.2342 -34.0840 -33.9229 -33.8308
   -19.2471 -19.2388 -19.2327 -19.2280 -19.2254 -19.2142 -19.2129 -19.2061
   -19.1969 -19.1909 -19.1612 -19.1579 -19.1522 -19.1500 -11.2389  -6.7853
    -5.1654  -4.7696  -4.0255  -3.0228  -1.8166   0.8484   1.5759   2.0363
     3.6614   3.9495   4.7834   6.2884

          k =-0.4915-0.2837 0.0000 ( 52408 PWs)   bands (ev):

   -67.5396 -67.5293 -34.6093 -34.5406 -34.2264 -34.0944 -33.9289 -33.8222
   -19.2508 -19.2407 -19.2353 -19.2286 -19.2254 -19.2145 -19.2102 -19.2062
   -19.1940 -19.1878 -19.1657 -19.1604 -19.1450 -19.1438 -11.0821  -7.1551
    -5.1722  -4.8057  -3.4264  -3.2908  -1.7654   1.4261   2.0953   2.3332
     3.1928   4.7993   5.7718   6.3352

          k =-0.4915-0.1891 0.0000 ( 52370 PWs)   bands (ev):

   -67.5396 -67.5293 -34.5802 -34.5134 -34.2244 -34.1002 -33.9546 -33.8554
   -19.2489 -19.2397 -19.2343 -19.2286 -19.2249 -19.2148 -19.2115 -19.2061
   -19.1948 -19.1890 -19.1666 -19.1620 -19.1451 -19.1439 -11.0619  -6.9698
    -5.0855  -4.7721  -3.7880  -3.2473  -1.6587   1.2042   1.6869   2.2800
     3.9754   4.4360   5.7571   6.2755

          k =-0.4915-0.0946 0.0000 ( 52344 PWs)   bands (ev):

   -67.5396 -67.5293 -34.5128 -34.4456 -34.2250 -34.1181 -34.0044 -33.9349
   -19.2445 -19.2365 -19.2338 -19.2272 -19.2250 -19.2159 -19.2141 -19.2056
   -19.1959 -19.1922 -19.1683 -19.1655 -19.1454 -19.1439 -11.0214  -6.4502
    -4.9315  -4.8721  -4.4115  -3.0325  -1.4562   0.0385   1.9848   2.3257
     3.8249   4.5411   5.4238   6.3672

          k =-0.4915-0.0001 0.0000 ( 52425 PWs)   bands (ev):

   -67.5397 -67.5293 -34.4741 -34.3905 -34.2481 -34.1156 -34.0339 -33.9845
   -19.2415 -19.2352 -19.2307 -19.2301 -19.2250 -19.2164 -19.2153 -19.2052
   -19.1953 -19.1951 -19.1687 -19.1678 -19.1456 -19.1440 -11.0012  -5.7715
    -5.6041  -4.7481  -4.5382  -2.8550  -1.2644  -0.5928   1.8951   2.4628
     3.6658   4.5874   5.2474   6.6434

          k =-0.4915 0.0944 0.0000 ( 52338 PWs)   bands (ev):

   -67.5398 -67.5293 -34.5124 -34.4446 -34.2261 -34.1178 -34.0037 -33.9351
   -19.2442 -19.2369 -19.2341 -19.2273 -19.2248 -19.2161 -19.2138 -19.2053
   -19.1960 -19.1922 -19.1682 -19.1657 -19.1455 -19.1439 -11.0222  -6.4522
    -4.9285  -4.8711  -4.4108  -3.0266  -1.4556   0.0316   1.9797   2.3211
     3.8243   4.5431   5.4233   6.3619

          k =-0.4915 0.1890 0.0000 ( 52372 PWs)   bands (ev):

   -67.5398 -67.5293 -34.5796 -34.5120 -34.2262 -34.0990 -33.9544 -33.8553
   -19.2487 -19.2401 -19.2346 -19.2287 -19.2249 -19.2149 -19.2112 -19.2057
   -19.1949 -19.1890 -19.1666 -19.1622 -19.1452 -19.1438 -11.0633  -6.9716
    -5.0866  -4.7672  -3.7842  -3.2396  -1.6592   1.1946   1.6816   2.2710
     3.9744   4.4356   5.7540   6.2755

          k =-0.4916-0.8508 0.0000 ( 52392 PWs)   bands (ev):

   -67.5398 -67.5293 -34.6086 -34.5391 -34.2284 -34.0930 -33.9287 -33.8220
   -19.2507 -19.2409 -19.2355 -19.2288 -19.2254 -19.2146 -19.2099 -19.2058
   -19.1940 -19.1878 -19.1657 -19.1606 -19.1450 -19.1438 -11.0837  -7.1569
    -5.1736  -4.8005  -3.4184  -3.2853  -1.7667   1.4204   2.0794   2.3241
     3.1967   4.7982   5.7679   6.3380

     the Fermi energy is     0.8293 ev

!    total energy              =   -1375.70120847 Ry
     estimated scf accuracy    <          5.3E-13 Ry
     smearing contrib. (-TS)   =      -0.00000369 Ry
     internal energy E=F+TS    =   -1375.70120479 Ry

     The total energy is F=E-TS. E is the sum of the following terms:
     one-electron contribution =  -11616.53241315 Ry
     hartree contribution      =    5838.41263376 Ry
     xc contribution           =    -140.31293612 Ry
     ewald contribution        =    4542.73151073 Ry

     convergence has been achieved in  18 iterations

     negative rho (up, down):  1.781E-04 0.000E+00

     Forces acting on atoms (cartesian axes, Ry/au):

     atom    1 type  2   force =    -0.00045447    0.00025789   -0.00000120
     atom    2 type  1   force =     0.00003907    0.00027339   -0.00019025
     atom    3 type  1   force =     0.00009878   -0.00034913    0.00019016
     atom    4 type  3   force =     0.00026925   -0.00055425   -0.00005831
     atom    5 type  3   force =     0.00004736    0.00037210    0.00005960

     Total force =     0.001040     Total SCF correction =     0.000007


     Computing stress (Cartesian axis) and pressure


     negative rho (up, down):  1.781E-04 0.000E+00
          total   stress  (Ry/bohr**3)                   (kbar)     P=        0.15
   0.00000029   0.00000012   0.00000076            0.04        0.02        0.11
   0.00000012   0.00000306  -0.00000378            0.02        0.45       -0.56
   0.00000076  -0.00000378  -0.00000025            0.11       -0.56       -0.04


     Writing output data file /scratch/as3359/Ta2CH2-VCrelax/Ta.save/
 
     init_run     :     52.91s CPU     29.13s WALL (       1 calls)
     electrons    :   2093.90s CPU   1065.83s WALL (       1 calls)
     forces       :     16.21s CPU      8.36s WALL (       1 calls)
     stress       :     78.19s CPU     40.13s WALL (       1 calls)

     Called by init_run:
     wfcinit      :     41.83s CPU     21.65s WALL (       1 calls)
     potinit      :      3.10s CPU      1.57s WALL (       1 calls)
     hinit0       :      5.96s CPU      4.54s WALL (       1 calls)

     Called by electrons:
     c_bands      :   1723.59s CPU    870.61s WALL (      18 calls)
     sum_band     :    330.90s CPU    171.21s WALL (      18 calls)
     v_of_rho     :      5.73s CPU      3.13s WALL (      19 calls)
     newd         :     32.94s CPU     20.49s WALL (      19 calls)
     mix_rho      :      2.32s CPU      1.31s WALL (      18 calls)

     Called by c_bands:
     init_us_2    :     40.60s CPU     20.32s WALL (    2886 calls)
     cegterg      :   1608.77s CPU    812.69s WALL (    1332 calls)

     Called by *egterg:
     cdiaghg      :     16.28s CPU      8.32s WALL (    6912 calls)
     h_psi        :   1310.94s CPU    663.47s WALL (    6986 calls)
     s_psi        :     65.91s CPU     33.00s WALL (    6986 calls)
     g_psi        :      6.45s CPU      3.23s WALL (    5580 calls)

     Called by h_psi:
     h_psi:calbec :     51.30s CPU     25.73s WALL (    6986 calls)
     vloc_psi     :   1178.58s CPU    596.94s WALL (    6986 calls)
     add_vuspsi   :     70.12s CPU     35.12s WALL (    6986 calls)

     General routines
     calbec       :     71.16s CPU     35.71s WALL (    8688 calls)
     fft          :      3.09s CPU      1.59s WALL (     234 calls)
     ffts         :      0.22s CPU      0.11s WALL (      18 calls)
     fftw         :   1219.00s CPU    618.02s WALL (  292980 calls)
 
     Parallel routines
 
     PWSCF        :  37m27.69s CPU  19m 9.14s WALL

 
   This run was terminated on:  18: 3:44   7Apr2022            

=------------------------------------------------------------------------------=
   JOB DONE.
=------------------------------------------------------------------------------=
