
     Program PWSCF v.6.8 starts on  7Apr2022 at 14:40: 6 

     This program is part of the open-source Quantum ESPRESSO suite
     for quantum simulation of materials; please cite
         "P. Giannozzi et al., J. Phys.:Condens. Matter 21 395502 (2009);
         "P. Giannozzi et al., J. Phys.:Condens. Matter 29 465901 (2017);
         "P. Giannozzi et al., J. Chem. Phys. 152 154105 (2020);
          URL http://www.quantum-espresso.org", 
     in publications or presentations arising from this work. More details at
     http://www.quantum-espresso.org/quote

     Parallel version (MPI & OpenMP), running on       4 processor cores
     Number of MPI processes:                 2
     Threads/MPI process:                     2

     MPI processes distributed on     1 nodes
     R & G space division:  proc/nbgrp/npool/nimage =       2
     124345 MiB available memory on the printing compute node when the environment starts
 
     Reading input from Ta2CH2.scf.90.in

     Current dimensions of program PWSCF are:
     Max number of different atomic species (ntypx) = 10
     Max number of k-points (npk) =  40000
     Max angular momentum in pseudopotentials (lmaxx) =  4
     file Ta.pbesol-spfn-rrkjus_psl.1.0.0.UPF: wavefunction(s)  5S 5P renormalized

     Subspace diagonalization in iterative solution of the eigenvalue problem:
     a serial algorithm will be used

 
     Parallelization info
     --------------------
     sticks:   dense  smooth     PW     G-vecs:    dense   smooth      PW
     Min         396     396    126                88309    88309   15496
     Max         397     397    127                88310    88310   15503
     Sum         793     793    253               176619   176619   30999
 
     Using Slab Decomposition
 


     bravais-lattice index     =            0
     lattice parameter (alat)  =       5.5500  a.u.
     unit-cell volume          =    1533.2393 (a.u.)^3
     number of atoms/cell      =            5
     number of atomic types    =            3
     number of electrons       =        60.00
     number of Kohn-Sham states=           36
     kinetic-energy cutoff     =      90.0000  Ry
     charge density cutoff     =     360.0000  Ry
     scf convergence threshold =      1.0E-12
     mixing beta               =       0.7000
     number of iterations used =            8  plain     mixing
     Exchange-correlation= PBESOL
                           (   1   4  10   8   0   0   0)

     celldm(1)=   5.550000  celldm(2)=   0.000000  celldm(3)=   0.000000
     celldm(4)=   0.000000  celldm(5)=   0.000000  celldm(6)=   0.000000

     crystal axes: (cart. coord. in units of alat)
               a(1) = (   1.017295  -0.000177   0.000000 )  
               a(2) = (  -0.508801   0.881714   0.000000 )  
               a(3) = (   0.000000   0.000000  10.000000 )  

     reciprocal axes: (cart. coord. in units 2 pi/alat)
               b(1) = (  0.983098  0.567305  0.000000 )  
               b(2) = (  0.000198  1.134269  0.000000 )  
               b(3) = (  0.000000  0.000000  0.100000 )  


     PseudoPot. # 1 for Ta read from file:
     /shared/home/as3359/pseudo/Ta.pbesol-spfn-rrkjus_psl.1.0.0.UPF
     MD5 check sum: f099565ffaca9b150a52e9412a28e20b
     Pseudo is Ultrasoft + core correction, Zval = 27.0
     Generated using &quot;atomic&quot; code by A. Dal Corso  v.6.3
     Using radial grid of 1273 points,  8 beta functions with: 
                l(1) =   0
                l(2) =   0
                l(3) =   1
                l(4) =   1
                l(5) =   2
                l(6) =   2
                l(7) =   3
                l(8) =   3
     Q(r) pseudized with 0 coefficients 


     PseudoPot. # 2 for C  read from file:
     /shared/home/as3359/pseudo/C.pbesol-n-rrkjus_psl.1.0.0.UPF
     MD5 check sum: 05995be603a8a7c99da3dc4413f31573
     Pseudo is Ultrasoft + core correction, Zval =  4.0
     Generated using &quot;atomic&quot; code by A. Dal Corso  v.6.3MaX
     Using radial grid of 1073 points,  4 beta functions with: 
                l(1) =   0
                l(2) =   0
                l(3) =   1
                l(4) =   1
     Q(r) pseudized with 0 coefficients 


     PseudoPot. # 3 for H  read from file:
     /shared/home/as3359/pseudo/H.pbesol-rrkjus_psl.0.1.UPF
     MD5 check sum: 1dbb1a5c48b1283557b8117eb856a7ca
     Pseudo is Ultrasoft, Zval =  1.0
     Generated using "atomic" code by A. Dal Corso  v.5.0.2 svn rev. 9415
     Using radial grid of  929 points,  2 beta functions with: 
                l(1) =   0
                l(2) =   0
     Q(r) pseudized with 0 coefficients 


     atomic species   valence    mass     pseudopotential
        Ta            27.00   180.94788     Ta( 1.00)
        C              4.00    12.01070     C ( 1.00)
        H              1.00     1.00000     H ( 1.00)

     No symmetry found



   Cartesian axes

     site n.     atom                  positions (alat units)
         1           C   tau(   1) = (   0.0000000   0.0000000   0.0000000  )
         2           Ta  tau(   2) = (   0.5088008   0.2948413  -0.4364511  )
         3           Ta  tau(   3) = (  -0.0007447   0.5869407   0.4364532  )
         4           H   tau(   4) = (  -0.0017928  -0.0015314   0.8341930  )
         5           H   tau(   5) = (   0.0002769   0.0024412  -0.8341930  )

     number of k points=    74  Marzari-Vanderbilt smearing, width (Ry)=  0.0010
                       cart. coord. in units 2pi/alat
        k(    1) = (   0.0000000   0.0000000   0.0000000), wk =   0.0138889
        k(    2) = (   0.0000165   0.0945224   0.0000000), wk =   0.0277778
        k(    3) = (   0.0000329   0.1890448   0.0000000), wk =   0.0277778
        k(    4) = (   0.0000494   0.2835672   0.0000000), wk =   0.0277778
        k(    5) = (   0.0000659   0.3780896   0.0000000), wk =   0.0277778
        k(    6) = (   0.0000823   0.4726120   0.0000000), wk =   0.0277778
        k(    7) = (  -0.0000988  -0.5671343   0.0000000), wk =   0.0138889
        k(    8) = (   0.0819248   0.0472755   0.0000000), wk =   0.0277778
        k(    9) = (   0.0819413   0.1417978   0.0000000), wk =   0.0277778
        k(   10) = (   0.0819577   0.2363202   0.0000000), wk =   0.0277778
        k(   11) = (   0.0819742   0.3308426   0.0000000), wk =   0.0277778
        k(   12) = (   0.0819907   0.4253650   0.0000000), wk =   0.0277778
        k(   13) = (   0.0820071   0.5198874   0.0000000), wk =   0.0277778
        k(   14) = (   0.0818260  -0.5198589   0.0000000), wk =   0.0277778
        k(   15) = (   0.0818425  -0.4253365   0.0000000), wk =   0.0277778
        k(   16) = (   0.0818590  -0.3308141   0.0000000), wk =   0.0277778
        k(   17) = (   0.0818754  -0.2362917   0.0000000), wk =   0.0277778
        k(   18) = (   0.0818919  -0.1417693   0.0000000), wk =   0.0277778
        k(   19) = (   0.0819084  -0.0472469   0.0000000), wk =   0.0277778
        k(   20) = (   0.1638496   0.0945509   0.0000000), wk =   0.0277778
        k(   21) = (   0.1638661   0.1890733   0.0000000), wk =   0.0277778
        k(   22) = (   0.1638826   0.2835957   0.0000000), wk =   0.0277778
        k(   23) = (   0.1638990   0.3781181   0.0000000), wk =   0.0277778
        k(   24) = (   0.1639155   0.4726405   0.0000000), wk =   0.0277778
        k(   25) = (   0.1639319   0.5671629   0.0000000), wk =   0.0277778
        k(   26) = (   0.1637508  -0.4725834   0.0000000), wk =   0.0277778
        k(   27) = (   0.1637673  -0.3780610   0.0000000), wk =   0.0277778
        k(   28) = (   0.1637838  -0.2835386   0.0000000), wk =   0.0277778
        k(   29) = (   0.1638002  -0.1890163   0.0000000), wk =   0.0277778
        k(   30) = (   0.1638167  -0.0944939   0.0000000), wk =   0.0277778
        k(   31) = (   0.1638332   0.0000285   0.0000000), wk =   0.0277778
        k(   32) = (   0.2457744   0.1418264   0.0000000), wk =   0.0277778
        k(   33) = (   0.2457909   0.2363488   0.0000000), wk =   0.0277778
        k(   34) = (   0.2458074   0.3308711   0.0000000), wk =   0.0277778
        k(   35) = (   0.2458238   0.4253935   0.0000000), wk =   0.0277778
        k(   36) = (   0.2458403   0.5199159   0.0000000), wk =   0.0277778
        k(   37) = (   0.2458568   0.6144383   0.0000000), wk =   0.0277778
        k(   38) = (   0.2456757  -0.4253080   0.0000000), wk =   0.0277778
        k(   39) = (   0.2456921  -0.3307856   0.0000000), wk =   0.0277778
        k(   40) = (   0.2457086  -0.2362632   0.0000000), wk =   0.0277778
        k(   41) = (   0.2457251  -0.1417408   0.0000000), wk =   0.0277778
        k(   42) = (   0.2457415  -0.0472184   0.0000000), wk =   0.0277778
        k(   43) = (   0.2457580   0.0473040   0.0000000), wk =   0.0277778
        k(   44) = (   0.3276993   0.1891018   0.0000000), wk =   0.0277778
        k(   45) = (   0.3277157   0.2836242   0.0000000), wk =   0.0277778
        k(   46) = (   0.3277322   0.3781466   0.0000000), wk =   0.0277778
        k(   47) = (   0.3277486   0.4726690   0.0000000), wk =   0.0277778
        k(   48) = (   0.3277651   0.5671914   0.0000000), wk =   0.0277778
        k(   49) = (   0.3277816   0.6617138   0.0000000), wk =   0.0277778
        k(   50) = (   0.3276005  -0.3780325   0.0000000), wk =   0.0277778
        k(   51) = (   0.3276169  -0.2835101   0.0000000), wk =   0.0277778
        k(   52) = (   0.3276334  -0.1889877   0.0000000), wk =   0.0277778
        k(   53) = (   0.3276499  -0.0944653   0.0000000), wk =   0.0277778
        k(   54) = (   0.3276663   0.0000570   0.0000000), wk =   0.0277778
        k(   55) = (   0.3276828   0.0945794   0.0000000), wk =   0.0277778
        k(   56) = (   0.4096241   0.2363773   0.0000000), wk =   0.0277778
        k(   57) = (   0.4096405   0.3308997   0.0000000), wk =   0.0277778
        k(   58) = (   0.4096570   0.4254221   0.0000000), wk =   0.0277778
        k(   59) = (   0.4096735   0.5199445   0.0000000), wk =   0.0277778
        k(   60) = (   0.4096899   0.6144668   0.0000000), wk =   0.0277778
        k(   61) = (   0.4097064   0.7089892   0.0000000), wk =   0.0277778
        k(   62) = (   0.4095253  -0.3307571   0.0000000), wk =   0.0277778
        k(   63) = (   0.4095418  -0.2362347   0.0000000), wk =   0.0277778
        k(   64) = (   0.4095582  -0.1417123   0.0000000), wk =   0.0277778
        k(   65) = (   0.4095747  -0.0471899   0.0000000), wk =   0.0277778
        k(   66) = (   0.4095911   0.0473325   0.0000000), wk =   0.0277778
        k(   67) = (   0.4096076   0.1418549   0.0000000), wk =   0.0277778
        k(   68) = (  -0.4915489  -0.2836527   0.0000000), wk =   0.0138889
        k(   69) = (  -0.4915324  -0.1891303   0.0000000), wk =   0.0277778
        k(   70) = (  -0.4915160  -0.0946080   0.0000000), wk =   0.0277778
        k(   71) = (  -0.4914995  -0.0000856   0.0000000), wk =   0.0277778
        k(   72) = (  -0.4914830   0.0944368   0.0000000), wk =   0.0277778
        k(   73) = (  -0.4914666   0.1889592   0.0000000), wk =   0.0277778
        k(   74) = (  -0.4916477  -0.8507871   0.0000000), wk =   0.0138889

     Dense  grid:   176619 G-vectors     FFT dimensions: (  36,  36, 360)

     Estimated max dynamical RAM per process >       1.29 GB

     Estimated total dynamical RAM >       2.58 GB

     Check: negative core charge=   -0.000002

     Initial potential from superposition of free atoms

     starting charge   59.99840, renormalised to   60.00000

     negative rho (up, down):  9.825E-04 0.000E+00
     Starting wfcs are   40 randomized atomic wfcs

     total cpu time spent up to now is       12.0 secs

     Self-consistent Calculation

     iteration #  1     ecut=    90.00 Ry     beta= 0.70
     Davidson diagonalization with overlap
     ethr =  1.00E-02,  avg # of iterations =  2.0

     negative rho (up, down):  6.351E-04 0.000E+00

     total cpu time spent up to now is       33.5 secs

     total energy              =   -1375.11982194 Ry
     estimated scf accuracy    <       1.05032684 Ry

     iteration #  2     ecut=    90.00 Ry     beta= 0.70
     Davidson diagonalization with overlap
     ethr =  1.75E-03,  avg # of iterations =  7.8

     negative rho (up, down):  3.665E-04 0.000E+00

     total cpu time spent up to now is       63.8 secs

     total energy              =   -1374.70266758 Ry
     estimated scf accuracy    <       5.48083449 Ry

     iteration #  3     ecut=    90.00 Ry     beta= 0.70
     Davidson diagonalization with overlap
     ethr =  1.75E-03,  avg # of iterations =  4.8

     negative rho (up, down):  4.164E-04 0.000E+00

     total cpu time spent up to now is       90.3 secs

     total energy              =   -1375.66617372 Ry
     estimated scf accuracy    <       0.23293339 Ry

     iteration #  4     ecut=    90.00 Ry     beta= 0.70
     Davidson diagonalization with overlap
     ethr =  3.88E-04,  avg # of iterations =  2.4

     negative rho (up, down):  4.691E-04 0.000E+00

     total cpu time spent up to now is      112.0 secs

     total energy              =   -1375.69572573 Ry
     estimated scf accuracy    <       0.02258039 Ry

     iteration #  5     ecut=    90.00 Ry     beta= 0.70
     Davidson diagonalization with overlap
     c_bands:  1 eigenvalues not converged
     ethr =  3.76E-05,  avg # of iterations = 10.3

     negative rho (up, down):  5.070E-04 0.000E+00

     total cpu time spent up to now is      142.6 secs

     total energy              =   -1375.69536205 Ry
     estimated scf accuracy    <       0.01846526 Ry

     iteration #  6     ecut=    90.00 Ry     beta= 0.70
     Davidson diagonalization with overlap
     ethr =  3.08E-05,  avg # of iterations = 11.1

     negative rho (up, down):  5.785E-04 0.000E+00

     total cpu time spent up to now is      170.3 secs

     total energy              =   -1375.69451624 Ry
     estimated scf accuracy    <       0.08330310 Ry

     iteration #  7     ecut=    90.00 Ry     beta= 0.70
     Davidson diagonalization with overlap
     ethr =  3.08E-05,  avg # of iterations =  8.4

     negative rho (up, down):  6.446E-04 0.000E+00

     total cpu time spent up to now is      194.7 secs

     total energy              =   -1375.69921429 Ry
     estimated scf accuracy    <       0.00031564 Ry

     iteration #  8     ecut=    90.00 Ry     beta= 0.70
     Davidson diagonalization with overlap
     c_bands:  1 eigenvalues not converged
     c_bands:  1 eigenvalues not converged
     c_bands:  1 eigenvalues not converged
     c_bands:  1 eigenvalues not converged
     c_bands:  1 eigenvalues not converged
     c_bands:  1 eigenvalues not converged
     c_bands:  1 eigenvalues not converged
     c_bands:  1 eigenvalues not converged
     ethr =  5.26E-07,  avg # of iterations =  9.5

     negative rho (up, down):  6.805E-04 0.000E+00

     total cpu time spent up to now is      224.9 secs

     total energy              =   -1375.69929149 Ry
     estimated scf accuracy    <       0.00004113 Ry

     iteration #  9     ecut=    90.00 Ry     beta= 0.70
     Davidson diagonalization with overlap
     ethr =  6.86E-08,  avg # of iterations =  2.1

     negative rho (up, down):  6.864E-04 0.000E+00

     total cpu time spent up to now is      245.5 secs

     total energy              =   -1375.69929653 Ry
     estimated scf accuracy    <       0.00000416 Ry

     iteration # 10     ecut=    90.00 Ry     beta= 0.70
     Davidson diagonalization with overlap
     ethr =  6.94E-09,  avg # of iterations =  2.0

     negative rho (up, down):  6.890E-04 0.000E+00

     total cpu time spent up to now is      267.9 secs

     total energy              =   -1375.69929705 Ry
     estimated scf accuracy    <       0.00000071 Ry

     iteration # 11     ecut=    90.00 Ry     beta= 0.70
     Davidson diagonalization with overlap
     ethr =  1.19E-09,  avg # of iterations =  2.1

     negative rho (up, down):  6.894E-04 0.000E+00

     total cpu time spent up to now is      291.1 secs

     total energy              =   -1375.69929717 Ry
     estimated scf accuracy    <       0.00000012 Ry

     iteration # 12     ecut=    90.00 Ry     beta= 0.70
     Davidson diagonalization with overlap
     ethr =  1.92E-10,  avg # of iterations =  3.0

     negative rho (up, down):  6.894E-04 0.000E+00

     total cpu time spent up to now is      312.7 secs

     total energy              =   -1375.69929719 Ry
     estimated scf accuracy    <       0.00000002 Ry

     iteration # 13     ecut=    90.00 Ry     beta= 0.70
     Davidson diagonalization with overlap
     ethr =  3.71E-11,  avg # of iterations =  2.0

     negative rho (up, down):  6.894E-04 0.000E+00

     total cpu time spent up to now is      333.4 secs

     total energy              =   -1375.69929719 Ry
     estimated scf accuracy    <          3.5E-09 Ry

     iteration # 14     ecut=    90.00 Ry     beta= 0.70
     Davidson diagonalization with overlap
     ethr =  5.87E-12,  avg # of iterations =  4.7

     negative rho (up, down):  6.894E-04 0.000E+00

     total cpu time spent up to now is      356.9 secs

     total energy              =   -1375.69929719 Ry
     estimated scf accuracy    <          5.1E-10 Ry

     iteration # 15     ecut=    90.00 Ry     beta= 0.70
     Davidson diagonalization with overlap
     ethr =  8.58E-13,  avg # of iterations =  2.1

     negative rho (up, down):  6.894E-04 0.000E+00

     total cpu time spent up to now is      377.8 secs

     total energy              =   -1375.69929719 Ry
     estimated scf accuracy    <          1.1E-10 Ry

     iteration # 16     ecut=    90.00 Ry     beta= 0.70
     Davidson diagonalization with overlap
     ethr =  1.91E-13,  avg # of iterations =  4.4

     negative rho (up, down):  6.894E-04 0.000E+00

     total cpu time spent up to now is      400.6 secs

     total energy              =   -1375.69929719 Ry
     estimated scf accuracy    <          6.3E-12 Ry

     iteration # 17     ecut=    90.00 Ry     beta= 0.70
     Davidson diagonalization with overlap
     ethr =  1.00E-13,  avg # of iterations =  1.0

     negative rho (up, down):  6.894E-04 0.000E+00

     total cpu time spent up to now is      419.0 secs

     total energy              =   -1375.69929719 Ry
     estimated scf accuracy    <          6.7E-12 Ry

     iteration # 18     ecut=    90.00 Ry     beta= 0.70
     Davidson diagonalization with overlap
     ethr =  1.00E-13,  avg # of iterations =  1.0

     negative rho (up, down):  6.894E-04 0.000E+00

     total cpu time spent up to now is      437.3 secs

     total energy              =   -1375.69929719 Ry
     estimated scf accuracy    <          1.4E-12 Ry

     iteration # 19     ecut=    90.00 Ry     beta= 0.70
     Davidson diagonalization with overlap
     ethr =  1.00E-13,  avg # of iterations =  1.0

     negative rho (up, down):  6.894E-04 0.000E+00

     total cpu time spent up to now is      455.7 secs

     End of self-consistent calculation

          k = 0.0000 0.0000 0.0000 ( 22257 PWs)   bands (ev):

   -67.6130 -67.5815 -34.5983 -34.1148 -33.7001 -33.6987 -33.6600 -33.6598
   -19.2611 -19.2471 -19.2279 -19.2275 -19.2273 -19.2272 -19.2063 -19.2062
   -19.2049 -19.2043 -19.2037 -19.1976 -19.1237 -19.1230 -12.8548  -8.3527
    -5.2565  -3.4743  -3.2180  -3.2032  -1.2348   0.3179   0.3379   2.4901
     2.5019   2.9038   2.9366   3.4835

          k = 0.0000 0.0945 0.0000 ( 22229 PWs)   bands (ev):

   -67.6085 -67.5779 -34.5834 -34.1137 -33.7590 -33.7172 -33.7168 -33.6693
   -19.2594 -19.2464 -19.2291 -19.2276 -19.2273 -19.2260 -19.2084 -19.2064
   -19.2050 -19.2042 -19.2003 -19.1943 -19.1272 -19.1265 -12.7155  -8.1340
    -5.3215  -3.5525  -3.3904  -3.1621  -1.0632  -0.0569   0.5482   1.8772
     2.1862   2.9278   3.3006   4.1803

          k = 0.0000 0.1890 0.0000 ( 22183 PWs)   bands (ev):

   -67.5961 -67.5682 -34.5432 -34.1175 -33.9146 -33.8677 -33.7616 -33.6975
   -19.2553 -19.2448 -19.2331 -19.2278 -19.2270 -19.2221 -19.2135 -19.2070
   -19.2065 -19.2026 -19.1906 -19.1854 -19.1362 -19.1357 -12.3455  -7.5553
    -5.4888  -4.0350  -3.4667  -3.0977  -1.0107  -0.4102   1.1319   1.3080
     2.0965   2.7877   3.6404   4.8655

          k = 0.0000 0.2836 0.0000 ( 22125 PWs)   bands (ev):

   -67.5789 -67.5552 -34.4935 -34.1952 -34.0678 -34.0426 -33.8192 -33.7382
   -19.2520 -19.2419 -19.2382 -19.2289 -19.2267 -19.2185 -19.2180 -19.2089
   -19.2060 -19.1997 -19.1773 -19.1731 -19.1482 -19.1470 -11.8721  -6.9323
    -5.6180  -4.4671  -3.5660  -3.1195  -1.6568   0.3098   1.1517   1.8916
     2.4997   2.6828   3.7570   5.4730

          k = 0.0001 0.3781 0.0000 ( 22135 PWs)   bands (ev):

   -67.5611 -67.5426 -34.4809 -34.3753 -34.2131 -34.0720 -33.8749 -33.7800
   -19.2524 -19.2427 -19.2375 -19.2308 -19.2301 -19.2183 -19.2168 -19.2097
   -19.2033 -19.1963 -19.1637 -19.1607 -19.1596 -19.1569 -11.4479  -6.8518
    -5.3736  -4.6867  -3.6262  -3.2361  -1.9200   1.1148   1.4859   2.0719
     2.6865   3.7795   3.9142   6.0442

          k = 0.0001 0.4726 0.0000 ( 22056 PWs)   bands (ev):

   -67.5474 -67.5341 -34.5612 -34.4962 -34.2415 -34.0848 -33.9147 -33.8110
   -19.2543 -19.2450 -19.2384 -19.2326 -19.2306 -19.2182 -19.2156 -19.2096
   -19.1999 -19.1934 -19.1675 -19.1632 -19.1534 -19.1515 -11.1769  -7.0622
    -5.1848  -4.7688  -3.4549  -3.3589  -1.8332   1.5202   1.7896   2.1366
     3.1434   4.3179   5.1277   6.1946

          k =-0.0001-0.5671 0.0000 ( 22014 PWs)   bands (ev):

   -67.5420 -67.5312 -34.6082 -34.5388 -34.2314 -34.0923 -33.9291 -33.8224
   -19.2551 -19.2455 -19.2401 -19.2334 -19.2299 -19.2190 -19.2139 -19.2098
   -19.1985 -19.1923 -19.1703 -19.1653 -19.1495 -19.1483 -11.0873  -7.1593
    -5.1770  -4.7949  -3.4090  -3.2825  -1.7710   1.4137   2.0569   2.3133
     3.2014   4.7957   5.7614   6.3411

          k = 0.0819 0.0473 0.0000 ( 22233 PWs)   bands (ev):

   -67.6085 -67.5779 -34.5833 -34.1137 -33.7602 -33.7168 -33.7162 -33.6694
   -19.2593 -19.2463 -19.2292 -19.2276 -19.2275 -19.2257 -19.2082 -19.2065
   -19.2056 -19.2036 -19.2003 -19.1944 -19.1271 -19.1265 -12.7153  -8.1338
    -5.3195  -3.5487  -3.3870  -3.1754  -1.0646  -0.0406   0.5318   1.8770
     2.1850   2.9599   3.2850   4.1670

          k = 0.0819 0.1418 0.0000 ( 22187 PWs)   bands (ev):

   -67.6000 -67.5713 -34.5557 -34.1144 -33.8566 -33.8340 -33.7367 -33.6976
   -19.2563 -19.2453 -19.2313 -19.2295 -19.2261 -19.2233 -19.2116 -19.2071
   -19.2064 -19.2029 -19.1937 -19.1882 -19.1334 -19.1329 -12.4603  -7.7294
    -5.4313  -3.8053  -3.6616  -2.9895  -0.7521  -0.6311   0.8708   1.6518
     1.8040   2.9976   3.5694   4.7937

          k = 0.0820 0.2363 0.0000 ( 22155 PWs)   bands (ev):

   -67.5852 -67.5599 -34.5098 -34.1411 -34.0125 -33.9925 -33.7964 -33.7413
   -19.2517 -19.2437 -19.2356 -19.2307 -19.2253 -19.2195 -19.2166 -19.2083
   -19.2066 -19.2010 -19.1822 -19.1776 -19.1439 -19.1435 -12.0373  -7.0711
    -5.5925  -4.3108  -3.8508  -2.7965  -1.3693  -0.1448   0.7420   1.9386
     2.2347   2.7762   3.9419   5.2799

          k = 0.0820 0.3308 0.0000 ( 22152 PWs)   bands (ev):

   -67.5676 -67.5472 -34.4720 -34.2843 -34.1632 -34.0653 -33.8661 -33.7893
   -19.2500 -19.2403 -19.2399 -19.2324 -19.2263 -19.2198 -19.2169 -19.2097
   -19.2044 -19.1982 -19.1688 -19.1653 -19.1558 -19.1543 -11.5880  -6.6434
    -5.5413  -4.6370  -4.0079  -2.8091  -1.8160   0.5084   0.8112   2.1915
     2.8440   3.4080   4.0752   5.9065

          k = 0.0820 0.4254 0.0000 ( 22092 PWs)   bands (ev):

   -67.5518 -67.5367 -34.5063 -34.4350 -34.2368 -34.0835 -33.9233 -33.8313
   -19.2515 -19.2435 -19.2376 -19.2325 -19.2297 -19.2187 -19.2169 -19.2098
   -19.2012 -19.1954 -19.1657 -19.1627 -19.1568 -19.1544 -11.2434  -6.7913
    -5.1726  -4.7585  -4.0146  -3.0107  -1.8189   0.8244   1.5688   2.0174
     3.6563   3.9474   4.7804   6.2942

          k = 0.0820 0.5199 0.0000 ( 22052 PWs)   bands (ev):

   -67.5420 -67.5312 -34.5791 -34.5117 -34.2289 -34.0987 -33.9548 -33.8558
   -19.2531 -19.2447 -19.2391 -19.2334 -19.2293 -19.2194 -19.2152 -19.2097
   -19.1993 -19.1935 -19.1711 -19.1669 -19.1497 -19.1483 -11.0670  -6.9738
    -5.0895  -4.7619  -3.7764  -3.2382  -1.6616   1.1826   1.6749   2.2594
     3.9712   4.4349   5.7481   6.2766

          k = 0.0818-0.5199 0.0000 ( 22056 PWs)   bands (ev):

   -67.5420 -67.5312 -34.5789 -34.5115 -34.2289 -34.0987 -33.9549 -33.8558
   -19.2531 -19.2447 -19.2389 -19.2334 -19.2294 -19.2194 -19.2153 -19.2097
   -19.1992 -19.1935 -19.1711 -19.1669 -19.1497 -19.1483 -11.0672  -6.9735
    -5.0894  -4.7617  -3.7726  -3.2426  -1.6609   1.1831   1.6749   2.2599
     3.9701   4.4355   5.7479   6.2764

          k = 0.0818-0.4253 0.0000 ( 22090 PWs)   bands (ev):

   -67.5518 -67.5367 -34.5059 -34.4346 -34.2367 -34.0836 -33.9237 -33.8314
   -19.2515 -19.2435 -19.2374 -19.2326 -19.2299 -19.2185 -19.2174 -19.2097
   -19.2011 -19.1954 -19.1657 -19.1627 -19.1567 -19.1544 -11.2439  -6.7907
    -5.1735  -4.7571  -4.0096  -3.0165  -1.8178   0.8251   1.5726   2.0152
     3.6519   3.9469   4.7792   6.2924

          k = 0.0819-0.3308 0.0000 ( 22152 PWs)   bands (ev):

   -67.5677 -67.5472 -34.4720 -34.2836 -34.1627 -34.0654 -33.8666 -33.7895
   -19.2500 -19.2403 -19.2399 -19.2324 -19.2263 -19.2198 -19.2172 -19.2095
   -19.2043 -19.1983 -19.1688 -19.1653 -19.1558 -19.1543 -11.5886  -6.6431
    -5.5428  -4.6346  -4.0040  -2.8122  -1.8157   0.5054   0.8173   2.1904
     2.8378   3.4062   4.0742   5.9087

          k = 0.0819-0.2363 0.0000 ( 22157 PWs)   bands (ev):

   -67.5852 -67.5599 -34.5099 -34.1406 -34.0124 -33.9916 -33.7970 -33.7415
   -19.2517 -19.2438 -19.2356 -19.2307 -19.2251 -19.2198 -19.2167 -19.2081
   -19.2065 -19.2011 -19.1822 -19.1775 -19.1439 -19.1435 -12.0378  -7.0714
    -5.5944  -4.3085  -3.8482  -2.7950  -1.3711  -0.1430   0.7390   1.9392
     2.2362   2.7705   3.9375   5.2835

          k = 0.0819-0.1418 0.0000 ( 22187 PWs)   bands (ev):

   -67.6001 -67.5713 -34.5558 -34.1143 -33.8557 -33.8337 -33.7373 -33.6977
   -19.2563 -19.2453 -19.2313 -19.2293 -19.2259 -19.2236 -19.2117 -19.2069
   -19.2061 -19.2032 -19.1937 -19.1882 -19.1334 -19.1329 -12.4606  -7.7298
    -5.4332  -3.8057  -3.6597  -2.9847  -0.7507  -0.6358   0.8733   1.6462
     1.8081   2.9944   3.5633   4.7949

          k = 0.0819-0.0472 0.0000 ( 22235 PWs)   bands (ev):

   -67.6085 -67.5779 -34.5834 -34.1137 -33.7596 -33.7169 -33.7165 -33.6695
   -19.2594 -19.2463 -19.2292 -19.2276 -19.2274 -19.2258 -19.2083 -19.2064
   -19.2053 -19.2039 -19.2003 -19.1943 -19.1271 -19.1265 -12.7154  -8.1339
    -5.3203  -3.5504  -3.3885  -3.1695  -1.0640  -0.0480   0.5393   1.8770
     2.1857   2.9460   3.2911   4.1731

          k = 0.1638 0.0946 0.0000 ( 22167 PWs)   bands (ev):

   -67.5960 -67.5682 -34.5430 -34.1179 -33.9158 -33.8681 -33.7611 -33.6976
   -19.2550 -19.2448 -19.2332 -19.2276 -19.2275 -19.2217 -19.2133 -19.2076
   -19.2067 -19.2020 -19.1906 -19.1854 -19.1362 -19.1357 -12.3448  -7.5542
    -5.4812  -4.0363  -3.4719  -3.1126  -1.0111  -0.3988   1.1191   1.3195
     2.0930   2.8172   3.6295   4.8615

          k = 0.1639 0.1891 0.0000 ( 22159 PWs)   bands (ev):

   -67.5851 -67.5599 -34.5096 -34.1413 -34.0137 -33.9918 -33.7965 -33.7414
   -19.2514 -19.2439 -19.2357 -19.2307 -19.2255 -19.2193 -19.2165 -19.2086
   -19.2067 -19.2007 -19.1822 -19.1776 -19.1439 -19.1434 -12.0368  -7.0701
    -5.5868  -4.3142  -3.8557  -2.8046  -1.3688  -0.1397   0.7492   1.9350
     2.2361   2.7848   3.9394   5.2773

          k = 0.1639 0.2836 0.0000 ( 22159 PWs)   bands (ev):

   -67.5699 -67.5488 -34.4718 -34.2281 -34.1492 -34.0567 -33.8620 -33.8171
   -19.2459 -19.2436 -19.2382 -19.2342 -19.2248 -19.2196 -19.2179 -19.2097
   -19.2046 -19.1992 -19.1707 -19.1670 -19.1542 -19.1539 -11.6368  -6.4270
    -5.6921  -4.6316  -4.2226  -2.5266  -1.6922   0.0590   0.4323   2.2155
     3.0390   3.2011   4.4818   5.7173

          k = 0.1639 0.3781 0.0000 ( 22127 PWs)   bands (ev):

   -67.5542 -67.5382 -34.4669 -34.3538 -34.2304 -34.0831 -33.9461 -33.8872
   -19.2460 -19.2406 -19.2397 -19.2348 -19.2271 -19.2202 -19.2181 -19.2101
   -19.2013 -19.1981 -19.1651 -19.1640 -19.1586 -19.1560 -11.2694  -6.2118
    -5.4682  -4.8031  -4.3850  -2.6477  -1.6857  -0.1892   1.2078   2.1679
     3.6365   4.2100   4.8782   6.3319

          k = 0.1639 0.4726 0.0000 ( 22047 PWs)   bands (ev):

   -67.5419 -67.5312 -34.5117 -34.4440 -34.2283 -34.1185 -34.0043 -33.9361
   -19.2484 -19.2416 -19.2385 -19.2321 -19.2292 -19.2206 -19.2180 -19.2094
   -19.2002 -19.1967 -19.1728 -19.1703 -19.1500 -19.1484 -11.0259  -6.4537
    -4.9298  -4.8679  -4.4052  -3.0274  -1.4552   0.0230   1.9781   2.3091
     3.8251   4.5329   5.4215   6.3546

          k = 0.1639 0.5672 0.0000 ( 22029 PWs)   bands (ev):

   -67.5370 -67.5291 -34.5388 -34.4730 -34.2105 -34.1453 -34.0205 -33.9544
   -19.2494 -19.2419 -19.2372 -19.2345 -19.2273 -19.2212 -19.2174 -19.2092
   -19.2003 -19.1959 -19.1756 -19.1725 -19.1466 -19.1457 -10.9428  -6.5640
    -4.8990  -4.7282  -4.3099  -3.2780  -1.3156   0.2267   2.2172   2.4608
     4.0566   4.4455   5.5818   6.1180

          k = 0.1638-0.4726 0.0000 ( 22047 PWs)   bands (ev):

   -67.5420 -67.5312 -34.5110 -34.4433 -34.2283 -34.1189 -34.0048 -33.9361
   -19.2483 -19.2416 -19.2382 -19.2323 -19.2293 -19.2206 -19.2183 -19.2093
   -19.2002 -19.1966 -19.1728 -19.1703 -19.1500 -19.1484 -11.0266  -6.4526
    -4.9328  -4.8648  -4.4003  -3.0324  -1.4541   0.0236   1.9822   2.3057
     3.8275   4.5231   5.4227   6.3552

          k = 0.1638-0.3781 0.0000 ( 22123 PWs)   bands (ev):

   -67.5543 -67.5382 -34.4663 -34.3526 -34.2302 -34.0833 -33.9470 -33.8874
   -19.2459 -19.2406 -19.2395 -19.2351 -19.2272 -19.2201 -19.2185 -19.2100
   -19.2011 -19.1981 -19.1652 -19.1640 -19.1586 -19.1560 -11.2704  -6.2107
    -5.4707  -4.7988  -4.3803  -2.6525  -1.6836  -0.1912   1.2134   2.1628
     3.6347   4.2030   4.8736   6.3355

          k = 0.1638-0.2835 0.0000 ( 22153 PWs)   bands (ev):

   -67.5700 -67.5488 -34.4717 -34.2266 -34.1486 -34.0566 -33.8629 -33.8174
   -19.2461 -19.2435 -19.2381 -19.2342 -19.2246 -19.2198 -19.2183 -19.2095
   -19.2043 -19.1993 -19.1706 -19.1669 -19.1542 -19.1540 -11.6378  -6.4277
    -5.6951  -4.6265  -4.2179  -2.5260  -1.6920   0.0512   0.4383   2.2124
     3.0333   3.1990   4.4750   5.7258

          k = 0.1638-0.1890 0.0000 ( 22153 PWs)   bands (ev):

   -67.5852 -67.5599 -34.5098 -34.1408 -34.0127 -33.9915 -33.7971 -33.7416
   -19.2515 -19.2438 -19.2357 -19.2306 -19.2253 -19.2197 -19.2167 -19.2082
   -19.2065 -19.2010 -19.1822 -19.1775 -19.1439 -19.1434 -12.0375  -7.0710
    -5.5910  -4.3104  -3.8509  -2.7995  -1.3708  -0.1401   0.7430   1.9373
     2.2369   2.7754   3.9357   5.2822

          k = 0.1638-0.0945 0.0000 ( 22169 PWs)   bands (ev):

   -67.5961 -67.5682 -34.5431 -34.1178 -33.9151 -33.8679 -33.7614 -33.6976
   -19.2551 -19.2448 -19.2332 -19.2277 -19.2273 -19.2220 -19.2134 -19.2072
   -19.2066 -19.2023 -19.1906 -19.1854 -19.1362 -19.1357 -12.3451  -7.5549
    -5.4843  -4.0359  -3.4694  -3.1062  -1.0111  -0.4037   1.1250   1.3144
     2.0946   2.8043   3.6337   4.8633

          k = 0.1638 0.0000 0.0000 ( 22189 PWs)   bands (ev):

   -67.6000 -67.5713 -34.5556 -34.1146 -33.8575 -33.8341 -33.7361 -33.6977
   -19.2562 -19.2453 -19.2314 -19.2295 -19.2261 -19.2231 -19.2116 -19.2072
   -19.2065 -19.2026 -19.1937 -19.1883 -19.1334 -19.1329 -12.4600  -7.7291
    -5.4284  -3.8050  -3.6638  -2.9958  -0.7538  -0.6254   0.8681   1.6597
     1.7986   3.0007   3.5772   4.7928

          k = 0.2458 0.1418 0.0000 ( 22122 PWs)   bands (ev):

   -67.5787 -67.5551 -34.4931 -34.1964 -34.0694 -34.0424 -33.8191 -33.7384
   -19.2514 -19.2419 -19.2384 -19.2286 -19.2274 -19.2184 -19.2175 -19.2095
   -19.2063 -19.1994 -19.1773 -19.1731 -19.1482 -19.1469 -11.8706  -6.9295
    -5.6063  -4.4773  -3.5757  -3.1363  -1.6549   0.3194   1.1704   1.8866
     2.5263   2.6759   3.7494   5.4667

          k = 0.2458 0.2363 0.0000 ( 22158 PWs)   bands (ev):

   -67.5674 -67.5471 -34.4719 -34.2851 -34.1635 -34.0657 -33.8666 -33.7896
   -19.2495 -19.2407 -19.2396 -19.2323 -19.2266 -19.2198 -19.2169 -19.2101
   -19.2045 -19.1980 -19.1688 -19.1653 -19.1558 -19.1541 -11.5868  -6.6387
    -5.5352  -4.6456  -4.0145  -2.8255  -1.8146   0.5260   0.8200   2.2017
     2.8444   3.4023   4.0771   5.8984

          k = 0.2458 0.3309 0.0000 ( 22127 PWs)   bands (ev):

   -67.5541 -67.5382 -34.4672 -34.3544 -34.2300 -34.0833 -33.9468 -33.8871
   -19.2461 -19.2404 -19.2392 -19.2352 -19.2272 -19.2199 -19.2185 -19.2104
   -19.2014 -19.1979 -19.1652 -19.1638 -19.1586 -19.1560 -11.2686  -6.2057
    -5.4730  -4.8043  -4.3878  -2.6573  -1.6861  -0.1779   1.2128   2.1723
     3.6365   4.2076   4.8810   6.3268

          k = 0.2458 0.4254 0.0000 ( 22075 PWs)   bands (ev):

   -67.5418 -67.5312 -34.4736 -34.3892 -34.2505 -34.1166 -34.0353 -33.9854
   -19.2457 -19.2395 -19.2355 -19.2346 -19.2296 -19.2211 -19.2195 -19.2094
   -19.1998 -19.1993 -19.1732 -19.1723 -19.1501 -19.1484 -11.0045  -5.7699
    -5.6062  -4.7475  -4.5347  -2.8599  -1.2616  -0.5983   1.8988   2.4522
     3.6683   4.5704   5.2440   6.6353

          k = 0.2458 0.5199 0.0000 ( 22047 PWs)   bands (ev):

   -67.5338 -67.5281 -34.4648 -34.4000 -34.2530 -34.1846 -34.0675 -34.0427
   -19.2467 -19.2369 -19.2354 -19.2332 -19.2278 -19.2233 -19.2209 -19.2075
   -19.2015 -19.1994 -19.1782 -19.1770 -19.1450 -19.1442 -10.8571  -5.9416
    -5.1461  -4.7295  -4.6223  -3.1540  -0.9475  -0.4733   2.5579   2.7662
     3.5016   4.1681   5.1611   6.3195

          k = 0.2459 0.6144 0.0000 ( 22049 PWs)   bands (ev):

   -67.5338 -67.5281 -34.4641 -34.3994 -34.2530 -34.1854 -34.0687 -34.0417
   -19.2466 -19.2368 -19.2355 -19.2334 -19.2280 -19.2234 -19.2208 -19.2074
   -19.2016 -19.1993 -19.1783 -19.1770 -19.1450 -19.1442 -10.8576  -5.9403
    -5.1462  -4.7295  -4.6202  -3.1556  -0.9470  -0.4732   2.5609   2.7621
     3.5054   4.1603   5.1616   6.3184

          k = 0.2457-0.4253 0.0000 ( 22081 PWs)   bands (ev):

   -67.5419 -67.5312 -34.4725 -34.3874 -34.2511 -34.1172 -34.0363 -33.9851
   -19.2454 -19.2393 -19.2356 -19.2350 -19.2297 -19.2213 -19.2195 -19.2092
   -19.1998 -19.1991 -19.1732 -19.1724 -19.1501 -19.1484 -11.0057  -5.7679
    -5.6066  -4.7454  -4.5305  -2.8626  -1.2589  -0.6015   1.9024   2.4458
     3.6711   4.5571   5.2438   6.6320

          k = 0.2457-0.3308 0.0000 ( 22123 PWs)   bands (ev):

   -67.5542 -67.5382 -34.4665 -34.3528 -34.2301 -34.0833 -33.9474 -33.8874
   -19.2459 -19.2405 -19.2393 -19.2352 -19.2273 -19.2200 -19.2188 -19.2101
   -19.2012 -19.1980 -19.1652 -19.1639 -19.1586 -19.1560 -11.2700  -6.2077
    -5.4731  -4.7994  -4.3820  -2.6575  -1.6836  -0.1851   1.2160   2.1652
     3.6348   4.2016   4.8752   6.3324

          k = 0.2457-0.2363 0.0000 ( 22158 PWs)   bands (ev):

   -67.5676 -67.5471 -34.4719 -34.2840 -34.1629 -34.0655 -33.8669 -33.7897
   -19.2496 -19.2404 -19.2399 -19.2323 -19.2265 -19.2199 -19.2172 -19.2098
   -19.2043 -19.1981 -19.1688 -19.1653 -19.1558 -19.1542 -11.5879  -6.6410
    -5.5391  -4.6395  -4.0076  -2.8212  -1.8147   0.5153   0.8218   2.1959
     2.8380   3.4030   4.0751   5.9043

          k = 0.2457-0.1417 0.0000 ( 22126 PWs)   bands (ev):

   -67.5787 -67.5552 -34.4933 -34.1959 -34.0684 -34.0425 -33.8193 -33.7384
   -19.2516 -19.2419 -19.2384 -19.2288 -19.2270 -19.2186 -19.2178 -19.2092
   -19.2061 -19.1995 -19.1773 -19.1731 -19.1482 -19.1470 -11.8713  -6.9312
    -5.6111  -4.4729  -3.5710  -3.1291  -1.6556   0.3152   1.1619   1.8890
     2.5146   2.6790   3.7522   5.4696

          k = 0.2457-0.0472 0.0000 ( 22163 PWs)   bands (ev):

   -67.5851 -67.5599 -34.5096 -34.1420 -34.0130 -33.9930 -33.7958 -33.7412
   -19.2514 -19.2438 -19.2358 -19.2307 -19.2254 -19.2193 -19.2166 -19.2086
   -19.2067 -19.2008 -19.1822 -19.1776 -19.1439 -19.1434 -12.0365  -7.0704
    -5.5865  -4.3160  -3.8562  -2.8034  -1.3667  -0.1447   0.7501   1.9360
     2.2341   2.7877   3.9457   5.2734

          k = 0.2458 0.0473 0.0000 ( 22159 PWs)   bands (ev):

   -67.5851 -67.5599 -34.5095 -34.1420 -34.0139 -33.9925 -33.7959 -33.7412
   -19.2513 -19.2438 -19.2358 -19.2307 -19.2255 -19.2192 -19.2166 -19.2087
   -19.2068 -19.2007 -19.1822 -19.1777 -19.1439 -19.1434 -12.0363  -7.0698
    -5.5842  -4.3174  -3.8584  -2.8070  -1.3665  -0.1426   0.7534   1.9344
     2.2349   2.7913   3.9450   5.2722

          k = 0.3277 0.1891 0.0000 ( 22145 PWs)   bands (ev):

   -67.5607 -67.5426 -34.4816 -34.3769 -34.2128 -34.0730 -33.8752 -33.7805
   -19.2521 -19.2427 -19.2372 -19.2307 -19.2304 -19.2187 -19.2166 -19.2104
   -19.2035 -19.1961 -19.1637 -19.1607 -19.1596 -19.1567 -11.4454  -6.8464
    -5.3650  -4.6997  -3.6381  -3.2542  -1.9182   1.1344   1.5035   2.0940
     2.6830   3.7767   3.9087   6.0369

          k = 0.3277 0.2836 0.0000 ( 22088 PWs)   bands (ev):

   -67.5514 -67.5366 -34.5073 -34.4365 -34.2352 -34.0847 -33.9241 -33.8317
   -19.2515 -19.2433 -19.2369 -19.2325 -19.2301 -19.2186 -19.2175 -19.2105
   -19.2012 -19.1953 -19.1657 -19.1624 -19.1567 -19.1544 -11.2412  -6.7861
    -5.1681  -4.7694  -4.0217  -3.0301  -1.8167   0.8479   1.5793   2.0314
     3.6548   3.9478   4.7799   6.2834

          k = 0.3277 0.3781 0.0000 ( 22051 PWs)   bands (ev):

   -67.5417 -67.5312 -34.5129 -34.4455 -34.2264 -34.1189 -34.0057 -33.9358
   -19.2488 -19.2409 -19.2379 -19.2320 -19.2297 -19.2204 -19.2186 -19.2100
   -19.2003 -19.1965 -19.1728 -19.1700 -19.1499 -19.1484 -11.0239  -6.4504
    -4.9363  -4.8700  -4.4077  -3.0394  -1.4559   0.0379   1.9887   2.3191
     3.8269   4.5284   5.4226   6.3648

          k = 0.3277 0.4727 0.0000 ( 22041 PWs)   bands (ev):

   -67.5336 -67.5282 -34.4660 -34.4014 -34.2522 -34.1831 -34.0690 -34.0421
   -19.2471 -19.2367 -19.2346 -19.2331 -19.2283 -19.2232 -19.2211 -19.2077
   -19.2017 -19.1992 -19.1783 -19.1768 -19.1449 -19.1442 -10.8558  -5.9411
    -5.1503  -4.7344  -4.6187  -3.1583  -0.9509  -0.4651   2.5668   2.7710
     3.5005   4.1680   5.1597   6.3215

          k = 0.3278 0.5672 0.0000 ( 22064 PWs)   bands (ev):

   -67.5290 -67.5287 -34.3863 -34.3456 -34.3448 -34.2336 -34.0841 -34.0815
   -19.2464 -19.2347 -19.2346 -19.2280 -19.2276 -19.2260 -19.2250 -19.2044
   -19.2027 -19.2024 -19.1800 -19.1800 -19.1429 -19.1429 -10.7923  -5.4427
    -5.4389  -4.9170  -4.5630  -3.1848  -0.6402  -0.6349   2.9565   2.9580
     3.4945   3.5021   4.8861   6.6769

          k = 0.3278 0.6617 0.0000 ( 22045 PWs)   bands (ev):

   -67.5337 -67.5282 -34.4648 -34.3998 -34.2528 -34.1845 -34.0694 -34.0416
   -19.2467 -19.2366 -19.2350 -19.2333 -19.2283 -19.2234 -19.2209 -19.2075
   -19.2017 -19.1992 -19.1783 -19.1769 -19.1450 -19.1442 -10.8568  -5.9404
    -5.1484  -4.7320  -4.6186  -3.1577  -0.9489  -0.4688   2.5657   2.7645
     3.5047   4.1605   5.1609   6.3189

          k = 0.3276-0.3780 0.0000 ( 22055 PWs)   bands (ev):

   -67.5418 -67.5312 -34.5118 -34.4439 -34.2275 -34.1190 -34.0055 -33.9360
   -19.2484 -19.2413 -19.2379 -19.2323 -19.2296 -19.2206 -19.2185 -19.2096
   -19.2002 -19.1965 -19.1728 -19.1702 -19.1499 -19.1484 -11.0254  -6.4512
    -4.9363  -4.8660  -4.4020  -3.0384  -1.4542   0.0317   1.9876   2.3112
     3.8286   4.5206   5.4233   6.3600

          k = 0.3276-0.2835 0.0000 ( 22096 PWs)   bands (ev):

   -67.5516 -67.5367 -34.5065 -34.4352 -34.2360 -34.0842 -33.9242 -33.8317
   -19.2513 -19.2434 -19.2371 -19.2326 -19.2301 -19.2186 -19.2177 -19.2101
   -19.2011 -19.1953 -19.1657 -19.1625 -19.1567 -19.1544 -11.2426  -6.7883
    -5.1709  -4.7633  -4.0136  -3.0267  -1.8162   0.8380   1.5778   2.0230
     3.6509   3.9472   4.7789   6.2856

          k = 0.3276-0.1890 0.0000 ( 22143 PWs)   bands (ev):

   -67.5609 -67.5426 -34.4813 -34.3760 -34.2130 -34.0724 -33.8751 -33.7804
   -19.2522 -19.2428 -19.2374 -19.2307 -19.2303 -19.2186 -19.2167 -19.2101
   -19.2034 -19.1961 -19.1637 -19.1607 -19.1596 -19.1568 -11.4465  -6.8493
    -5.3686  -4.6940  -3.6322  -3.2465  -1.9186   1.1259   1.4949   2.0842
     2.6845   3.7779   3.9109   6.0396

          k = 0.3276-0.0945 0.0000 ( 22152 PWs)   bands (ev):

   -67.5675 -67.5471 -34.4720 -34.2855 -34.1638 -34.0655 -33.8658 -33.7893
   -19.2497 -19.2405 -19.2399 -19.2324 -19.2263 -19.2198 -19.2168 -19.2100
   -19.2046 -19.1981 -19.1688 -19.1653 -19.1558 -19.1542 -11.5867  -6.6416
    -5.5358  -4.6450  -4.0157  -2.8151  -1.8154   0.5219   0.8079   2.1991
     2.8522   3.4077   4.0765   5.8993

          k = 0.3277 0.0001 0.0000 ( 22157 PWs)   bands (ev):

   -67.5698 -67.5488 -34.4717 -34.2299 -34.1495 -34.0569 -33.8613 -33.8168
   -19.2457 -19.2437 -19.2384 -19.2341 -19.2248 -19.2196 -19.2177 -19.2099
   -19.2048 -19.1992 -19.1707 -19.1670 -19.1542 -19.1539 -11.6356  -6.4265
    -5.6883  -4.6384  -4.2278  -2.5281  -1.6925   0.0689   0.4242   2.2200
     3.0459   3.2048   4.4897   5.7063

          k = 0.3277 0.0946 0.0000 ( 22166 PWs)   bands (ev):

   -67.5674 -67.5471 -34.4720 -34.2859 -34.1639 -34.0657 -33.8660 -33.7894
   -19.2495 -19.2407 -19.2396 -19.2324 -19.2265 -19.2197 -19.2168 -19.2102
   -19.2047 -19.1980 -19.1688 -19.1653 -19.1558 -19.1541 -11.5861  -6.6390
    -5.5334  -4.6488  -4.0187  -2.8226  -1.8150   0.5296   0.8121   2.2037
     2.8523   3.4053   4.0776   5.8955

          k = 0.4096 0.2364 0.0000 ( 22046 PWs)   bands (ev):

   -67.5469 -67.5340 -34.5630 -34.4985 -34.2385 -34.0869 -33.9152 -33.8116
   -19.2542 -19.2448 -19.2379 -19.2324 -19.2308 -19.2181 -19.2163 -19.2105
   -19.1999 -19.1933 -19.1674 -19.1629 -19.1534 -19.1516 -11.1735  -7.0584
    -5.1798  -4.7816  -3.4658  -3.3776  -1.8300   1.5307   1.8272   2.1523
     3.1343   4.3217   5.1287   6.1861

          k = 0.4096 0.3309 0.0000 ( 22046 PWs)   bands (ev):

   -67.5415 -67.5312 -34.5808 -34.5140 -34.2254 -34.1010 -33.9556 -33.8562
   -19.2533 -19.2442 -19.2386 -19.2332 -19.2294 -19.2193 -19.2160 -19.2105
   -19.1992 -19.1934 -19.1711 -19.1665 -19.1496 -19.1483 -11.0637  -6.9711
    -5.0869  -4.7735  -3.7857  -3.2532  -1.6594   1.2034   1.6852   2.2793
     3.9728   4.4357   5.7551   6.2743

          k = 0.4097 0.4254 0.0000 ( 22044 PWs)   bands (ev):

   -67.5366 -67.5291 -34.5408 -34.4755 -34.2069 -34.1465 -34.0219 -33.9541
   -19.2500 -19.2410 -19.2372 -19.2342 -19.2273 -19.2211 -19.2181 -19.2098
   -19.2004 -19.1958 -19.1756 -19.1722 -19.1466 -19.1457 -10.9397  -6.5634
    -4.9009  -4.7375  -4.3148  -3.2852  -1.3172   0.2399   2.2269   2.4780
     4.0516   4.4543   5.5778   6.1250

          k = 0.4097 0.5199 0.0000 ( 22041 PWs)   bands (ev):

   -67.5335 -67.5282 -34.4668 -34.4023 -34.2512 -34.1829 -34.0684 -34.0426
   -19.2472 -19.2370 -19.2346 -19.2330 -19.2280 -19.2231 -19.2213 -19.2078
   -19.2016 -19.1994 -19.1783 -19.1768 -19.1449 -19.1442 -10.8551  -5.9428
    -5.1501  -4.7350  -4.6208  -3.1563  -0.9519  -0.4653   2.5626   2.7771
     3.4955   4.1773   5.1603   6.3230

          k = 0.4097 0.6145 0.0000 ( 22049 PWs)   bands (ev):

   -67.5336 -67.5282 -34.4664 -34.4014 -34.2517 -34.1837 -34.0675 -34.0430
   -19.2469 -19.2371 -19.2350 -19.2330 -19.2278 -19.2232 -19.2212 -19.2077
   -19.2016 -19.1994 -19.1782 -19.1769 -19.1449 -19.1442 -10.8556  -5.9433
    -5.1482  -4.7326  -4.6228  -3.1541  -0.9503  -0.4691   2.5587   2.7747
     3.4959   4.1776   5.1610   6.3213

          k = 0.4097 0.7090 0.0000 ( 22035 PWs)   bands (ev):

   -67.5368 -67.5291 -34.5400 -34.4740 -34.2087 -34.1459 -34.0212 -33.9543
   -19.2496 -19.2415 -19.2372 -19.2343 -19.2273 -19.2212 -19.2178 -19.2095
   -19.2004 -19.1958 -19.1755 -19.1723 -19.1466 -19.1457 -10.9410  -6.5641
    -4.8998  -4.7336  -4.3130  -3.2812  -1.3163   0.2336   2.2220   2.4704
     4.0536   4.4507   5.5798   6.1212

          k = 0.4095-0.3308 0.0000 ( 22050 PWs)   bands (ev):

   -67.5418 -67.5312 -34.5800 -34.5125 -34.2272 -34.0999 -33.9554 -33.8562
   -19.2531 -19.2445 -19.2388 -19.2334 -19.2294 -19.2194 -19.2157 -19.2101
   -19.1992 -19.1934 -19.1711 -19.1667 -19.1496 -19.1483 -11.0653  -6.9726
    -5.0879  -4.7684  -3.7781  -3.2499  -1.6593   1.1944   1.6799   2.2709
     3.9707   4.4359   5.7518   6.2742

          k = 0.4095-0.2362 0.0000 ( 22046 PWs)   bands (ev):

   -67.5471 -67.5341 -34.5623 -34.4971 -34.2400 -34.0859 -33.9151 -33.8114
   -19.2541 -19.2450 -19.2382 -19.2325 -19.2306 -19.2182 -19.2160 -19.2101
   -19.1999 -19.1933 -19.1674 -19.1630 -19.1534 -19.1515 -11.1750  -7.0607
    -5.1820  -4.7761  -3.4602  -3.3694  -1.8309   1.5253   1.8107   2.1448
     3.1378   4.3202   5.1283   6.1891

          k = 0.4096-0.1417 0.0000 ( 22088 PWs)   bands (ev):

   -67.5515 -67.5367 -34.5074 -34.4361 -34.2360 -34.0842 -33.9234 -33.8315
   -19.2514 -19.2435 -19.2375 -19.2324 -19.2297 -19.2188 -19.2170 -19.2102
   -19.2013 -19.1954 -19.1657 -19.1625 -19.1567 -19.1544 -11.2415  -6.7897
    -5.1689  -4.7664  -4.0239  -3.0152  -1.8188   0.8363   1.5690   2.0285
     3.6604   3.9481   4.7821   6.2902

          k = 0.4096-0.0472 0.0000 ( 22127 PWs)   bands (ev):

   -67.5540 -67.5382 -34.4678 -34.3556 -34.2300 -34.0833 -33.9457 -33.8869
   -19.2461 -19.2407 -19.2396 -19.2347 -19.2271 -19.2201 -19.2180 -19.2104
   -19.2015 -19.1980 -19.1651 -19.1639 -19.1586 -19.1560 -11.2676  -6.2102
    -5.4680  -4.8089  -4.3919  -2.6477  -1.6891  -0.1806   1.2029   2.1778
     3.6384   4.2176   4.8857   6.3245

          k = 0.4096 0.0473 0.0000 ( 22129 PWs)   bands (ev):

   -67.5540 -67.5382 -34.4679 -34.3560 -34.2297 -34.0834 -33.9460 -33.8868
   -19.2462 -19.2405 -19.2392 -19.2349 -19.2271 -19.2199 -19.2182 -19.2105
   -19.2015 -19.1980 -19.1651 -19.1638 -19.1586 -19.1561 -11.2672  -6.2071
    -5.4704  -4.8095  -4.3931  -2.6522  -1.6894  -0.1754   1.2052   2.1799
     3.6383   4.2166   4.8868   6.3225

          k = 0.4096 0.1419 0.0000 ( 22088 PWs)   bands (ev):

   -67.5514 -67.5366 -34.5077 -34.4370 -34.2350 -34.0848 -33.9237 -33.8316
   -19.2515 -19.2433 -19.2371 -19.2325 -19.2299 -19.2187 -19.2173 -19.2105
   -19.2013 -19.1953 -19.1657 -19.1624 -19.1567 -19.1544 -11.2405  -6.7869
    -5.1670  -4.7712  -4.0270  -3.0243  -1.8182   0.8469   1.5744   2.0348
     3.6599   3.9481   4.7820   6.2862

          k =-0.4915-0.2837 0.0000 ( 22014 PWs)   bands (ev):

   -67.5415 -67.5312 -34.6101 -34.5414 -34.2273 -34.0952 -33.9298 -33.8231
   -19.2552 -19.2451 -19.2398 -19.2331 -19.2298 -19.2190 -19.2146 -19.2106
   -19.1984 -19.1922 -19.1702 -19.1649 -19.1495 -19.1483 -11.0836  -7.1567
    -5.1738  -4.8073  -3.4279  -3.2924  -1.7669   1.4246   2.0937   2.3318
     3.1914   4.7979   5.7706   6.3337

          k =-0.4915-0.1891 0.0000 ( 22052 PWs)   bands (ev):

   -67.5415 -67.5312 -34.5810 -34.5142 -34.2252 -34.1011 -33.9555 -33.8562
   -19.2533 -19.2442 -19.2388 -19.2331 -19.2293 -19.2193 -19.2159 -19.2105
   -19.1992 -19.1934 -19.1711 -19.1665 -19.1496 -19.1483 -11.0634  -6.9715
    -5.0870  -4.7737  -3.7895  -3.2488  -1.6602   1.2026   1.6855   2.2786
     3.9739   4.4346   5.7556   6.2755

          k =-0.4915-0.0946 0.0000 ( 22046 PWs)   bands (ev):

   -67.5416 -67.5312 -34.5136 -34.4464 -34.2258 -34.1190 -34.0052 -33.9357
   -19.2489 -19.2409 -19.2383 -19.2317 -19.2295 -19.2204 -19.2186 -19.2100
   -19.2004 -19.1966 -19.1727 -19.1700 -19.1499 -19.1484 -11.0229  -6.4519
    -4.9331  -4.8736  -4.4131  -3.0340  -1.4577   0.0370   1.9834   2.3242
     3.8235   4.5396   5.4224   6.3651

          k =-0.4915-0.0001 0.0000 ( 22069 PWs)   bands (ev):

   -67.5416 -67.5312 -34.4749 -34.3913 -34.2489 -34.1165 -34.0347 -33.9853
   -19.2460 -19.2397 -19.2351 -19.2345 -19.2295 -19.2209 -19.2197 -19.2096
   -19.1997 -19.1995 -19.1732 -19.1723 -19.1501 -19.1485 -11.0028  -5.7732
    -5.6057  -4.7496  -4.5398  -2.8565  -1.2660  -0.5943   1.8937   2.4613
     3.6643   4.5859   5.2461   6.6402

          k =-0.4915 0.0944 0.0000 ( 22046 PWs)   bands (ev):

   -67.5417 -67.5312 -34.5132 -34.4454 -34.2269 -34.1187 -34.0046 -33.9359
   -19.2486 -19.2414 -19.2386 -19.2318 -19.2292 -19.2206 -19.2183 -19.2098
   -19.2004 -19.1966 -19.1727 -19.1701 -19.1499 -19.1484 -11.0238  -6.4538
    -4.9300  -4.8727  -4.4123  -3.0281  -1.4572   0.0301   1.9782   2.3197
     3.8229   4.5417   5.4218   6.3597

          k =-0.4915 0.1890 0.0000 ( 22050 PWs)   bands (ev):

   -67.5417 -67.5312 -34.5804 -34.5129 -34.2270 -34.0999 -33.9552 -33.8561
   -19.2531 -19.2445 -19.2390 -19.2332 -19.2293 -19.2194 -19.2156 -19.2101
   -19.1993 -19.1934 -19.1711 -19.1667 -19.1496 -19.1483 -11.0648  -6.9732
    -5.0881  -4.7687  -3.7857  -3.2411  -1.6608   1.1931   1.6801   2.2697
     3.9729   4.4343   5.7526   6.2757

          k =-0.4916-0.8508 0.0000 ( 22014 PWs)   bands (ev):

   -67.5417 -67.5312 -34.6094 -34.5399 -34.2293 -34.0938 -33.9295 -33.8228
   -19.2551 -19.2454 -19.2400 -19.2333 -19.2298 -19.2191 -19.2143 -19.2102
   -19.1984 -19.1922 -19.1702 -19.1651 -19.1495 -19.1483 -11.0852  -7.1585
    -5.1752  -4.8021  -3.4200  -3.2868  -1.7683   1.4190   2.0778   2.3227
     3.1953   4.7969   5.7666   6.3365

     the Fermi energy is     0.8278 ev

!    total energy              =   -1375.69929719 Ry
     estimated scf accuracy    <          2.1E-13 Ry
     smearing contrib. (-TS)   =      -0.00000369 Ry
     internal energy E=F+TS    =   -1375.69929350 Ry

     The total energy is F=E-TS. E is the sum of the following terms:
     one-electron contribution =  -11616.51690159 Ry
     hartree contribution      =    5838.39835608 Ry
     xc contribution           =    -140.31225872 Ry
     ewald contribution        =    4542.73151073 Ry

     convergence has been achieved in  19 iterations

     negative rho (up, down):  6.894E-04 0.000E+00

     Forces acting on atoms (cartesian axes, Ry/au):

     atom    1 type  2   force =    -0.00045391    0.00025759   -0.00000177
     atom    2 type  1   force =     0.00003990    0.00027388   -0.00020345
     atom    3 type  1   force =     0.00009751   -0.00034942    0.00020498
     atom    4 type  3   force =     0.00026917   -0.00055435   -0.00006685
     atom    5 type  3   force =     0.00004733    0.00037230    0.00006710

     Total force =     0.001046     Total SCF correction =     0.000004


     Computing stress (Cartesian axis) and pressure


     negative rho (up, down):  6.894E-04 0.000E+00
          total   stress  (Ry/bohr**3)                   (kbar)     P=       -0.47
  -0.00000397   0.00000012   0.00000076           -0.58        0.02        0.11
   0.00000012  -0.00000119  -0.00000378            0.02       -0.18       -0.56
   0.00000076  -0.00000378  -0.00000445            0.11       -0.56       -0.65


     Writing output data file /scratch/as3359/Ta2CH2-VCrelax/Ta.save/
 
     init_run     :     21.48s CPU     11.82s WALL (       1 calls)
     electrons    :    867.14s CPU    443.68s WALL (       1 calls)
     forces       :      6.84s CPU      3.53s WALL (       1 calls)
     stress       :     25.29s CPU     13.01s WALL (       1 calls)

     Called by init_run:
     wfcinit      :     16.45s CPU      8.45s WALL (       1 calls)
     potinit      :      1.30s CPU      0.66s WALL (       1 calls)
     hinit0       :      2.91s CPU      2.14s WALL (       1 calls)

     Called by electrons:
     c_bands      :    714.78s CPU    362.37s WALL (      19 calls)
     sum_band     :    134.94s CPU     70.60s WALL (      19 calls)
     v_of_rho     :      2.77s CPU      1.52s WALL (      20 calls)
     newd         :     14.32s CPU      9.03s WALL (      20 calls)
     mix_rho      :      0.96s CPU      0.53s WALL (      19 calls)

     Called by c_bands:
     init_us_2    :     18.16s CPU      9.09s WALL (    3034 calls)
     cegterg      :    660.79s CPU    335.13s WALL (    1406 calls)

     Called by *egterg:
     cdiaghg      :     16.84s CPU      8.61s WALL (    7453 calls)
     h_psi        :    526.96s CPU    267.87s WALL (    7527 calls)
     s_psi        :     26.14s CPU     13.10s WALL (    7527 calls)
     g_psi        :      3.22s CPU      1.62s WALL (    6047 calls)

     Called by h_psi:
     h_psi:calbec :     22.32s CPU     11.21s WALL (    7527 calls)
     vloc_psi     :    469.64s CPU    239.09s WALL (    7527 calls)
     add_vuspsi   :     30.39s CPU     15.23s WALL (    7527 calls)

     General routines
     calbec       :     30.58s CPU     15.36s WALL (    9303 calls)
     fft          :      1.72s CPU      0.88s WALL (     245 calls)
     ffts         :      0.09s CPU      0.04s WALL (      19 calls)
     fftw         :    475.80s CPU    242.45s WALL (  302852 calls)
 
     Parallel routines
 
     PWSCF        :  15m24.38s CPU   7m55.40s WALL

 
   This run was terminated on:  14:48: 2   7Apr2022            

=------------------------------------------------------------------------------=
   JOB DONE.
=------------------------------------------------------------------------------=
