
     Program PWSCF v.6.8 starts on  7Apr2022 at 19:29:21 

     This program is part of the open-source Quantum ESPRESSO suite
     for quantum simulation of materials; please cite
         "P. Giannozzi et al., J. Phys.:Condens. Matter 21 395502 (2009);
         "P. Giannozzi et al., J. Phys.:Condens. Matter 29 465901 (2017);
         "P. Giannozzi et al., J. Chem. Phys. 152 154105 (2020);
          URL http://www.quantum-espresso.org", 
     in publications or presentations arising from this work. More details at
     http://www.quantum-espresso.org/quote

     Parallel version (MPI & OpenMP), running on       4 processor cores
     Number of MPI processes:                 2
     Threads/MPI process:                     2

     MPI processes distributed on     1 nodes
     R & G space division:  proc/nbgrp/npool/nimage =       2
     122566 MiB available memory on the printing compute node when the environment starts
 
     Reading input from Ta2CH2.scf.185.in

     Current dimensions of program PWSCF are:
     Max number of different atomic species (ntypx) = 10
     Max number of k-points (npk) =  40000
     Max angular momentum in pseudopotentials (lmaxx) =  4
     file Ta.pbesol-spfn-rrkjus_psl.1.0.0.UPF: wavefunction(s)  5S 5P renormalized

     Subspace diagonalization in iterative solution of the eigenvalue problem:
     a serial algorithm will be used

 
     Parallelization info
     --------------------
     sticks:   dense  smooth     PW     G-vecs:    dense   smooth      PW
     Min         819     819    237               260807   260807   41187
     Max         820     820    238               260808   260808   41214
     Sum        1639    1639    475               521615   521615   82401
 
     Using Slab Decomposition
 


     bravais-lattice index     =            0
     lattice parameter (alat)  =       5.5500  a.u.
     unit-cell volume          =    1533.2393 (a.u.)^3
     number of atoms/cell      =            5
     number of atomic types    =            3
     number of electrons       =        60.00
     number of Kohn-Sham states=           36
     kinetic-energy cutoff     =     185.0000  Ry
     charge density cutoff     =     740.0000  Ry
     scf convergence threshold =      1.0E-12
     mixing beta               =       0.7000
     number of iterations used =            8  plain     mixing
     Exchange-correlation= PBESOL
                           (   1   4  10   8   0   0   0)

     celldm(1)=   5.550000  celldm(2)=   0.000000  celldm(3)=   0.000000
     celldm(4)=   0.000000  celldm(5)=   0.000000  celldm(6)=   0.000000

     crystal axes: (cart. coord. in units of alat)
               a(1) = (   1.017295  -0.000177   0.000000 )  
               a(2) = (  -0.508801   0.881714   0.000000 )  
               a(3) = (   0.000000   0.000000  10.000000 )  

     reciprocal axes: (cart. coord. in units 2 pi/alat)
               b(1) = (  0.983098  0.567305  0.000000 )  
               b(2) = (  0.000198  1.134269  0.000000 )  
               b(3) = (  0.000000  0.000000  0.100000 )  


     PseudoPot. # 1 for Ta read from file:
     /shared/home/as3359/pseudo/Ta.pbesol-spfn-rrkjus_psl.1.0.0.UPF
     MD5 check sum: f099565ffaca9b150a52e9412a28e20b
     Pseudo is Ultrasoft + core correction, Zval = 27.0
     Generated using &quot;atomic&quot; code by A. Dal Corso  v.6.3
     Using radial grid of 1273 points,  8 beta functions with: 
                l(1) =   0
                l(2) =   0
                l(3) =   1
                l(4) =   1
                l(5) =   2
                l(6) =   2
                l(7) =   3
                l(8) =   3
     Q(r) pseudized with 0 coefficients 


     PseudoPot. # 2 for C  read from file:
     /shared/home/as3359/pseudo/C.pbesol-n-rrkjus_psl.1.0.0.UPF
     MD5 check sum: 05995be603a8a7c99da3dc4413f31573
     Pseudo is Ultrasoft + core correction, Zval =  4.0
     Generated using &quot;atomic&quot; code by A. Dal Corso  v.6.3MaX
     Using radial grid of 1073 points,  4 beta functions with: 
                l(1) =   0
                l(2) =   0
                l(3) =   1
                l(4) =   1
     Q(r) pseudized with 0 coefficients 


     PseudoPot. # 3 for H  read from file:
     /shared/home/as3359/pseudo/H.pbesol-rrkjus_psl.0.1.UPF
     MD5 check sum: 1dbb1a5c48b1283557b8117eb856a7ca
     Pseudo is Ultrasoft, Zval =  1.0
     Generated using "atomic" code by A. Dal Corso  v.5.0.2 svn rev. 9415
     Using radial grid of  929 points,  2 beta functions with: 
                l(1) =   0
                l(2) =   0
     Q(r) pseudized with 0 coefficients 


     atomic species   valence    mass     pseudopotential
        Ta            27.00   180.94788     Ta( 1.00)
        C              4.00    12.01070     C ( 1.00)
        H              1.00     1.00000     H ( 1.00)

     No symmetry found



   Cartesian axes

     site n.     atom                  positions (alat units)
         1           C   tau(   1) = (   0.0000000   0.0000000   0.0000000  )
         2           Ta  tau(   2) = (   0.5088008   0.2948413  -0.4364511  )
         3           Ta  tau(   3) = (  -0.0007447   0.5869407   0.4364532  )
         4           H   tau(   4) = (  -0.0017928  -0.0015314   0.8341930  )
         5           H   tau(   5) = (   0.0002769   0.0024412  -0.8341930  )

     number of k points=    74  Marzari-Vanderbilt smearing, width (Ry)=  0.0010
                       cart. coord. in units 2pi/alat
        k(    1) = (   0.0000000   0.0000000   0.0000000), wk =   0.0138889
        k(    2) = (   0.0000165   0.0945224   0.0000000), wk =   0.0277778
        k(    3) = (   0.0000329   0.1890448   0.0000000), wk =   0.0277778
        k(    4) = (   0.0000494   0.2835672   0.0000000), wk =   0.0277778
        k(    5) = (   0.0000659   0.3780896   0.0000000), wk =   0.0277778
        k(    6) = (   0.0000823   0.4726120   0.0000000), wk =   0.0277778
        k(    7) = (  -0.0000988  -0.5671343   0.0000000), wk =   0.0138889
        k(    8) = (   0.0819248   0.0472755   0.0000000), wk =   0.0277778
        k(    9) = (   0.0819413   0.1417978   0.0000000), wk =   0.0277778
        k(   10) = (   0.0819577   0.2363202   0.0000000), wk =   0.0277778
        k(   11) = (   0.0819742   0.3308426   0.0000000), wk =   0.0277778
        k(   12) = (   0.0819907   0.4253650   0.0000000), wk =   0.0277778
        k(   13) = (   0.0820071   0.5198874   0.0000000), wk =   0.0277778
        k(   14) = (   0.0818260  -0.5198589   0.0000000), wk =   0.0277778
        k(   15) = (   0.0818425  -0.4253365   0.0000000), wk =   0.0277778
        k(   16) = (   0.0818590  -0.3308141   0.0000000), wk =   0.0277778
        k(   17) = (   0.0818754  -0.2362917   0.0000000), wk =   0.0277778
        k(   18) = (   0.0818919  -0.1417693   0.0000000), wk =   0.0277778
        k(   19) = (   0.0819084  -0.0472469   0.0000000), wk =   0.0277778
        k(   20) = (   0.1638496   0.0945509   0.0000000), wk =   0.0277778
        k(   21) = (   0.1638661   0.1890733   0.0000000), wk =   0.0277778
        k(   22) = (   0.1638826   0.2835957   0.0000000), wk =   0.0277778
        k(   23) = (   0.1638990   0.3781181   0.0000000), wk =   0.0277778
        k(   24) = (   0.1639155   0.4726405   0.0000000), wk =   0.0277778
        k(   25) = (   0.1639319   0.5671629   0.0000000), wk =   0.0277778
        k(   26) = (   0.1637508  -0.4725834   0.0000000), wk =   0.0277778
        k(   27) = (   0.1637673  -0.3780610   0.0000000), wk =   0.0277778
        k(   28) = (   0.1637838  -0.2835386   0.0000000), wk =   0.0277778
        k(   29) = (   0.1638002  -0.1890163   0.0000000), wk =   0.0277778
        k(   30) = (   0.1638167  -0.0944939   0.0000000), wk =   0.0277778
        k(   31) = (   0.1638332   0.0000285   0.0000000), wk =   0.0277778
        k(   32) = (   0.2457744   0.1418264   0.0000000), wk =   0.0277778
        k(   33) = (   0.2457909   0.2363488   0.0000000), wk =   0.0277778
        k(   34) = (   0.2458074   0.3308711   0.0000000), wk =   0.0277778
        k(   35) = (   0.2458238   0.4253935   0.0000000), wk =   0.0277778
        k(   36) = (   0.2458403   0.5199159   0.0000000), wk =   0.0277778
        k(   37) = (   0.2458568   0.6144383   0.0000000), wk =   0.0277778
        k(   38) = (   0.2456757  -0.4253080   0.0000000), wk =   0.0277778
        k(   39) = (   0.2456921  -0.3307856   0.0000000), wk =   0.0277778
        k(   40) = (   0.2457086  -0.2362632   0.0000000), wk =   0.0277778
        k(   41) = (   0.2457251  -0.1417408   0.0000000), wk =   0.0277778
        k(   42) = (   0.2457415  -0.0472184   0.0000000), wk =   0.0277778
        k(   43) = (   0.2457580   0.0473040   0.0000000), wk =   0.0277778
        k(   44) = (   0.3276993   0.1891018   0.0000000), wk =   0.0277778
        k(   45) = (   0.3277157   0.2836242   0.0000000), wk =   0.0277778
        k(   46) = (   0.3277322   0.3781466   0.0000000), wk =   0.0277778
        k(   47) = (   0.3277486   0.4726690   0.0000000), wk =   0.0277778
        k(   48) = (   0.3277651   0.5671914   0.0000000), wk =   0.0277778
        k(   49) = (   0.3277816   0.6617138   0.0000000), wk =   0.0277778
        k(   50) = (   0.3276005  -0.3780325   0.0000000), wk =   0.0277778
        k(   51) = (   0.3276169  -0.2835101   0.0000000), wk =   0.0277778
        k(   52) = (   0.3276334  -0.1889877   0.0000000), wk =   0.0277778
        k(   53) = (   0.3276499  -0.0944653   0.0000000), wk =   0.0277778
        k(   54) = (   0.3276663   0.0000570   0.0000000), wk =   0.0277778
        k(   55) = (   0.3276828   0.0945794   0.0000000), wk =   0.0277778
        k(   56) = (   0.4096241   0.2363773   0.0000000), wk =   0.0277778
        k(   57) = (   0.4096405   0.3308997   0.0000000), wk =   0.0277778
        k(   58) = (   0.4096570   0.4254221   0.0000000), wk =   0.0277778
        k(   59) = (   0.4096735   0.5199445   0.0000000), wk =   0.0277778
        k(   60) = (   0.4096899   0.6144668   0.0000000), wk =   0.0277778
        k(   61) = (   0.4097064   0.7089892   0.0000000), wk =   0.0277778
        k(   62) = (   0.4095253  -0.3307571   0.0000000), wk =   0.0277778
        k(   63) = (   0.4095418  -0.2362347   0.0000000), wk =   0.0277778
        k(   64) = (   0.4095582  -0.1417123   0.0000000), wk =   0.0277778
        k(   65) = (   0.4095747  -0.0471899   0.0000000), wk =   0.0277778
        k(   66) = (   0.4095911   0.0473325   0.0000000), wk =   0.0277778
        k(   67) = (   0.4096076   0.1418549   0.0000000), wk =   0.0277778
        k(   68) = (  -0.4915489  -0.2836527   0.0000000), wk =   0.0138889
        k(   69) = (  -0.4915324  -0.1891303   0.0000000), wk =   0.0277778
        k(   70) = (  -0.4915160  -0.0946080   0.0000000), wk =   0.0277778
        k(   71) = (  -0.4914995  -0.0000856   0.0000000), wk =   0.0277778
        k(   72) = (  -0.4914830   0.0944368   0.0000000), wk =   0.0277778
        k(   73) = (  -0.4914666   0.1889592   0.0000000), wk =   0.0277778
        k(   74) = (  -0.4916477  -0.8507871   0.0000000), wk =   0.0138889

     Dense  grid:   521615 G-vectors     FFT dimensions: (  50,  50, 486)

     Estimated max dynamical RAM per process >       3.79 GB

     Estimated total dynamical RAM >       7.57 GB

     Initial potential from superposition of free atoms

     starting charge   59.99840, renormalised to   60.00000

     negative rho (up, down):  2.909E-05 0.000E+00
     Starting wfcs are   40 randomized atomic wfcs

     total cpu time spent up to now is       36.8 secs

     Self-consistent Calculation

     iteration #  1     ecut=   185.00 Ry     beta= 0.70
     Davidson diagonalization with overlap
     ethr =  1.00E-02,  avg # of iterations =  2.0

     negative rho (up, down):  3.733E-07 0.000E+00

     total cpu time spent up to now is      105.2 secs

     total energy              =   -1375.12256549 Ry
     estimated scf accuracy    <       1.04842376 Ry

     iteration #  2     ecut=   185.00 Ry     beta= 0.70
     Davidson diagonalization with overlap
     ethr =  1.75E-03,  avg # of iterations =  7.1

     negative rho (up, down):  1.351E-06 0.000E+00

     total cpu time spent up to now is      200.0 secs

     total energy              =   -1374.71652639 Ry
     estimated scf accuracy    <       5.41622442 Ry

     iteration #  3     ecut=   185.00 Ry     beta= 0.70
     Davidson diagonalization with overlap
     ethr =  1.75E-03,  avg # of iterations =  4.8

     negative rho (up, down):  5.698E-06 0.000E+00

     total cpu time spent up to now is      283.8 secs

     total energy              =   -1375.66803579 Ry
     estimated scf accuracy    <       0.22927211 Ry

     iteration #  4     ecut=   185.00 Ry     beta= 0.70
     Davidson diagonalization with overlap
     ethr =  3.82E-04,  avg # of iterations =  2.3

     negative rho (up, down):  1.280E-05 0.000E+00

     total cpu time spent up to now is      354.8 secs

     total energy              =   -1375.69581620 Ry
     estimated scf accuracy    <       0.02695518 Ry

     iteration #  5     ecut=   185.00 Ry     beta= 0.70
     Davidson diagonalization with overlap
     ethr =  4.49E-05,  avg # of iterations = 10.7

     negative rho (up, down):  1.846E-05 0.000E+00

     total cpu time spent up to now is      448.2 secs

     total energy              =   -1375.68018616 Ry
     estimated scf accuracy    <       0.36219827 Ry

     iteration #  6     ecut=   185.00 Ry     beta= 0.70
     Davidson diagonalization with overlap
     c_bands:  1 eigenvalues not converged
     c_bands:  1 eigenvalues not converged
     ethr =  4.49E-05,  avg # of iterations = 11.4

     negative rho (up, down):  3.194E-05 0.000E+00

     total cpu time spent up to now is      538.2 secs

     total energy              =   -1375.70045432 Ry
     estimated scf accuracy    <       0.00654658 Ry

     iteration #  7     ecut=   185.00 Ry     beta= 0.70
     Davidson diagonalization with overlap
     c_bands:  1 eigenvalues not converged
     c_bands:  1 eigenvalues not converged
     ethr =  1.09E-05,  avg # of iterations =  5.9

     negative rho (up, down):  3.902E-05 0.000E+00

     total cpu time spent up to now is      618.0 secs

     total energy              =   -1375.70126544 Ry
     estimated scf accuracy    <       0.00021820 Ry

     iteration #  8     ecut=   185.00 Ry     beta= 0.70
     Davidson diagonalization with overlap
     ethr =  3.64E-07,  avg # of iterations =  7.5

     negative rho (up, down):  4.455E-05 0.000E+00

     total cpu time spent up to now is      706.8 secs

     total energy              =   -1375.70131434 Ry
     estimated scf accuracy    <       0.00001167 Ry

     iteration #  9     ecut=   185.00 Ry     beta= 0.70
     Davidson diagonalization with overlap
     ethr =  1.95E-08,  avg # of iterations =  3.1

     negative rho (up, down):  4.498E-05 0.000E+00

     total cpu time spent up to now is      779.3 secs

     total energy              =   -1375.70131597 Ry
     estimated scf accuracy    <       0.00000466 Ry

     iteration # 10     ecut=   185.00 Ry     beta= 0.70
     Davidson diagonalization with overlap
     ethr =  7.77E-09,  avg # of iterations =  2.0

     negative rho (up, down):  4.519E-05 0.000E+00

     total cpu time spent up to now is      853.0 secs

     total energy              =   -1375.70131641 Ry
     estimated scf accuracy    <       0.00000066 Ry

     iteration # 11     ecut=   185.00 Ry     beta= 0.70
     Davidson diagonalization with overlap
     ethr =  1.10E-09,  avg # of iterations =  2.8

     negative rho (up, down):  4.520E-05 0.000E+00

     total cpu time spent up to now is      929.3 secs

     total energy              =   -1375.70131654 Ry
     estimated scf accuracy    <       0.00000007 Ry

     iteration # 12     ecut=   185.00 Ry     beta= 0.70
     Davidson diagonalization with overlap
     ethr =  1.15E-10,  avg # of iterations =  2.4

     negative rho (up, down):  4.521E-05 0.000E+00

     total cpu time spent up to now is      997.7 secs

     total energy              =   -1375.70131655 Ry
     estimated scf accuracy    <       0.00000003 Ry

     iteration # 13     ecut=   185.00 Ry     beta= 0.70
     Davidson diagonalization with overlap
     ethr =  4.67E-11,  avg # of iterations =  2.0

     negative rho (up, down):  4.522E-05 0.000E+00

     total cpu time spent up to now is     1064.3 secs

     total energy              =   -1375.70131655 Ry
     estimated scf accuracy    <          5.2E-09 Ry

     iteration # 14     ecut=   185.00 Ry     beta= 0.70
     Davidson diagonalization with overlap
     ethr =  8.69E-12,  avg # of iterations =  3.9

     negative rho (up, down):  4.523E-05 0.000E+00

     total cpu time spent up to now is     1136.7 secs

     total energy              =   -1375.70131655 Ry
     estimated scf accuracy    <          2.0E-10 Ry

     iteration # 15     ecut=   185.00 Ry     beta= 0.70
     Davidson diagonalization with overlap
     ethr =  3.38E-13,  avg # of iterations =  3.9

     negative rho (up, down):  4.523E-05 0.000E+00

     total cpu time spent up to now is     1210.3 secs

     total energy              =   -1375.70131655 Ry
     estimated scf accuracy    <          1.8E-10 Ry

     iteration # 16     ecut=   185.00 Ry     beta= 0.70
     Davidson diagonalization with overlap
     ethr =  2.94E-13,  avg # of iterations =  1.6

     negative rho (up, down):  4.523E-05 0.000E+00

     total cpu time spent up to now is     1273.0 secs

     total energy              =   -1375.70131655 Ry
     estimated scf accuracy    <          6.2E-11 Ry

     iteration # 17     ecut=   185.00 Ry     beta= 0.70
     Davidson diagonalization with overlap
     ethr =  1.03E-13,  avg # of iterations =  2.5

     negative rho (up, down):  4.523E-05 0.000E+00

     total cpu time spent up to now is     1338.0 secs

     total energy              =   -1375.70131655 Ry
     estimated scf accuracy    <          1.5E-12 Ry

     iteration # 18     ecut=   185.00 Ry     beta= 0.70
     Davidson diagonalization with overlap
     ethr =  1.00E-13,  avg # of iterations =  1.0

     negative rho (up, down):  4.523E-05 0.000E+00

     total cpu time spent up to now is     1397.9 secs

     total energy              =   -1375.70131655 Ry
     estimated scf accuracy    <          1.2E-12 Ry

     iteration # 19     ecut=   185.00 Ry     beta= 0.70
     Davidson diagonalization with overlap
     ethr =  1.00E-13,  avg # of iterations =  1.0

     negative rho (up, down):  4.523E-05 0.000E+00

     total cpu time spent up to now is     1455.9 secs

     End of self-consistent calculation

          k = 0.0000 0.0000 0.0000 ( 65261 PWs)   bands (ev):

   -67.6111 -67.5795 -34.5973 -34.1139 -33.6992 -33.6978 -33.6591 -33.6588
   -19.2564 -19.2424 -19.2232 -19.2228 -19.2225 -19.2224 -19.2014 -19.2014
   -19.2002 -19.1995 -19.1990 -19.1928 -19.1189 -19.1181 -12.8531  -8.3508
    -5.2549  -3.4727  -3.2164  -3.2015  -1.2332   0.3194   0.3394   2.4915
     2.5034   2.9053   2.9381   3.4871

          k = 0.0000 0.0945 0.0000 ( 65147 PWs)   bands (ev):

   -67.6066 -67.5760 -34.5824 -34.1127 -33.7581 -33.7163 -33.7158 -33.6684
   -19.2547 -19.2417 -19.2243 -19.2228 -19.2226 -19.2212 -19.2035 -19.2016
   -19.2003 -19.1994 -19.1955 -19.1896 -19.1223 -19.1216 -12.7137  -8.1322
    -5.3199  -3.5509  -3.3888  -3.1604  -1.0615  -0.0553   0.5497   1.8790
     2.1876   2.9301   3.3021   4.1840

          k = 0.0000 0.1890 0.0000 ( 65076 PWs)   bands (ev):

   -67.5942 -67.5663 -34.5422 -34.1165 -33.9137 -33.8668 -33.7607 -33.6966
   -19.2506 -19.2401 -19.2283 -19.2230 -19.2222 -19.2174 -19.2087 -19.2022
   -19.2017 -19.1978 -19.1859 -19.1806 -19.1314 -19.1309 -12.3438  -7.5535
    -5.4872  -4.0334  -3.4651  -3.0961  -1.0091  -0.4086   1.1334   1.3098
     2.0980   2.7902   3.6419   4.9516

          k = 0.0000 0.2836 0.0000 ( 65103 PWs)   bands (ev):

   -67.5769 -67.5533 -34.4925 -34.1942 -34.0669 -34.0417 -33.8183 -33.7373
   -19.2473 -19.2372 -19.2334 -19.2241 -19.2220 -19.2137 -19.2132 -19.2042
   -19.2012 -19.1950 -19.1725 -19.1683 -19.1434 -19.1422 -11.8704  -6.9306
    -5.6163  -4.4654  -3.5644  -3.1179  -1.6552   0.3114   1.1534   1.8931
     2.5017   2.6843   3.7584   5.5351

          k = 0.0001 0.3781 0.0000 ( 65180 PWs)   bands (ev):

   -67.5591 -67.5407 -34.4800 -34.3744 -34.2122 -34.0710 -33.8739 -33.7791
   -19.2478 -19.2379 -19.2328 -19.2260 -19.2253 -19.2136 -19.2120 -19.2050
   -19.1986 -19.1915 -19.1589 -19.1559 -19.1548 -19.1521 -11.4462  -6.8501
    -5.3719  -4.6850  -3.6246  -3.2345  -1.9184   1.1164   1.4876   2.0736
     2.6880   3.7809   3.9156   6.0524

          k = 0.0001 0.4726 0.0000 ( 65260 PWs)   bands (ev):

   -67.5454 -67.5321 -34.5603 -34.4953 -34.2405 -34.0839 -33.9138 -33.8101
   -19.2496 -19.2402 -19.2336 -19.2278 -19.2258 -19.2134 -19.2109 -19.2049
   -19.1952 -19.1887 -19.1627 -19.1584 -19.1486 -19.1468 -11.1753  -7.0604
    -5.1831  -4.7671  -3.4533  -3.3573  -1.8316   1.5217   1.7913   2.1381
     3.1449   4.3194   5.1291   6.1965

          k =-0.0001-0.5671 0.0000 ( 65222 PWs)   bands (ev):

   -67.5401 -67.5293 -34.6073 -34.5379 -34.2304 -34.0914 -33.9282 -33.8215
   -19.2504 -19.2407 -19.2354 -19.2286 -19.2252 -19.2142 -19.2092 -19.2051
   -19.1938 -19.1875 -19.1655 -19.1605 -19.1447 -19.1435 -11.0857  -7.1575
    -5.1753  -4.7932  -3.4074  -3.2809  -1.7694   1.4152   2.0586   2.3148
     3.2029   4.7971   5.7627   6.3427

          k = 0.0819 0.0473 0.0000 ( 65165 PWs)   bands (ev):

   -67.6066 -67.5760 -34.5823 -34.1128 -33.7593 -33.7159 -33.7152 -33.6685
   -19.2547 -19.2416 -19.2244 -19.2229 -19.2227 -19.2210 -19.2034 -19.2017
   -19.2009 -19.1988 -19.1955 -19.1896 -19.1223 -19.1216 -12.7135  -8.1319
    -5.3179  -3.5471  -3.3854  -3.1738  -1.0629  -0.0391   0.5334   1.8788
     2.1865   2.9622   3.2865   4.1705

          k = 0.0819 0.1418 0.0000 ( 65157 PWs)   bands (ev):

   -67.5981 -67.5693 -34.5547 -34.1135 -33.8557 -33.8330 -33.7358 -33.6967
   -19.2516 -19.2406 -19.2265 -19.2247 -19.2213 -19.2186 -19.2068 -19.2023
   -19.2016 -19.1981 -19.1889 -19.1835 -19.1285 -19.1281 -12.4585  -7.7276
    -5.4296  -3.8037  -3.6600  -2.9879  -0.7504  -0.6295   0.8724   1.6533
     1.8059   2.9995   3.5721   4.8321

          k = 0.0820 0.2363 0.0000 ( 65108 PWs)   bands (ev):

   -67.5832 -67.5580 -34.5088 -34.1401 -34.0116 -33.9915 -33.7954 -33.7403
   -19.2470 -19.2391 -19.2308 -19.2259 -19.2205 -19.2147 -19.2119 -19.2036
   -19.2018 -19.1962 -19.1775 -19.1728 -19.1391 -19.1386 -12.0356  -7.0693
    -5.5909  -4.3092  -3.8492  -2.7949  -1.3677  -0.1431   0.7436   1.9404
     2.2364   2.7779   3.9444   5.3390

          k = 0.0820 0.3308 0.0000 ( 65146 PWs)   bands (ev):

   -67.5657 -67.5452 -34.4710 -34.2833 -34.1623 -34.0644 -33.8652 -33.7884
   -19.2453 -19.2355 -19.2352 -19.2276 -19.2215 -19.2150 -19.2121 -19.2049
   -19.1997 -19.1935 -19.1640 -19.1605 -19.1510 -19.1495 -11.5864  -6.6417
    -5.5396  -4.6354  -4.0063  -2.8075  -1.8143   0.5100   0.8128   2.1933
     2.8456   3.4095   4.0768   5.9419

          k = 0.0820 0.4254 0.0000 ( 65193 PWs)   bands (ev):

   -67.5498 -67.5347 -34.5053 -34.4341 -34.2358 -34.0826 -33.9224 -33.8304
   -19.2468 -19.2387 -19.2328 -19.2278 -19.2249 -19.2140 -19.2122 -19.2051
   -19.1965 -19.1907 -19.1609 -19.1579 -19.1520 -19.1496 -11.2418  -6.7895
    -5.1710  -4.7568  -4.0130  -3.0091  -1.8173   0.8260   1.5703   2.0190
     3.6579   3.9489   4.7818   6.2966

          k = 0.0820 0.5199 0.0000 ( 65187 PWs)   bands (ev):

   -67.5401 -67.5293 -34.5782 -34.5108 -34.2280 -34.0977 -33.9539 -33.8549
   -19.2484 -19.2399 -19.2343 -19.2286 -19.2246 -19.2146 -19.2105 -19.2050
   -19.1946 -19.1888 -19.1664 -19.1621 -19.1449 -19.1435 -11.0654  -6.9720
    -5.0878  -4.7602  -3.7748  -3.2365  -1.6600   1.1842   1.6765   2.2608
     3.9727   4.4364   5.7496   6.2760

          k = 0.0818-0.5199 0.0000 ( 65181 PWs)   bands (ev):

   -67.5401 -67.5293 -34.5780 -34.5106 -34.2280 -34.0977 -33.9540 -33.8549
   -19.2484 -19.2399 -19.2342 -19.2286 -19.2246 -19.2146 -19.2106 -19.2049
   -19.1945 -19.1888 -19.1664 -19.1621 -19.1449 -19.1435 -11.0656  -6.9717
    -5.0877  -4.7600  -3.7710  -3.2410  -1.6593   1.1848   1.6764   2.2614
     3.9717   4.4370   5.7494   6.2760

          k = 0.0818-0.4253 0.0000 ( 65193 PWs)   bands (ev):

   -67.5498 -67.5347 -34.5049 -34.4337 -34.2357 -34.0827 -33.9228 -33.8305
   -19.2468 -19.2387 -19.2326 -19.2279 -19.2251 -19.2138 -19.2126 -19.2050
   -19.1964 -19.1907 -19.1610 -19.1579 -19.1520 -19.1496 -11.2423  -6.7889
    -5.1719  -4.7554  -4.0080  -3.0149  -1.8162   0.8267   1.5742   2.0168
     3.6535   3.9484   4.7806   6.2947

          k = 0.0819-0.3308 0.0000 ( 65146 PWs)   bands (ev):

   -67.5657 -67.5452 -34.4710 -34.2826 -34.1618 -34.0645 -33.8657 -33.7886
   -19.2453 -19.2355 -19.2352 -19.2276 -19.2215 -19.2151 -19.2124 -19.2048
   -19.1995 -19.1935 -19.1640 -19.1605 -19.1510 -19.1495 -11.5869  -6.6414
    -5.5412  -4.6330  -4.0023  -2.8106  -1.8140   0.5071   0.8189   2.1922
     2.8394   3.4077   4.0759   5.9443

          k = 0.0819-0.2363 0.0000 ( 65098 PWs)   bands (ev):

   -67.5833 -67.5580 -34.5089 -34.1396 -34.0115 -33.9907 -33.7961 -33.7405
   -19.2470 -19.2391 -19.2308 -19.2259 -19.2204 -19.2150 -19.2119 -19.2034
   -19.2017 -19.1964 -19.1774 -19.1728 -19.1391 -19.1386 -12.0360  -7.0696
    -5.5928  -4.3068  -3.8466  -2.7934  -1.3695  -0.1414   0.7407   1.9410
     2.2380   2.7722   3.9400   5.3440

          k = 0.0819-0.1418 0.0000 ( 65161 PWs)   bands (ev):

   -67.5981 -67.5693 -34.5548 -34.1133 -33.8548 -33.8328 -33.7364 -33.6968
   -19.2517 -19.2406 -19.2265 -19.2245 -19.2211 -19.2188 -19.2069 -19.2021
   -19.2013 -19.1985 -19.1889 -19.1834 -19.1285 -19.1281 -12.4588  -7.7280
    -5.4316  -3.8041  -3.6581  -2.9831  -0.7491  -0.6342   0.8749   1.6478
     1.8101   2.9963   3.5659   4.8408

          k = 0.0819-0.0472 0.0000 ( 65169 PWs)   bands (ev):

   -67.6066 -67.5760 -34.5824 -34.1128 -33.7587 -33.7160 -33.7156 -33.6685
   -19.2547 -19.2417 -19.2244 -19.2228 -19.2227 -19.2211 -19.2035 -19.2016
   -19.2006 -19.1991 -19.1956 -19.1896 -19.1223 -19.1216 -12.7136  -8.1321
    -5.3187  -3.5488  -3.3869  -3.1679  -1.0624  -0.0464   0.5408   1.8788
     2.1872   2.9483   3.2926   4.1767

          k = 0.1638 0.0946 0.0000 ( 65089 PWs)   bands (ev):

   -67.5941 -67.5662 -34.5420 -34.1169 -33.9149 -33.8672 -33.7601 -33.6967
   -19.2503 -19.2401 -19.2284 -19.2229 -19.2228 -19.2170 -19.2085 -19.2029
   -19.2019 -19.1973 -19.1859 -19.1807 -19.1314 -19.1308 -12.3430  -7.5524
    -5.4796  -4.0347  -3.4703  -3.1110  -1.0095  -0.3972   1.1207   1.3214
     2.0945   2.8197   3.6310   4.9424

          k = 0.1639 0.1891 0.0000 ( 65110 PWs)   bands (ev):

   -67.5832 -67.5579 -34.5086 -34.1404 -34.0128 -33.9909 -33.7956 -33.7405
   -19.2467 -19.2392 -19.2309 -19.2259 -19.2207 -19.2145 -19.2118 -19.2039
   -19.2020 -19.1960 -19.1775 -19.1729 -19.1391 -19.1385 -12.0351  -7.0683
    -5.5852  -4.3125  -3.8540  -2.8030  -1.3672  -0.1381   0.7508   1.9368
     2.2378   2.7865   3.9420   5.3340

          k = 0.1639 0.2836 0.0000 ( 65154 PWs)   bands (ev):

   -67.5680 -67.5469 -34.4708 -34.2272 -34.1483 -34.0558 -33.8611 -33.8161
   -19.2412 -19.2390 -19.2334 -19.2294 -19.2200 -19.2149 -19.2131 -19.2050
   -19.1999 -19.1945 -19.1659 -19.1622 -19.1494 -19.1491 -11.6351  -6.4252
    -5.6905  -4.6300  -4.2210  -2.5250  -1.6906   0.0606   0.4339   2.2174
     3.0405   3.2027   4.4846   5.7329

          k = 0.1639 0.3781 0.0000 ( 65156 PWs)   bands (ev):

   -67.5522 -67.5363 -34.4660 -34.3529 -34.2295 -34.0822 -33.9452 -33.8863
   -19.2413 -19.2358 -19.2349 -19.2300 -19.2223 -19.2154 -19.2133 -19.2054
   -19.1966 -19.1934 -19.1603 -19.1592 -19.1538 -19.1512 -11.2677  -6.2101
    -5.4665  -4.8014  -4.3833  -2.6461  -1.6841  -0.1876   1.2093   2.1696
     3.6380   4.2117   4.8800   6.3398

          k = 0.1639 0.4726 0.0000 ( 65155 PWs)   bands (ev):

   -67.5400 -67.5293 -34.5108 -34.4431 -34.2274 -34.1175 -34.0033 -33.9352
   -19.2437 -19.2369 -19.2337 -19.2273 -19.2244 -19.2158 -19.2133 -19.2047
   -19.1955 -19.1920 -19.1680 -19.1655 -19.1452 -19.1436 -11.0242  -6.4520
    -4.9281  -4.8663  -4.4035  -3.0258  -1.4536   0.0246   1.9796   2.3106
     3.8267   4.5345   5.4230   6.3569

          k = 0.1639 0.5672 0.0000 ( 65098 PWs)   bands (ev):

   -67.5351 -67.5271 -34.5379 -34.4721 -34.2096 -34.1444 -34.0195 -33.9535
   -19.2447 -19.2372 -19.2324 -19.2297 -19.2226 -19.2164 -19.2127 -19.2045
   -19.1956 -19.1912 -19.1708 -19.1677 -19.1418 -19.1409 -10.9412  -6.5622
    -4.8973  -4.7265  -4.3082  -3.2764  -1.3140   0.2283   2.2187   2.4623
     4.0581   4.4470   5.5833   6.1198

          k = 0.1638-0.4726 0.0000 ( 65159 PWs)   bands (ev):

   -67.5400 -67.5293 -34.5101 -34.4424 -34.2273 -34.1179 -34.0039 -33.9352
   -19.2436 -19.2369 -19.2334 -19.2275 -19.2246 -19.2158 -19.2135 -19.2046
   -19.1955 -19.1919 -19.1680 -19.1655 -19.1452 -19.1436 -11.0249  -6.4509
    -4.9312  -4.8632  -4.3986  -3.0308  -1.4524   0.0252   1.9837   2.3072
     3.8290   4.5247   5.4243   6.3575

          k = 0.1638-0.3781 0.0000 ( 65164 PWs)   bands (ev):

   -67.5523 -67.5363 -34.4654 -34.3516 -34.2292 -34.0824 -33.9460 -33.8864
   -19.2412 -19.2358 -19.2347 -19.2303 -19.2224 -19.2154 -19.2138 -19.2053
   -19.1964 -19.1934 -19.1604 -19.1592 -19.1538 -19.1512 -11.2687  -6.2090
    -5.4690  -4.7971  -4.3786  -2.6509  -1.6819  -0.1896   1.2149   2.1645
     3.6363   4.2046   4.8753   6.3434

          k = 0.1638-0.2835 0.0000 ( 65154 PWs)   bands (ev):

   -67.5681 -67.5469 -34.4708 -34.2257 -34.1477 -34.0557 -33.8619 -33.8164
   -19.2414 -19.2388 -19.2333 -19.2294 -19.2198 -19.2151 -19.2135 -19.2048
   -19.1996 -19.1946 -19.1659 -19.1622 -19.1494 -19.1492 -11.6361  -6.4259
    -5.6934  -4.6248  -4.2162  -2.5244  -1.6903   0.0528   0.4399   2.2142
     3.0349   3.2006   4.4778   5.7418

          k = 0.1638-0.1890 0.0000 ( 65106 PWs)   bands (ev):

   -67.5832 -67.5580 -34.5088 -34.1398 -34.0118 -33.9906 -33.7962 -33.7407
   -19.2469 -19.2391 -19.2309 -19.2258 -19.2205 -19.2149 -19.2119 -19.2035
   -19.2017 -19.1963 -19.1774 -19.1728 -19.1391 -19.1386 -12.0358  -7.0693
    -5.5894  -4.3087  -3.8493  -2.7979  -1.3692  -0.1385   0.7446   1.9391
     2.2387   2.7771   3.9382   5.3413

          k = 0.1638-0.0945 0.0000 ( 65091 PWs)   bands (ev):

   -67.5941 -67.5663 -34.5421 -34.1168 -33.9142 -33.8670 -33.7604 -33.6967
   -19.2504 -19.2401 -19.2284 -19.2229 -19.2225 -19.2172 -19.2086 -19.2025
   -19.2018 -19.1976 -19.1859 -19.1807 -19.1314 -19.1308 -12.3434  -7.5531
    -5.4827  -4.0342  -3.4678  -3.1046  -1.0094  -0.4021   1.1265   1.3162
     2.0961   2.8068   3.6351   4.9466

          k = 0.1638 0.0000 0.0000 ( 65145 PWs)   bands (ev):

   -67.5981 -67.5693 -34.5546 -34.1137 -33.8566 -33.8331 -33.7352 -33.6967
   -19.2515 -19.2406 -19.2266 -19.2247 -19.2214 -19.2184 -19.2068 -19.2025
   -19.2017 -19.1979 -19.1890 -19.1835 -19.1285 -19.1280 -12.4582  -7.7273
    -5.4268  -3.8034  -3.6622  -2.9942  -0.7521  -0.6238   0.8696   1.6613
     1.8006   3.0027   3.5800   4.8205

          k = 0.2458 0.1418 0.0000 ( 65099 PWs)   bands (ev):

   -67.5767 -67.5532 -34.4921 -34.1955 -34.0685 -34.0415 -33.8182 -33.7375
   -19.2467 -19.2372 -19.2336 -19.2238 -19.2226 -19.2137 -19.2128 -19.2048
   -19.2015 -19.1947 -19.1726 -19.1684 -19.1434 -19.1421 -11.8688  -6.9277
    -5.6047  -4.4756  -3.5741  -3.1347  -1.6533   0.3211   1.1722   1.8882
     2.5283   2.6774   3.7509   5.5266

          k = 0.2458 0.2363 0.0000 ( 65144 PWs)   bands (ev):

   -67.5655 -67.5452 -34.4710 -34.2841 -34.1626 -34.0647 -33.8657 -33.7887
   -19.2448 -19.2359 -19.2349 -19.2275 -19.2218 -19.2150 -19.2121 -19.2054
   -19.1998 -19.1933 -19.1640 -19.1605 -19.1510 -19.1493 -11.5851  -6.6369
    -5.5335  -4.6440  -4.0128  -2.8239  -1.8129   0.5276   0.8216   2.2035
     2.8460   3.4038   4.0788   5.9322

          k = 0.2458 0.3309 0.0000 ( 65165 PWs)   bands (ev):

   -67.5521 -67.5363 -34.4662 -34.3535 -34.2291 -34.0823 -33.9459 -33.8862
   -19.2414 -19.2356 -19.2344 -19.2304 -19.2224 -19.2152 -19.2137 -19.2057
   -19.1966 -19.1932 -19.1604 -19.1590 -19.1538 -19.1512 -11.2669  -6.2040
    -5.4713  -4.8026  -4.3862  -2.6557  -1.6844  -0.1763   1.2144   2.1740
     3.6380   4.2093   4.8827   6.3346

          k = 0.2458 0.4254 0.0000 ( 65158 PWs)   bands (ev):

   -67.5399 -67.5293 -34.4727 -34.3883 -34.2495 -34.1156 -34.0344 -33.9845
   -19.2410 -19.2347 -19.2308 -19.2299 -19.2248 -19.2163 -19.2148 -19.2047
   -19.1951 -19.1945 -19.1684 -19.1675 -19.1453 -19.1437 -11.0028  -5.7681
    -5.6045  -4.7458  -4.5330  -2.8583  -1.2600  -0.5967   1.9003   2.4537
     3.6698   4.5719   5.2455   6.6390

          k = 0.2458 0.5199 0.0000 ( 65120 PWs)   bands (ev):

   -67.5318 -67.5262 -34.4639 -34.3991 -34.2520 -34.1837 -34.0666 -34.0418
   -19.2419 -19.2321 -19.2307 -19.2284 -19.2230 -19.2185 -19.2161 -19.2028
   -19.1968 -19.1947 -19.1735 -19.1723 -19.1402 -19.1394 -10.8554  -5.9398
    -5.1444  -4.7278  -4.6206  -3.1524  -0.9458  -0.4717   2.5594   2.7677
     3.5032   4.1696   5.1626   6.3213

          k = 0.2459 0.6144 0.0000 ( 65129 PWs)   bands (ev):

   -67.5319 -67.5262 -34.4632 -34.3985 -34.2521 -34.1844 -34.0678 -34.0408
   -19.2418 -19.2320 -19.2307 -19.2286 -19.2233 -19.2186 -19.2161 -19.2027
   -19.1969 -19.1946 -19.1735 -19.1723 -19.1402 -19.1394 -10.8559  -5.9386
    -5.1445  -4.7278  -4.6185  -3.1540  -0.9454  -0.4716   2.5623   2.7635
     3.5070   4.1618   5.1630   6.3203

          k = 0.2457-0.4253 0.0000 ( 65148 PWs)   bands (ev):

   -67.5400 -67.5293 -34.4715 -34.3865 -34.2501 -34.1162 -34.0354 -33.9842
   -19.2406 -19.2345 -19.2309 -19.2303 -19.2249 -19.2165 -19.2148 -19.2045
   -19.1951 -19.1944 -19.1684 -19.1676 -19.1453 -19.1436 -11.0040  -5.7662
    -5.6049  -4.7438  -4.5289  -2.8610  -1.2573  -0.5999   1.9039   2.4474
     3.6726   4.5587   5.2453   6.6357

          k = 0.2457-0.3308 0.0000 ( 65167 PWs)   bands (ev):

   -67.5523 -67.5363 -34.4655 -34.3518 -34.2291 -34.0824 -33.9464 -33.8864
   -19.2411 -19.2357 -19.2345 -19.2305 -19.2224 -19.2153 -19.2140 -19.2054
   -19.1964 -19.1933 -19.1604 -19.1591 -19.1538 -19.1512 -11.2683  -6.2060
    -5.4714  -4.7978  -4.3803  -2.6559  -1.6820  -0.1835   1.2176   2.1668
     3.6363   4.2032   4.8769   6.3402

          k = 0.2457-0.2363 0.0000 ( 65142 PWs)   bands (ev):

   -67.5656 -67.5452 -34.4709 -34.2830 -34.1620 -34.0645 -33.8660 -33.7888
   -19.2450 -19.2357 -19.2351 -19.2275 -19.2217 -19.2152 -19.2124 -19.2050
   -19.1996 -19.1934 -19.1640 -19.1605 -19.1510 -19.1494 -11.5862  -6.6393
    -5.5374  -4.6378  -4.0059  -2.8196  -1.8130   0.5169   0.8234   2.1977
     2.8396   3.4045   4.0768   5.9390

          k = 0.2457-0.1417 0.0000 ( 65105 PWs)   bands (ev):

   -67.5768 -67.5532 -34.4923 -34.1950 -34.0675 -34.0416 -33.8183 -33.7375
   -19.2469 -19.2372 -19.2336 -19.2240 -19.2223 -19.2138 -19.2130 -19.2045
   -19.2013 -19.1948 -19.1725 -19.1683 -19.1434 -19.1421 -11.8696  -6.9294
    -5.6095  -4.4712  -3.5694  -3.1275  -1.6540   0.3169   1.1636   1.8905
     2.5166   2.6804   3.7537   5.5305

          k = 0.2457-0.0472 0.0000 ( 65114 PWs)   bands (ev):

   -67.5831 -67.5579 -34.5086 -34.1410 -34.0121 -33.9921 -33.7949 -33.7403
   -19.2467 -19.2391 -19.2310 -19.2259 -19.2206 -19.2145 -19.2119 -19.2039
   -19.2019 -19.1960 -19.1775 -19.1729 -19.1390 -19.1386 -12.0348  -7.0687
    -5.5849  -4.3143  -3.8546  -2.8018  -1.3651  -0.1431   0.7517   1.9378
     2.2359   2.7894   3.9483   5.3297

          k = 0.2458 0.0473 0.0000 ( 65108 PWs)   bands (ev):

   -67.5831 -67.5579 -34.5085 -34.1411 -34.0130 -33.9916 -33.7950 -33.7403
   -19.2466 -19.2391 -19.2310 -19.2259 -19.2207 -19.2144 -19.2118 -19.2040
   -19.2020 -19.1959 -19.1775 -19.1729 -19.1391 -19.1385 -12.0345  -7.0681
    -5.5826  -4.3157  -3.8568  -2.8054  -1.3649  -0.1409   0.7550   1.9362
     2.2366   2.7930   3.9476   5.3274

          k = 0.3277 0.1891 0.0000 ( 65170 PWs)   bands (ev):

   -67.5588 -67.5406 -34.4806 -34.3759 -34.2118 -34.0720 -33.8743 -33.7796
   -19.2474 -19.2379 -19.2324 -19.2259 -19.2256 -19.2140 -19.2118 -19.2057
   -19.1987 -19.1914 -19.1589 -19.1559 -19.1548 -19.1519 -11.4437  -6.8447
    -5.3633  -4.6980  -3.6365  -3.2526  -1.9165   1.1360   1.5052   2.0957
     2.6845   3.7781   3.9102   6.0444

          k = 0.3277 0.2836 0.0000 ( 65193 PWs)   bands (ev):

   -67.5495 -67.5347 -34.5064 -34.4356 -34.2342 -34.0838 -33.9232 -33.8308
   -19.2468 -19.2385 -19.2321 -19.2278 -19.2253 -19.2139 -19.2127 -19.2058
   -19.1965 -19.1906 -19.1609 -19.1576 -19.1520 -19.1496 -11.2395  -6.7843
    -5.1664  -4.7677  -4.0201  -3.0285  -1.8150   0.8495   1.5809   2.0330
     3.6564   3.9493   4.7814   6.2857

          k = 0.3277 0.3781 0.0000 ( 65143 PWs)   bands (ev):

   -67.5397 -67.5293 -34.5120 -34.4446 -34.2255 -34.1179 -34.0047 -33.9349
   -19.2441 -19.2362 -19.2332 -19.2272 -19.2249 -19.2156 -19.2139 -19.2053
   -19.1956 -19.1918 -19.1680 -19.1652 -19.1451 -19.1436 -11.0223  -6.4487
    -4.9346  -4.8684  -4.4060  -3.0378  -1.4542   0.0396   1.9902   2.3206
     3.8284   4.5299   5.4241   6.3671

          k = 0.3277 0.4727 0.0000 ( 65123 PWs)   bands (ev):

   -67.5316 -67.5263 -34.4651 -34.4005 -34.2512 -34.1821 -34.0681 -34.0412
   -19.2423 -19.2319 -19.2299 -19.2283 -19.2236 -19.2184 -19.2164 -19.2030
   -19.1970 -19.1945 -19.1735 -19.1721 -19.1402 -19.1394 -10.8542  -5.9394
    -5.1486  -4.7327  -4.6171  -3.1566  -0.9493  -0.4635   2.5682   2.7725
     3.5021   4.1696   5.1611   6.3234

          k = 0.3278 0.5672 0.0000 ( 65090 PWs)   bands (ev):

   -67.5270 -67.5268 -34.3854 -34.3447 -34.3438 -34.2327 -34.0831 -34.0806
   -19.2416 -19.2298 -19.2298 -19.2233 -19.2229 -19.2213 -19.2202 -19.1997
   -19.1980 -19.1977 -19.1753 -19.1752 -19.1381 -19.1381 -10.7907  -5.4410
    -5.4372  -4.9153  -4.5613  -3.1832  -0.6386  -0.6332   2.9580   2.9595
     3.4961   3.5037   4.8876   6.6303

          k = 0.3278 0.6617 0.0000 ( 65129 PWs)   bands (ev):

   -67.5318 -67.5262 -34.4639 -34.3989 -34.2518 -34.1836 -34.0685 -34.0406
   -19.2420 -19.2318 -19.2303 -19.2285 -19.2236 -19.2186 -19.2162 -19.2028
   -19.1970 -19.1945 -19.1735 -19.1722 -19.1402 -19.1394 -10.8552  -5.9386
    -5.1467  -4.7303  -4.6169  -3.1560  -0.9473  -0.4672   2.5672   2.7660
     3.5063   4.1620   5.1624   6.3207

          k = 0.3276-0.3780 0.0000 ( 65153 PWs)   bands (ev):

   -67.5399 -67.5293 -34.5109 -34.4430 -34.2265 -34.1180 -34.0046 -33.9351
   -19.2437 -19.2366 -19.2331 -19.2275 -19.2249 -19.2158 -19.2138 -19.2049
   -19.1955 -19.1917 -19.1680 -19.1654 -19.1452 -19.1436 -11.0238  -6.4495
    -4.9346  -4.8643  -4.4003  -3.0368  -1.4525   0.0333   1.9891   2.3127
     3.8302   4.5221   5.4249   6.3625

          k = 0.3276-0.2835 0.0000 ( 65187 PWs)   bands (ev):

   -67.5497 -67.5347 -34.5056 -34.4342 -34.2350 -34.0832 -33.9232 -33.8308
   -19.2467 -19.2387 -19.2323 -19.2278 -19.2253 -19.2138 -19.2129 -19.2054
   -19.1964 -19.1906 -19.1609 -19.1577 -19.1520 -19.1496 -11.2410  -6.7866
    -5.1693  -4.7616  -4.0119  -3.0251  -1.8145   0.8396   1.5794   2.0246
     3.6524   3.9487   4.7803   6.2881

          k = 0.3276-0.1890 0.0000 ( 65186 PWs)   bands (ev):

   -67.5589 -67.5407 -34.4803 -34.3751 -34.2121 -34.0715 -33.8742 -33.7794
   -19.2475 -19.2380 -19.2326 -19.2259 -19.2255 -19.2139 -19.2119 -19.2053
   -19.1986 -19.1914 -19.1589 -19.1559 -19.1548 -19.1520 -11.4448  -6.8476
    -5.3669  -4.6923  -3.6306  -3.2449  -1.9170   1.1275   1.4966   2.0859
     2.6860   3.7794   3.9124   6.0477

          k = 0.3276-0.0945 0.0000 ( 65144 PWs)   bands (ev):

   -67.5655 -67.5452 -34.4710 -34.2846 -34.1629 -34.0645 -33.8649 -33.7884
   -19.2450 -19.2357 -19.2351 -19.2276 -19.2215 -19.2151 -19.2120 -19.2053
   -19.1998 -19.1934 -19.1640 -19.1605 -19.1510 -19.1494 -11.5850  -6.6399
    -5.5341  -4.6434  -4.0141  -2.8135  -1.8137   0.5235   0.8095   2.2009
     2.8538   3.4092   4.0782   5.9337

          k = 0.3277 0.0001 0.0000 ( 65164 PWs)   bands (ev):

   -67.5679 -67.5468 -34.4707 -34.2290 -34.1486 -34.0560 -33.8604 -33.8159
   -19.2410 -19.2390 -19.2336 -19.2293 -19.2200 -19.2148 -19.2129 -19.2052
   -19.2001 -19.1944 -19.1659 -19.1622 -19.1494 -19.1491 -11.6339  -6.4248
    -5.6866  -4.6367  -4.2262  -2.5265  -1.6909   0.0705   0.4258   2.2219
     3.0474   3.2064   4.4926   5.7213

          k = 0.3277 0.0946 0.0000 ( 65128 PWs)   bands (ev):

   -67.5654 -67.5451 -34.4710 -34.2850 -34.1630 -34.0648 -33.8651 -33.7885
   -19.2448 -19.2359 -19.2349 -19.2276 -19.2216 -19.2150 -19.2120 -19.2055
   -19.1999 -19.1933 -19.1640 -19.1606 -19.1510 -19.1493 -11.5844  -6.6373
    -5.5317  -4.6471  -4.0171  -2.8210  -1.8134   0.5312   0.8137   2.2055
     2.8539   3.4068   4.0793   5.9293

          k = 0.4096 0.2364 0.0000 ( 65244 PWs)   bands (ev):

   -67.5450 -67.5321 -34.5621 -34.4976 -34.2376 -34.0859 -33.9143 -33.8107
   -19.2496 -19.2400 -19.2331 -19.2275 -19.2260 -19.2133 -19.2115 -19.2058
   -19.1952 -19.1886 -19.1626 -19.1581 -19.1486 -19.1468 -11.1719  -7.0567
    -5.1781  -4.7799  -3.4641  -3.3760  -1.8283   1.5323   1.8289   2.1538
     3.1357   4.3232   5.1301   6.1880

          k = 0.4096 0.3309 0.0000 ( 65190 PWs)   bands (ev):

   -67.5396 -67.5293 -34.5799 -34.5131 -34.2244 -34.1000 -33.9547 -33.8553
   -19.2486 -19.2394 -19.2339 -19.2284 -19.2246 -19.2145 -19.2113 -19.2058
   -19.1945 -19.1887 -19.1663 -19.1617 -19.1448 -19.1435 -11.0621  -6.9693
    -5.0852  -4.7718  -3.7841  -3.2515  -1.6577   1.2051   1.6868   2.2808
     3.9744   4.4371   5.7566   6.2747

          k = 0.4097 0.4254 0.0000 ( 65108 PWs)   bands (ev):

   -67.5346 -67.5272 -34.5399 -34.4746 -34.2059 -34.1455 -34.0210 -33.9531
   -19.2453 -19.2363 -19.2324 -19.2294 -19.2225 -19.2163 -19.2134 -19.2051
   -19.1957 -19.1911 -19.1708 -19.1674 -19.1418 -19.1409 -10.9381  -6.5617
    -4.8992  -4.7358  -4.3131  -3.2835  -1.3156   0.2415   2.2284   2.4795
     4.0532   4.4558   5.5794   6.1269

          k = 0.4097 0.5199 0.0000 ( 65129 PWs)   bands (ev):

   -67.5315 -67.5263 -34.4659 -34.4014 -34.2502 -34.1820 -34.0675 -34.0417
   -19.2424 -19.2322 -19.2299 -19.2282 -19.2233 -19.2183 -19.2166 -19.2031
   -19.1969 -19.1947 -19.1735 -19.1721 -19.1401 -19.1394 -10.8535  -5.9411
    -5.1484  -4.7333  -4.6191  -3.1547  -0.9502  -0.4637   2.5641   2.7786
     3.4970   4.1788   5.1617   6.3249

          k = 0.4097 0.6145 0.0000 ( 65114 PWs)   bands (ev):

   -67.5316 -67.5263 -34.4655 -34.4005 -34.2508 -34.1827 -34.0666 -34.0421
   -19.2422 -19.2323 -19.2303 -19.2282 -19.2230 -19.2184 -19.2164 -19.2030
   -19.1969 -19.1947 -19.1735 -19.1722 -19.1401 -19.1394 -10.8540  -5.9416
    -5.1465  -4.7309  -4.6211  -3.1525  -0.9486  -0.4675   2.5602   2.7762
     3.4975   4.1791   5.1625   6.3232

          k = 0.4097 0.7090 0.0000 ( 65108 PWs)   bands (ev):

   -67.5348 -67.5272 -34.5391 -34.4731 -34.2077 -34.1450 -34.0203 -33.9534
   -19.2449 -19.2368 -19.2324 -19.2295 -19.2226 -19.2164 -19.2131 -19.2048
   -19.1957 -19.1911 -19.1708 -19.1675 -19.1418 -19.1409 -10.9394  -6.5624
    -4.8981  -4.7319  -4.3113  -3.2796  -1.3146   0.2353   2.2235   2.4719
     4.0551   4.4522   5.5813   6.1231

          k = 0.4095-0.3308 0.0000 ( 65192 PWs)   bands (ev):

   -67.5398 -67.5293 -34.5791 -34.5116 -34.2262 -34.0989 -33.9545 -33.8552
   -19.2484 -19.2398 -19.2340 -19.2285 -19.2246 -19.2146 -19.2110 -19.2054
   -19.1945 -19.1887 -19.1663 -19.1619 -19.1449 -19.1435 -11.0637  -6.9708
    -5.0862  -4.7667  -3.7765  -3.2483  -1.6576   1.1960   1.6815   2.2723
     3.9723   4.4374   5.7534   6.2748

          k = 0.4095-0.2362 0.0000 ( 65246 PWs)   bands (ev):

   -67.5451 -67.5321 -34.5614 -34.4962 -34.2390 -34.0849 -33.9141 -33.8105
   -19.2494 -19.2402 -19.2334 -19.2277 -19.2259 -19.2134 -19.2113 -19.2054
   -19.1952 -19.1886 -19.1626 -19.1582 -19.1486 -19.1468 -11.1734  -7.0590
    -5.1803  -4.7744  -3.4586  -3.3677  -1.8293   1.5268   1.8124   2.1464
     3.1393   4.3217   5.1297   6.1910

          k = 0.4096-0.1417 0.0000 ( 65181 PWs)   bands (ev):

   -67.5496 -67.5347 -34.5064 -34.4351 -34.2350 -34.0832 -33.9225 -33.8306
   -19.2467 -19.2387 -19.2327 -19.2277 -19.2249 -19.2141 -19.2123 -19.2055
   -19.1966 -19.1906 -19.1609 -19.1577 -19.1519 -19.1496 -11.2398  -6.7880
    -5.1673  -4.7648  -4.0222  -3.0135  -1.8172   0.8380   1.5706   2.0301
     3.6620   3.9496   4.7836   6.2927

          k = 0.4096-0.0472 0.0000 ( 65166 PWs)   bands (ev):

   -67.5521 -67.5363 -34.4668 -34.3547 -34.2291 -34.0823 -33.9448 -33.8860
   -19.2414 -19.2359 -19.2348 -19.2300 -19.2223 -19.2154 -19.2132 -19.2057
   -19.1968 -19.1933 -19.1603 -19.1591 -19.1538 -19.1513 -11.2659  -6.2085
    -5.4663  -4.8072  -4.3903  -2.6461  -1.6875  -0.1790   1.2045   2.1795
     3.6399   4.2193   4.8874   6.3323

          k = 0.4096 0.0473 0.0000 ( 65173 PWs)   bands (ev):

   -67.5520 -67.5363 -34.4669 -34.3551 -34.2288 -34.0824 -33.9451 -33.8859
   -19.2415 -19.2357 -19.2345 -19.2302 -19.2223 -19.2152 -19.2134 -19.2058
   -19.1968 -19.1933 -19.1604 -19.1590 -19.1538 -19.1513 -11.2655  -6.2054
    -5.4687  -4.8078  -4.3914  -2.6506  -1.6878  -0.1738   1.2068   2.1816
     3.6398   4.2183   4.8886   6.3303

          k = 0.4096 0.1419 0.0000 ( 65189 PWs)   bands (ev):

   -67.5494 -67.5347 -34.5068 -34.4361 -34.2341 -34.0839 -33.9228 -33.8307
   -19.2468 -19.2385 -19.2324 -19.2277 -19.2251 -19.2139 -19.2125 -19.2058
   -19.1966 -19.1906 -19.1609 -19.1576 -19.1519 -19.1497 -11.2388  -6.7851
    -5.1653  -4.7695  -4.0254  -3.0227  -1.8165   0.8485   1.5759   2.0364
     3.6615   3.9496   4.7835   6.2884

          k =-0.4915-0.2837 0.0000 ( 65218 PWs)   bands (ev):

   -67.5395 -67.5293 -34.6092 -34.5405 -34.2263 -34.0943 -33.9288 -33.8221
   -19.2505 -19.2404 -19.2350 -19.2283 -19.2251 -19.2142 -19.2099 -19.2059
   -19.1937 -19.1875 -19.1654 -19.1601 -19.1447 -19.1435 -11.0819  -7.1550
    -5.1721  -4.8056  -3.4263  -3.2907  -1.7653   1.4262   2.0954   2.3333
     3.1929   4.7993   5.7719   6.3353

          k =-0.4915-0.1891 0.0000 ( 65184 PWs)   bands (ev):

   -67.5396 -67.5293 -34.5801 -34.5133 -34.2243 -34.1001 -33.9546 -33.8553
   -19.2486 -19.2394 -19.2340 -19.2282 -19.2246 -19.2145 -19.2112 -19.2058
   -19.1945 -19.1887 -19.1663 -19.1617 -19.1448 -19.1436 -11.0618  -6.9697
    -5.0854  -4.7720  -3.7879  -3.2472  -1.6586   1.2043   1.6870   2.2801
     3.9755   4.4361   5.7572   6.2756

          k =-0.4915-0.0946 0.0000 ( 65154 PWs)   bands (ev):

   -67.5396 -67.5293 -34.5127 -34.4455 -34.2249 -34.1180 -34.0043 -33.9348
   -19.2442 -19.2362 -19.2335 -19.2269 -19.2247 -19.2156 -19.2138 -19.2053
   -19.1956 -19.1919 -19.1680 -19.1652 -19.1451 -19.1436 -11.0213  -6.4501
    -4.9314  -4.8720  -4.4114  -3.0324  -1.4561   0.0386   1.9849   2.3258
     3.8250   4.5412   5.4239   6.3674

          k =-0.4915-0.0001 0.0000 ( 65160 PWs)   bands (ev):

   -67.5397 -67.5293 -34.4740 -34.3904 -34.2480 -34.1155 -34.0338 -33.9844
   -19.2412 -19.2349 -19.2304 -19.2298 -19.2247 -19.2160 -19.2150 -19.2049
   -19.1950 -19.1948 -19.1684 -19.1675 -19.1453 -19.1437 -11.0011  -5.7714
    -5.6040  -4.7480  -4.5381  -2.8549  -1.2643  -0.5927   1.8952   2.4629
     3.6659   4.5875   5.2475   6.6439

          k =-0.4915 0.0944 0.0000 ( 65151 PWs)   bands (ev):

   -67.5397 -67.5293 -34.5123 -34.4445 -34.2260 -34.1177 -34.0036 -33.9350
   -19.2439 -19.2366 -19.2338 -19.2270 -19.2245 -19.2158 -19.2135 -19.2050
   -19.1957 -19.1919 -19.1679 -19.1654 -19.1451 -19.1436 -11.0221  -6.4521
    -4.9284  -4.8710  -4.4107  -3.0265  -1.4555   0.0317   1.9798   2.3212
     3.8244   4.5432   5.4234   6.3620

          k =-0.4915 0.1890 0.0000 ( 65181 PWs)   bands (ev):

   -67.5398 -67.5293 -34.5795 -34.5119 -34.2260 -34.0989 -33.9543 -33.8552
   -19.2484 -19.2397 -19.2343 -19.2284 -19.2245 -19.2146 -19.2109 -19.2054
   -19.1946 -19.1887 -19.1663 -19.1619 -19.1449 -19.1435 -11.0632  -6.9715
    -5.0865  -4.7671  -3.7841  -3.2395  -1.6591   1.1947   1.6817   2.2711
     3.9744   4.4357   5.7541   6.2756

          k =-0.4916-0.8508 0.0000 ( 65218 PWs)   bands (ev):

   -67.5398 -67.5293 -34.6085 -34.5390 -34.2283 -34.0929 -33.9286 -33.8219
   -19.2504 -19.2406 -19.2352 -19.2285 -19.2251 -19.2143 -19.2096 -19.2055
   -19.1937 -19.1875 -19.1654 -19.1603 -19.1447 -19.1435 -11.0835  -7.1567
    -5.1735  -4.8004  -3.4183  -3.2852  -1.7666   1.4205   2.0795   2.3241
     3.1968   4.7983   5.7679   6.3381

     the Fermi energy is     0.8294 ev

!    total energy              =   -1375.70131655 Ry
     estimated scf accuracy    <          2.6E-13 Ry
     smearing contrib. (-TS)   =      -0.00000369 Ry
     internal energy E=F+TS    =   -1375.70131286 Ry

     The total energy is F=E-TS. E is the sum of the following terms:
     one-electron contribution =  -11616.53343167 Ry
     hartree contribution      =    5838.41358328 Ry
     xc contribution           =    -140.31297520 Ry
     ewald contribution        =    4542.73151073 Ry

     convergence has been achieved in  19 iterations

     negative rho (up, down):  4.523E-05 0.000E+00

     Forces acting on atoms (cartesian axes, Ry/au):

     atom    1 type  2   force =    -0.00045445    0.00025786   -0.00000141
     atom    2 type  1   force =     0.00003894    0.00027322   -0.00018822
     atom    3 type  1   force =     0.00009887   -0.00034890    0.00018884
     atom    4 type  3   force =     0.00026928   -0.00055423   -0.00005937
     atom    5 type  3   force =     0.00004736    0.00037205    0.00006015

     Total force =     0.001039     Total SCF correction =     0.000005


     Computing stress (Cartesian axis) and pressure


     negative rho (up, down):  4.523E-05 0.000E+00
          total   stress  (Ry/bohr**3)                   (kbar)     P=        0.18
   0.00000048   0.00000012   0.00000076            0.07        0.02        0.11
   0.00000012   0.00000325  -0.00000378            0.02        0.48       -0.56
   0.00000076  -0.00000378  -0.00000002            0.11       -0.56       -0.00


     Writing output data file /scratch/as3359/Ta2CH2-VCrelax/Ta.save/
 
     init_run     :     66.71s CPU     36.62s WALL (       1 calls)
     electrons    :   2791.08s CPU   1419.18s WALL (       1 calls)
     forces       :     20.38s CPU     10.48s WALL (       1 calls)
     stress       :    101.48s CPU     52.13s WALL (       1 calls)

     Called by init_run:
     wfcinit      :     53.07s CPU     27.41s WALL (       1 calls)
     potinit      :      3.91s CPU      1.98s WALL (       1 calls)
     hinit0       :      7.21s CPU      5.53s WALL (       1 calls)

     Called by electrons:
     c_bands      :   2288.82s CPU   1155.17s WALL (      19 calls)
     sum_band     :    449.64s CPU    231.94s WALL (      19 calls)
     v_of_rho     :      7.94s CPU      4.30s WALL (      20 calls)
     newd         :     43.52s CPU     27.11s WALL (      20 calls)
     mix_rho      :      3.15s CPU      1.85s WALL (      19 calls)

     Called by c_bands:
     init_us_2    :     53.51s CPU     26.79s WALL (    3034 calls)
     cegterg      :   2139.24s CPU   1079.85s WALL (    1406 calls)

     Called by *egterg:
     cdiaghg      :     16.80s CPU      8.60s WALL (    7177 calls)
     h_psi        :   1756.37s CPU    888.08s WALL (    7251 calls)
     s_psi        :     86.48s CPU     43.28s WALL (    7251 calls)
     g_psi        :      8.24s CPU      4.13s WALL (    5771 calls)

     Called by h_psi:
     h_psi:calbec :     67.49s CPU     33.85s WALL (    7251 calls)
     vloc_psi     :   1583.92s CPU    801.45s WALL (    7251 calls)
     add_vuspsi   :     90.95s CPU     45.53s WALL (    7251 calls)

     General routines
     calbec       :     94.29s CPU     47.32s WALL (    9027 calls)
     fft          :      4.25s CPU      2.17s WALL (     245 calls)
     ffts         :      0.31s CPU      0.16s WALL (      19 calls)
     fftw         :   1606.53s CPU    813.86s WALL (  304512 calls)
 
     Parallel routines
 
     PWSCF        :  49m47.65s CPU  25m25.43s WALL

 
   This run was terminated on:  19:54:47   7Apr2022            

=------------------------------------------------------------------------------=
   JOB DONE.
=------------------------------------------------------------------------------=
