
     Program PWSCF v.6.8 starts on  7Apr2022 at 14:56:20 

     This program is part of the open-source Quantum ESPRESSO suite
     for quantum simulation of materials; please cite
         "P. Giannozzi et al., J. Phys.:Condens. Matter 21 395502 (2009);
         "P. Giannozzi et al., J. Phys.:Condens. Matter 29 465901 (2017);
         "P. Giannozzi et al., J. Chem. Phys. 152 154105 (2020);
          URL http://www.quantum-espresso.org", 
     in publications or presentations arising from this work. More details at
     http://www.quantum-espresso.org/quote

     Parallel version (MPI & OpenMP), running on       4 processor cores
     Number of MPI processes:                 2
     Threads/MPI process:                     2

     MPI processes distributed on     1 nodes
     R & G space division:  proc/nbgrp/npool/nimage =       2
     124193 MiB available memory on the printing compute node when the environment starts
 
     Reading input from Ta2CH2.scf.100.in

     Current dimensions of program PWSCF are:
     Max number of different atomic species (ntypx) = 10
     Max number of k-points (npk) =  40000
     Max angular momentum in pseudopotentials (lmaxx) =  4
     file Ta.pbesol-spfn-rrkjus_psl.1.0.0.UPF: wavefunction(s)  5S 5P renormalized

     Subspace diagonalization in iterative solution of the eigenvalue problem:
     a serial algorithm will be used

 
     Parallelization info
     --------------------
     sticks:   dense  smooth     PW     G-vecs:    dense   smooth      PW
     Min         435     435    132               103351   103351   17666
     Max         436     436    133               103376   103376   17675
     Sum         871     871    265               206727   206727   35341
 
     Using Slab Decomposition
 


     bravais-lattice index     =            0
     lattice parameter (alat)  =       5.5500  a.u.
     unit-cell volume          =    1533.2393 (a.u.)^3
     number of atoms/cell      =            5
     number of atomic types    =            3
     number of electrons       =        60.00
     number of Kohn-Sham states=           36
     kinetic-energy cutoff     =     100.0000  Ry
     charge density cutoff     =     400.0000  Ry
     scf convergence threshold =      1.0E-12
     mixing beta               =       0.7000
     number of iterations used =            8  plain     mixing
     Exchange-correlation= PBESOL
                           (   1   4  10   8   0   0   0)

     celldm(1)=   5.550000  celldm(2)=   0.000000  celldm(3)=   0.000000
     celldm(4)=   0.000000  celldm(5)=   0.000000  celldm(6)=   0.000000

     crystal axes: (cart. coord. in units of alat)
               a(1) = (   1.017295  -0.000177   0.000000 )  
               a(2) = (  -0.508801   0.881714   0.000000 )  
               a(3) = (   0.000000   0.000000  10.000000 )  

     reciprocal axes: (cart. coord. in units 2 pi/alat)
               b(1) = (  0.983098  0.567305  0.000000 )  
               b(2) = (  0.000198  1.134269  0.000000 )  
               b(3) = (  0.000000  0.000000  0.100000 )  


     PseudoPot. # 1 for Ta read from file:
     /shared/home/as3359/pseudo/Ta.pbesol-spfn-rrkjus_psl.1.0.0.UPF
     MD5 check sum: f099565ffaca9b150a52e9412a28e20b
     Pseudo is Ultrasoft + core correction, Zval = 27.0
     Generated using &quot;atomic&quot; code by A. Dal Corso  v.6.3
     Using radial grid of 1273 points,  8 beta functions with: 
                l(1) =   0
                l(2) =   0
                l(3) =   1
                l(4) =   1
                l(5) =   2
                l(6) =   2
                l(7) =   3
                l(8) =   3
     Q(r) pseudized with 0 coefficients 


     PseudoPot. # 2 for C  read from file:
     /shared/home/as3359/pseudo/C.pbesol-n-rrkjus_psl.1.0.0.UPF
     MD5 check sum: 05995be603a8a7c99da3dc4413f31573
     Pseudo is Ultrasoft + core correction, Zval =  4.0
     Generated using &quot;atomic&quot; code by A. Dal Corso  v.6.3MaX
     Using radial grid of 1073 points,  4 beta functions with: 
                l(1) =   0
                l(2) =   0
                l(3) =   1
                l(4) =   1
     Q(r) pseudized with 0 coefficients 


     PseudoPot. # 3 for H  read from file:
     /shared/home/as3359/pseudo/H.pbesol-rrkjus_psl.0.1.UPF
     MD5 check sum: 1dbb1a5c48b1283557b8117eb856a7ca
     Pseudo is Ultrasoft, Zval =  1.0
     Generated using "atomic" code by A. Dal Corso  v.5.0.2 svn rev. 9415
     Using radial grid of  929 points,  2 beta functions with: 
                l(1) =   0
                l(2) =   0
     Q(r) pseudized with 0 coefficients 


     atomic species   valence    mass     pseudopotential
        Ta            27.00   180.94788     Ta( 1.00)
        C              4.00    12.01070     C ( 1.00)
        H              1.00     1.00000     H ( 1.00)

     No symmetry found



   Cartesian axes

     site n.     atom                  positions (alat units)
         1           C   tau(   1) = (   0.0000000   0.0000000   0.0000000  )
         2           Ta  tau(   2) = (   0.5088008   0.2948413  -0.4364511  )
         3           Ta  tau(   3) = (  -0.0007447   0.5869407   0.4364532  )
         4           H   tau(   4) = (  -0.0017928  -0.0015314   0.8341930  )
         5           H   tau(   5) = (   0.0002769   0.0024412  -0.8341930  )

     number of k points=    74  Marzari-Vanderbilt smearing, width (Ry)=  0.0010
                       cart. coord. in units 2pi/alat
        k(    1) = (   0.0000000   0.0000000   0.0000000), wk =   0.0138889
        k(    2) = (   0.0000165   0.0945224   0.0000000), wk =   0.0277778
        k(    3) = (   0.0000329   0.1890448   0.0000000), wk =   0.0277778
        k(    4) = (   0.0000494   0.2835672   0.0000000), wk =   0.0277778
        k(    5) = (   0.0000659   0.3780896   0.0000000), wk =   0.0277778
        k(    6) = (   0.0000823   0.4726120   0.0000000), wk =   0.0277778
        k(    7) = (  -0.0000988  -0.5671343   0.0000000), wk =   0.0138889
        k(    8) = (   0.0819248   0.0472755   0.0000000), wk =   0.0277778
        k(    9) = (   0.0819413   0.1417978   0.0000000), wk =   0.0277778
        k(   10) = (   0.0819577   0.2363202   0.0000000), wk =   0.0277778
        k(   11) = (   0.0819742   0.3308426   0.0000000), wk =   0.0277778
        k(   12) = (   0.0819907   0.4253650   0.0000000), wk =   0.0277778
        k(   13) = (   0.0820071   0.5198874   0.0000000), wk =   0.0277778
        k(   14) = (   0.0818260  -0.5198589   0.0000000), wk =   0.0277778
        k(   15) = (   0.0818425  -0.4253365   0.0000000), wk =   0.0277778
        k(   16) = (   0.0818590  -0.3308141   0.0000000), wk =   0.0277778
        k(   17) = (   0.0818754  -0.2362917   0.0000000), wk =   0.0277778
        k(   18) = (   0.0818919  -0.1417693   0.0000000), wk =   0.0277778
        k(   19) = (   0.0819084  -0.0472469   0.0000000), wk =   0.0277778
        k(   20) = (   0.1638496   0.0945509   0.0000000), wk =   0.0277778
        k(   21) = (   0.1638661   0.1890733   0.0000000), wk =   0.0277778
        k(   22) = (   0.1638826   0.2835957   0.0000000), wk =   0.0277778
        k(   23) = (   0.1638990   0.3781181   0.0000000), wk =   0.0277778
        k(   24) = (   0.1639155   0.4726405   0.0000000), wk =   0.0277778
        k(   25) = (   0.1639319   0.5671629   0.0000000), wk =   0.0277778
        k(   26) = (   0.1637508  -0.4725834   0.0000000), wk =   0.0277778
        k(   27) = (   0.1637673  -0.3780610   0.0000000), wk =   0.0277778
        k(   28) = (   0.1637838  -0.2835386   0.0000000), wk =   0.0277778
        k(   29) = (   0.1638002  -0.1890163   0.0000000), wk =   0.0277778
        k(   30) = (   0.1638167  -0.0944939   0.0000000), wk =   0.0277778
        k(   31) = (   0.1638332   0.0000285   0.0000000), wk =   0.0277778
        k(   32) = (   0.2457744   0.1418264   0.0000000), wk =   0.0277778
        k(   33) = (   0.2457909   0.2363488   0.0000000), wk =   0.0277778
        k(   34) = (   0.2458074   0.3308711   0.0000000), wk =   0.0277778
        k(   35) = (   0.2458238   0.4253935   0.0000000), wk =   0.0277778
        k(   36) = (   0.2458403   0.5199159   0.0000000), wk =   0.0277778
        k(   37) = (   0.2458568   0.6144383   0.0000000), wk =   0.0277778
        k(   38) = (   0.2456757  -0.4253080   0.0000000), wk =   0.0277778
        k(   39) = (   0.2456921  -0.3307856   0.0000000), wk =   0.0277778
        k(   40) = (   0.2457086  -0.2362632   0.0000000), wk =   0.0277778
        k(   41) = (   0.2457251  -0.1417408   0.0000000), wk =   0.0277778
        k(   42) = (   0.2457415  -0.0472184   0.0000000), wk =   0.0277778
        k(   43) = (   0.2457580   0.0473040   0.0000000), wk =   0.0277778
        k(   44) = (   0.3276993   0.1891018   0.0000000), wk =   0.0277778
        k(   45) = (   0.3277157   0.2836242   0.0000000), wk =   0.0277778
        k(   46) = (   0.3277322   0.3781466   0.0000000), wk =   0.0277778
        k(   47) = (   0.3277486   0.4726690   0.0000000), wk =   0.0277778
        k(   48) = (   0.3277651   0.5671914   0.0000000), wk =   0.0277778
        k(   49) = (   0.3277816   0.6617138   0.0000000), wk =   0.0277778
        k(   50) = (   0.3276005  -0.3780325   0.0000000), wk =   0.0277778
        k(   51) = (   0.3276169  -0.2835101   0.0000000), wk =   0.0277778
        k(   52) = (   0.3276334  -0.1889877   0.0000000), wk =   0.0277778
        k(   53) = (   0.3276499  -0.0944653   0.0000000), wk =   0.0277778
        k(   54) = (   0.3276663   0.0000570   0.0000000), wk =   0.0277778
        k(   55) = (   0.3276828   0.0945794   0.0000000), wk =   0.0277778
        k(   56) = (   0.4096241   0.2363773   0.0000000), wk =   0.0277778
        k(   57) = (   0.4096405   0.3308997   0.0000000), wk =   0.0277778
        k(   58) = (   0.4096570   0.4254221   0.0000000), wk =   0.0277778
        k(   59) = (   0.4096735   0.5199445   0.0000000), wk =   0.0277778
        k(   60) = (   0.4096899   0.6144668   0.0000000), wk =   0.0277778
        k(   61) = (   0.4097064   0.7089892   0.0000000), wk =   0.0277778
        k(   62) = (   0.4095253  -0.3307571   0.0000000), wk =   0.0277778
        k(   63) = (   0.4095418  -0.2362347   0.0000000), wk =   0.0277778
        k(   64) = (   0.4095582  -0.1417123   0.0000000), wk =   0.0277778
        k(   65) = (   0.4095747  -0.0471899   0.0000000), wk =   0.0277778
        k(   66) = (   0.4095911   0.0473325   0.0000000), wk =   0.0277778
        k(   67) = (   0.4096076   0.1418549   0.0000000), wk =   0.0277778
        k(   68) = (  -0.4915489  -0.2836527   0.0000000), wk =   0.0138889
        k(   69) = (  -0.4915324  -0.1891303   0.0000000), wk =   0.0277778
        k(   70) = (  -0.4915160  -0.0946080   0.0000000), wk =   0.0277778
        k(   71) = (  -0.4914995  -0.0000856   0.0000000), wk =   0.0277778
        k(   72) = (  -0.4914830   0.0944368   0.0000000), wk =   0.0277778
        k(   73) = (  -0.4914666   0.1889592   0.0000000), wk =   0.0277778
        k(   74) = (  -0.4916477  -0.8507871   0.0000000), wk =   0.0138889

     Dense  grid:   206727 G-vectors     FFT dimensions: (  36,  36, 360)

     Estimated max dynamical RAM per process >       1.51 GB

     Estimated total dynamical RAM >       3.01 GB

     Initial potential from superposition of free atoms

     starting charge   59.99840, renormalised to   60.00000

     negative rho (up, down):  1.010E-04 0.000E+00
     Starting wfcs are   40 randomized atomic wfcs

     total cpu time spent up to now is       13.1 secs

     Self-consistent Calculation

     iteration #  1     ecut=   100.00 Ry     beta= 0.70
     Davidson diagonalization with overlap
     ethr =  1.00E-02,  avg # of iterations =  2.0

     negative rho (up, down):  5.575E-05 0.000E+00

     total cpu time spent up to now is       35.8 secs

     total energy              =   -1375.12088052 Ry
     estimated scf accuracy    <       1.04962485 Ry

     iteration #  2     ecut=   100.00 Ry     beta= 0.70
     Davidson diagonalization with overlap
     ethr =  1.75E-03,  avg # of iterations =  7.1

     negative rho (up, down):  4.022E-05 0.000E+00

     total cpu time spent up to now is       67.1 secs

     total energy              =   -1374.71224140 Ry
     estimated scf accuracy    <       5.43596380 Ry

     iteration #  3     ecut=   100.00 Ry     beta= 0.70
     Davidson diagonalization with overlap
     ethr =  1.75E-03,  avg # of iterations =  4.7

     negative rho (up, down):  5.058E-05 0.000E+00

     total cpu time spent up to now is       94.8 secs

     total energy              =   -1375.66700026 Ry
     estimated scf accuracy    <       0.22963694 Ry

     iteration #  4     ecut=   100.00 Ry     beta= 0.70
     Davidson diagonalization with overlap
     ethr =  3.83E-04,  avg # of iterations =  2.4

     negative rho (up, down):  7.003E-05 0.000E+00

     total cpu time spent up to now is      117.7 secs

     total energy              =   -1375.69461116 Ry
     estimated scf accuracy    <       0.02727971 Ry

     iteration #  5     ecut=   100.00 Ry     beta= 0.70
     Davidson diagonalization with overlap
     ethr =  4.55E-05,  avg # of iterations = 10.6

     negative rho (up, down):  8.135E-05 0.000E+00

     total cpu time spent up to now is      149.6 secs

     total energy              =   -1375.67871278 Ry
     estimated scf accuracy    <       0.37021950 Ry

     iteration #  6     ecut=   100.00 Ry     beta= 0.70
     Davidson diagonalization with overlap
     c_bands:  1 eigenvalues not converged
     ethr =  4.55E-05,  avg # of iterations = 11.1

     negative rho (up, down):  1.002E-04 0.000E+00

     total cpu time spent up to now is      180.0 secs

     total energy              =   -1375.69934410 Ry
     estimated scf accuracy    <       0.00632178 Ry

     iteration #  7     ecut=   100.00 Ry     beta= 0.70
     Davidson diagonalization with overlap
     c_bands:  1 eigenvalues not converged
     c_bands:  1 eigenvalues not converged
     c_bands:  1 eigenvalues not converged
     ethr =  1.05E-05,  avg # of iterations =  6.2

     negative rho (up, down):  1.138E-04 0.000E+00

     total cpu time spent up to now is      207.0 secs

     total energy              =   -1375.70014697 Ry
     estimated scf accuracy    <       0.00021519 Ry

     iteration #  8     ecut=   100.00 Ry     beta= 0.70
     Davidson diagonalization with overlap
     ethr =  3.59E-07,  avg # of iterations =  7.7

     negative rho (up, down):  1.227E-04 0.000E+00

     total cpu time spent up to now is      236.5 secs

     total energy              =   -1375.70019477 Ry
     estimated scf accuracy    <       0.00001161 Ry

     iteration #  9     ecut=   100.00 Ry     beta= 0.70
     Davidson diagonalization with overlap
     ethr =  1.93E-08,  avg # of iterations =  3.2

     negative rho (up, down):  1.235E-04 0.000E+00

     total cpu time spent up to now is      260.6 secs

     total energy              =   -1375.70019640 Ry
     estimated scf accuracy    <       0.00000462 Ry

     iteration # 10     ecut=   100.00 Ry     beta= 0.70
     Davidson diagonalization with overlap
     ethr =  7.70E-09,  avg # of iterations =  2.0

     negative rho (up, down):  1.239E-04 0.000E+00

     total cpu time spent up to now is      284.3 secs

     total energy              =   -1375.70019683 Ry
     estimated scf accuracy    <       0.00000068 Ry

     iteration # 11     ecut=   100.00 Ry     beta= 0.70
     Davidson diagonalization with overlap
     ethr =  1.13E-09,  avg # of iterations =  2.8

     negative rho (up, down):  1.239E-04 0.000E+00

     total cpu time spent up to now is      309.2 secs

     total energy              =   -1375.70019696 Ry
     estimated scf accuracy    <       0.00000007 Ry

     iteration # 12     ecut=   100.00 Ry     beta= 0.70
     Davidson diagonalization with overlap
     ethr =  1.12E-10,  avg # of iterations =  2.4

     negative rho (up, down):  1.239E-04 0.000E+00

     total cpu time spent up to now is      331.5 secs

     total energy              =   -1375.70019696 Ry
     estimated scf accuracy    <       0.00000003 Ry

     iteration # 13     ecut=   100.00 Ry     beta= 0.70
     Davidson diagonalization with overlap
     ethr =  4.64E-11,  avg # of iterations =  2.0

     negative rho (up, down):  1.239E-04 0.000E+00

     total cpu time spent up to now is      353.4 secs

     total energy              =   -1375.70019697 Ry
     estimated scf accuracy    <          5.3E-09 Ry

     iteration # 14     ecut=   100.00 Ry     beta= 0.70
     Davidson diagonalization with overlap
     ethr =  8.81E-12,  avg # of iterations =  3.8

     negative rho (up, down):  1.239E-04 0.000E+00

     total cpu time spent up to now is      377.0 secs

     total energy              =   -1375.70019697 Ry
     estimated scf accuracy    <          2.1E-10 Ry

     iteration # 15     ecut=   100.00 Ry     beta= 0.70
     Davidson diagonalization with overlap
     ethr =  3.55E-13,  avg # of iterations =  3.9

     negative rho (up, down):  1.239E-04 0.000E+00

     total cpu time spent up to now is      400.9 secs

     total energy              =   -1375.70019697 Ry
     estimated scf accuracy    <          1.8E-10 Ry

     iteration # 16     ecut=   100.00 Ry     beta= 0.70
     Davidson diagonalization with overlap
     ethr =  3.05E-13,  avg # of iterations =  1.6

     negative rho (up, down):  1.239E-04 0.000E+00

     total cpu time spent up to now is      421.0 secs

     total energy              =   -1375.70019697 Ry
     estimated scf accuracy    <          6.5E-11 Ry

     iteration # 17     ecut=   100.00 Ry     beta= 0.70
     Davidson diagonalization with overlap
     ethr =  1.09E-13,  avg # of iterations =  2.5

     negative rho (up, down):  1.239E-04 0.000E+00

     total cpu time spent up to now is      442.8 secs

     total energy              =   -1375.70019697 Ry
     estimated scf accuracy    <          1.4E-12 Ry

     iteration # 18     ecut=   100.00 Ry     beta= 0.70
     Davidson diagonalization with overlap
     ethr =  1.00E-13,  avg # of iterations =  1.1

     negative rho (up, down):  1.239E-04 0.000E+00

     total cpu time spent up to now is      462.2 secs

     total energy              =   -1375.70019697 Ry
     estimated scf accuracy    <          1.3E-12 Ry

     iteration # 19     ecut=   100.00 Ry     beta= 0.70
     Davidson diagonalization with overlap
     ethr =  1.00E-13,  avg # of iterations =  1.0

     negative rho (up, down):  1.239E-04 0.000E+00

     total cpu time spent up to now is      481.4 secs

     End of self-consistent calculation

          k = 0.0000 0.0000 0.0000 ( 25719 PWs)   bands (ev):

   -67.6110 -67.5794 -34.5971 -34.1137 -33.6989 -33.6975 -33.6588 -33.6585
   -19.2574 -19.2434 -19.2242 -19.2238 -19.2235 -19.2234 -19.2025 -19.2024
   -19.2012 -19.2006 -19.2000 -19.1938 -19.1199 -19.1191 -12.8532  -8.3510
    -5.2551  -3.4728  -3.2164  -3.2016  -1.2333   0.3194   0.3394   2.4916
     2.5034   2.9053   2.9381   3.4866

          k = 0.0000 0.0945 0.0000 ( 25771 PWs)   bands (ev):

   -67.6065 -67.5758 -34.5822 -34.1125 -33.7578 -33.7160 -33.7156 -33.6681
   -19.2557 -19.2427 -19.2253 -19.2239 -19.2236 -19.2222 -19.2046 -19.2026
   -19.2013 -19.2005 -19.1966 -19.1906 -19.1233 -19.1226 -12.7139  -8.1324
    -5.3201  -3.5510  -3.3888  -3.1605  -1.0616  -0.0554   0.5497   1.8789
     2.1877   2.9299   3.3021   4.1836

          k = 0.0000 0.1890 0.0000 ( 25807 PWs)   bands (ev):

   -67.5940 -67.5662 -34.5420 -34.1163 -33.9134 -33.8665 -33.7604 -33.6963
   -19.2516 -19.2411 -19.2293 -19.2240 -19.2233 -19.2184 -19.2097 -19.2032
   -19.2027 -19.1988 -19.1869 -19.1816 -19.1324 -19.1319 -12.3439  -7.5537
    -5.4873  -4.0335  -3.4652  -3.0961  -1.0092  -0.4087   1.1334   1.3098
     2.0980   2.7900   3.6419   4.9345

          k = 0.0000 0.2836 0.0000 ( 25820 PWs)   bands (ev):

   -67.5768 -67.5531 -34.4923 -34.1940 -34.0666 -34.0414 -33.8180 -33.7370
   -19.2483 -19.2382 -19.2344 -19.2251 -19.2230 -19.2148 -19.2142 -19.2052
   -19.2022 -19.1960 -19.1735 -19.1693 -19.1444 -19.1432 -11.8705  -6.9308
    -5.6165  -4.4655  -3.5646  -3.1179  -1.6553   0.3114   1.1534   1.8931
     2.5016   2.6843   3.7585   5.5222

          k = 0.0001 0.3781 0.0000 ( 25874 PWs)   bands (ev):

   -67.5590 -67.5406 -34.4797 -34.3741 -34.2119 -34.0708 -33.8737 -33.7788
   -19.2488 -19.2389 -19.2338 -19.2270 -19.2263 -19.2146 -19.2131 -19.2060
   -19.1996 -19.1926 -19.1599 -19.1569 -19.1558 -19.1531 -11.4463  -6.8502
    -5.3721  -4.6851  -3.6247  -3.2346  -1.9185   1.1163   1.4875   2.0735
     2.6880   3.7810   3.9157   6.0511

          k = 0.0001 0.4726 0.0000 ( 25848 PWs)   bands (ev):

   -67.5453 -67.5320 -34.5600 -34.4951 -34.2403 -34.0836 -33.9135 -33.8098
   -19.2506 -19.2413 -19.2346 -19.2288 -19.2268 -19.2144 -19.2119 -19.2059
   -19.1962 -19.1897 -19.1637 -19.1594 -19.1497 -19.1478 -11.1754  -7.0606
    -5.1833  -4.7672  -3.4534  -3.3573  -1.8317   1.5216   1.7912   2.1380
     3.1449   4.3194   5.1292   6.1964

          k =-0.0001-0.5671 0.0000 ( 25880 PWs)   bands (ev):

   -67.5400 -67.5292 -34.6071 -34.5376 -34.2302 -34.0912 -33.9279 -33.8212
   -19.2514 -19.2417 -19.2364 -19.2296 -19.2262 -19.2152 -19.2102 -19.2061
   -19.1948 -19.1886 -19.1665 -19.1615 -19.1458 -19.1445 -11.0858  -7.1577
    -5.1755  -4.7934  -3.4074  -3.2810  -1.7695   1.4151   2.0585   2.3147
     3.2029   4.7972   5.7628   6.3426

          k = 0.0819 0.0473 0.0000 ( 25775 PWs)   bands (ev):

   -67.6064 -67.5758 -34.5821 -34.1126 -33.7590 -33.7156 -33.7150 -33.6682
   -19.2557 -19.2427 -19.2254 -19.2239 -19.2237 -19.2220 -19.2044 -19.2027
   -19.2019 -19.1998 -19.1966 -19.1906 -19.1233 -19.1226 -12.7137  -8.1321
    -5.3181  -3.5472  -3.3855  -3.1738  -1.0630  -0.0391   0.5333   1.8787
     2.1865   2.9621   3.2865   4.1701

          k = 0.0819 0.1418 0.0000 ( 25807 PWs)   bands (ev):

   -67.5980 -67.5692 -34.5545 -34.1132 -33.8554 -33.8328 -33.7355 -33.6964
   -19.2526 -19.2416 -19.2275 -19.2257 -19.2223 -19.2196 -19.2078 -19.2034
   -19.2026 -19.1991 -19.1899 -19.1845 -19.1295 -19.1291 -12.4587  -7.7278
    -5.4298  -3.8037  -3.6601  -2.9880  -0.7505  -0.6295   0.8723   1.6533
     1.8058   2.9995   3.5720   4.8284

          k = 0.0820 0.2363 0.0000 ( 25844 PWs)   bands (ev):

   -67.5831 -67.5578 -34.5086 -34.1399 -34.0113 -33.9913 -33.7951 -33.7401
   -19.2480 -19.2401 -19.2318 -19.2269 -19.2215 -19.2157 -19.2129 -19.2046
   -19.2028 -19.1972 -19.1785 -19.1738 -19.1401 -19.1396 -12.0357  -7.0695
    -5.5910  -4.3093  -3.8493  -2.7950  -1.3678  -0.1432   0.7435   1.9403
     2.2364   2.7778   3.9443   5.3274

          k = 0.0820 0.3308 0.0000 ( 25873 PWs)   bands (ev):

   -67.5655 -67.5451 -34.4708 -34.2831 -34.1620 -34.0642 -33.8649 -33.7881
   -19.2463 -19.2365 -19.2362 -19.2286 -19.2225 -19.2161 -19.2131 -19.2060
   -19.2007 -19.1945 -19.1650 -19.1615 -19.1520 -19.1505 -11.5865  -6.6418
    -5.5398  -4.6355  -4.0064  -2.8076  -1.8144   0.5099   0.8128   2.1932
     2.8456   3.4095   4.0768   5.9351

          k = 0.0820 0.4254 0.0000 ( 25894 PWs)   bands (ev):

   -67.5497 -67.5346 -34.5051 -34.4339 -34.2356 -34.0824 -33.9221 -33.8302
   -19.2478 -19.2397 -19.2338 -19.2288 -19.2259 -19.2150 -19.2132 -19.2061
   -19.1975 -19.1917 -19.1619 -19.1589 -19.1530 -19.1507 -11.2419  -6.7897
    -5.1711  -4.7569  -4.0131  -3.0092  -1.8174   0.8259   1.5703   2.0189
     3.6579   3.9490   4.7819   6.2964

          k = 0.0820 0.5199 0.0000 ( 25915 PWs)   bands (ev):

   -67.5399 -67.5292 -34.5780 -34.5106 -34.2277 -34.0975 -33.9536 -33.8546
   -19.2494 -19.2409 -19.2353 -19.2296 -19.2256 -19.2156 -19.2115 -19.2060
   -19.1956 -19.1898 -19.1674 -19.1631 -19.1459 -19.1446 -11.0655  -6.9722
    -5.0880  -4.7603  -3.7749  -3.2367  -1.6601   1.1841   1.6764   2.2608
     3.9727   4.4364   5.7497   6.2759

          k = 0.0818-0.5199 0.0000 ( 25913 PWs)   bands (ev):

   -67.5399 -67.5292 -34.5778 -34.5104 -34.2278 -34.0975 -33.9537 -33.8547
   -19.2494 -19.2409 -19.2352 -19.2297 -19.2257 -19.2156 -19.2116 -19.2059
   -19.1955 -19.1898 -19.1674 -19.1631 -19.1459 -19.1446 -11.0657  -6.9719
    -5.0879  -4.7601  -3.7711  -3.2411  -1.6594   1.1847   1.6763   2.2613
     3.9716   4.4370   5.7495   6.2760

          k = 0.0818-0.4253 0.0000 ( 25898 PWs)   bands (ev):

   -67.5497 -67.5346 -34.5047 -34.4335 -34.2355 -34.0825 -33.9225 -33.8303
   -19.2478 -19.2397 -19.2336 -19.2289 -19.2261 -19.2148 -19.2136 -19.2060
   -19.1974 -19.1917 -19.1620 -19.1589 -19.1530 -19.1506 -11.2423  -6.7891
    -5.1720  -4.7555  -4.0081  -3.0150  -1.8163   0.8266   1.5741   2.0168
     3.6535   3.9484   4.7807   6.2946

          k = 0.0819-0.3308 0.0000 ( 25872 PWs)   bands (ev):

   -67.5656 -67.5451 -34.4708 -34.2824 -34.1615 -34.0642 -33.8654 -33.7883
   -19.2463 -19.2365 -19.2362 -19.2286 -19.2226 -19.2161 -19.2134 -19.2058
   -19.2005 -19.1946 -19.1650 -19.1615 -19.1520 -19.1505 -11.5870  -6.6416
    -5.5413  -4.6331  -4.0024  -2.8107  -1.8141   0.5070   0.8189   2.1921
     2.8393   3.4077   4.0759   5.9374

          k = 0.0819-0.2363 0.0000 ( 25846 PWs)   bands (ev):

   -67.5832 -67.5579 -34.5087 -34.1394 -34.0112 -33.9904 -33.7958 -33.7403
   -19.2481 -19.2401 -19.2318 -19.2269 -19.2214 -19.2160 -19.2130 -19.2044
   -19.2027 -19.1974 -19.1785 -19.1738 -19.1401 -19.1396 -12.0362  -7.0698
    -5.5929  -4.3069  -3.8467  -2.7935  -1.3696  -0.1414   0.7406   1.9410
     2.2380   2.7721   3.9398   5.3321

          k = 0.0819-0.1418 0.0000 ( 25807 PWs)   bands (ev):

   -67.5980 -67.5692 -34.5546 -34.1131 -33.8545 -33.8325 -33.7361 -33.6965
   -19.2527 -19.2416 -19.2275 -19.2256 -19.2222 -19.2198 -19.2079 -19.2031
   -19.2024 -19.1995 -19.1899 -19.1844 -19.1295 -19.1291 -12.4589  -7.7282
    -5.4317  -3.8041  -3.6582  -2.9832  -0.7492  -0.6342   0.8748   1.6478
     1.8100   2.9962   3.5658   4.8364

          k = 0.0819-0.0472 0.0000 ( 25775 PWs)   bands (ev):

   -67.6065 -67.5758 -34.5822 -34.1125 -33.7584 -33.7157 -33.7153 -33.6682
   -19.2557 -19.2427 -19.2254 -19.2238 -19.2237 -19.2221 -19.2045 -19.2026
   -19.2016 -19.2001 -19.1966 -19.1906 -19.1233 -19.1226 -12.7138  -8.1323
    -5.3189  -3.5489  -3.3870  -3.1679  -1.0625  -0.0464   0.5408   1.8787
     2.1872   2.9482   3.2926   4.1763

          k = 0.1638 0.0946 0.0000 ( 25799 PWs)   bands (ev):

   -67.5940 -67.5661 -34.5417 -34.1167 -33.9146 -33.8669 -33.7598 -33.6964
   -19.2513 -19.2411 -19.2294 -19.2239 -19.2238 -19.2180 -19.2095 -19.2039
   -19.2029 -19.1983 -19.1869 -19.1817 -19.1324 -19.1318 -12.3431  -7.5526
    -5.4797  -4.0348  -3.4704  -3.1111  -1.0095  -0.3972   1.1206   1.3213
     2.0945   2.8195   3.6310   4.9265

          k = 0.1639 0.1891 0.0000 ( 25844 PWs)   bands (ev):

   -67.5830 -67.5578 -34.5084 -34.1402 -34.0125 -33.9906 -33.7953 -33.7402
   -19.2477 -19.2402 -19.2319 -19.2269 -19.2218 -19.2155 -19.2128 -19.2049
   -19.2030 -19.1970 -19.1785 -19.1739 -19.1401 -19.1396 -12.0352  -7.0685
    -5.5853  -4.3126  -3.8541  -2.8031  -1.3673  -0.1382   0.7508   1.9368
     2.2378   2.7864   3.9418   5.3229

          k = 0.1639 0.2836 0.0000 ( 25862 PWs)   bands (ev):

   -67.5679 -67.5467 -34.4706 -34.2269 -34.1480 -34.0556 -33.8608 -33.8159
   -19.2422 -19.2400 -19.2344 -19.2304 -19.2210 -19.2159 -19.2141 -19.2060
   -19.2009 -19.1955 -19.1669 -19.1632 -19.1504 -19.1501 -11.6352  -6.4254
    -5.6906  -4.6301  -4.2211  -2.5251  -1.6906   0.0605   0.4339   2.2173
     3.0405   3.2027   4.4845   5.7302

          k = 0.1639 0.3781 0.0000 ( 25905 PWs)   bands (ev):

   -67.5521 -67.5362 -34.4657 -34.3527 -34.2292 -34.0819 -33.9449 -33.8860
   -19.2423 -19.2369 -19.2359 -19.2310 -19.2233 -19.2165 -19.2143 -19.2064
   -19.1976 -19.1944 -19.1614 -19.1602 -19.1549 -19.1523 -11.2678  -6.2102
    -5.4666  -4.8015  -4.3834  -2.6462  -1.6842  -0.1877   1.2093   2.1695
     3.6380   4.2116   4.8800   6.3387

          k = 0.1639 0.4726 0.0000 ( 25957 PWs)   bands (ev):

   -67.5399 -67.5291 -34.5106 -34.4428 -34.2271 -34.1173 -34.0031 -33.9349
   -19.2447 -19.2379 -19.2347 -19.2283 -19.2255 -19.2169 -19.2143 -19.2057
   -19.1965 -19.1930 -19.1690 -19.1665 -19.1462 -19.1446 -11.0243  -6.4521
    -4.9283  -4.8664  -4.4036  -3.0259  -1.4537   0.0246   1.9796   2.3106
     3.8266   4.5345   5.4230   6.3569

          k = 0.1639 0.5672 0.0000 ( 25969 PWs)   bands (ev):

   -67.5350 -67.5270 -34.5377 -34.4719 -34.2093 -34.1442 -34.0193 -33.9532
   -19.2457 -19.2382 -19.2334 -19.2307 -19.2237 -19.2174 -19.2137 -19.2055
   -19.1966 -19.1922 -19.1718 -19.1687 -19.1429 -19.1419 -10.9412  -6.5624
    -4.8975  -4.7266  -4.3083  -3.2765  -1.3141   0.2282   2.2186   2.4622
     4.0581   4.4470   5.5833   6.1198

          k = 0.1638-0.4726 0.0000 ( 25961 PWs)   bands (ev):

   -67.5399 -67.5291 -34.5099 -34.4422 -34.2271 -34.1177 -34.0036 -33.9349
   -19.2446 -19.2379 -19.2345 -19.2286 -19.2256 -19.2168 -19.2146 -19.2056
   -19.1965 -19.1929 -19.1690 -19.1665 -19.1462 -19.1446 -11.0250  -6.4510
    -4.9313  -4.8633  -4.3987  -3.0309  -1.4525   0.0252   1.9836   2.3072
     3.8290   4.5247   5.4242   6.3574

          k = 0.1638-0.3781 0.0000 ( 25907 PWs)   bands (ev):

   -67.5522 -67.5362 -34.4651 -34.3514 -34.2290 -34.0821 -33.9458 -33.8862
   -19.2422 -19.2368 -19.2357 -19.2313 -19.2234 -19.2164 -19.2148 -19.2063
   -19.1974 -19.1944 -19.1614 -19.1602 -19.1548 -19.1522 -11.2688  -6.2091
    -5.4692  -4.7973  -4.3787  -2.6510  -1.6820  -0.1897   1.2149   2.1644
     3.6362   4.2046   4.8753   6.3422

          k = 0.1638-0.2835 0.0000 ( 25871 PWs)   bands (ev):

   -67.5679 -67.5468 -34.4705 -34.2255 -34.1474 -34.0555 -33.8617 -33.8162
   -19.2424 -19.2398 -19.2343 -19.2304 -19.2208 -19.2161 -19.2145 -19.2058
   -19.2006 -19.1956 -19.1669 -19.1632 -19.1504 -19.1502 -11.6362  -6.4261
    -5.6936  -4.6249  -4.2163  -2.5245  -1.6904   0.0527   0.4399   2.2142
     3.0349   3.2006   4.4777   5.7390

          k = 0.1638-0.1890 0.0000 ( 25844 PWs)   bands (ev):

   -67.5831 -67.5579 -34.5086 -34.1396 -34.0115 -33.9903 -33.7959 -33.7404
   -19.2479 -19.2401 -19.2319 -19.2268 -19.2215 -19.2159 -19.2130 -19.2045
   -19.2027 -19.1973 -19.1785 -19.1738 -19.1401 -19.1396 -12.0359  -7.0695
    -5.5895  -4.3089  -3.8494  -2.7980  -1.3693  -0.1385   0.7446   1.9391
     2.2387   2.7770   3.9381   5.3297

          k = 0.1638-0.0945 0.0000 ( 25803 PWs)   bands (ev):

   -67.5940 -67.5661 -34.5419 -34.1166 -33.9139 -33.8667 -33.7601 -33.6964
   -19.2514 -19.2411 -19.2294 -19.2239 -19.2235 -19.2182 -19.2096 -19.2035
   -19.2028 -19.1986 -19.1869 -19.1817 -19.1324 -19.1318 -12.3435  -7.5533
    -5.4828  -4.0343  -3.4679  -3.1046  -1.0095  -0.4021   1.1265   1.3162
     2.0961   2.8066   3.6351   4.9302

          k = 0.1638 0.0000 0.0000 ( 25807 PWs)   bands (ev):

   -67.5979 -67.5692 -34.5544 -34.1134 -33.8563 -33.8329 -33.7349 -33.6964
   -19.2525 -19.2416 -19.2276 -19.2258 -19.2224 -19.2194 -19.2078 -19.2035
   -19.2027 -19.1989 -19.1900 -19.1845 -19.1295 -19.1291 -12.4583  -7.7275
    -5.4270  -3.8035  -3.6623  -2.9943  -0.7522  -0.6239   0.8696   1.6613
     1.8005   3.0026   3.5798   4.8174

          k = 0.2458 0.1418 0.0000 ( 25814 PWs)   bands (ev):

   -67.5766 -67.5531 -34.4919 -34.1952 -34.0682 -34.0412 -33.8179 -33.7372
   -19.2477 -19.2382 -19.2346 -19.2248 -19.2236 -19.2147 -19.2138 -19.2058
   -19.2025 -19.1957 -19.1736 -19.1694 -19.1444 -19.1431 -11.8690  -6.9279
    -5.6048  -4.4758  -3.5742  -3.1347  -1.6533   0.3210   1.1721   1.8881
     2.5281   2.6774   3.7509   5.5142

          k = 0.2458 0.2363 0.0000 ( 25874 PWs)   bands (ev):

   -67.5654 -67.5450 -34.4707 -34.2839 -34.1623 -34.0645 -33.8654 -33.7884
   -19.2458 -19.2369 -19.2359 -19.2285 -19.2228 -19.2160 -19.2132 -19.2064
   -19.2008 -19.1943 -19.1650 -19.1616 -19.1520 -19.1503 -11.5852  -6.6371
    -5.5336  -4.6441  -4.0129  -2.8240  -1.8130   0.5275   0.8215   2.2034
     2.8459   3.4038   4.0788   5.9258

          k = 0.2458 0.3309 0.0000 ( 25907 PWs)   bands (ev):

   -67.5520 -67.5361 -34.4660 -34.3533 -34.2288 -34.0821 -33.9456 -33.8859
   -19.2424 -19.2366 -19.2354 -19.2314 -19.2235 -19.2162 -19.2147 -19.2067
   -19.1976 -19.1942 -19.1614 -19.1600 -19.1548 -19.1523 -11.2670  -6.2041
    -5.4715  -4.8028  -4.3863  -2.6558  -1.6845  -0.1764   1.2143   2.1739
     3.6380   4.2092   4.8827   6.3335

          k = 0.2458 0.4254 0.0000 ( 25963 PWs)   bands (ev):

   -67.5397 -67.5291 -34.4724 -34.3880 -34.2493 -34.1154 -34.0341 -33.9842
   -19.2420 -19.2357 -19.2318 -19.2309 -19.2258 -19.2173 -19.2158 -19.2057
   -19.1961 -19.1955 -19.1694 -19.1685 -19.1463 -19.1447 -11.0029  -5.7682
    -5.6047  -4.7460  -4.5331  -2.8584  -1.2601  -0.5968   1.9003   2.4537
     3.6698   4.5719   5.2455   6.6386

          k = 0.2458 0.5199 0.0000 ( 26004 PWs)   bands (ev):

   -67.5317 -67.5261 -34.4637 -34.3988 -34.2518 -34.1834 -34.0664 -34.0416
   -19.2429 -19.2332 -19.2317 -19.2294 -19.2241 -19.2196 -19.2172 -19.2038
   -19.1978 -19.1957 -19.1745 -19.1733 -19.1412 -19.1404 -10.8555  -5.9400
    -5.1446  -4.7279  -4.6207  -3.1525  -0.9459  -0.4718   2.5594   2.7676
     3.5031   4.1696   5.1626   6.3212

          k = 0.2459 0.6144 0.0000 ( 26008 PWs)   bands (ev):

   -67.5317 -67.5260 -34.4629 -34.3982 -34.2518 -34.1842 -34.0676 -34.0406
   -19.2428 -19.2330 -19.2318 -19.2296 -19.2243 -19.2196 -19.2171 -19.2037
   -19.1979 -19.1956 -19.1745 -19.1733 -19.1412 -19.1404 -10.8560  -5.9388
    -5.1446  -4.7279  -4.6186  -3.1541  -0.9455  -0.4717   2.5623   2.7635
     3.5069   4.1618   5.1630   6.3202

          k = 0.2457-0.4253 0.0000 ( 25969 PWs)   bands (ev):

   -67.5398 -67.5291 -34.4713 -34.3863 -34.2499 -34.1160 -34.0351 -33.9840
   -19.2416 -19.2356 -19.2319 -19.2313 -19.2259 -19.2176 -19.2158 -19.2055
   -19.1961 -19.1954 -19.1695 -19.1686 -19.1463 -19.1447 -11.0041  -5.7663
    -5.6051  -4.7439  -4.5290  -2.8611  -1.2574  -0.6000   1.9039   2.4473
     3.6725   4.5587   5.2453   6.6353

          k = 0.2457-0.3308 0.0000 ( 25905 PWs)   bands (ev):

   -67.5521 -67.5362 -34.4653 -34.3516 -34.2289 -34.0822 -33.9462 -33.8862
   -19.2421 -19.2367 -19.2355 -19.2315 -19.2235 -19.2163 -19.2150 -19.2064
   -19.1974 -19.1943 -19.1614 -19.1601 -19.1548 -19.1522 -11.2684  -6.2062
    -5.4716  -4.7979  -4.3804  -2.6560  -1.6820  -0.1835   1.2176   2.1668
     3.6363   4.2032   4.8769   6.3391

          k = 0.2457-0.2363 0.0000 ( 25870 PWs)   bands (ev):

   -67.5655 -67.5451 -34.4707 -34.2828 -34.1617 -34.0643 -33.8657 -33.7885
   -19.2460 -19.2367 -19.2361 -19.2285 -19.2227 -19.2162 -19.2135 -19.2061
   -19.2006 -19.1944 -19.1650 -19.1615 -19.1520 -19.1504 -11.5863  -6.6394
    -5.5375  -4.6379  -4.0060  -2.8196  -1.8131   0.5169   0.8234   2.1977
     2.8395   3.4045   4.0768   5.9323

          k = 0.2457-0.1417 0.0000 ( 25820 PWs)   bands (ev):

   -67.5767 -67.5531 -34.4921 -34.1947 -34.0672 -34.0414 -33.8180 -33.7372
   -19.2480 -19.2382 -19.2346 -19.2250 -19.2233 -19.2148 -19.2140 -19.2055
   -19.2023 -19.1958 -19.1736 -19.1694 -19.1444 -19.1431 -11.8697  -6.9296
    -5.6096  -4.4713  -3.5695  -3.1275  -1.6540   0.3168   1.1635   1.8905
     2.5165   2.6805   3.7537   5.5178

          k = 0.2457-0.0472 0.0000 ( 25840 PWs)   bands (ev):

   -67.5830 -67.5578 -34.5084 -34.1408 -34.0118 -33.9918 -33.7946 -33.7400
   -19.2477 -19.2401 -19.2320 -19.2269 -19.2217 -19.2155 -19.2129 -19.2049
   -19.2029 -19.1971 -19.1785 -19.1739 -19.1401 -19.1396 -12.0349  -7.0689
    -5.5850  -4.3144  -3.8547  -2.8018  -1.3651  -0.1432   0.7516   1.9378
     2.2359   2.7893   3.9481   5.3187

          k = 0.2458 0.0473 0.0000 ( 25838 PWs)   bands (ev):

   -67.5830 -67.5578 -34.5083 -34.1408 -34.0127 -33.9913 -33.7947 -33.7400
   -19.2476 -19.2401 -19.2320 -19.2269 -19.2218 -19.2154 -19.2128 -19.2050
   -19.2030 -19.1970 -19.1785 -19.1739 -19.1401 -19.1396 -12.0347  -7.0682
    -5.5827  -4.3158  -3.8569  -2.8054  -1.3650  -0.1410   0.7549   1.9361
     2.2366   2.7930   3.9474   5.3166

          k = 0.3277 0.1891 0.0000 ( 25876 PWs)   bands (ev):

   -67.5587 -67.5405 -34.4804 -34.3757 -34.2116 -34.0718 -33.8740 -33.7793
   -19.2484 -19.2389 -19.2334 -19.2269 -19.2266 -19.2150 -19.2128 -19.2067
   -19.1997 -19.1924 -19.1599 -19.1569 -19.1558 -19.1529 -11.4438  -6.8448
    -5.3635  -4.6981  -3.6366  -3.2526  -1.9166   1.1359   1.5051   2.0956
     2.6845   3.7781   3.9102   6.0433

          k = 0.3277 0.2836 0.0000 ( 25898 PWs)   bands (ev):

   -67.5494 -67.5346 -34.5061 -34.4354 -34.2340 -34.0835 -33.9229 -33.8305
   -19.2478 -19.2395 -19.2331 -19.2288 -19.2263 -19.2149 -19.2138 -19.2068
   -19.1975 -19.1916 -19.1619 -19.1586 -19.1530 -19.1507 -11.2396  -6.7845
    -5.1666  -4.7679  -4.0202  -3.0286  -1.8151   0.8494   1.5808   2.0329
     3.6564   3.9493   4.7814   6.2856

          k = 0.3277 0.3781 0.0000 ( 25955 PWs)   bands (ev):

   -67.5396 -67.5292 -34.5117 -34.4444 -34.2252 -34.1177 -34.0045 -33.9347
   -19.2451 -19.2372 -19.2342 -19.2282 -19.2260 -19.2166 -19.2149 -19.2063
   -19.1966 -19.1928 -19.1690 -19.1663 -19.1462 -19.1446 -11.0224  -6.4488
    -4.9348  -4.8685  -4.4061  -3.0379  -1.4543   0.0395   1.9902   2.3206
     3.8284   4.5299   5.4241   6.3670

          k = 0.3277 0.4727 0.0000 ( 26010 PWs)   bands (ev):

   -67.5315 -67.5261 -34.4649 -34.4003 -34.2510 -34.1819 -34.0679 -34.0409
   -19.2433 -19.2329 -19.2309 -19.2294 -19.2246 -19.2194 -19.2174 -19.2040
   -19.1980 -19.1955 -19.1745 -19.1731 -19.1412 -19.1405 -10.8543  -5.9395
    -5.1487  -4.7329  -4.6172  -3.1568  -0.9494  -0.4636   2.5682   2.7725
     3.5020   4.1695   5.1611   6.3233

          k = 0.3278 0.5672 0.0000 ( 26035 PWs)   bands (ev):

   -67.5269 -67.5267 -34.3852 -34.3444 -34.3436 -34.2325 -34.0829 -34.0804
   -19.2426 -19.2309 -19.2308 -19.2243 -19.2239 -19.2223 -19.2213 -19.2007
   -19.1990 -19.1987 -19.1763 -19.1762 -19.1392 -19.1391 -10.7907  -5.4411
    -5.4373  -4.9154  -4.5615  -3.1833  -0.6386  -0.6333   2.9579   2.9595
     3.4961   3.5036   4.8875   6.6301

          k = 0.3278 0.6617 0.0000 ( 26004 PWs)   bands (ev):

   -67.5316 -67.5261 -34.4637 -34.3987 -34.2516 -34.1833 -34.0682 -34.0404
   -19.2430 -19.2329 -19.2313 -19.2296 -19.2246 -19.2196 -19.2172 -19.2038
   -19.1980 -19.1955 -19.1745 -19.1732 -19.1412 -19.1404 -10.8553  -5.9388
    -5.1468  -4.7304  -4.6171  -3.1561  -0.9473  -0.4673   2.5672   2.7659
     3.5062   4.1620   5.1623   6.3206

          k = 0.3276-0.3780 0.0000 ( 25959 PWs)   bands (ev):

   -67.5398 -67.5292 -34.5106 -34.4427 -34.2263 -34.1178 -34.0044 -33.9349
   -19.2447 -19.2376 -19.2342 -19.2285 -19.2259 -19.2168 -19.2148 -19.2059
   -19.1965 -19.1928 -19.1690 -19.1664 -19.1462 -19.1446 -11.0239  -6.4496
    -4.9348  -4.8644  -4.4004  -3.0369  -1.4526   0.0332   1.9891   2.3126
     3.8301   4.5221   5.4249   6.3624

          k = 0.3276-0.2835 0.0000 ( 25898 PWs)   bands (ev):

   -67.5495 -67.5346 -34.5054 -34.4340 -34.2348 -34.0830 -33.9230 -33.8306
   -19.2477 -19.2397 -19.2333 -19.2288 -19.2263 -19.2148 -19.2139 -19.2064
   -19.1974 -19.1916 -19.1619 -19.1588 -19.1530 -19.1506 -11.2411  -6.7867
    -5.1694  -4.7617  -4.0120  -3.0252  -1.8146   0.8395   1.5793   2.0246
     3.6524   3.9487   4.7804   6.2878

          k = 0.3276-0.1890 0.0000 ( 25880 PWs)   bands (ev):

   -67.5588 -67.5405 -34.4801 -34.3748 -34.2119 -34.0712 -33.8739 -33.7792
   -19.2485 -19.2390 -19.2337 -19.2270 -19.2265 -19.2149 -19.2130 -19.2064
   -19.1997 -19.1924 -19.1599 -19.1569 -19.1558 -19.1530 -11.4449  -6.8478
    -5.3671  -4.6924  -3.6307  -3.2449  -1.9171   1.1275   1.4965   2.0858
     2.6860   3.7794   3.9124   6.0466

          k = 0.3276-0.0945 0.0000 ( 25871 PWs)   bands (ev):

   -67.5654 -67.5450 -34.4708 -34.2843 -34.1626 -34.0643 -33.8646 -33.7881
   -19.2460 -19.2367 -19.2361 -19.2287 -19.2226 -19.2161 -19.2130 -19.2063
   -19.2008 -19.1944 -19.1650 -19.1616 -19.1520 -19.1504 -11.5851  -6.6400
    -5.5342  -4.6435  -4.0142  -2.8136  -1.8138   0.5234   0.8094   2.2008
     2.8537   3.4092   4.0782   5.9271

          k = 0.3277 0.0001 0.0000 ( 25866 PWs)   bands (ev):

   -67.5677 -67.5467 -34.4705 -34.2287 -34.1483 -34.0557 -33.8601 -33.8156
   -19.2420 -19.2400 -19.2346 -19.2303 -19.2210 -19.2159 -19.2139 -19.2062
   -19.2011 -19.1955 -19.1669 -19.1633 -19.1504 -19.1501 -11.6340  -6.4250
    -5.6867  -4.6368  -4.2263  -2.5266  -1.6910   0.0704   0.4258   2.2218
     3.0474   3.2064   4.4924   5.7187

          k = 0.3277 0.0946 0.0000 ( 25867 PWs)   bands (ev):

   -67.5653 -67.5450 -34.4708 -34.2847 -34.1627 -34.0645 -33.8648 -33.7882
   -19.2459 -19.2369 -19.2359 -19.2286 -19.2227 -19.2160 -19.2130 -19.2065
   -19.2009 -19.1943 -19.1650 -19.1616 -19.1520 -19.1503 -11.5845  -6.6374
    -5.5318  -4.6472  -4.0172  -2.8211  -1.8135   0.5311   0.8137   2.2054
     2.8539   3.4068   4.0793   5.9229

          k = 0.4096 0.2364 0.0000 ( 25846 PWs)   bands (ev):

   -67.5448 -67.5320 -34.5618 -34.4973 -34.2373 -34.0857 -33.9140 -33.8104
   -19.2506 -19.2410 -19.2341 -19.2286 -19.2271 -19.2143 -19.2126 -19.2068
   -19.1962 -19.1896 -19.1636 -19.1591 -19.1496 -19.1478 -11.1720  -7.0569
    -5.1783  -4.7800  -3.4643  -3.3760  -1.8285   1.5322   1.8287   2.1538
     3.1357   4.3232   5.1302   6.1879

          k = 0.4096 0.3309 0.0000 ( 25915 PWs)   bands (ev):

   -67.5395 -67.5292 -34.5797 -34.5129 -34.2242 -34.0998 -33.9544 -33.8550
   -19.2496 -19.2405 -19.2349 -19.2294 -19.2257 -19.2156 -19.2123 -19.2068
   -19.1955 -19.1897 -19.1673 -19.1627 -19.1459 -19.1446 -11.0622  -6.9695
    -5.0854  -4.7719  -3.7842  -3.2516  -1.6579   1.2050   1.6867   2.2807
     3.9744   4.4372   5.7567   6.2746

          k = 0.4097 0.4254 0.0000 ( 25983 PWs)   bands (ev):

   -67.5345 -67.5271 -34.5397 -34.4744 -34.2057 -34.1453 -34.0207 -33.9529
   -19.2463 -19.2373 -19.2334 -19.2304 -19.2236 -19.2174 -19.2144 -19.2061
   -19.1967 -19.1921 -19.1718 -19.1684 -19.1428 -19.1419 -10.9381  -6.5618
    -4.8994  -4.7359  -4.3132  -3.2837  -1.3157   0.2414   2.2283   2.4795
     4.0531   4.4558   5.5794   6.1271

          k = 0.4097 0.5199 0.0000 ( 26010 PWs)   bands (ev):

   -67.5314 -67.5262 -34.4657 -34.4012 -34.2500 -34.1818 -34.0672 -34.0414
   -19.2434 -19.2332 -19.2309 -19.2292 -19.2243 -19.2193 -19.2176 -19.2041
   -19.1979 -19.1957 -19.1745 -19.1731 -19.1412 -19.1405 -10.8536  -5.9412
    -5.1486  -4.7334  -4.6193  -3.1548  -0.9503  -0.4638   2.5641   2.7785
     3.4970   4.1788   5.1617   6.3248

          k = 0.4097 0.6145 0.0000 ( 26010 PWs)   bands (ev):

   -67.5315 -67.5261 -34.4653 -34.4002 -34.2505 -34.1825 -34.0664 -34.0419
   -19.2432 -19.2333 -19.2313 -19.2293 -19.2241 -19.2194 -19.2175 -19.2040
   -19.1979 -19.1957 -19.1745 -19.1732 -19.1412 -19.1405 -10.8541  -5.9417
    -5.1466  -4.7310  -4.6212  -3.1526  -0.9487  -0.4676   2.5601   2.7761
     3.4974   4.1791   5.1625   6.3231

          k = 0.4097 0.7090 0.0000 ( 25979 PWs)   bands (ev):

   -67.5347 -67.5270 -34.5389 -34.4729 -34.2075 -34.1447 -34.0201 -33.9531
   -19.2459 -19.2378 -19.2335 -19.2305 -19.2236 -19.2175 -19.2141 -19.2058
   -19.1967 -19.1921 -19.1718 -19.1686 -19.1428 -19.1419 -10.9394  -6.5626
    -4.8983  -4.7320  -4.3114  -3.2797  -1.3147   0.2352   2.2234   2.4719
     4.0551   4.4522   5.5813   6.1234

          k = 0.4095-0.3308 0.0000 ( 25915 PWs)   bands (ev):

   -67.5397 -67.5292 -34.5789 -34.5114 -34.2260 -34.0987 -33.9542 -33.8550
   -19.2494 -19.2408 -19.2350 -19.2296 -19.2257 -19.2156 -19.2120 -19.2064
   -19.1955 -19.1897 -19.1673 -19.1629 -19.1459 -19.1445 -11.0638  -6.9710
    -5.0864  -4.7668  -3.7765  -3.2484  -1.6578   1.1959   1.6813   2.2723
     3.9722   4.4374   5.7534   6.2748

          k = 0.4095-0.2362 0.0000 ( 25846 PWs)   bands (ev):

   -67.5450 -67.5320 -34.5611 -34.4960 -34.2388 -34.0847 -33.9139 -33.8102
   -19.2504 -19.2412 -19.2344 -19.2287 -19.2269 -19.2144 -19.2123 -19.2064
   -19.1962 -19.1896 -19.1636 -19.1592 -19.1496 -19.1478 -11.1734  -7.0591
    -5.1805  -4.7745  -3.4587  -3.3678  -1.8294   1.5267   1.8123   2.1463
     3.1393   4.3217   5.1297   6.1910

          k = 0.4096-0.1417 0.0000 ( 25896 PWs)   bands (ev):

   -67.5495 -67.5346 -34.5062 -34.4349 -34.2348 -34.0830 -33.9222 -33.8303
   -19.2477 -19.2397 -19.2338 -19.2287 -19.2259 -19.2151 -19.2133 -19.2065
   -19.1976 -19.1917 -19.1619 -19.1588 -19.1530 -19.1507 -11.2399  -6.7881
    -5.1674  -4.7649  -4.0223  -3.0136  -1.8173   0.8379   1.5705   2.0301
     3.6620   3.9496   4.7837   6.2923

          k = 0.4096-0.0472 0.0000 ( 25908 PWs)   bands (ev):

   -67.5520 -67.5361 -34.4666 -34.3545 -34.2288 -34.0821 -33.9445 -33.8857
   -19.2424 -19.2369 -19.2358 -19.2310 -19.2233 -19.2164 -19.2142 -19.2067
   -19.1978 -19.1943 -19.1613 -19.1601 -19.1548 -19.1523 -11.2660  -6.2086
    -5.4664  -4.8074  -4.3903  -2.6462  -1.6875  -0.1791   1.2044   2.1794
     3.6399   4.2193   4.8874   6.3312

          k = 0.4096 0.0473 0.0000 ( 25911 PWs)   bands (ev):

   -67.5519 -67.5361 -34.4667 -34.3549 -34.2285 -34.0822 -33.9448 -33.8856
   -19.2425 -19.2367 -19.2355 -19.2312 -19.2233 -19.2162 -19.2144 -19.2068
   -19.1978 -19.1943 -19.1614 -19.1600 -19.1548 -19.1523 -11.2656  -6.2055
    -5.4689  -4.8079  -4.3915  -2.6507  -1.6879  -0.1739   1.2068   2.1815
     3.6398   4.2183   4.8885   6.3292

          k = 0.4096 0.1419 0.0000 ( 25900 PWs)   bands (ev):

   -67.5493 -67.5346 -34.5066 -34.4359 -34.2339 -34.0836 -33.9225 -33.8304
   -19.2478 -19.2395 -19.2334 -19.2287 -19.2261 -19.2150 -19.2136 -19.2068
   -19.1976 -19.1916 -19.1619 -19.1586 -19.1530 -19.1507 -11.2389  -6.7853
    -5.1655  -4.7697  -4.0255  -3.0228  -1.8166   0.8484   1.5759   2.0363
     3.6615   3.9496   4.7835   6.2883

          k =-0.4915-0.2837 0.0000 ( 25868 PWs)   bands (ev):

   -67.5394 -67.5292 -34.6090 -34.5403 -34.2261 -34.0941 -33.9286 -33.8219
   -19.2515 -19.2414 -19.2361 -19.2293 -19.2261 -19.2152 -19.2109 -19.2069
   -19.1947 -19.1885 -19.1664 -19.1611 -19.1457 -19.1445 -11.0820  -7.1551
    -5.1722  -4.8057  -3.4263  -3.2909  -1.7654   1.4261   2.0953   2.3332
     3.1929   4.7994   5.7720   6.3353

          k =-0.4915-0.1891 0.0000 ( 25913 PWs)   bands (ev):

   -67.5394 -67.5292 -34.5799 -34.5131 -34.2240 -34.0999 -33.9543 -33.8550
   -19.2496 -19.2404 -19.2350 -19.2293 -19.2256 -19.2155 -19.2122 -19.2068
   -19.1955 -19.1897 -19.1673 -19.1627 -19.1459 -19.1446 -11.0619  -6.9699
    -5.0855  -4.7721  -3.7880  -3.2473  -1.6587   1.2042   1.6869   2.2800
     3.9755   4.4361   5.7572   6.2755

          k =-0.4915-0.0946 0.0000 ( 25945 PWs)   bands (ev):

   -67.5395 -67.5292 -34.5125 -34.4453 -34.2247 -34.1178 -34.0040 -33.9345
   -19.2452 -19.2372 -19.2345 -19.2279 -19.2258 -19.2166 -19.2149 -19.2063
   -19.1967 -19.1929 -19.1690 -19.1662 -19.1462 -19.1447 -11.0214  -6.4503
    -4.9315  -4.8721  -4.4115  -3.0325  -1.4562   0.0385   1.9848   2.3257
     3.8250   4.5412   5.4239   6.3673

          k =-0.4915-0.0001 0.0000 ( 25959 PWs)   bands (ev):

   -67.5396 -67.5292 -34.4738 -34.3901 -34.2477 -34.1153 -34.0336 -33.9842
   -19.2422 -19.2360 -19.2314 -19.2308 -19.2257 -19.2171 -19.2160 -19.2059
   -19.1960 -19.1958 -19.1694 -19.1685 -19.1463 -19.1447 -11.0012  -5.7716
    -5.6041  -4.7481  -4.5382  -2.8550  -1.2644  -0.5928   1.8952   2.4628
     3.6658   4.5875   5.2475   6.6434

          k =-0.4915 0.0944 0.0000 ( 25949 PWs)   bands (ev):

   -67.5396 -67.5292 -34.5121 -34.4442 -34.2258 -34.1175 -34.0034 -33.9348
   -19.2449 -19.2376 -19.2348 -19.2280 -19.2255 -19.2168 -19.2145 -19.2061
   -19.1967 -19.1929 -19.1689 -19.1664 -19.1462 -19.1447 -11.0222  -6.4522
    -4.9285  -4.8712  -4.4108  -3.0266  -1.4556   0.0316   1.9797   2.3212
     3.8243   4.5432   5.4234   6.3619

          k =-0.4915 0.1890 0.0000 ( 25909 PWs)   bands (ev):

   -67.5396 -67.5292 -34.5792 -34.5117 -34.2258 -34.0987 -33.9540 -33.8549
   -19.2494 -19.2408 -19.2353 -19.2294 -19.2256 -19.2156 -19.2119 -19.2064
   -19.1956 -19.1897 -19.1673 -19.1629 -19.1459 -19.1446 -11.0633  -6.9716
    -5.0866  -4.7672  -3.7842  -3.2396  -1.6592   1.1946   1.6816   2.2711
     3.9744   4.4357   5.7542   6.2756

          k =-0.4916-0.8508 0.0000 ( 25880 PWs)   bands (ev):

   -67.5397 -67.5292 -34.6083 -34.5388 -34.2281 -34.0927 -33.9283 -33.8216
   -19.2514 -19.2416 -19.2362 -19.2295 -19.2261 -19.2153 -19.2106 -19.2065
   -19.1947 -19.1885 -19.1664 -19.1613 -19.1457 -19.1445 -11.0836  -7.1569
    -5.1736  -4.8005  -3.4184  -3.2853  -1.7667   1.4204   2.0794   2.3241
     3.1968   4.7984   5.7680   6.3381

     the Fermi energy is     0.8294 ev

!    total energy              =   -1375.70019697 Ry
     estimated scf accuracy    <          2.7E-13 Ry
     smearing contrib. (-TS)   =      -0.00000372 Ry
     internal energy E=F+TS    =   -1375.70019325 Ry

     The total energy is F=E-TS. E is the sum of the following terms:
     one-electron contribution =  -11616.52937049 Ry
     hartree contribution      =    5838.41056749 Ry
     xc contribution           =    -140.31290098 Ry
     ewald contribution        =    4542.73151073 Ry

     convergence has been achieved in  19 iterations

     negative rho (up, down):  1.239E-04 0.000E+00

     Forces acting on atoms (cartesian axes, Ry/au):

     atom    1 type  2   force =    -0.00045448    0.00025788   -0.00000140
     atom    2 type  1   force =     0.00003934    0.00027422   -0.00020075
     atom    3 type  1   force =     0.00009860   -0.00034999    0.00020138
     atom    4 type  3   force =     0.00026884   -0.00055514   -0.00005892
     atom    5 type  3   force =     0.00004770    0.00037304    0.00005969

     Total force =     0.001045     Total SCF correction =     0.000005


     Computing stress (Cartesian axis) and pressure


     negative rho (up, down):  1.239E-04 0.000E+00
          total   stress  (Ry/bohr**3)                   (kbar)     P=       -0.11
  -0.00000151   0.00000012   0.00000076           -0.22        0.02        0.11
   0.00000012   0.00000127  -0.00000379            0.02        0.19       -0.56
   0.00000076  -0.00000379  -0.00000202            0.11       -0.56       -0.30


     Writing output data file /scratch/as3359/Ta2CH2-VCrelax/Ta.save/
 
     init_run     :     23.41s CPU     12.89s WALL (       1 calls)
     electrons    :    915.75s CPU    468.32s WALL (       1 calls)
     forces       :      7.98s CPU      4.11s WALL (       1 calls)
     stress       :     30.66s CPU     15.78s WALL (       1 calls)

     Called by init_run:
     wfcinit      :     17.59s CPU      9.01s WALL (       1 calls)
     potinit      :      1.52s CPU      0.77s WALL (       1 calls)
     hinit0       :      3.31s CPU      2.45s WALL (       1 calls)

     Called by electrons:
     c_bands      :    756.59s CPU    383.08s WALL (      19 calls)
     sum_band     :    139.23s CPU     73.04s WALL (      19 calls)
     v_of_rho     :      2.86s CPU      1.57s WALL (      20 calls)
     newd         :     16.68s CPU     10.45s WALL (      20 calls)
     mix_rho      :      1.17s CPU      0.63s WALL (      19 calls)

     Called by c_bands:
     init_us_2    :     21.41s CPU     10.73s WALL (    3034 calls)
     cegterg      :    694.59s CPU    351.81s WALL (    1406 calls)

     Called by *egterg:
     cdiaghg      :     16.79s CPU      8.58s WALL (    7182 calls)
     h_psi        :    536.80s CPU    272.49s WALL (    7256 calls)
     s_psi        :     31.10s CPU     15.58s WALL (    7256 calls)
     g_psi        :      3.56s CPU      1.78s WALL (    5776 calls)

     Called by h_psi:
     h_psi:calbec :     25.97s CPU     13.04s WALL (    7256 calls)
     vloc_psi     :    470.27s CPU    239.10s WALL (    7256 calls)
     add_vuspsi   :     35.14s CPU     17.60s WALL (    7256 calls)

     General routines
     calbec       :     36.95s CPU     18.56s WALL (    9032 calls)
     fft          :      2.59s CPU      1.32s WALL (     245 calls)
     ffts         :      0.09s CPU      0.05s WALL (      19 calls)
     fftw         :    474.73s CPU    241.62s WALL (  304044 calls)
 
     Parallel routines
 
     PWSCF        :  16m21.68s CPU   8m24.69s WALL

 
   This run was terminated on:  15: 4:44   7Apr2022            

=------------------------------------------------------------------------------=
   JOB DONE.
=------------------------------------------------------------------------------=
