
     Program PWSCF v.6.8 starts on  7Apr2022 at 21:17:45 

     This program is part of the open-source Quantum ESPRESSO suite
     for quantum simulation of materials; please cite
         "P. Giannozzi et al., J. Phys.:Condens. Matter 21 395502 (2009);
         "P. Giannozzi et al., J. Phys.:Condens. Matter 29 465901 (2017);
         "P. Giannozzi et al., J. Chem. Phys. 152 154105 (2020);
          URL http://www.quantum-espresso.org", 
     in publications or presentations arising from this work. More details at
     http://www.quantum-espresso.org/quote

     Parallel version (MPI & OpenMP), running on       4 processor cores
     Number of MPI processes:                 2
     Threads/MPI process:                     2

     MPI processes distributed on     1 nodes
     R & G space division:  proc/nbgrp/npool/nimage =       2
     121649 MiB available memory on the printing compute node when the environment starts
 
     Reading input from Ta2CH2.scf.240.in

     Current dimensions of program PWSCF are:
     Max number of different atomic species (ntypx) = 10
     Max number of k-points (npk) =  40000
     Max angular momentum in pseudopotentials (lmaxx) =  4
     file Ta.pbesol-spfn-rrkjus_psl.1.0.0.UPF: wavefunction(s)  5S 5P renormalized

     Subspace diagonalization in iterative solution of the eigenvalue problem:
     a serial algorithm will be used

 
     Parallelization info
     --------------------
     sticks:   dense  smooth     PW     G-vecs:    dense   smooth      PW
     Min        1053    1053    297               385059   385059   59139
     Max        1054    1054    298               385094   385094   59168
     Sum        2107    2107    595               770153   770153  118307
 
     Using Slab Decomposition
 


     bravais-lattice index     =            0
     lattice parameter (alat)  =       5.5500  a.u.
     unit-cell volume          =    1533.2393 (a.u.)^3
     number of atoms/cell      =            5
     number of atomic types    =            3
     number of electrons       =        60.00
     number of Kohn-Sham states=           36
     kinetic-energy cutoff     =     240.0000  Ry
     charge density cutoff     =     960.0000  Ry
     scf convergence threshold =      1.0E-12
     mixing beta               =       0.7000
     number of iterations used =            8  plain     mixing
     Exchange-correlation= PBESOL
                           (   1   4  10   8   0   0   0)

     celldm(1)=   5.550000  celldm(2)=   0.000000  celldm(3)=   0.000000
     celldm(4)=   0.000000  celldm(5)=   0.000000  celldm(6)=   0.000000

     crystal axes: (cart. coord. in units of alat)
               a(1) = (   1.017295  -0.000177   0.000000 )  
               a(2) = (  -0.508801   0.881714   0.000000 )  
               a(3) = (   0.000000   0.000000  10.000000 )  

     reciprocal axes: (cart. coord. in units 2 pi/alat)
               b(1) = (  0.983098  0.567305  0.000000 )  
               b(2) = (  0.000198  1.134269  0.000000 )  
               b(3) = (  0.000000  0.000000  0.100000 )  


     PseudoPot. # 1 for Ta read from file:
     /shared/home/as3359/pseudo/Ta.pbesol-spfn-rrkjus_psl.1.0.0.UPF
     MD5 check sum: f099565ffaca9b150a52e9412a28e20b
     Pseudo is Ultrasoft + core correction, Zval = 27.0
     Generated using &quot;atomic&quot; code by A. Dal Corso  v.6.3
     Using radial grid of 1273 points,  8 beta functions with: 
                l(1) =   0
                l(2) =   0
                l(3) =   1
                l(4) =   1
                l(5) =   2
                l(6) =   2
                l(7) =   3
                l(8) =   3
     Q(r) pseudized with 0 coefficients 


     PseudoPot. # 2 for C  read from file:
     /shared/home/as3359/pseudo/C.pbesol-n-rrkjus_psl.1.0.0.UPF
     MD5 check sum: 05995be603a8a7c99da3dc4413f31573
     Pseudo is Ultrasoft + core correction, Zval =  4.0
     Generated using &quot;atomic&quot; code by A. Dal Corso  v.6.3MaX
     Using radial grid of 1073 points,  4 beta functions with: 
                l(1) =   0
                l(2) =   0
                l(3) =   1
                l(4) =   1
     Q(r) pseudized with 0 coefficients 


     PseudoPot. # 3 for H  read from file:
     /shared/home/as3359/pseudo/H.pbesol-rrkjus_psl.0.1.UPF
     MD5 check sum: 1dbb1a5c48b1283557b8117eb856a7ca
     Pseudo is Ultrasoft, Zval =  1.0
     Generated using "atomic" code by A. Dal Corso  v.5.0.2 svn rev. 9415
     Using radial grid of  929 points,  2 beta functions with: 
                l(1) =   0
                l(2) =   0
     Q(r) pseudized with 0 coefficients 


     atomic species   valence    mass     pseudopotential
        Ta            27.00   180.94788     Ta( 1.00)
        C              4.00    12.01070     C ( 1.00)
        H              1.00     1.00000     H ( 1.00)

     No symmetry found



   Cartesian axes

     site n.     atom                  positions (alat units)
         1           C   tau(   1) = (   0.0000000   0.0000000   0.0000000  )
         2           Ta  tau(   2) = (   0.5088008   0.2948413  -0.4364511  )
         3           Ta  tau(   3) = (  -0.0007447   0.5869407   0.4364532  )
         4           H   tau(   4) = (  -0.0017928  -0.0015314   0.8341930  )
         5           H   tau(   5) = (   0.0002769   0.0024412  -0.8341930  )

     number of k points=    74  Marzari-Vanderbilt smearing, width (Ry)=  0.0010
                       cart. coord. in units 2pi/alat
        k(    1) = (   0.0000000   0.0000000   0.0000000), wk =   0.0138889
        k(    2) = (   0.0000165   0.0945224   0.0000000), wk =   0.0277778
        k(    3) = (   0.0000329   0.1890448   0.0000000), wk =   0.0277778
        k(    4) = (   0.0000494   0.2835672   0.0000000), wk =   0.0277778
        k(    5) = (   0.0000659   0.3780896   0.0000000), wk =   0.0277778
        k(    6) = (   0.0000823   0.4726120   0.0000000), wk =   0.0277778
        k(    7) = (  -0.0000988  -0.5671343   0.0000000), wk =   0.0138889
        k(    8) = (   0.0819248   0.0472755   0.0000000), wk =   0.0277778
        k(    9) = (   0.0819413   0.1417978   0.0000000), wk =   0.0277778
        k(   10) = (   0.0819577   0.2363202   0.0000000), wk =   0.0277778
        k(   11) = (   0.0819742   0.3308426   0.0000000), wk =   0.0277778
        k(   12) = (   0.0819907   0.4253650   0.0000000), wk =   0.0277778
        k(   13) = (   0.0820071   0.5198874   0.0000000), wk =   0.0277778
        k(   14) = (   0.0818260  -0.5198589   0.0000000), wk =   0.0277778
        k(   15) = (   0.0818425  -0.4253365   0.0000000), wk =   0.0277778
        k(   16) = (   0.0818590  -0.3308141   0.0000000), wk =   0.0277778
        k(   17) = (   0.0818754  -0.2362917   0.0000000), wk =   0.0277778
        k(   18) = (   0.0818919  -0.1417693   0.0000000), wk =   0.0277778
        k(   19) = (   0.0819084  -0.0472469   0.0000000), wk =   0.0277778
        k(   20) = (   0.1638496   0.0945509   0.0000000), wk =   0.0277778
        k(   21) = (   0.1638661   0.1890733   0.0000000), wk =   0.0277778
        k(   22) = (   0.1638826   0.2835957   0.0000000), wk =   0.0277778
        k(   23) = (   0.1638990   0.3781181   0.0000000), wk =   0.0277778
        k(   24) = (   0.1639155   0.4726405   0.0000000), wk =   0.0277778
        k(   25) = (   0.1639319   0.5671629   0.0000000), wk =   0.0277778
        k(   26) = (   0.1637508  -0.4725834   0.0000000), wk =   0.0277778
        k(   27) = (   0.1637673  -0.3780610   0.0000000), wk =   0.0277778
        k(   28) = (   0.1637838  -0.2835386   0.0000000), wk =   0.0277778
        k(   29) = (   0.1638002  -0.1890163   0.0000000), wk =   0.0277778
        k(   30) = (   0.1638167  -0.0944939   0.0000000), wk =   0.0277778
        k(   31) = (   0.1638332   0.0000285   0.0000000), wk =   0.0277778
        k(   32) = (   0.2457744   0.1418264   0.0000000), wk =   0.0277778
        k(   33) = (   0.2457909   0.2363488   0.0000000), wk =   0.0277778
        k(   34) = (   0.2458074   0.3308711   0.0000000), wk =   0.0277778
        k(   35) = (   0.2458238   0.4253935   0.0000000), wk =   0.0277778
        k(   36) = (   0.2458403   0.5199159   0.0000000), wk =   0.0277778
        k(   37) = (   0.2458568   0.6144383   0.0000000), wk =   0.0277778
        k(   38) = (   0.2456757  -0.4253080   0.0000000), wk =   0.0277778
        k(   39) = (   0.2456921  -0.3307856   0.0000000), wk =   0.0277778
        k(   40) = (   0.2457086  -0.2362632   0.0000000), wk =   0.0277778
        k(   41) = (   0.2457251  -0.1417408   0.0000000), wk =   0.0277778
        k(   42) = (   0.2457415  -0.0472184   0.0000000), wk =   0.0277778
        k(   43) = (   0.2457580   0.0473040   0.0000000), wk =   0.0277778
        k(   44) = (   0.3276993   0.1891018   0.0000000), wk =   0.0277778
        k(   45) = (   0.3277157   0.2836242   0.0000000), wk =   0.0277778
        k(   46) = (   0.3277322   0.3781466   0.0000000), wk =   0.0277778
        k(   47) = (   0.3277486   0.4726690   0.0000000), wk =   0.0277778
        k(   48) = (   0.3277651   0.5671914   0.0000000), wk =   0.0277778
        k(   49) = (   0.3277816   0.6617138   0.0000000), wk =   0.0277778
        k(   50) = (   0.3276005  -0.3780325   0.0000000), wk =   0.0277778
        k(   51) = (   0.3276169  -0.2835101   0.0000000), wk =   0.0277778
        k(   52) = (   0.3276334  -0.1889877   0.0000000), wk =   0.0277778
        k(   53) = (   0.3276499  -0.0944653   0.0000000), wk =   0.0277778
        k(   54) = (   0.3276663   0.0000570   0.0000000), wk =   0.0277778
        k(   55) = (   0.3276828   0.0945794   0.0000000), wk =   0.0277778
        k(   56) = (   0.4096241   0.2363773   0.0000000), wk =   0.0277778
        k(   57) = (   0.4096405   0.3308997   0.0000000), wk =   0.0277778
        k(   58) = (   0.4096570   0.4254221   0.0000000), wk =   0.0277778
        k(   59) = (   0.4096735   0.5199445   0.0000000), wk =   0.0277778
        k(   60) = (   0.4096899   0.6144668   0.0000000), wk =   0.0277778
        k(   61) = (   0.4097064   0.7089892   0.0000000), wk =   0.0277778
        k(   62) = (   0.4095253  -0.3307571   0.0000000), wk =   0.0277778
        k(   63) = (   0.4095418  -0.2362347   0.0000000), wk =   0.0277778
        k(   64) = (   0.4095582  -0.1417123   0.0000000), wk =   0.0277778
        k(   65) = (   0.4095747  -0.0471899   0.0000000), wk =   0.0277778
        k(   66) = (   0.4095911   0.0473325   0.0000000), wk =   0.0277778
        k(   67) = (   0.4096076   0.1418549   0.0000000), wk =   0.0277778
        k(   68) = (  -0.4915489  -0.2836527   0.0000000), wk =   0.0138889
        k(   69) = (  -0.4915324  -0.1891303   0.0000000), wk =   0.0277778
        k(   70) = (  -0.4915160  -0.0946080   0.0000000), wk =   0.0277778
        k(   71) = (  -0.4914995  -0.0000856   0.0000000), wk =   0.0277778
        k(   72) = (  -0.4914830   0.0944368   0.0000000), wk =   0.0277778
        k(   73) = (  -0.4914666   0.1889592   0.0000000), wk =   0.0277778
        k(   74) = (  -0.4916477  -0.8507871   0.0000000), wk =   0.0138889

     Dense  grid:   770153 G-vectors     FFT dimensions: (  60,  60, 576)

     Estimated max dynamical RAM per process >       5.60 GB

     Estimated total dynamical RAM >      11.19 GB

     Initial potential from superposition of free atoms

     starting charge   59.99840, renormalised to   60.00000

     negative rho (up, down):  1.964E-04 0.000E+00
     Starting wfcs are   40 randomized atomic wfcs

     total cpu time spent up to now is       64.0 secs

     Self-consistent Calculation

     iteration #  1     ecut=   240.00 Ry     beta= 0.70
     Davidson diagonalization with overlap
     ethr =  1.00E-02,  avg # of iterations =  2.0

     negative rho (up, down):  2.656E-06 0.000E+00

     total cpu time spent up to now is      191.5 secs

     total energy              =   -1375.12332992 Ry
     estimated scf accuracy    <       1.04760936 Ry

     iteration #  2     ecut=   240.00 Ry     beta= 0.70
     Davidson diagonalization with overlap
     c_bands:  1 eigenvalues not converged
     ethr =  1.75E-03,  avg # of iterations =  7.3

     negative rho (up, down):  6.188E-08 0.000E+00

     total cpu time spent up to now is      358.1 secs

     total energy              =   -1374.71750428 Ry
     estimated scf accuracy    <       5.40974838 Ry

     iteration #  3     ecut=   240.00 Ry     beta= 0.70
     Davidson diagonalization with overlap
     ethr =  1.75E-03,  avg # of iterations =  4.8

     total cpu time spent up to now is      508.3 secs

     total energy              =   -1375.66846283 Ry
     estimated scf accuracy    <       0.22873380 Ry

     iteration #  4     ecut=   240.00 Ry     beta= 0.70
     Davidson diagonalization with overlap
     ethr =  3.81E-04,  avg # of iterations =  2.4

     negative rho (up, down):  1.340E-07 0.000E+00

     total cpu time spent up to now is      634.5 secs

     total energy              =   -1375.69767550 Ry
     estimated scf accuracy    <       0.02261617 Ry

     iteration #  5     ecut=   240.00 Ry     beta= 0.70
     Davidson diagonalization with overlap
     c_bands:  1 eigenvalues not converged
     ethr =  3.77E-05,  avg # of iterations = 12.3

     negative rho (up, down):  9.956E-07 0.000E+00

     total cpu time spent up to now is      808.6 secs

     total energy              =   -1375.69305331 Ry
     estimated scf accuracy    <       0.09145608 Ry

     iteration #  6     ecut=   240.00 Ry     beta= 0.70
     Davidson diagonalization with overlap
     ethr =  3.77E-05,  avg # of iterations = 10.3

     negative rho (up, down):  9.885E-06 0.000E+00

     total cpu time spent up to now is      952.5 secs

     total energy              =   -1375.69982110 Ry
     estimated scf accuracy    <       0.02364412 Ry

     iteration #  7     ecut=   240.00 Ry     beta= 0.70
     Davidson diagonalization with overlap
     ethr =  3.77E-05,  avg # of iterations =  2.6

     negative rho (up, down):  1.506E-05 0.000E+00

     total cpu time spent up to now is     1065.8 secs

     total energy              =   -1375.70141242 Ry
     estimated scf accuracy    <       0.00024929 Ry

     iteration #  8     ecut=   240.00 Ry     beta= 0.70
     Davidson diagonalization with overlap
     c_bands:  1 eigenvalues not converged
     c_bands:  1 eigenvalues not converged
     c_bands:  1 eigenvalues not converged
     c_bands:  1 eigenvalues not converged
     c_bands:  1 eigenvalues not converged
     ethr =  4.15E-07,  avg # of iterations = 11.1

     negative rho (up, down):  2.077E-05 0.000E+00

     total cpu time spent up to now is     1234.1 secs

     total energy              =   -1375.70148662 Ry
     estimated scf accuracy    <       0.00001977 Ry

     iteration #  9     ecut=   240.00 Ry     beta= 0.70
     Davidson diagonalization with overlap
     ethr =  3.29E-08,  avg # of iterations =  2.6

     negative rho (up, down):  2.132E-05 0.000E+00

     total cpu time spent up to now is     1355.8 secs

     total energy              =   -1375.70149013 Ry
     estimated scf accuracy    <       0.00000619 Ry

     iteration # 10     ecut=   240.00 Ry     beta= 0.70
     Davidson diagonalization with overlap
     ethr =  1.03E-08,  avg # of iterations =  2.0

     negative rho (up, down):  2.141E-05 0.000E+00

     total cpu time spent up to now is     1475.0 secs

     total energy              =   -1375.70149064 Ry
     estimated scf accuracy    <       0.00000120 Ry

     iteration # 11     ecut=   240.00 Ry     beta= 0.70
     Davidson diagonalization with overlap
     ethr =  2.00E-09,  avg # of iterations =  2.4

     negative rho (up, down):  2.141E-05 0.000E+00

     total cpu time spent up to now is     1609.0 secs

     total energy              =   -1375.70149082 Ry
     estimated scf accuracy    <       0.00000010 Ry

     iteration # 12     ecut=   240.00 Ry     beta= 0.70
     Davidson diagonalization with overlap
     ethr =  1.75E-10,  avg # of iterations =  3.2

     negative rho (up, down):  2.143E-05 0.000E+00

     total cpu time spent up to now is     1747.1 secs

     total energy              =   -1375.70149084 Ry
     estimated scf accuracy    <       0.00000004 Ry

     iteration # 13     ecut=   240.00 Ry     beta= 0.70
     Davidson diagonalization with overlap
     ethr =  5.94E-11,  avg # of iterations =  2.0

     negative rho (up, down):  2.145E-05 0.000E+00

     total cpu time spent up to now is     1865.2 secs

     total energy              =   -1375.70149084 Ry
     estimated scf accuracy    <          6.6E-09 Ry

     iteration # 14     ecut=   240.00 Ry     beta= 0.70
     Davidson diagonalization with overlap
     ethr =  1.11E-11,  avg # of iterations =  3.1

     negative rho (up, down):  2.146E-05 0.000E+00

     total cpu time spent up to now is     1988.2 secs

     total energy              =   -1375.70149084 Ry
     estimated scf accuracy    <          4.2E-10 Ry

     iteration # 15     ecut=   240.00 Ry     beta= 0.70
     Davidson diagonalization with overlap
     ethr =  7.07E-13,  avg # of iterations =  2.3

     negative rho (up, down):  2.146E-05 0.000E+00

     total cpu time spent up to now is     2120.3 secs

     total energy              =   -1375.70149084 Ry
     estimated scf accuracy    <          1.2E-10 Ry

     iteration # 16     ecut=   240.00 Ry     beta= 0.70
     Davidson diagonalization with overlap
     ethr =  2.02E-13,  avg # of iterations =  2.1

     negative rho (up, down):  2.146E-05 0.000E+00

     total cpu time spent up to now is     2237.6 secs

     total energy              =   -1375.70149084 Ry
     estimated scf accuracy    <          1.0E-10 Ry

     iteration # 17     ecut=   240.00 Ry     beta= 0.70
     Davidson diagonalization with overlap
     ethr =  1.70E-13,  avg # of iterations =  1.2

     negative rho (up, down):  2.146E-05 0.000E+00

     total cpu time spent up to now is     2344.9 secs

     total energy              =   -1375.70149084 Ry
     estimated scf accuracy    <          9.5E-12 Ry

     iteration # 18     ecut=   240.00 Ry     beta= 0.70
     Davidson diagonalization with overlap
     ethr =  1.00E-13,  avg # of iterations =  1.9

     negative rho (up, down):  2.146E-05 0.000E+00

     total cpu time spent up to now is     2457.0 secs

     total energy              =   -1375.70149084 Ry
     estimated scf accuracy    <          2.6E-12 Ry

     iteration # 19     ecut=   240.00 Ry     beta= 0.70
     Davidson diagonalization with overlap
     ethr =  1.00E-13,  avg # of iterations =  1.0

     negative rho (up, down):  2.146E-05 0.000E+00

     total cpu time spent up to now is     2562.7 secs

     End of self-consistent calculation

          k = 0.0000 0.0000 0.0000 ( 95961 PWs)   bands (ev):

   -67.6110 -67.5795 -34.5972 -34.1139 -33.6992 -33.6977 -33.6591 -33.6588
   -19.2561 -19.2421 -19.2230 -19.2225 -19.2223 -19.2221 -19.2012 -19.2011
   -19.1999 -19.1993 -19.1987 -19.1926 -19.1186 -19.1179 -12.8529  -8.3507
    -5.2548  -3.4726  -3.2162  -3.2014  -1.2330   0.3196   0.3395   2.4917
     2.5035   2.9055   2.9383   3.4874

          k = 0.0000 0.0945 0.0000 ( 95994 PWs)   bands (ev):

   -67.6065 -67.5759 -34.5824 -34.1127 -33.7581 -33.7163 -33.7158 -33.6684
   -19.2545 -19.2414 -19.2240 -19.2226 -19.2223 -19.2210 -19.2033 -19.2013
   -19.2000 -19.1992 -19.1953 -19.1893 -19.1220 -19.1214 -12.7136  -8.1321
    -5.3198  -3.5508  -3.3886  -3.1603  -1.0614  -0.0552   0.5498   1.8791
     2.1878   2.9303   3.3022   4.1844

          k = 0.0000 0.1890 0.0000 ( 96166 PWs)   bands (ev):

   -67.5941 -67.5662 -34.5422 -34.1165 -33.9137 -33.8667 -33.7606 -33.6965
   -19.2503 -19.2398 -19.2280 -19.2228 -19.2220 -19.2171 -19.2084 -19.2020
   -19.2014 -19.1976 -19.1856 -19.1804 -19.1311 -19.1306 -12.3436  -7.5533
    -5.4871  -4.0332  -3.4650  -3.0959  -1.0089  -0.4084   1.1335   1.3100
     2.0982   2.7904   3.6420   4.9607

          k = 0.0000 0.2836 0.0000 ( 96236 PWs)   bands (ev):

   -67.5769 -67.5532 -34.4925 -34.1942 -34.0668 -34.0416 -33.8183 -33.7372
   -19.2470 -19.2369 -19.2331 -19.2239 -19.2217 -19.2135 -19.2130 -19.2039
   -19.2010 -19.1947 -19.1723 -19.1681 -19.1432 -19.1420 -11.8703  -6.9304
    -5.6162  -4.4653  -3.5643  -3.1177  -1.6551   0.3116   1.1536   1.8933
     2.5019   2.6844   3.7586   5.5425

          k = 0.0001 0.3781 0.0000 ( 96300 PWs)   bands (ev):

   -67.5590 -67.5406 -34.4799 -34.3743 -34.2122 -34.0710 -33.8739 -33.7791
   -19.2475 -19.2377 -19.2325 -19.2258 -19.2250 -19.2133 -19.2118 -19.2047
   -19.1983 -19.1913 -19.1587 -19.1556 -19.1546 -19.1519 -11.4461  -6.8499
    -5.3718  -4.6848  -3.6245  -3.2344  -1.9182   1.1166   1.4877   2.0737
     2.6882   3.7811   3.9158   6.0532

          k = 0.0001 0.4726 0.0000 ( 96308 PWs)   bands (ev):

   -67.5453 -67.5321 -34.5602 -34.4953 -34.2405 -34.0838 -33.9137 -33.8101
   -19.2493 -19.2400 -19.2333 -19.2276 -19.2256 -19.2131 -19.2106 -19.2047
   -19.1949 -19.1884 -19.1624 -19.1582 -19.1484 -19.1465 -11.1751  -7.0603
    -5.1830  -4.7670  -3.4532  -3.3571  -1.8314   1.5219   1.7914   2.1382
     3.1450   4.3195   5.1293   6.1967

          k =-0.0001-0.5671 0.0000 ( 96366 PWs)   bands (ev):

   -67.5400 -67.5292 -34.6073 -34.5378 -34.2304 -34.0914 -33.9281 -33.8214
   -19.2502 -19.2405 -19.2351 -19.2283 -19.2249 -19.2140 -19.2089 -19.2048
   -19.1935 -19.1873 -19.1652 -19.1603 -19.1445 -19.1433 -11.0856  -7.1574
    -5.1752  -4.7931  -3.4072  -3.2808  -1.7692   1.4153   2.0587   2.3149
     3.2030   4.7973   5.7629   6.3429

          k = 0.0819 0.0473 0.0000 ( 95974 PWs)   bands (ev):

   -67.6065 -67.5759 -34.5823 -34.1128 -33.7592 -33.7159 -33.7152 -33.6685
   -19.2544 -19.2414 -19.2242 -19.2227 -19.2224 -19.2207 -19.2032 -19.2014
   -19.2007 -19.1986 -19.1953 -19.1894 -19.1220 -19.1214 -12.7134  -8.1318
    -5.3178  -3.5469  -3.3852  -3.1737  -1.0628  -0.0389   0.5335   1.8789
     2.1866   2.9624   3.2866   4.1708

          k = 0.0819 0.1418 0.0000 ( 96108 PWs)   bands (ev):

   -67.5980 -67.5693 -34.5547 -34.1134 -33.8557 -33.8330 -33.7357 -33.6967
   -19.2513 -19.2404 -19.2262 -19.2244 -19.2211 -19.2183 -19.2065 -19.2021
   -19.2014 -19.1979 -19.1887 -19.1832 -19.1283 -19.1278 -12.4584  -7.7275
    -5.4295  -3.8035  -3.6599  -2.9878  -0.7503  -0.6293   0.8725   1.6535
     1.8061   2.9997   3.5724   4.8338

          k = 0.0820 0.2363 0.0000 ( 96205 PWs)   bands (ev):

   -67.5832 -67.5579 -34.5088 -34.1401 -34.0116 -33.9915 -33.7954 -33.7403
   -19.2467 -19.2388 -19.2305 -19.2257 -19.2203 -19.2145 -19.2116 -19.2033
   -19.2016 -19.1960 -19.1772 -19.1726 -19.1388 -19.1384 -12.0355  -7.0692
    -5.5908  -4.3090  -3.8490  -2.7948  -1.3676  -0.1430   0.7437   1.9405
     2.2366   2.7780   3.9446   5.3454

          k = 0.0820 0.3308 0.0000 ( 96266 PWs)   bands (ev):

   -67.5656 -67.5452 -34.4710 -34.2833 -34.1623 -34.0644 -33.8651 -33.7884
   -19.2450 -19.2353 -19.2349 -19.2274 -19.2213 -19.2148 -19.2118 -19.2047
   -19.1994 -19.1933 -19.1638 -19.1603 -19.1507 -19.1492 -11.5862  -6.6415
    -5.5395  -4.6352  -4.0062  -2.8074  -1.8142   0.5101   0.8130   2.1934
     2.8457   3.4097   4.0770   5.9459

          k = 0.0820 0.4254 0.0000 ( 96329 PWs)   bands (ev):

   -67.5498 -67.5347 -34.5053 -34.4341 -34.2358 -34.0826 -33.9224 -33.8304
   -19.2466 -19.2385 -19.2326 -19.2275 -19.2247 -19.2137 -19.2119 -19.2048
   -19.1962 -19.1905 -19.1607 -19.1576 -19.1517 -19.1494 -11.2416  -6.7894
    -5.1708  -4.7566  -4.0129  -3.0090  -1.8171   0.8262   1.5705   2.0191
     3.6581   3.9491   4.7820   6.2968

          k = 0.0820 0.5199 0.0000 ( 96296 PWs)   bands (ev):

   -67.5400 -67.5292 -34.5782 -34.5108 -34.2279 -34.0977 -33.9539 -33.8549
   -19.2482 -19.2396 -19.2340 -19.2283 -19.2243 -19.2143 -19.2102 -19.2047
   -19.1943 -19.1886 -19.1661 -19.1619 -19.1446 -19.1433 -11.0653  -6.9719
    -5.0877  -4.7600  -3.7747  -3.2364  -1.6598   1.1844   1.6766   2.2610
     3.9729   4.4365   5.7498   6.2767

          k = 0.0818-0.5199 0.0000 ( 96290 PWs)   bands (ev):

   -67.5400 -67.5292 -34.5780 -34.5106 -34.2280 -34.0977 -33.9540 -33.8549
   -19.2482 -19.2397 -19.2339 -19.2284 -19.2244 -19.2143 -19.2103 -19.2047
   -19.1943 -19.1885 -19.1661 -19.1619 -19.1446 -19.1433 -11.0655  -6.9716
    -5.0876  -4.7599  -3.7709  -3.2409  -1.6592   1.1849   1.6766   2.2615
     3.9718   4.4371   5.7496   6.2769

          k = 0.0818-0.4253 0.0000 ( 96328 PWs)   bands (ev):

   -67.5498 -67.5347 -34.5049 -34.4337 -34.2357 -34.0827 -33.9227 -33.8305
   -19.2466 -19.2384 -19.2324 -19.2276 -19.2248 -19.2135 -19.2124 -19.2047
   -19.1961 -19.1905 -19.1607 -19.1576 -19.1517 -19.1494 -11.2421  -6.7888
    -5.1717  -4.7553  -4.0079  -3.0148  -1.8160   0.8268   1.5743   2.0170
     3.6536   3.9485   4.7808   6.2950

          k = 0.0819-0.3308 0.0000 ( 96257 PWs)   bands (ev):

   -67.5657 -67.5452 -34.4710 -34.2826 -34.1617 -34.0644 -33.8657 -33.7885
   -19.2450 -19.2352 -19.2349 -19.2273 -19.2213 -19.2148 -19.2122 -19.2046
   -19.1993 -19.1933 -19.1638 -19.1602 -19.1508 -19.1492 -11.5868  -6.6413
    -5.5410  -4.6328  -4.0022  -2.8105  -1.8139   0.5072   0.8191   2.1923
     2.8395   3.4078   4.0761   5.9482

          k = 0.0819-0.2363 0.0000 ( 96191 PWs)   bands (ev):

   -67.5832 -67.5579 -34.5089 -34.1396 -34.0115 -33.9906 -33.7960 -33.7405
   -19.2468 -19.2388 -19.2305 -19.2256 -19.2201 -19.2148 -19.2117 -19.2031
   -19.2014 -19.1961 -19.1772 -19.1725 -19.1388 -19.1384 -12.0359  -7.0695
    -5.5926  -4.3067  -3.8465  -2.7933  -1.3694  -0.1412   0.7408   1.9412
     2.2382   2.7723   3.9402   5.3505

          k = 0.0819-0.1418 0.0000 ( 96110 PWs)   bands (ev):

   -67.5981 -67.5693 -34.5548 -34.1133 -33.8548 -33.8327 -33.7364 -33.6968
   -19.2514 -19.2404 -19.2263 -19.2243 -19.2209 -19.2186 -19.2066 -19.2019
   -19.2011 -19.1982 -19.1887 -19.1832 -19.1283 -19.1278 -12.4587  -7.7279
    -5.4314  -3.8039  -3.6580  -2.9830  -0.7489  -0.6340   0.8750   1.6480
     1.8103   2.9965   3.5662   4.8426

          k = 0.0819-0.0472 0.0000 ( 95982 PWs)   bands (ev):

   -67.6065 -67.5759 -34.5823 -34.1128 -33.7586 -33.7160 -33.7155 -33.6685
   -19.2544 -19.2414 -19.2241 -19.2226 -19.2224 -19.2208 -19.2033 -19.2013
   -19.2004 -19.1989 -19.1953 -19.1893 -19.1220 -19.1214 -12.7135  -8.1320
    -5.3186  -3.5486  -3.3868  -3.1677  -1.0622  -0.0463   0.5410   1.8789
     2.1873   2.9485   3.2928   4.1770

          k = 0.1638 0.0946 0.0000 ( 96185 PWs)   bands (ev):

   -67.5940 -67.5662 -34.5419 -34.1169 -33.9149 -33.8671 -33.7601 -33.6966
   -19.2500 -19.2398 -19.2282 -19.2226 -19.2225 -19.2168 -19.2082 -19.2026
   -19.2017 -19.1970 -19.1856 -19.1804 -19.1311 -19.1306 -12.3429  -7.5523
    -5.4794  -4.0346  -3.4702  -3.1109  -1.0093  -0.3970   1.1208   1.3215
     2.0946   2.8199   3.6311   4.9508

          k = 0.1639 0.1891 0.0000 ( 96199 PWs)   bands (ev):

   -67.5831 -67.5579 -34.5086 -34.1404 -34.0127 -33.9909 -33.7956 -33.7404
   -19.2464 -19.2389 -19.2306 -19.2256 -19.2205 -19.2143 -19.2115 -19.2036
   -19.2017 -19.1958 -19.1772 -19.1726 -19.1388 -19.1383 -12.0349  -7.0682
    -5.5851  -4.3124  -3.8539  -2.8029  -1.3670  -0.1380   0.7510   1.9370
     2.2380   2.7866   3.9422   5.3401

          k = 0.1639 0.2836 0.0000 ( 96276 PWs)   bands (ev):

   -67.5679 -67.5468 -34.4708 -34.2271 -34.1482 -34.0558 -33.8611 -33.8161
   -19.2410 -19.2387 -19.2331 -19.2291 -19.2197 -19.2146 -19.2128 -19.2048
   -19.1996 -19.1943 -19.1656 -19.1620 -19.1492 -19.1489 -11.6350  -6.4251
    -5.6903  -4.6298  -4.2208  -2.5249  -1.6904   0.0607   0.4341   2.2176
     3.0407   3.2028   4.4849   5.7346

          k = 0.1639 0.3781 0.0000 ( 96297 PWs)   bands (ev):

   -67.5522 -67.5362 -34.4659 -34.3529 -34.2294 -34.0822 -33.9451 -33.8863
   -19.2411 -19.2356 -19.2347 -19.2298 -19.2221 -19.2152 -19.2130 -19.2052
   -19.1963 -19.1931 -19.1601 -19.1589 -19.1536 -19.1510 -11.2676  -6.2100
    -5.4663  -4.8013  -4.3832  -2.6460  -1.6839  -0.1875   1.2095   2.1697
     3.6381   4.2118   4.8802   6.3406

          k = 0.1639 0.4726 0.0000 ( 96279 PWs)   bands (ev):

   -67.5399 -67.5292 -34.5108 -34.4430 -34.2273 -34.1175 -34.0033 -33.9352
   -19.2434 -19.2366 -19.2335 -19.2271 -19.2242 -19.2156 -19.2131 -19.2044
   -19.1953 -19.1917 -19.1677 -19.1653 -19.1449 -19.1434 -11.0241  -6.4519
    -4.9280  -4.8661  -4.4034  -3.0257  -1.4535   0.0248   1.9798   2.3108
     3.8268   4.5346   5.4231   6.3571

          k = 0.1639 0.5672 0.0000 ( 96340 PWs)   bands (ev):

   -67.5350 -67.5271 -34.5379 -34.4721 -34.2095 -34.1444 -34.0195 -33.9534
   -19.2444 -19.2369 -19.2322 -19.2294 -19.2224 -19.2162 -19.2125 -19.2042
   -19.1954 -19.1909 -19.1705 -19.1675 -19.1416 -19.1406 -10.9410  -6.5621
    -4.8972  -4.7263  -4.3081  -3.2763  -1.3139   0.2285   2.2189   2.4624
     4.0583   4.4472   5.5835   6.1201

          k = 0.1638-0.4726 0.0000 ( 96274 PWs)   bands (ev):

   -67.5400 -67.5292 -34.5101 -34.4424 -34.2273 -34.1179 -34.0038 -33.9351
   -19.2433 -19.2366 -19.2332 -19.2273 -19.2244 -19.2156 -19.2133 -19.2044
   -19.1952 -19.1916 -19.1678 -19.1653 -19.1449 -19.1433 -11.0248  -6.4508
    -4.9310  -4.8630  -4.3985  -3.0306  -1.4523   0.0254   1.9838   2.3074
     3.8291   4.5248   5.4244   6.3577

          k = 0.1638-0.3781 0.0000 ( 96293 PWs)   bands (ev):

   -67.5523 -67.5362 -34.4653 -34.3516 -34.2292 -34.0824 -33.9460 -33.8864
   -19.2410 -19.2355 -19.2345 -19.2301 -19.2221 -19.2151 -19.2135 -19.2050
   -19.1961 -19.1931 -19.1601 -19.1589 -19.1536 -19.1510 -11.2686  -6.2089
    -5.4689  -4.7970  -4.3785  -2.6508  -1.6818  -0.1895   1.2151   2.1646
     3.6364   4.2048   4.8755   6.3442

          k = 0.1638-0.2835 0.0000 ( 96248 PWs)   bands (ev):

   -67.5680 -67.5468 -34.4707 -34.2257 -34.1477 -34.0557 -33.8619 -33.8164
   -19.2411 -19.2385 -19.2331 -19.2292 -19.2195 -19.2149 -19.2132 -19.2045
   -19.1993 -19.1944 -19.1656 -19.1619 -19.1492 -19.1489 -11.6359  -6.4258
    -5.6933  -4.6247  -4.2161  -2.5243  -1.6902   0.0529   0.4401   2.2144
     3.0350   3.2007   4.4781   5.7435

          k = 0.1638-0.1890 0.0000 ( 96189 PWs)   bands (ev):

   -67.5832 -67.5579 -34.5088 -34.1398 -34.0117 -33.9905 -33.7961 -33.7406
   -19.2466 -19.2389 -19.2306 -19.2256 -19.2203 -19.2147 -19.2117 -19.2033
   -19.2015 -19.1960 -19.1772 -19.1725 -19.1388 -19.1383 -12.0356  -7.0691
    -5.5893  -4.3086  -3.8491  -2.7978  -1.3691  -0.1383   0.7448   1.9393
     2.2389   2.7772   3.9385   5.3477

          k = 0.1638-0.0945 0.0000 ( 96172 PWs)   bands (ev):

   -67.5941 -67.5662 -34.5420 -34.1168 -33.9141 -33.8669 -33.7604 -33.6967
   -19.2502 -19.2398 -19.2282 -19.2226 -19.2223 -19.2170 -19.2084 -19.2023
   -19.2015 -19.1973 -19.1856 -19.1804 -19.1311 -19.1306 -12.3432  -7.5529
    -5.4826  -4.0341  -3.4677  -3.1044  -1.0093  -0.4019   1.1266   1.3164
     2.0963   2.8070   3.6352   4.9553

          k = 0.1638 0.0000 0.0000 ( 96104 PWs)   bands (ev):

   -67.5980 -67.5692 -34.5546 -34.1136 -33.8565 -33.8331 -33.7351 -33.6967
   -19.2513 -19.2403 -19.2263 -19.2245 -19.2211 -19.2182 -19.2065 -19.2022
   -19.2014 -19.1976 -19.1887 -19.1833 -19.1283 -19.1278 -12.4581  -7.7272
    -5.4267  -3.8032  -3.6621  -2.9941  -0.7520  -0.6237   0.8697   1.6614
     1.8008   3.0029   3.5802   4.8220

          k = 0.2458 0.1418 0.0000 ( 96230 PWs)   bands (ev):

   -67.5767 -67.5531 -34.4921 -34.1954 -34.0685 -34.0414 -33.8182 -33.7375
   -19.2465 -19.2370 -19.2333 -19.2236 -19.2223 -19.2134 -19.2125 -19.2046
   -19.2013 -19.1944 -19.1723 -19.1681 -19.1432 -19.1418 -11.8687  -6.9276
    -5.6045  -4.4755  -3.5740  -3.1345  -1.6531   0.3212   1.1723   1.8883
     2.5284   2.6776   3.7510   5.5337

          k = 0.2458 0.2363 0.0000 ( 96259 PWs)   bands (ev):

   -67.5654 -67.5451 -34.4709 -34.2841 -34.1626 -34.0647 -33.8656 -33.7886
   -19.2446 -19.2356 -19.2346 -19.2273 -19.2215 -19.2148 -19.2119 -19.2052
   -19.1996 -19.1931 -19.1638 -19.1603 -19.1508 -19.1490 -11.5849  -6.6368
    -5.5333  -4.6438  -4.0127  -2.8238  -1.8128   0.5277   0.8217   2.2037
     2.8461   3.4040   4.0790   5.9360

          k = 0.2458 0.3309 0.0000 ( 96311 PWs)   bands (ev):

   -67.5521 -67.5362 -34.4662 -34.3535 -34.2290 -34.0823 -33.9458 -33.8861
   -19.2412 -19.2353 -19.2342 -19.2302 -19.2222 -19.2149 -19.2134 -19.2055
   -19.1964 -19.1930 -19.1601 -19.1588 -19.1536 -19.1510 -11.2668  -6.2039
    -5.4712  -4.8025  -4.3860  -2.6556  -1.6843  -0.1762   1.2145   2.1741
     3.6381   4.2094   4.8829   6.3353

          k = 0.2458 0.4254 0.0000 ( 96326 PWs)   bands (ev):

   -67.5398 -67.5292 -34.4726 -34.3883 -34.2495 -34.1156 -34.0344 -33.9845
   -19.2407 -19.2344 -19.2305 -19.2297 -19.2245 -19.2161 -19.2146 -19.2044
   -19.1948 -19.1943 -19.1682 -19.1673 -19.1451 -19.1434 -11.0027  -5.7680
    -5.6044  -4.7457  -4.5328  -2.8582  -1.2598  -0.5966   1.9005   2.4539
     3.6699   4.5720   5.2456   6.6398

          k = 0.2458 0.5199 0.0000 ( 96340 PWs)   bands (ev):

   -67.5318 -67.5261 -34.4639 -34.3990 -34.2520 -34.1837 -34.0666 -34.0418
   -19.2417 -19.2319 -19.2305 -19.2282 -19.2228 -19.2183 -19.2159 -19.2025
   -19.1966 -19.1945 -19.1732 -19.1720 -19.1399 -19.1392 -10.8553  -5.9397
    -5.1443  -4.7277  -4.6205  -3.1523  -0.9457  -0.4715   2.5595   2.7678
     3.5033   4.1698   5.1627   6.3217

          k = 0.2459 0.6144 0.0000 ( 96326 PWs)   bands (ev):

   -67.5318 -67.5261 -34.4631 -34.3984 -34.2520 -34.1844 -34.0678 -34.0408
   -19.2416 -19.2317 -19.2305 -19.2283 -19.2231 -19.2183 -19.2158 -19.2025
   -19.1966 -19.1944 -19.1733 -19.1720 -19.1399 -19.1391 -10.8558  -5.9385
    -5.1444  -4.7277  -4.6184  -3.1539  -0.9452  -0.4715   2.5625   2.7637
     3.5071   4.1619   5.1632   6.3208

          k = 0.2457-0.4253 0.0000 ( 96326 PWs)   bands (ev):

   -67.5399 -67.5292 -34.4715 -34.3865 -34.2501 -34.1162 -34.0354 -33.9842
   -19.2404 -19.2343 -19.2306 -19.2301 -19.2246 -19.2163 -19.2146 -19.2042
   -19.1949 -19.1941 -19.1682 -19.1673 -19.1451 -19.1434 -11.0039  -5.7660
    -5.6048  -4.7437  -4.5287  -2.8609  -1.2572  -0.5998   1.9040   2.4475
     3.6727   4.5588   5.2454   6.6360

          k = 0.2457-0.3308 0.0000 ( 96303 PWs)   bands (ev):

   -67.5522 -67.5362 -34.4655 -34.3518 -34.2291 -34.0824 -33.9464 -33.8864
   -19.2409 -19.2355 -19.2342 -19.2302 -19.2222 -19.2150 -19.2137 -19.2052
   -19.1962 -19.1930 -19.1601 -19.1589 -19.1536 -19.1509 -11.2682  -6.2059
    -5.4713  -4.7976  -4.3802  -2.6558  -1.6818  -0.1833   1.2177   2.1670
     3.6364   4.2034   4.8771   6.3410

          k = 0.2457-0.2363 0.0000 ( 96263 PWs)   bands (ev):

   -67.5656 -67.5451 -34.4709 -34.2830 -34.1619 -34.0645 -33.8660 -33.7888
   -19.2447 -19.2354 -19.2349 -19.2272 -19.2214 -19.2149 -19.2122 -19.2048
   -19.1993 -19.1932 -19.1638 -19.1602 -19.1507 -19.1491 -11.5861  -6.6391
    -5.5373  -4.6377  -4.0058  -2.8194  -1.8129   0.5171   0.8236   2.1979
     2.8397   3.4046   4.0770   5.9428

          k = 0.2457-0.1417 0.0000 ( 96220 PWs)   bands (ev):

   -67.5767 -67.5532 -34.4923 -34.1950 -34.0675 -34.0416 -33.8183 -33.7375
   -19.2467 -19.2369 -19.2333 -19.2237 -19.2220 -19.2136 -19.2128 -19.2042
   -19.2011 -19.1946 -19.1723 -19.1681 -19.1431 -19.1419 -11.8694  -6.9293
    -5.6093  -4.4711  -3.5693  -3.1273  -1.6538   0.3170   1.1638   1.8907
     2.5167   2.6806   3.7538   5.5377

          k = 0.2457-0.0472 0.0000 ( 96213 PWs)   bands (ev):

   -67.5831 -67.5579 -34.5085 -34.1410 -34.0120 -33.9921 -33.7949 -33.7403
   -19.2465 -19.2388 -19.2307 -19.2257 -19.2204 -19.2143 -19.2116 -19.2036
   -19.2017 -19.1958 -19.1772 -19.1726 -19.1388 -19.1383 -12.0347  -7.0685
    -5.5848  -4.3142  -3.8544  -2.8016  -1.3649  -0.1429   0.7518   1.9380
     2.2361   2.7895   3.9485   5.3357

          k = 0.2458 0.0473 0.0000 ( 96207 PWs)   bands (ev):

   -67.5831 -67.5579 -34.5085 -34.1410 -34.0129 -33.9916 -33.7949 -33.7403
   -19.2464 -19.2389 -19.2307 -19.2257 -19.2205 -19.2142 -19.2115 -19.2038
   -19.2018 -19.1957 -19.1772 -19.1726 -19.1388 -19.1383 -12.0344  -7.0679
    -5.5824  -4.3156  -3.8566  -2.8052  -1.3648  -0.1408   0.7551   1.9364
     2.2368   2.7932   3.9478   5.3332

          k = 0.3277 0.1891 0.0000 ( 96332 PWs)   bands (ev):

   -67.5587 -67.5406 -34.4806 -34.3759 -34.2118 -34.0720 -33.8742 -33.7795
   -19.2472 -19.2376 -19.2322 -19.2256 -19.2254 -19.2137 -19.2115 -19.2055
   -19.1985 -19.1911 -19.1587 -19.1557 -19.1545 -19.1516 -11.4436  -6.8445
    -5.3632  -4.6978  -3.6364  -3.2525  -1.9164   1.1361   1.5054   2.0958
     2.6847   3.7783   3.9103   6.0451

          k = 0.3277 0.2836 0.0000 ( 96318 PWs)   bands (ev):

   -67.5494 -67.5346 -34.5063 -34.4356 -34.2342 -34.0837 -33.9231 -33.8308
   -19.2465 -19.2382 -19.2319 -19.2275 -19.2251 -19.2136 -19.2125 -19.2055
   -19.1962 -19.1903 -19.1607 -19.1574 -19.1517 -19.1494 -11.2394  -6.7842
    -5.1663  -4.7676  -4.0200  -3.0283  -1.8149   0.8497   1.5810   2.0331
     3.6565   3.9495   4.7816   6.2859

          k = 0.3277 0.3781 0.0000 ( 96286 PWs)   bands (ev):

   -67.5396 -67.5292 -34.5119 -34.4446 -34.2255 -34.1179 -34.0047 -33.9349
   -19.2439 -19.2359 -19.2329 -19.2269 -19.2247 -19.2154 -19.2137 -19.2050
   -19.1953 -19.1915 -19.1678 -19.1650 -19.1449 -19.1434 -11.0221  -6.4485
    -4.9345  -4.8683  -4.4059  -3.0376  -1.4541   0.0397   1.9904   2.3208
     3.8286   4.5301   5.4243   6.3674

          k = 0.3277 0.4727 0.0000 ( 96331 PWs)   bands (ev):

   -67.5316 -67.5262 -34.4651 -34.4005 -34.2512 -34.1821 -34.0681 -34.0411
   -19.2420 -19.2317 -19.2297 -19.2281 -19.2233 -19.2181 -19.2161 -19.2028
   -19.1968 -19.1943 -19.1733 -19.1718 -19.1399 -19.1392 -10.8541  -5.9392
    -5.1484  -4.7326  -4.6169  -3.1565  -0.9491  -0.4634   2.5684   2.7726
     3.5022   4.1697   5.1613   6.3235

          k = 0.3278 0.5672 0.0000 ( 96294 PWs)   bands (ev):

   -67.5270 -67.5267 -34.3854 -34.3446 -34.3438 -34.2327 -34.0831 -34.0806
   -19.2414 -19.2296 -19.2295 -19.2230 -19.2226 -19.2211 -19.2200 -19.1994
   -19.1978 -19.1975 -19.1750 -19.1749 -19.1379 -19.1379 -10.7905  -5.4408
    -5.4371  -4.9152  -4.5612  -3.1830  -0.6384  -0.6331   2.9581   2.9596
     3.4963   3.5038   4.8877   6.6789

          k = 0.3278 0.6617 0.0000 ( 96322 PWs)   bands (ev):

   -67.5317 -67.5262 -34.4639 -34.3989 -34.2518 -34.1836 -34.0684 -34.0406
   -19.2417 -19.2316 -19.2301 -19.2283 -19.2234 -19.2183 -19.2159 -19.2026
   -19.1967 -19.1942 -19.1733 -19.1719 -19.1399 -19.1391 -10.8551  -5.9385
    -5.1466  -4.7302  -4.6168  -3.1559  -0.9471  -0.4671   2.5673   2.7661
     3.5064   4.1622   5.1625   6.3209

          k = 0.3276-0.3780 0.0000 ( 96282 PWs)   bands (ev):

   -67.5398 -67.5292 -34.5108 -34.4429 -34.2265 -34.1180 -34.0046 -33.9351
   -19.2435 -19.2363 -19.2329 -19.2272 -19.2246 -19.2155 -19.2136 -19.2047
   -19.1953 -19.1915 -19.1677 -19.1651 -19.1449 -19.1433 -11.0237  -6.4493
    -4.9345  -4.8642  -4.4002  -3.0366  -1.4524   0.0334   1.9893   2.3128
     3.8303   4.5223   5.4250   6.3626

          k = 0.3276-0.2835 0.0000 ( 96319 PWs)   bands (ev):

   -67.5496 -67.5347 -34.5056 -34.4342 -34.2350 -34.0832 -33.9232 -33.8308
   -19.2464 -19.2384 -19.2320 -19.2276 -19.2250 -19.2136 -19.2126 -19.2051
   -19.1961 -19.1903 -19.1607 -19.1575 -19.1517 -19.1493 -11.2409  -6.7864
    -5.1691  -4.7615  -4.0118  -3.0250  -1.8144   0.8397   1.5795   2.0248
     3.6526   3.9489   4.7805   6.2881

          k = 0.3276-0.1890 0.0000 ( 96316 PWs)   bands (ev):

   -67.5589 -67.5406 -34.4803 -34.3750 -34.2121 -34.0715 -33.8742 -33.7794
   -19.2472 -19.2377 -19.2324 -19.2257 -19.2252 -19.2136 -19.2117 -19.2051
   -19.1984 -19.1912 -19.1587 -19.1556 -19.1545 -19.1517 -11.4447  -6.8475
    -5.3668  -4.6922  -3.6304  -3.2447  -1.9168   1.1277   1.4967   2.0860
     2.6862   3.7795   3.9125   6.0481

          k = 0.3276-0.0945 0.0000 ( 96250 PWs)   bands (ev):

   -67.5655 -67.5451 -34.4710 -34.2845 -34.1628 -34.0645 -33.8649 -33.7884
   -19.2447 -19.2354 -19.2349 -19.2274 -19.2213 -19.2148 -19.2117 -19.2050
   -19.1996 -19.1931 -19.1638 -19.1603 -19.1507 -19.1491 -11.5848  -6.6397
    -5.5340  -4.6432  -4.0140  -2.8134  -1.8136   0.5236   0.8096   2.2010
     2.8539   3.4094   4.0784   5.9375

          k = 0.3277 0.0001 0.0000 ( 96280 PWs)   bands (ev):

   -67.5678 -67.5468 -34.4707 -34.2289 -34.1485 -34.0560 -33.8603 -33.8158
   -19.2407 -19.2388 -19.2334 -19.2290 -19.2198 -19.2146 -19.2126 -19.2049
   -19.1998 -19.1942 -19.1657 -19.1620 -19.1491 -19.1488 -11.6338  -6.4246
    -5.6865  -4.6366  -4.2260  -2.5264  -1.6907   0.0706   0.4260   2.2221
     3.0476   3.2065   4.4928   5.7229

          k = 0.3277 0.0946 0.0000 ( 96245 PWs)   bands (ev):

   -67.5654 -67.5451 -34.4710 -34.2849 -34.1629 -34.0648 -33.8651 -33.7884
   -19.2446 -19.2356 -19.2346 -19.2274 -19.2214 -19.2147 -19.2117 -19.2052
   -19.1997 -19.1931 -19.1638 -19.1603 -19.1507 -19.1490 -11.5842  -6.6371
    -5.5315  -4.6470  -4.0169  -2.8209  -1.8132   0.5313   0.8139   2.2057
     2.8541   3.4069   4.0795   5.9331

          k = 0.4096 0.2364 0.0000 ( 96322 PWs)   bands (ev):

   -67.5449 -67.5320 -34.5620 -34.4975 -34.2375 -34.0859 -33.9143 -33.8107
   -19.2493 -19.2398 -19.2329 -19.2273 -19.2258 -19.2131 -19.2113 -19.2055
   -19.1949 -19.1883 -19.1624 -19.1578 -19.1484 -19.1465 -11.1718  -7.0566
    -5.1780  -4.7797  -3.4640  -3.3758  -1.8282   1.5324   1.8290   2.1540
     3.1359   4.3233   5.1303   6.1881

          k = 0.4096 0.3309 0.0000 ( 96283 PWs)   bands (ev):

   -67.5395 -67.5292 -34.5799 -34.5131 -34.2244 -34.1000 -33.9547 -33.8553
   -19.2484 -19.2392 -19.2336 -19.2281 -19.2244 -19.2143 -19.2110 -19.2055
   -19.1942 -19.1885 -19.1661 -19.1615 -19.1446 -19.1433 -11.0620  -6.9692
    -5.0851  -4.7716  -3.7839  -3.2514  -1.6576   1.2052   1.6869   2.2809
     3.9745   4.4373   5.7568   6.2754

          k = 0.4097 0.4254 0.0000 ( 96330 PWs)   bands (ev):

   -67.5346 -67.5271 -34.5399 -34.4746 -34.2059 -34.1455 -34.0209 -33.9531
   -19.2450 -19.2360 -19.2321 -19.2291 -19.2223 -19.2161 -19.2131 -19.2049
   -19.1954 -19.1908 -19.1705 -19.1671 -19.1415 -19.1407 -10.9379  -6.5615
    -4.8991  -4.7356  -4.3130  -3.2834  -1.3155   0.2416   2.2285   2.4796
     4.0533   4.4559   5.5795   6.1271

          k = 0.4097 0.5199 0.0000 ( 96333 PWs)   bands (ev):

   -67.5315 -67.5262 -34.4659 -34.4014 -34.2502 -34.1820 -34.0674 -34.0416
   -19.2421 -19.2319 -19.2296 -19.2280 -19.2230 -19.2180 -19.2163 -19.2029
   -19.1967 -19.1944 -19.1733 -19.1718 -19.1399 -19.1392 -10.8534  -5.9410
    -5.1483  -4.7332  -4.6190  -3.1546  -0.9501  -0.4636   2.5642   2.7787
     3.4972   4.1790   5.1619   6.3252

          k = 0.4097 0.6145 0.0000 ( 96328 PWs)   bands (ev):

   -67.5316 -67.5262 -34.4654 -34.4004 -34.2507 -34.1827 -34.0666 -34.0421
   -19.2419 -19.2320 -19.2300 -19.2280 -19.2228 -19.2182 -19.2162 -19.2027
   -19.1966 -19.1945 -19.1732 -19.1719 -19.1399 -19.1392 -10.8539  -5.9415
    -5.1464  -4.7308  -4.6210  -3.1524  -0.9485  -0.4674   2.5603   2.7763
     3.4976   4.1793   5.1626   6.3233

          k = 0.4097 0.7090 0.0000 ( 96338 PWs)   bands (ev):

   -67.5348 -67.5271 -34.5391 -34.4731 -34.2077 -34.1450 -34.0203 -33.9534
   -19.2446 -19.2365 -19.2322 -19.2293 -19.2223 -19.2162 -19.2128 -19.2046
   -19.1954 -19.1908 -19.1705 -19.1673 -19.1415 -19.1406 -10.9392  -6.5623
    -4.8980  -4.7317  -4.3112  -3.2795  -1.3145   0.2354   2.2236   2.4720
     4.0552   4.4524   5.5815   6.1233

          k = 0.4095-0.3308 0.0000 ( 96288 PWs)   bands (ev):

   -67.5397 -67.5292 -34.5791 -34.5116 -34.2262 -34.0989 -33.9545 -33.8552
   -19.2481 -19.2395 -19.2337 -19.2283 -19.2244 -19.2144 -19.2108 -19.2051
   -19.1943 -19.1884 -19.1661 -19.1617 -19.1446 -19.1433 -11.0636  -6.9707
    -5.0861  -4.7666  -3.7763  -3.2482  -1.6575   1.1962   1.6816   2.2725
     3.9724   4.4376   5.7535   6.2756

          k = 0.4095-0.2362 0.0000 ( 96328 PWs)   bands (ev):

   -67.5451 -67.5321 -34.5613 -34.4962 -34.2390 -34.0849 -33.9141 -33.8105
   -19.2492 -19.2400 -19.2331 -19.2274 -19.2256 -19.2132 -19.2110 -19.2051
   -19.1949 -19.1883 -19.1624 -19.1580 -19.1484 -19.1465 -11.1732  -7.0588
    -5.1802  -4.7743  -3.4585  -3.3676  -1.8292   1.5270   1.8126   2.1465
     3.1394   4.3218   5.1298   6.1912

          k = 0.4096-0.1417 0.0000 ( 96334 PWs)   bands (ev):

   -67.5495 -67.5347 -34.5064 -34.4351 -34.2350 -34.0832 -33.9225 -33.8306
   -19.2465 -19.2384 -19.2325 -19.2274 -19.2247 -19.2138 -19.2120 -19.2052
   -19.1963 -19.1904 -19.1606 -19.1575 -19.1517 -19.1494 -11.2397  -6.7878
    -5.1671  -4.7646  -4.0221  -3.0134  -1.8170   0.8381   1.5707   2.0303
     3.6621   3.9497   4.7838   6.2927

          k = 0.4096-0.0472 0.0000 ( 96319 PWs)   bands (ev):

   -67.5520 -67.5362 -34.4668 -34.3547 -34.2290 -34.0823 -33.9447 -33.8860
   -19.2411 -19.2356 -19.2345 -19.2297 -19.2220 -19.2151 -19.2130 -19.2055
   -19.1965 -19.1930 -19.1601 -19.1589 -19.1536 -19.1510 -11.2658  -6.2083
    -5.4662  -4.8071  -4.3901  -2.6459  -1.6873  -0.1789   1.2046   2.1796
     3.6400   4.2194   4.8876   6.3331

          k = 0.4096 0.0473 0.0000 ( 96311 PWs)   bands (ev):

   -67.5520 -67.5362 -34.4669 -34.3551 -34.2288 -34.0824 -33.9451 -33.8858
   -19.2413 -19.2355 -19.2342 -19.2299 -19.2221 -19.2150 -19.2132 -19.2056
   -19.1966 -19.1930 -19.1601 -19.1588 -19.1536 -19.1510 -11.2654  -6.2052
    -5.4686  -4.8077  -4.3913  -2.6505  -1.6876  -0.1737   1.2069   2.1817
     3.6400   4.2184   4.8887   6.3311

          k = 0.4096 0.1419 0.0000 ( 96324 PWs)   bands (ev):

   -67.5494 -67.5346 -34.5068 -34.4361 -34.2341 -34.0838 -33.9228 -33.8307
   -19.2465 -19.2383 -19.2321 -19.2275 -19.2248 -19.2137 -19.2123 -19.2055
   -19.1963 -19.1904 -19.1607 -19.1574 -19.1517 -19.1494 -11.2387  -6.7850
    -5.1652  -4.7694  -4.0253  -3.0225  -1.8164   0.8487   1.5761   2.0365
     3.6617   3.9498   4.7836   6.2886

          k =-0.4915-0.2837 0.0000 ( 96342 PWs)   bands (ev):

   -67.5395 -67.5292 -34.6092 -34.5405 -34.2263 -34.0943 -33.9288 -33.8221
   -19.2503 -19.2401 -19.2348 -19.2281 -19.2249 -19.2140 -19.2097 -19.2057
   -19.1934 -19.1872 -19.1652 -19.1599 -19.1444 -19.1433 -11.0818  -7.1548
    -5.1720  -4.8055  -3.4262  -3.2906  -1.7651   1.4263   2.0956   2.3334
     3.1930   4.7995   5.7720   6.3354

          k =-0.4915-0.1891 0.0000 ( 96297 PWs)   bands (ev):

   -67.5395 -67.5292 -34.5801 -34.5133 -34.2242 -34.1001 -33.9545 -33.8553
   -19.2484 -19.2392 -19.2338 -19.2280 -19.2243 -19.2143 -19.2110 -19.2055
   -19.1943 -19.1885 -19.1661 -19.1615 -19.1446 -19.1433 -11.0617  -6.9696
    -5.0852  -4.7718  -3.7878  -3.2470  -1.6584   1.2044   1.6871   2.2802
     3.9756   4.4362   5.7573   6.2773

          k =-0.4915-0.0946 0.0000 ( 96283 PWs)   bands (ev):

   -67.5396 -67.5292 -34.5127 -34.4455 -34.2249 -34.1180 -34.0043 -33.9348
   -19.2439 -19.2360 -19.2333 -19.2266 -19.2245 -19.2153 -19.2136 -19.2051
   -19.1954 -19.1916 -19.1677 -19.1650 -19.1449 -19.1434 -11.0212  -6.4500
    -4.9313  -4.8719  -4.4113  -3.0323  -1.4559   0.0387   1.9850   2.3259
     3.8251   4.5413   5.4240   6.3676

          k =-0.4915-0.0001 0.0000 ( 96338 PWs)   bands (ev):

   -67.5396 -67.5292 -34.4740 -34.3904 -34.2480 -34.1155 -34.0338 -33.9844
   -19.2410 -19.2347 -19.2301 -19.2296 -19.2244 -19.2158 -19.2147 -19.2046
   -19.1948 -19.1945 -19.1681 -19.1672 -19.1450 -19.1434 -11.0010  -5.7713
    -5.6038  -4.7479  -4.5380  -2.8548  -1.2642  -0.5926   1.8953   2.4630
     3.6660   4.5876   5.2477   6.6443

          k =-0.4915 0.0944 0.0000 ( 96295 PWs)   bands (ev):

   -67.5397 -67.5292 -34.5123 -34.4444 -34.2260 -34.1177 -34.0036 -33.9350
   -19.2436 -19.2364 -19.2335 -19.2267 -19.2242 -19.2155 -19.2133 -19.2048
   -19.1954 -19.1917 -19.1677 -19.1651 -19.1449 -19.1434 -11.0220  -6.4519
    -4.9282  -4.8709  -4.4105  -3.0263  -1.4554   0.0318   1.9799   2.3213
     3.8245   4.5434   5.4235   6.3623

          k =-0.4915 0.1890 0.0000 ( 96306 PWs)   bands (ev):

   -67.5397 -67.5292 -34.5794 -34.5119 -34.2260 -34.0989 -33.9542 -33.8551
   -19.2482 -19.2395 -19.2340 -19.2281 -19.2243 -19.2144 -19.2106 -19.2051
   -19.1943 -19.1885 -19.1661 -19.1617 -19.1446 -19.1433 -11.0631  -6.9714
    -5.0863  -4.7669  -3.7839  -3.2394  -1.6590   1.1949   1.6818   2.2713
     3.9746   4.4359   5.7543   6.2765

          k =-0.4916-0.8508 0.0000 ( 96350 PWs)   bands (ev):

   -67.5397 -67.5292 -34.6084 -34.5389 -34.2283 -34.0929 -33.9286 -33.8219
   -19.2501 -19.2404 -19.2350 -19.2282 -19.2248 -19.2140 -19.2094 -19.2053
   -19.1935 -19.1872 -19.1652 -19.1600 -19.1445 -19.1432 -11.0834  -7.1566
    -5.1734  -4.8002  -3.4182  -3.2851  -1.7665   1.4206   2.0797   2.3243
     3.1969   4.7985   5.7681   6.3383

     the Fermi energy is     0.8296 ev

!    total energy              =   -1375.70149084 Ry
     estimated scf accuracy    <          5.7E-13 Ry
     smearing contrib. (-TS)   =      -0.00000369 Ry
     internal energy E=F+TS    =   -1375.70148715 Ry

     The total energy is F=E-TS. E is the sum of the following terms:
     one-electron contribution =  -11616.53448197 Ry
     hartree contribution      =    5838.41448126 Ry
     xc contribution           =    -140.31299716 Ry
     ewald contribution        =    4542.73151073 Ry

     convergence has been achieved in  19 iterations

     negative rho (up, down):  2.146E-05 0.000E+00

     Forces acting on atoms (cartesian axes, Ry/au):

     atom    1 type  2   force =    -0.00045445    0.00025786   -0.00000141
     atom    2 type  1   force =     0.00003908    0.00027369   -0.00018766
     atom    3 type  1   force =     0.00009873   -0.00034938    0.00018833
     atom    4 type  3   force =     0.00026917   -0.00055448   -0.00005985
     atom    5 type  3   force =     0.00004746    0.00037231    0.00006060

     Total force =     0.001039     Total SCF correction =     0.000008


     Computing stress (Cartesian axis) and pressure


     negative rho (up, down):  2.146E-05 0.000E+00
          total   stress  (Ry/bohr**3)                   (kbar)     P=        0.21
   0.00000065   0.00000012   0.00000076            0.10        0.02        0.11
   0.00000012   0.00000343  -0.00000378            0.02        0.50       -0.56
   0.00000076  -0.00000378   0.00000015            0.11       -0.56        0.02


     Writing output data file /scratch/as3359/Ta2CH2-VCrelax/Ta.save/
 
     init_run     :    118.42s CPU     63.77s WALL (       1 calls)
     electrons    :   4912.06s CPU   2498.82s WALL (       1 calls)
     forces       :     30.00s CPU     15.44s WALL (       1 calls)
     stress       :    152.67s CPU     78.07s WALL (       1 calls)

     Called by init_run:
     wfcinit      :     98.07s CPU     50.04s WALL (       1 calls)
     potinit      :      5.99s CPU      3.03s WALL (       1 calls)
     hinit0       :     10.45s CPU      8.05s WALL (       1 calls)

     Called by electrons:
     c_bands      :   3965.50s CPU   2004.94s WALL (      19 calls)
     sum_band     :    866.82s CPU    445.77s WALL (      19 calls)
     v_of_rho     :     13.23s CPU      7.11s WALL (      20 calls)
     newd         :     65.22s CPU     40.49s WALL (      20 calls)
     mix_rho      :      4.59s CPU      2.47s WALL (      19 calls)

     Called by c_bands:
     init_us_2    :     79.64s CPU     39.87s WALL (    3034 calls)
     cegterg      :   3736.48s CPU   1889.46s WALL (    1406 calls)

     Called by *egterg:
     cdiaghg      :     16.00s CPU      8.20s WALL (    7057 calls)
     h_psi        :   3196.43s CPU   1618.98s WALL (    7131 calls)
     s_psi        :    127.26s CPU     63.67s WALL (    7131 calls)
     g_psi        :     14.60s CPU      7.32s WALL (    5651 calls)

     Called by h_psi:
     h_psi:calbec :     95.02s CPU     47.67s WALL (    7131 calls)
     vloc_psi     :   2948.49s CPU   1494.65s WALL (    7131 calls)
     add_vuspsi   :    130.48s CPU     65.29s WALL (    7131 calls)

     General routines
     calbec       :    131.62s CPU     66.05s WALL (    8907 calls)
     fft          :      9.40s CPU      4.80s WALL (     245 calls)
     ffts         :      0.51s CPU      0.26s WALL (      19 calls)
     fftw         :   2853.63s CPU   1450.36s WALL (  303012 calls)
 
     Parallel routines
 
     PWSCF        :      1h27m CPU  44m25.64s WALL

 
   This run was terminated on:  22: 2:11   7Apr2022            

=------------------------------------------------------------------------------=
   JOB DONE.
=------------------------------------------------------------------------------=
