
     Program PWSCF v.6.8 starts on  7Apr2022 at 20:39:53 

     This program is part of the open-source Quantum ESPRESSO suite
     for quantum simulation of materials; please cite
         "P. Giannozzi et al., J. Phys.:Condens. Matter 21 395502 (2009);
         "P. Giannozzi et al., J. Phys.:Condens. Matter 29 465901 (2017);
         "P. Giannozzi et al., J. Chem. Phys. 152 154105 (2020);
          URL http://www.quantum-espresso.org", 
     in publications or presentations arising from this work. More details at
     http://www.quantum-espresso.org/quote

     Parallel version (MPI & OpenMP), running on       4 processor cores
     Number of MPI processes:                 2
     Threads/MPI process:                     2

     MPI processes distributed on     1 nodes
     R & G space division:  proc/nbgrp/npool/nimage =       2
     122133 MiB available memory on the printing compute node when the environment starts
 
     Reading input from Ta2CH2.scf.220.in

     Current dimensions of program PWSCF are:
     Max number of different atomic species (ntypx) = 10
     Max number of k-points (npk) =  40000
     Max angular momentum in pseudopotentials (lmaxx) =  4
     file Ta.pbesol-spfn-rrkjus_psl.1.0.0.UPF: wavefunction(s)  5S 5P renormalized

     Subspace diagonalization in iterative solution of the eigenvalue problem:
     a serial algorithm will be used

 
     Parallelization info
     --------------------
     sticks:   dense  smooth     PW     G-vecs:    dense   smooth      PW
     Min         972     972    279               338090   338090   52513
     Max         973     973    280               338111   338111   52542
     Sum        1945    1945    559               676201   676201  105055
 
     Using Slab Decomposition
 


     bravais-lattice index     =            0
     lattice parameter (alat)  =       5.5500  a.u.
     unit-cell volume          =    1533.2393 (a.u.)^3
     number of atoms/cell      =            5
     number of atomic types    =            3
     number of electrons       =        60.00
     number of Kohn-Sham states=           36
     kinetic-energy cutoff     =     220.0000  Ry
     charge density cutoff     =     880.0000  Ry
     scf convergence threshold =      1.0E-12
     mixing beta               =       0.7000
     number of iterations used =            8  plain     mixing
     Exchange-correlation= PBESOL
                           (   1   4  10   8   0   0   0)

     celldm(1)=   5.550000  celldm(2)=   0.000000  celldm(3)=   0.000000
     celldm(4)=   0.000000  celldm(5)=   0.000000  celldm(6)=   0.000000

     crystal axes: (cart. coord. in units of alat)
               a(1) = (   1.017295  -0.000177   0.000000 )  
               a(2) = (  -0.508801   0.881714   0.000000 )  
               a(3) = (   0.000000   0.000000  10.000000 )  

     reciprocal axes: (cart. coord. in units 2 pi/alat)
               b(1) = (  0.983098  0.567305  0.000000 )  
               b(2) = (  0.000198  1.134269  0.000000 )  
               b(3) = (  0.000000  0.000000  0.100000 )  


     PseudoPot. # 1 for Ta read from file:
     /shared/home/as3359/pseudo/Ta.pbesol-spfn-rrkjus_psl.1.0.0.UPF
     MD5 check sum: f099565ffaca9b150a52e9412a28e20b
     Pseudo is Ultrasoft + core correction, Zval = 27.0
     Generated using &quot;atomic&quot; code by A. Dal Corso  v.6.3
     Using radial grid of 1273 points,  8 beta functions with: 
                l(1) =   0
                l(2) =   0
                l(3) =   1
                l(4) =   1
                l(5) =   2
                l(6) =   2
                l(7) =   3
                l(8) =   3
     Q(r) pseudized with 0 coefficients 


     PseudoPot. # 2 for C  read from file:
     /shared/home/as3359/pseudo/C.pbesol-n-rrkjus_psl.1.0.0.UPF
     MD5 check sum: 05995be603a8a7c99da3dc4413f31573
     Pseudo is Ultrasoft + core correction, Zval =  4.0
     Generated using &quot;atomic&quot; code by A. Dal Corso  v.6.3MaX
     Using radial grid of 1073 points,  4 beta functions with: 
                l(1) =   0
                l(2) =   0
                l(3) =   1
                l(4) =   1
     Q(r) pseudized with 0 coefficients 


     PseudoPot. # 3 for H  read from file:
     /shared/home/as3359/pseudo/H.pbesol-rrkjus_psl.0.1.UPF
     MD5 check sum: 1dbb1a5c48b1283557b8117eb856a7ca
     Pseudo is Ultrasoft, Zval =  1.0
     Generated using "atomic" code by A. Dal Corso  v.5.0.2 svn rev. 9415
     Using radial grid of  929 points,  2 beta functions with: 
                l(1) =   0
                l(2) =   0
     Q(r) pseudized with 0 coefficients 


     atomic species   valence    mass     pseudopotential
        Ta            27.00   180.94788     Ta( 1.00)
        C              4.00    12.01070     C ( 1.00)
        H              1.00     1.00000     H ( 1.00)

     No symmetry found



   Cartesian axes

     site n.     atom                  positions (alat units)
         1           C   tau(   1) = (   0.0000000   0.0000000   0.0000000  )
         2           Ta  tau(   2) = (   0.5088008   0.2948413  -0.4364511  )
         3           Ta  tau(   3) = (  -0.0007447   0.5869407   0.4364532  )
         4           H   tau(   4) = (  -0.0017928  -0.0015314   0.8341930  )
         5           H   tau(   5) = (   0.0002769   0.0024412  -0.8341930  )

     number of k points=    74  Marzari-Vanderbilt smearing, width (Ry)=  0.0010
                       cart. coord. in units 2pi/alat
        k(    1) = (   0.0000000   0.0000000   0.0000000), wk =   0.0138889
        k(    2) = (   0.0000165   0.0945224   0.0000000), wk =   0.0277778
        k(    3) = (   0.0000329   0.1890448   0.0000000), wk =   0.0277778
        k(    4) = (   0.0000494   0.2835672   0.0000000), wk =   0.0277778
        k(    5) = (   0.0000659   0.3780896   0.0000000), wk =   0.0277778
        k(    6) = (   0.0000823   0.4726120   0.0000000), wk =   0.0277778
        k(    7) = (  -0.0000988  -0.5671343   0.0000000), wk =   0.0138889
        k(    8) = (   0.0819248   0.0472755   0.0000000), wk =   0.0277778
        k(    9) = (   0.0819413   0.1417978   0.0000000), wk =   0.0277778
        k(   10) = (   0.0819577   0.2363202   0.0000000), wk =   0.0277778
        k(   11) = (   0.0819742   0.3308426   0.0000000), wk =   0.0277778
        k(   12) = (   0.0819907   0.4253650   0.0000000), wk =   0.0277778
        k(   13) = (   0.0820071   0.5198874   0.0000000), wk =   0.0277778
        k(   14) = (   0.0818260  -0.5198589   0.0000000), wk =   0.0277778
        k(   15) = (   0.0818425  -0.4253365   0.0000000), wk =   0.0277778
        k(   16) = (   0.0818590  -0.3308141   0.0000000), wk =   0.0277778
        k(   17) = (   0.0818754  -0.2362917   0.0000000), wk =   0.0277778
        k(   18) = (   0.0818919  -0.1417693   0.0000000), wk =   0.0277778
        k(   19) = (   0.0819084  -0.0472469   0.0000000), wk =   0.0277778
        k(   20) = (   0.1638496   0.0945509   0.0000000), wk =   0.0277778
        k(   21) = (   0.1638661   0.1890733   0.0000000), wk =   0.0277778
        k(   22) = (   0.1638826   0.2835957   0.0000000), wk =   0.0277778
        k(   23) = (   0.1638990   0.3781181   0.0000000), wk =   0.0277778
        k(   24) = (   0.1639155   0.4726405   0.0000000), wk =   0.0277778
        k(   25) = (   0.1639319   0.5671629   0.0000000), wk =   0.0277778
        k(   26) = (   0.1637508  -0.4725834   0.0000000), wk =   0.0277778
        k(   27) = (   0.1637673  -0.3780610   0.0000000), wk =   0.0277778
        k(   28) = (   0.1637838  -0.2835386   0.0000000), wk =   0.0277778
        k(   29) = (   0.1638002  -0.1890163   0.0000000), wk =   0.0277778
        k(   30) = (   0.1638167  -0.0944939   0.0000000), wk =   0.0277778
        k(   31) = (   0.1638332   0.0000285   0.0000000), wk =   0.0277778
        k(   32) = (   0.2457744   0.1418264   0.0000000), wk =   0.0277778
        k(   33) = (   0.2457909   0.2363488   0.0000000), wk =   0.0277778
        k(   34) = (   0.2458074   0.3308711   0.0000000), wk =   0.0277778
        k(   35) = (   0.2458238   0.4253935   0.0000000), wk =   0.0277778
        k(   36) = (   0.2458403   0.5199159   0.0000000), wk =   0.0277778
        k(   37) = (   0.2458568   0.6144383   0.0000000), wk =   0.0277778
        k(   38) = (   0.2456757  -0.4253080   0.0000000), wk =   0.0277778
        k(   39) = (   0.2456921  -0.3307856   0.0000000), wk =   0.0277778
        k(   40) = (   0.2457086  -0.2362632   0.0000000), wk =   0.0277778
        k(   41) = (   0.2457251  -0.1417408   0.0000000), wk =   0.0277778
        k(   42) = (   0.2457415  -0.0472184   0.0000000), wk =   0.0277778
        k(   43) = (   0.2457580   0.0473040   0.0000000), wk =   0.0277778
        k(   44) = (   0.3276993   0.1891018   0.0000000), wk =   0.0277778
        k(   45) = (   0.3277157   0.2836242   0.0000000), wk =   0.0277778
        k(   46) = (   0.3277322   0.3781466   0.0000000), wk =   0.0277778
        k(   47) = (   0.3277486   0.4726690   0.0000000), wk =   0.0277778
        k(   48) = (   0.3277651   0.5671914   0.0000000), wk =   0.0277778
        k(   49) = (   0.3277816   0.6617138   0.0000000), wk =   0.0277778
        k(   50) = (   0.3276005  -0.3780325   0.0000000), wk =   0.0277778
        k(   51) = (   0.3276169  -0.2835101   0.0000000), wk =   0.0277778
        k(   52) = (   0.3276334  -0.1889877   0.0000000), wk =   0.0277778
        k(   53) = (   0.3276499  -0.0944653   0.0000000), wk =   0.0277778
        k(   54) = (   0.3276663   0.0000570   0.0000000), wk =   0.0277778
        k(   55) = (   0.3276828   0.0945794   0.0000000), wk =   0.0277778
        k(   56) = (   0.4096241   0.2363773   0.0000000), wk =   0.0277778
        k(   57) = (   0.4096405   0.3308997   0.0000000), wk =   0.0277778
        k(   58) = (   0.4096570   0.4254221   0.0000000), wk =   0.0277778
        k(   59) = (   0.4096735   0.5199445   0.0000000), wk =   0.0277778
        k(   60) = (   0.4096899   0.6144668   0.0000000), wk =   0.0277778
        k(   61) = (   0.4097064   0.7089892   0.0000000), wk =   0.0277778
        k(   62) = (   0.4095253  -0.3307571   0.0000000), wk =   0.0277778
        k(   63) = (   0.4095418  -0.2362347   0.0000000), wk =   0.0277778
        k(   64) = (   0.4095582  -0.1417123   0.0000000), wk =   0.0277778
        k(   65) = (   0.4095747  -0.0471899   0.0000000), wk =   0.0277778
        k(   66) = (   0.4095911   0.0473325   0.0000000), wk =   0.0277778
        k(   67) = (   0.4096076   0.1418549   0.0000000), wk =   0.0277778
        k(   68) = (  -0.4915489  -0.2836527   0.0000000), wk =   0.0138889
        k(   69) = (  -0.4915324  -0.1891303   0.0000000), wk =   0.0277778
        k(   70) = (  -0.4915160  -0.0946080   0.0000000), wk =   0.0277778
        k(   71) = (  -0.4914995  -0.0000856   0.0000000), wk =   0.0277778
        k(   72) = (  -0.4914830   0.0944368   0.0000000), wk =   0.0277778
        k(   73) = (  -0.4914666   0.1889592   0.0000000), wk =   0.0277778
        k(   74) = (  -0.4916477  -0.8507871   0.0000000), wk =   0.0138889

     Dense  grid:   676201 G-vectors     FFT dimensions: (  54,  54, 540)

     Estimated max dynamical RAM per process >       4.91 GB

     Estimated total dynamical RAM >       9.81 GB

     Initial potential from superposition of free atoms

     starting charge   59.99840, renormalised to   60.00000

     negative rho (up, down):  4.857E-05 0.000E+00
     Starting wfcs are   40 randomized atomic wfcs

     total cpu time spent up to now is       52.1 secs

     Self-consistent Calculation

     iteration #  1     ecut=   220.00 Ry     beta= 0.70
     Davidson diagonalization with overlap
     ethr =  1.00E-02,  avg # of iterations =  2.0

     negative rho (up, down):  1.177E-06 0.000E+00

     total cpu time spent up to now is      157.5 secs

     total energy              =   -1375.12265826 Ry
     estimated scf accuracy    <       1.04835246 Ry

     iteration #  2     ecut=   220.00 Ry     beta= 0.70
     Davidson diagonalization with overlap
     ethr =  1.75E-03,  avg # of iterations =  7.2

     negative rho (up, down):  3.662E-07 0.000E+00

     total cpu time spent up to now is      296.0 secs

     total energy              =   -1374.71705703 Ry
     estimated scf accuracy    <       5.41422062 Ry

     iteration #  3     ecut=   220.00 Ry     beta= 0.70
     Davidson diagonalization with overlap
     ethr =  1.75E-03,  avg # of iterations =  4.7

     negative rho (up, down):  9.420E-07 0.000E+00

     total cpu time spent up to now is      420.3 secs

     total energy              =   -1375.66824495 Ry
     estimated scf accuracy    <       0.22850606 Ry

     iteration #  4     ecut=   220.00 Ry     beta= 0.70
     Davidson diagonalization with overlap
     ethr =  3.81E-04,  avg # of iterations =  2.4

     negative rho (up, down):  6.504E-06 0.000E+00

     total cpu time spent up to now is      527.4 secs

     total energy              =   -1375.69710621 Ry
     estimated scf accuracy    <       0.02383496 Ry

     iteration #  5     ecut=   220.00 Ry     beta= 0.70
     Davidson diagonalization with overlap
     c_bands:  1 eigenvalues not converged
     ethr =  3.97E-05,  avg # of iterations = 12.3

     negative rho (up, down):  9.389E-06 0.000E+00

     total cpu time spent up to now is      683.4 secs

     total energy              =   -1375.68750342 Ry
     estimated scf accuracy    <       0.20583232 Ry

     iteration #  6     ecut=   220.00 Ry     beta= 0.70
     Davidson diagonalization with overlap
     ethr =  3.97E-05,  avg # of iterations = 11.2

     negative rho (up, down):  1.704E-05 0.000E+00

     total cpu time spent up to now is      815.2 secs

     total energy              =   -1375.70039170 Ry
     estimated scf accuracy    <       0.01131917 Ry

     iteration #  7     ecut=   220.00 Ry     beta= 0.70
     Davidson diagonalization with overlap
     ethr =  1.89E-05,  avg # of iterations =  3.6

     negative rho (up, down):  2.240E-05 0.000E+00

     total cpu time spent up to now is      914.5 secs

     total energy              =   -1375.70138387 Ry
     estimated scf accuracy    <       0.00023998 Ry

     iteration #  8     ecut=   220.00 Ry     beta= 0.70
     Davidson diagonalization with overlap
     ethr =  4.00E-07,  avg # of iterations =  9.5

     negative rho (up, down):  2.713E-05 0.000E+00

     total cpu time spent up to now is     1058.6 secs

     total energy              =   -1375.70144892 Ry
     estimated scf accuracy    <       0.00001648 Ry

     iteration #  9     ecut=   220.00 Ry     beta= 0.70
     Davidson diagonalization with overlap
     ethr =  2.75E-08,  avg # of iterations =  2.9

     negative rho (up, down):  2.743E-05 0.000E+00

     total cpu time spent up to now is     1163.1 secs

     total energy              =   -1375.70145140 Ry
     estimated scf accuracy    <       0.00000560 Ry

     iteration # 10     ecut=   220.00 Ry     beta= 0.70
     Davidson diagonalization with overlap
     ethr =  9.34E-09,  avg # of iterations =  2.0

     negative rho (up, down):  2.757E-05 0.000E+00

     total cpu time spent up to now is     1269.0 secs

     total energy              =   -1375.70145191 Ry
     estimated scf accuracy    <       0.00000056 Ry

     iteration # 11     ecut=   220.00 Ry     beta= 0.70
     Davidson diagonalization with overlap
     ethr =  9.38E-10,  avg # of iterations =  2.9

     negative rho (up, down):  2.757E-05 0.000E+00

     total cpu time spent up to now is     1373.5 secs

     total energy              =   -1375.70145203 Ry
     estimated scf accuracy    <       0.00000007 Ry

     iteration # 12     ecut=   220.00 Ry     beta= 0.70
     Davidson diagonalization with overlap
     ethr =  1.14E-10,  avg # of iterations =  2.7

     negative rho (up, down):  2.758E-05 0.000E+00

     total cpu time spent up to now is     1489.4 secs

     total energy              =   -1375.70145204 Ry
     estimated scf accuracy    <       0.00000003 Ry

     iteration # 13     ecut=   220.00 Ry     beta= 0.70
     Davidson diagonalization with overlap
     ethr =  5.31E-11,  avg # of iterations =  2.0

     negative rho (up, down):  2.759E-05 0.000E+00

     total cpu time spent up to now is     1589.8 secs

     total energy              =   -1375.70145204 Ry
     estimated scf accuracy    <          5.5E-09 Ry

     iteration # 14     ecut=   220.00 Ry     beta= 0.70
     Davidson diagonalization with overlap
     ethr =  9.22E-12,  avg # of iterations =  3.3

     negative rho (up, down):  2.760E-05 0.000E+00

     total cpu time spent up to now is     1695.6 secs

     total energy              =   -1375.70145204 Ry
     estimated scf accuracy    <          3.9E-10 Ry

     iteration # 15     ecut=   220.00 Ry     beta= 0.70
     Davidson diagonalization with overlap
     ethr =  6.47E-13,  avg # of iterations =  2.2

     negative rho (up, down):  2.760E-05 0.000E+00

     total cpu time spent up to now is     1809.3 secs

     total energy              =   -1375.70145204 Ry
     estimated scf accuracy    <          1.8E-10 Ry

     iteration # 16     ecut=   220.00 Ry     beta= 0.70
     Davidson diagonalization with overlap
     ethr =  3.07E-13,  avg # of iterations =  1.9

     negative rho (up, down):  2.760E-05 0.000E+00

     total cpu time spent up to now is     1904.4 secs

     total energy              =   -1375.70145204 Ry
     estimated scf accuracy    <          1.0E-10 Ry

     iteration # 17     ecut=   220.00 Ry     beta= 0.70
     Davidson diagonalization with overlap
     ethr =  1.72E-13,  avg # of iterations =  1.6

     negative rho (up, down):  2.760E-05 0.000E+00

     total cpu time spent up to now is     1995.6 secs

     total energy              =   -1375.70145204 Ry
     estimated scf accuracy    <          5.6E-12 Ry

     iteration # 18     ecut=   220.00 Ry     beta= 0.70
     Davidson diagonalization with overlap
     ethr =  1.00E-13,  avg # of iterations =  1.8

     negative rho (up, down):  2.760E-05 0.000E+00

     total cpu time spent up to now is     2090.3 secs

     total energy              =   -1375.70145204 Ry
     estimated scf accuracy    <          2.0E-12 Ry

     iteration # 19     ecut=   220.00 Ry     beta= 0.70
     Davidson diagonalization with overlap
     ethr =  1.00E-13,  avg # of iterations =  1.0

     negative rho (up, down):  2.760E-05 0.000E+00

     total cpu time spent up to now is     2179.1 secs

     End of self-consistent calculation

          k = 0.0000 0.0000 0.0000 ( 84553 PWs)   bands (ev):

   -67.6111 -67.5795 -34.5973 -34.1139 -33.6992 -33.6978 -33.6591 -33.6588
   -19.2563 -19.2422 -19.2231 -19.2226 -19.2224 -19.2223 -19.2013 -19.2012
   -19.2000 -19.1994 -19.1989 -19.1927 -19.1187 -19.1180 -12.8530  -8.3507
    -5.2548  -3.4726  -3.2163  -3.2014  -1.2331   0.3196   0.3395   2.4917
     2.5035   2.9054   2.9382   3.4873

          k = 0.0000 0.0945 0.0000 ( 84531 PWs)   bands (ev):

   -67.6065 -67.5759 -34.5824 -34.1127 -33.7581 -33.7163 -33.7158 -33.6684
   -19.2546 -19.2415 -19.2242 -19.2227 -19.2224 -19.2211 -19.2034 -19.2014
   -19.2002 -19.1993 -19.1954 -19.1894 -19.1222 -19.1215 -12.7136  -8.1321
    -5.3198  -3.5508  -3.3886  -3.1603  -1.0614  -0.0552   0.5498   1.8791
     2.1878   2.9302   3.3022   4.1843

          k = 0.0000 0.1890 0.0000 ( 84597 PWs)   bands (ev):

   -67.5941 -67.5662 -34.5422 -34.1165 -33.9137 -33.8667 -33.7606 -33.6965
   -19.2504 -19.2400 -19.2281 -19.2229 -19.2221 -19.2173 -19.2085 -19.2021
   -19.2016 -19.1977 -19.1857 -19.1805 -19.1312 -19.1307 -12.3437  -7.5534
    -5.4871  -4.0333  -3.4650  -3.0960  -1.0090  -0.4085   1.1335   1.3099
     2.0981   2.7904   3.6420   4.9584

          k = 0.0000 0.2836 0.0000 ( 84517 PWs)   bands (ev):

   -67.5769 -67.5532 -34.4925 -34.1942 -34.0668 -34.0416 -33.8183 -33.7373
   -19.2472 -19.2370 -19.2333 -19.2240 -19.2219 -19.2136 -19.2131 -19.2040
   -19.2011 -19.1949 -19.1724 -19.1682 -19.1433 -19.1421 -11.8703  -6.9305
    -5.6162  -4.4653  -3.5643  -3.1178  -1.6551   0.3115   1.1536   1.8932
     2.5019   2.6844   3.7586   5.5407

          k = 0.0001 0.3781 0.0000 ( 84483 PWs)   bands (ev):

   -67.5591 -67.5407 -34.4800 -34.3743 -34.2122 -34.0710 -33.8739 -33.7791
   -19.2476 -19.2378 -19.2327 -19.2259 -19.2252 -19.2135 -19.2119 -19.2048
   -19.1985 -19.1914 -19.1588 -19.1557 -19.1547 -19.1520 -11.4461  -6.8499
    -5.3718  -4.6849  -3.6245  -3.2344  -1.9183   1.1165   1.4877   2.0737
     2.6881   3.7811   3.9157   6.0532

          k = 0.0001 0.4726 0.0000 ( 84477 PWs)   bands (ev):

   -67.5454 -67.5321 -34.5602 -34.4953 -34.2405 -34.0838 -33.9137 -33.8101
   -19.2494 -19.2401 -19.2335 -19.2277 -19.2257 -19.2133 -19.2107 -19.2048
   -19.1951 -19.1885 -19.1626 -19.1583 -19.1485 -19.1466 -11.1752  -7.0603
    -5.1830  -4.7670  -3.4532  -3.3571  -1.8315   1.5218   1.7914   2.1382
     3.1450   4.3195   5.1293   6.1967

          k =-0.0001-0.5671 0.0000 ( 84478 PWs)   bands (ev):

   -67.5400 -67.5292 -34.6073 -34.5379 -34.2304 -34.0914 -33.9282 -33.8215
   -19.2503 -19.2406 -19.2352 -19.2285 -19.2250 -19.2141 -19.2090 -19.2049
   -19.1936 -19.1874 -19.1654 -19.1604 -19.1446 -19.1434 -11.0856  -7.1574
    -5.1752  -4.7931  -3.4073  -3.2808  -1.7693   1.4153   2.0587   2.3149
     3.2030   4.7973   5.7628   6.3428

          k = 0.0819 0.0473 0.0000 ( 84536 PWs)   bands (ev):

   -67.6065 -67.5759 -34.5823 -34.1128 -33.7593 -33.7159 -33.7152 -33.6685
   -19.2545 -19.2415 -19.2243 -19.2228 -19.2225 -19.2208 -19.2033 -19.2015
   -19.2008 -19.1987 -19.1954 -19.1895 -19.1222 -19.1215 -12.7134  -8.1318
    -5.3178  -3.5470  -3.3853  -3.1737  -1.0628  -0.0390   0.5335   1.8789
     2.1866   2.9624   3.2866   4.1708

          k = 0.0819 0.1418 0.0000 ( 84535 PWs)   bands (ev):

   -67.5980 -67.5693 -34.5547 -34.1134 -33.8557 -33.8330 -33.7358 -33.6967
   -19.2515 -19.2405 -19.2263 -19.2246 -19.2212 -19.2184 -19.2066 -19.2022
   -19.2015 -19.1980 -19.1888 -19.1833 -19.1284 -19.1279 -12.4584  -7.7275
    -5.4295  -3.8036  -3.6599  -2.9878  -0.7503  -0.6293   0.8725   1.6535
     1.8061   2.9997   3.5723   4.8334

          k = 0.0820 0.2363 0.0000 ( 84543 PWs)   bands (ev):

   -67.5832 -67.5579 -34.5088 -34.1401 -34.0116 -33.9915 -33.7954 -33.7403
   -19.2469 -19.2389 -19.2307 -19.2258 -19.2204 -19.2146 -19.2117 -19.2035
   -19.2017 -19.1961 -19.1773 -19.1727 -19.1389 -19.1385 -12.0355  -7.0692
    -5.5908  -4.3091  -3.8491  -2.7948  -1.3676  -0.1430   0.7437   1.9405
     2.2365   2.7780   3.9446   5.3438

          k = 0.0820 0.3308 0.0000 ( 84479 PWs)   bands (ev):

   -67.5656 -67.5452 -34.4710 -34.2833 -34.1623 -34.0644 -33.8651 -33.7884
   -19.2452 -19.2354 -19.2351 -19.2275 -19.2214 -19.2149 -19.2120 -19.2048
   -19.1995 -19.1934 -19.1639 -19.1604 -19.1509 -19.1493 -11.5863  -6.6416
    -5.5395  -4.6353  -4.0062  -2.8074  -1.8142   0.5101   0.8129   2.1934
     2.8457   3.4096   4.0770   5.9450

          k = 0.0820 0.4254 0.0000 ( 84503 PWs)   bands (ev):

   -67.5498 -67.5347 -34.5053 -34.4341 -34.2358 -34.0826 -33.9224 -33.8304
   -19.2467 -19.2386 -19.2327 -19.2277 -19.2248 -19.2138 -19.2120 -19.2049
   -19.1964 -19.1906 -19.1608 -19.1578 -19.1518 -19.1495 -11.2417  -6.7894
    -5.1709  -4.7567  -4.0129  -3.0090  -1.8172   0.8261   1.5705   2.0191
     3.6580   3.9491   4.7819   6.2968

          k = 0.0820 0.5199 0.0000 ( 84484 PWs)   bands (ev):

   -67.5400 -67.5292 -34.5782 -34.5108 -34.2280 -34.0977 -33.9539 -33.8549
   -19.2483 -19.2398 -19.2341 -19.2284 -19.2245 -19.2144 -19.2104 -19.2048
   -19.1944 -19.1887 -19.1663 -19.1620 -19.1447 -19.1434 -11.0653  -6.9719
    -5.0877  -4.7601  -3.7747  -3.2364  -1.6599   1.1844   1.6765   2.2609
     3.9728   4.4365   5.7498   6.2776

          k = 0.0818-0.5199 0.0000 ( 84488 PWs)   bands (ev):

   -67.5400 -67.5292 -34.5780 -34.5106 -34.2280 -34.0977 -33.9540 -33.8549
   -19.2483 -19.2398 -19.2340 -19.2285 -19.2245 -19.2144 -19.2105 -19.2048
   -19.1944 -19.1887 -19.1663 -19.1620 -19.1447 -19.1434 -11.0655  -6.9716
    -5.0876  -4.7599  -3.7709  -3.2409  -1.6592   1.1849   1.6765   2.2615
     3.9718   4.4371   5.7495   6.2762

          k = 0.0818-0.4253 0.0000 ( 84494 PWs)   bands (ev):

   -67.5498 -67.5347 -34.5049 -34.4337 -34.2357 -34.0827 -33.9228 -33.8305
   -19.2467 -19.2386 -19.2325 -19.2277 -19.2249 -19.2136 -19.2125 -19.2049
   -19.1963 -19.1906 -19.1608 -19.1578 -19.1518 -19.1495 -11.2422  -6.7888
    -5.1718  -4.7553  -4.0079  -3.0148  -1.8161   0.8268   1.5743   2.0169
     3.6536   3.9485   4.7807   6.2950

          k = 0.0819-0.3308 0.0000 ( 84472 PWs)   bands (ev):

   -67.5657 -67.5452 -34.4710 -34.2826 -34.1617 -34.0644 -33.8657 -33.7885
   -19.2451 -19.2353 -19.2351 -19.2274 -19.2214 -19.2150 -19.2123 -19.2047
   -19.1994 -19.1934 -19.1639 -19.1603 -19.1509 -19.1493 -11.5868  -6.6413
    -5.5411  -4.6329  -4.0022  -2.8105  -1.8139   0.5072   0.8191   2.1923
     2.8395   3.4078   4.0761   5.9473

          k = 0.0819-0.2363 0.0000 ( 84521 PWs)   bands (ev):

   -67.5832 -67.5579 -34.5089 -34.1396 -34.0115 -33.9907 -33.7961 -33.7405
   -19.2469 -19.2389 -19.2307 -19.2257 -19.2203 -19.2149 -19.2118 -19.2032
   -19.2015 -19.1962 -19.1773 -19.1727 -19.1389 -19.1385 -12.0359  -7.0695
    -5.5927  -4.3067  -3.8465  -2.7933  -1.3694  -0.1412   0.7408   1.9412
     2.2381   2.7723   3.9402   5.3488

          k = 0.0819-0.1418 0.0000 ( 84523 PWs)   bands (ev):

   -67.5981 -67.5693 -34.5548 -34.1133 -33.8548 -33.8327 -33.7364 -33.6968
   -19.2515 -19.2405 -19.2264 -19.2244 -19.2210 -19.2187 -19.2067 -19.2020
   -19.2012 -19.1983 -19.1888 -19.1833 -19.1284 -19.1279 -12.4587  -7.7279
    -5.4315  -3.8039  -3.6580  -2.9830  -0.7490  -0.6341   0.8750   1.6479
     1.8102   2.9965   3.5662   4.8422

          k = 0.0819-0.0472 0.0000 ( 84521 PWs)   bands (ev):

   -67.6065 -67.5759 -34.5824 -34.1128 -33.7586 -33.7160 -33.7156 -33.6685
   -19.2546 -19.2415 -19.2243 -19.2227 -19.2225 -19.2210 -19.2034 -19.2014
   -19.2005 -19.1990 -19.1954 -19.1895 -19.1222 -19.1215 -12.7135  -8.1320
    -5.3186  -3.5487  -3.3868  -3.1677  -1.0623  -0.0463   0.5410   1.8789
     2.1873   2.9485   3.2927   4.1769

          k = 0.1638 0.0946 0.0000 ( 84603 PWs)   bands (ev):

   -67.5940 -67.5662 -34.5419 -34.1169 -33.9149 -33.8671 -33.7601 -33.6966
   -19.2502 -19.2400 -19.2283 -19.2227 -19.2226 -19.2169 -19.2083 -19.2027
   -19.2018 -19.1972 -19.1858 -19.1806 -19.1312 -19.1307 -12.3429  -7.5523
    -5.4795  -4.0346  -3.4702  -3.1109  -1.0093  -0.3971   1.1208   1.3215
     2.0946   2.8199   3.6311   4.9487

          k = 0.1639 0.1891 0.0000 ( 84517 PWs)   bands (ev):

   -67.5831 -67.5579 -34.5086 -34.1404 -34.0127 -33.9909 -33.7956 -33.7405
   -19.2465 -19.2391 -19.2307 -19.2258 -19.2206 -19.2144 -19.2116 -19.2038
   -19.2018 -19.1959 -19.1773 -19.1727 -19.1390 -19.1384 -12.0350  -7.0682
    -5.5851  -4.3124  -3.8539  -2.8029  -1.3671  -0.1380   0.7509   1.9370
     2.2380   2.7866   3.9422   5.3386

          k = 0.1639 0.2836 0.0000 ( 84501 PWs)   bands (ev):

   -67.5679 -67.5468 -34.4708 -34.2271 -34.1482 -34.0558 -33.8611 -33.8161
   -19.2411 -19.2388 -19.2332 -19.2292 -19.2198 -19.2148 -19.2129 -19.2049
   -19.1997 -19.1944 -19.1658 -19.1621 -19.1493 -19.1490 -11.6350  -6.4251
    -5.6904  -4.6299  -4.2209  -2.5249  -1.6904   0.0607   0.4340   2.2175
     3.0406   3.2028   4.4849   5.7342

          k = 0.1639 0.3781 0.0000 ( 84490 PWs)   bands (ev):

   -67.5522 -67.5362 -34.4660 -34.3529 -34.2295 -34.0822 -33.9451 -33.8863
   -19.2412 -19.2357 -19.2348 -19.2299 -19.2222 -19.2153 -19.2132 -19.2053
   -19.1964 -19.1932 -19.1602 -19.1591 -19.1537 -19.1511 -11.2676  -6.2100
    -5.4664  -4.8013  -4.3832  -2.6460  -1.6840  -0.1875   1.2095   2.1697
     3.6381   4.2118   4.8801   6.3405

          k = 0.1639 0.4726 0.0000 ( 84440 PWs)   bands (ev):

   -67.5399 -67.5292 -34.5108 -34.4430 -34.2274 -34.1175 -34.0033 -33.9352
   -19.2435 -19.2368 -19.2336 -19.2272 -19.2243 -19.2157 -19.2132 -19.2046
   -19.1954 -19.1918 -19.1679 -19.1654 -19.1450 -19.1435 -11.0241  -6.4519
    -4.9280  -4.8662  -4.4034  -3.0257  -1.4535   0.0247   1.9797   2.3107
     3.8268   4.5346   5.4231   6.3571

          k = 0.1639 0.5672 0.0000 ( 84434 PWs)   bands (ev):

   -67.5350 -67.5271 -34.5379 -34.4721 -34.2095 -34.1444 -34.0195 -33.9535
   -19.2445 -19.2371 -19.2323 -19.2296 -19.2225 -19.2163 -19.2126 -19.2043
   -19.1955 -19.1911 -19.1707 -19.1676 -19.1417 -19.1408 -10.9411  -6.5621
    -4.8972  -4.7264  -4.3081  -3.2763  -1.3139   0.2284   2.2188   2.4624
     4.0583   4.4472   5.5834   6.1200

          k = 0.1638-0.4726 0.0000 ( 84443 PWs)   bands (ev):

   -67.5400 -67.5292 -34.5101 -34.4424 -34.2273 -34.1179 -34.0038 -33.9352
   -19.2434 -19.2368 -19.2333 -19.2274 -19.2245 -19.2157 -19.2134 -19.2045
   -19.1953 -19.1918 -19.1679 -19.1654 -19.1450 -19.1435 -11.0248  -6.4508
    -4.9311  -4.8631  -4.3985  -3.0307  -1.4523   0.0254   1.9838   2.3073
     3.8291   4.5248   5.4244   6.3577

          k = 0.1638-0.3781 0.0000 ( 84484 PWs)   bands (ev):

   -67.5523 -67.5363 -34.4654 -34.3516 -34.2292 -34.0824 -33.9460 -33.8864
   -19.2411 -19.2357 -19.2346 -19.2302 -19.2222 -19.2152 -19.2136 -19.2051
   -19.1962 -19.1932 -19.1602 -19.1591 -19.1537 -19.1511 -11.2687  -6.2089
    -5.4689  -4.7970  -4.3785  -2.6508  -1.6818  -0.1895   1.2150   2.1646
     3.6364   4.2047   4.8755   6.3441

          k = 0.1638-0.2835 0.0000 ( 84491 PWs)   bands (ev):

   -67.5680 -67.5469 -34.4707 -34.2257 -34.1477 -34.0557 -33.8619 -33.8164
   -19.2412 -19.2387 -19.2332 -19.2293 -19.2196 -19.2150 -19.2133 -19.2046
   -19.1994 -19.1945 -19.1657 -19.1620 -19.1493 -19.1490 -11.6360  -6.4258
    -5.6933  -4.6247  -4.2161  -2.5243  -1.6902   0.0529   0.4400   2.2144
     3.0350   3.2007   4.4780   5.7431

          k = 0.1638-0.1890 0.0000 ( 84527 PWs)   bands (ev):

   -67.5832 -67.5579 -34.5088 -34.1398 -34.0117 -33.9905 -33.7962 -33.7406
   -19.2467 -19.2390 -19.2307 -19.2257 -19.2204 -19.2148 -19.2118 -19.2034
   -19.2016 -19.1961 -19.1773 -19.1727 -19.1389 -19.1385 -12.0357  -7.0692
    -5.5893  -4.3086  -3.8492  -2.7978  -1.3691  -0.1384   0.7447   1.9392
     2.2388   2.7772   3.9384   5.3461

          k = 0.1638-0.0945 0.0000 ( 84595 PWs)   bands (ev):

   -67.5941 -67.5662 -34.5421 -34.1168 -33.9141 -33.8670 -33.7604 -33.6967
   -19.2503 -19.2400 -19.2283 -19.2227 -19.2224 -19.2171 -19.2085 -19.2024
   -19.2016 -19.1975 -19.1857 -19.1805 -19.1312 -19.1307 -12.3433  -7.5530
    -5.4826  -4.0341  -3.4677  -3.1044  -1.0093  -0.4020   1.1266   1.3164
     2.0962   2.8070   3.6352   4.9531

          k = 0.1638 0.0000 0.0000 ( 84553 PWs)   bands (ev):

   -67.5980 -67.5693 -34.5546 -34.1136 -33.8566 -33.8331 -33.7351 -33.6967
   -19.2514 -19.2404 -19.2265 -19.2246 -19.2212 -19.2183 -19.2067 -19.2024
   -19.2015 -19.1978 -19.1888 -19.1834 -19.1284 -19.1279 -12.4581  -7.7272
    -5.4267  -3.8033  -3.6621  -2.9941  -0.7520  -0.6237   0.8697   1.6614
     1.8007   3.0029   3.5802   4.8218

          k = 0.2458 0.1418 0.0000 ( 84521 PWs)   bands (ev):

   -67.5767 -67.5532 -34.4921 -34.1954 -34.0685 -34.0415 -33.8182 -33.7375
   -19.2466 -19.2371 -19.2334 -19.2237 -19.2225 -19.2136 -19.2126 -19.2047
   -19.2014 -19.1945 -19.1724 -19.1682 -19.1433 -19.1419 -11.8687  -6.9276
    -5.6046  -4.4755  -3.5740  -3.1345  -1.6532   0.3212   1.1723   1.8883
     2.5284   2.6775   3.7510   5.5320

          k = 0.2458 0.2363 0.0000 ( 84485 PWs)   bands (ev):

   -67.5655 -67.5451 -34.4709 -34.2841 -34.1626 -34.0647 -33.8656 -33.7886
   -19.2447 -19.2358 -19.2348 -19.2274 -19.2216 -19.2149 -19.2120 -19.2053
   -19.1997 -19.1932 -19.1639 -19.1604 -19.1509 -19.1492 -11.5850  -6.6368
    -5.5334  -4.6439  -4.0127  -2.8238  -1.8128   0.5277   0.8217   2.2036
     2.8461   3.4040   4.0789   5.9352

          k = 0.2458 0.3309 0.0000 ( 84491 PWs)   bands (ev):

   -67.5521 -67.5362 -34.4662 -34.3535 -34.2291 -34.0823 -33.9458 -33.8862
   -19.2413 -19.2355 -19.2343 -19.2303 -19.2223 -19.2150 -19.2136 -19.2056
   -19.1965 -19.1931 -19.1603 -19.1589 -19.1537 -19.1511 -11.2668  -6.2039
    -5.4712  -4.8025  -4.3861  -2.6556  -1.6843  -0.1762   1.2145   2.1741
     3.6381   4.2094   4.8829   6.3351

          k = 0.2458 0.4254 0.0000 ( 84481 PWs)   bands (ev):

   -67.5398 -67.5292 -34.4727 -34.3883 -34.2495 -34.1156 -34.0344 -33.9845
   -19.2408 -19.2346 -19.2307 -19.2298 -19.2246 -19.2162 -19.2147 -19.2045
   -19.1949 -19.1944 -19.1683 -19.1674 -19.1452 -19.1435 -11.0027  -5.7680
    -5.6044  -4.7457  -4.5329  -2.8582  -1.2599  -0.5966   1.9004   2.4538
     3.6699   4.5720   5.2456   6.6393

          k = 0.2458 0.5199 0.0000 ( 84361 PWs)   bands (ev):

   -67.5318 -67.5262 -34.4639 -34.3991 -34.2520 -34.1837 -34.0666 -34.0418
   -19.2418 -19.2320 -19.2306 -19.2283 -19.2229 -19.2184 -19.2160 -19.2026
   -19.1967 -19.1946 -19.1734 -19.1721 -19.1400 -19.1393 -10.8553  -5.9397
    -5.1443  -4.7277  -4.6205  -3.1523  -0.9457  -0.4716   2.5595   2.7678
     3.5033   4.1697   5.1627   6.3217

          k = 0.2459 0.6144 0.0000 ( 84348 PWs)   bands (ev):

   -67.5318 -67.5261 -34.4631 -34.3984 -34.2521 -34.1844 -34.0678 -34.0408
   -19.2417 -19.2318 -19.2306 -19.2284 -19.2232 -19.2185 -19.2159 -19.2026
   -19.1967 -19.1945 -19.1734 -19.1721 -19.1400 -19.1393 -10.8558  -5.9385
    -5.1444  -4.7277  -4.6184  -3.1539  -0.9453  -0.4715   2.5624   2.7636
     3.5071   4.1619   5.1631   6.3205

          k = 0.2457-0.4253 0.0000 ( 84469 PWs)   bands (ev):

   -67.5399 -67.5292 -34.4715 -34.3865 -34.2501 -34.1162 -34.0354 -33.9842
   -19.2405 -19.2344 -19.2307 -19.2302 -19.2247 -19.2164 -19.2147 -19.2044
   -19.1950 -19.1942 -19.1683 -19.1675 -19.1452 -19.1435 -11.0039  -5.7661
    -5.6048  -4.7437  -4.5288  -2.8609  -1.2572  -0.5998   1.9040   2.4475
     3.6727   4.5588   5.2454   6.6359

          k = 0.2457-0.3308 0.0000 ( 84490 PWs)   bands (ev):

   -67.5522 -67.5363 -34.4655 -34.3518 -34.2291 -34.0824 -33.9464 -33.8864
   -19.2410 -19.2356 -19.2344 -19.2304 -19.2223 -19.2151 -19.2138 -19.2053
   -19.1963 -19.1931 -19.1603 -19.1590 -19.1537 -19.1511 -11.2682  -6.2059
    -5.4713  -4.7977  -4.3802  -2.6558  -1.6818  -0.1834   1.2177   2.1669
     3.6364   4.2033   4.8771   6.3409

          k = 0.2457-0.2363 0.0000 ( 84471 PWs)   bands (ev):

   -67.5656 -67.5452 -34.4709 -34.2830 -34.1619 -34.0645 -33.8660 -33.7888
   -19.2448 -19.2355 -19.2350 -19.2273 -19.2215 -19.2150 -19.2123 -19.2049
   -19.1995 -19.1933 -19.1639 -19.1604 -19.1509 -19.1492 -11.5861  -6.6392
    -5.5373  -4.6377  -4.0058  -2.8194  -1.8129   0.5171   0.8236   2.1979
     2.8397   3.4046   4.0769   5.9419

          k = 0.2457-0.1417 0.0000 ( 84514 PWs)   bands (ev):

   -67.5768 -67.5532 -34.4923 -34.1950 -34.0675 -34.0416 -33.8183 -33.7375
   -19.2468 -19.2371 -19.2334 -19.2238 -19.2221 -19.2137 -19.2129 -19.2043
   -19.2012 -19.1947 -19.1724 -19.1682 -19.1433 -19.1420 -11.8695  -6.9293
    -5.6094  -4.4711  -3.5693  -3.1274  -1.6538   0.3170   1.1637   1.8906
     2.5167   2.6806   3.7538   5.5359

          k = 0.2457-0.0472 0.0000 ( 84545 PWs)   bands (ev):

   -67.5831 -67.5579 -34.5086 -34.1410 -34.0121 -33.9921 -33.7949 -33.7403
   -19.2466 -19.2389 -19.2309 -19.2258 -19.2205 -19.2144 -19.2117 -19.2037
   -19.2018 -19.1959 -19.1773 -19.1728 -19.1389 -19.1385 -12.0347  -7.0686
    -5.5848  -4.3142  -3.8545  -2.8016  -1.3650  -0.1430   0.7518   1.9379
     2.2360   2.7895   3.9484   5.3342

          k = 0.2458 0.0473 0.0000 ( 84547 PWs)   bands (ev):

   -67.5831 -67.5579 -34.5085 -34.1410 -34.0129 -33.9916 -33.7949 -33.7403
   -19.2465 -19.2390 -19.2308 -19.2258 -19.2206 -19.2143 -19.2117 -19.2039
   -19.2019 -19.1958 -19.1773 -19.1728 -19.1389 -19.1384 -12.0344  -7.0679
    -5.5825  -4.3156  -3.8567  -2.8053  -1.3648  -0.1408   0.7551   1.9363
     2.2368   2.7932   3.9478   5.3318

          k = 0.3277 0.1891 0.0000 ( 84491 PWs)   bands (ev):

   -67.5587 -67.5406 -34.4806 -34.3759 -34.2118 -34.0720 -33.8742 -33.7795
   -19.2473 -19.2378 -19.2323 -19.2258 -19.2255 -19.2139 -19.2117 -19.2056
   -19.1986 -19.1912 -19.1588 -19.1558 -19.1547 -19.1517 -11.4436  -6.8446
    -5.3632  -4.6979  -3.6364  -3.2525  -1.9164   1.1361   1.5053   2.0958
     2.6846   3.7782   3.9103   6.0452

          k = 0.3277 0.2836 0.0000 ( 84502 PWs)   bands (ev):

   -67.5495 -67.5347 -34.5064 -34.4356 -34.2342 -34.0838 -33.9232 -33.8308
   -19.2466 -19.2384 -19.2320 -19.2276 -19.2252 -19.2138 -19.2126 -19.2056
   -19.1963 -19.1904 -19.1608 -19.1575 -19.1518 -19.1495 -11.2394  -6.7842
    -5.1663  -4.7676  -4.0200  -3.0284  -1.8149   0.8496   1.5810   2.0331
     3.6565   3.9495   4.7815   6.2859

          k = 0.3277 0.3781 0.0000 ( 84445 PWs)   bands (ev):

   -67.5397 -67.5292 -34.5119 -34.4446 -34.2255 -34.1179 -34.0047 -33.9349
   -19.2440 -19.2361 -19.2330 -19.2271 -19.2248 -19.2155 -19.2138 -19.2051
   -19.1955 -19.1917 -19.1679 -19.1651 -19.1450 -19.1435 -11.0222  -6.4485
    -4.9345  -4.8683  -4.4059  -3.0377  -1.4541   0.0397   1.9903   2.3207
     3.8285   4.5300   5.4243   6.3673

          k = 0.3277 0.4727 0.0000 ( 84343 PWs)   bands (ev):

   -67.5316 -67.5262 -34.4651 -34.4005 -34.2512 -34.1821 -34.0681 -34.0412
   -19.2422 -19.2318 -19.2298 -19.2282 -19.2235 -19.2183 -19.2163 -19.2029
   -19.1969 -19.1944 -19.1734 -19.1719 -19.1400 -19.1393 -10.8541  -5.9393
    -5.1485  -4.7326  -4.6170  -3.1565  -0.9492  -0.4634   2.5683   2.7726
     3.5022   4.1697   5.1613   6.3236

          k = 0.3278 0.5672 0.0000 ( 84316 PWs)   bands (ev):

   -67.5270 -67.5268 -34.3854 -34.3446 -34.3438 -34.2327 -34.0831 -34.0806
   -19.2415 -19.2297 -19.2297 -19.2231 -19.2227 -19.2212 -19.2201 -19.1995
   -19.1979 -19.1976 -19.1752 -19.1751 -19.1380 -19.1380 -10.7906  -5.4409
    -5.4371  -4.9152  -4.5612  -3.1831  -0.6385  -0.6331   2.9581   2.9596
     3.4962   3.5038   4.8877   6.6762

          k = 0.3278 0.6617 0.0000 ( 84344 PWs)   bands (ev):

   -67.5317 -67.5262 -34.4639 -34.3989 -34.2518 -34.1836 -34.0685 -34.0406
   -19.2418 -19.2317 -19.2302 -19.2284 -19.2235 -19.2184 -19.2161 -19.2027
   -19.1969 -19.1943 -19.1734 -19.1720 -19.1400 -19.1393 -10.8551  -5.9385
    -5.1466  -4.7302  -4.6168  -3.1559  -0.9471  -0.4671   2.5673   2.7661
     3.5064   4.1621   5.1625   6.3209

          k = 0.3276-0.3780 0.0000 ( 84445 PWs)   bands (ev):

   -67.5398 -67.5292 -34.5108 -34.4429 -34.2265 -34.1180 -34.0046 -33.9351
   -19.2436 -19.2365 -19.2330 -19.2274 -19.2247 -19.2156 -19.2137 -19.2048
   -19.1954 -19.1916 -19.1679 -19.1652 -19.1450 -19.1435 -11.0237  -6.4494
    -4.9345  -4.8642  -4.4002  -3.0367  -1.4524   0.0334   1.9893   2.3128
     3.8303   4.5223   5.4250   6.3626

          k = 0.3276-0.2835 0.0000 ( 84502 PWs)   bands (ev):

   -67.5496 -67.5347 -34.5056 -34.4342 -34.2350 -34.0832 -33.9232 -33.8308
   -19.2465 -19.2385 -19.2322 -19.2277 -19.2252 -19.2137 -19.2128 -19.2052
   -19.1963 -19.1905 -19.1608 -19.1576 -19.1518 -19.1495 -11.2409  -6.7865
    -5.1692  -4.7615  -4.0118  -3.0250  -1.8144   0.8397   1.5795   2.0247
     3.6526   3.9488   4.7804   6.2881

          k = 0.3276-0.1890 0.0000 ( 84487 PWs)   bands (ev):

   -67.5589 -67.5406 -34.4803 -34.3750 -34.2121 -34.0715 -33.8742 -33.7794
   -19.2474 -19.2378 -19.2325 -19.2258 -19.2253 -19.2138 -19.2118 -19.2052
   -19.1985 -19.1913 -19.1588 -19.1558 -19.1546 -19.1518 -11.4447  -6.8475
    -5.3668  -4.6922  -3.6305  -3.2447  -1.9169   1.1276   1.4967   2.0860
     2.6861   3.7795   3.9125   6.0481

          k = 0.3276-0.0945 0.0000 ( 84496 PWs)   bands (ev):

   -67.5655 -67.5451 -34.4710 -34.2845 -34.1629 -34.0645 -33.8649 -33.7884
   -19.2449 -19.2356 -19.2350 -19.2275 -19.2214 -19.2149 -19.2119 -19.2051
   -19.1997 -19.1933 -19.1639 -19.1604 -19.1508 -19.1492 -11.5849  -6.6398
    -5.5340  -4.6433  -4.0140  -2.8134  -1.8136   0.5236   0.8096   2.2010
     2.8539   3.4094   4.0783   5.9367

          k = 0.3277 0.0001 0.0000 ( 84509 PWs)   bands (ev):

   -67.5678 -67.5468 -34.4707 -34.2289 -34.1486 -34.0560 -33.8603 -33.8158
   -19.2408 -19.2389 -19.2335 -19.2291 -19.2199 -19.2147 -19.2127 -19.2051
   -19.1999 -19.1943 -19.1658 -19.1621 -19.1493 -19.1490 -11.6338  -6.4247
    -5.6865  -4.6366  -4.2261  -2.5264  -1.6908   0.0706   0.4259   2.2220
     3.0476   3.2065   4.4928   5.7225

          k = 0.3277 0.0946 0.0000 ( 84494 PWs)   bands (ev):

   -67.5654 -67.5451 -34.4710 -34.2849 -34.1630 -34.0648 -33.8651 -33.7885
   -19.2447 -19.2357 -19.2348 -19.2275 -19.2215 -19.2149 -19.2119 -19.2054
   -19.1998 -19.1932 -19.1639 -19.1604 -19.1509 -19.1492 -11.5843  -6.6372
    -5.5316  -4.6470  -4.0170  -2.8209  -1.8133   0.5313   0.8139   2.2056
     2.8540   3.4069   4.0794   5.9322

          k = 0.4096 0.2364 0.0000 ( 84483 PWs)   bands (ev):

   -67.5449 -67.5321 -34.5620 -34.4976 -34.2375 -34.0859 -33.9143 -33.8107
   -19.2494 -19.2399 -19.2330 -19.2274 -19.2259 -19.2132 -19.2114 -19.2056
   -19.1950 -19.1885 -19.1625 -19.1579 -19.1485 -19.1467 -11.1718  -7.0566
    -5.1780  -4.7798  -3.4640  -3.3759  -1.8282   1.5324   1.8290   2.1539
     3.1358   4.3233   5.1303   6.1883

          k = 0.4096 0.3309 0.0000 ( 84478 PWs)   bands (ev):

   -67.5395 -67.5293 -34.5799 -34.5131 -34.2244 -34.1000 -33.9547 -33.8553
   -19.2485 -19.2393 -19.2337 -19.2282 -19.2245 -19.2144 -19.2111 -19.2056
   -19.1944 -19.1886 -19.1662 -19.1616 -19.1447 -19.1434 -11.0620  -6.9692
    -5.0851  -4.7717  -3.7840  -3.2514  -1.6576   1.2052   1.6869   2.2809
     3.9745   4.4373   5.7567   6.2754

          k = 0.4097 0.4254 0.0000 ( 84426 PWs)   bands (ev):

   -67.5346 -67.5272 -34.5399 -34.4746 -34.2059 -34.1455 -34.0209 -33.9531
   -19.2451 -19.2362 -19.2322 -19.2293 -19.2224 -19.2162 -19.2132 -19.2050
   -19.1956 -19.1910 -19.1707 -19.1673 -19.1416 -19.1408 -10.9380  -6.5616
    -4.8991  -4.7357  -4.3130  -3.2834  -1.3155   0.2416   2.2285   2.4796
     4.0533   4.4559   5.5795   6.1270

          k = 0.4097 0.5199 0.0000 ( 84360 PWs)   bands (ev):

   -67.5315 -67.5263 -34.4659 -34.4014 -34.2502 -34.1820 -34.0674 -34.0416
   -19.2423 -19.2320 -19.2297 -19.2281 -19.2232 -19.2182 -19.2164 -19.2030
   -19.1968 -19.1945 -19.1734 -19.1719 -19.1400 -19.1393 -10.8534  -5.9410
    -5.1483  -4.7332  -4.6190  -3.1546  -0.9501  -0.4636   2.5642   2.7787
     3.4972   4.1789   5.1618   6.3251

          k = 0.4097 0.6145 0.0000 ( 84378 PWs)   bands (ev):

   -67.5316 -67.5262 -34.4655 -34.4004 -34.2508 -34.1827 -34.0666 -34.0421
   -19.2420 -19.2321 -19.2301 -19.2281 -19.2229 -19.2183 -19.2163 -19.2028
   -19.1967 -19.1946 -19.1733 -19.1720 -19.1400 -19.1393 -10.8539  -5.9415
    -5.1464  -4.7308  -4.6210  -3.1524  -0.9485  -0.4674   2.5603   2.7763
     3.4976   4.1792   5.1626   6.3234

          k = 0.4097 0.7090 0.0000 ( 84422 PWs)   bands (ev):

   -67.5348 -67.5271 -34.5391 -34.4731 -34.2077 -34.1450 -34.0203 -33.9534
   -19.2447 -19.2367 -19.2323 -19.2294 -19.2224 -19.2163 -19.2130 -19.2047
   -19.1956 -19.1910 -19.1706 -19.1674 -19.1417 -19.1408 -10.9393  -6.5623
    -4.8980  -4.7318  -4.3112  -3.2795  -1.3145   0.2354   2.2236   2.4720
     4.0552   4.4524   5.5815   6.1232

          k = 0.4095-0.3308 0.0000 ( 84486 PWs)   bands (ev):

   -67.5398 -67.5293 -34.5791 -34.5116 -34.2262 -34.0989 -33.9545 -33.8552
   -19.2483 -19.2396 -19.2338 -19.2284 -19.2245 -19.2145 -19.2109 -19.2052
   -19.1944 -19.1886 -19.1662 -19.1618 -19.1447 -19.1434 -11.0636  -6.9707
    -5.0861  -4.7666  -3.7764  -3.2482  -1.6575   1.1961   1.6815   2.2724
     3.9724   4.4375   5.7535   6.2749

          k = 0.4095-0.2362 0.0000 ( 84484 PWs)   bands (ev):

   -67.5451 -67.5321 -34.5613 -34.4962 -34.2390 -34.0849 -33.9141 -33.8105
   -19.2493 -19.2401 -19.2333 -19.2276 -19.2258 -19.2133 -19.2111 -19.2052
   -19.1951 -19.1885 -19.1625 -19.1581 -19.1485 -19.1466 -11.1733  -7.0589
    -5.1802  -4.7743  -3.4585  -3.3676  -1.8292   1.5269   1.8125   2.1465
     3.1394   4.3218   5.1298   6.1912

          k = 0.4096-0.1417 0.0000 ( 84507 PWs)   bands (ev):

   -67.5495 -67.5347 -34.5064 -34.4351 -34.2350 -34.0832 -33.9225 -33.8306
   -19.2466 -19.2386 -19.2326 -19.2276 -19.2248 -19.2139 -19.2121 -19.2053
   -19.1965 -19.1905 -19.1608 -19.1576 -19.1518 -19.1495 -11.2397  -6.7879
    -5.1672  -4.7646  -4.0221  -3.0134  -1.8170   0.8381   1.5707   2.0302
     3.6621   3.9497   4.7837   6.2927

          k = 0.4096-0.0472 0.0000 ( 84492 PWs)   bands (ev):

   -67.5520 -67.5362 -34.4668 -34.3547 -34.2291 -34.0823 -33.9447 -33.8860
   -19.2412 -19.2358 -19.2347 -19.2298 -19.2221 -19.2153 -19.2131 -19.2056
   -19.1967 -19.1932 -19.1602 -19.1590 -19.1537 -19.1511 -11.2658  -6.2084
    -5.4662  -4.8071  -4.3901  -2.6460  -1.6873  -0.1789   1.2046   2.1796
     3.6400   4.2194   4.8876   6.3330

          k = 0.4096 0.0473 0.0000 ( 84489 PWs)   bands (ev):

   -67.5520 -67.5362 -34.4669 -34.3551 -34.2288 -34.0824 -33.9451 -33.8859
   -19.2414 -19.2356 -19.2344 -19.2300 -19.2222 -19.2151 -19.2133 -19.2057
   -19.1967 -19.1931 -19.1602 -19.1589 -19.1537 -19.1511 -11.2654  -6.2053
    -5.4686  -4.8077  -4.3913  -2.6505  -1.6877  -0.1737   1.2069   2.1817
     3.6399   4.2184   4.8887   6.3310

          k = 0.4096 0.1419 0.0000 ( 84511 PWs)   bands (ev):

   -67.5494 -67.5347 -34.5068 -34.4361 -34.2341 -34.0839 -33.9228 -33.8307
   -19.2467 -19.2384 -19.2322 -19.2276 -19.2249 -19.2138 -19.2124 -19.2057
   -19.1964 -19.1905 -19.1608 -19.1575 -19.1518 -19.1495 -11.2387  -6.7850
    -5.1652  -4.7694  -4.0253  -3.0226  -1.8164   0.8486   1.5761   2.0365
     3.6616   3.9497   4.7836   6.2886

          k =-0.4915-0.2837 0.0000 ( 84522 PWs)   bands (ev):

   -67.5395 -67.5293 -34.6092 -34.5405 -34.2263 -34.0943 -33.9288 -33.8221
   -19.2504 -19.2402 -19.2349 -19.2282 -19.2250 -19.2141 -19.2098 -19.2058
   -19.1935 -19.1873 -19.1653 -19.1600 -19.1446 -19.1434 -11.0818  -7.1549
    -5.1720  -4.8055  -3.4262  -3.2906  -1.7652   1.4263   2.0955   2.3334
     3.1930   4.7995   5.7720   6.3354

          k =-0.4915-0.1891 0.0000 ( 84480 PWs)   bands (ev):

   -67.5395 -67.5293 -34.5801 -34.5133 -34.2242 -34.1001 -33.9545 -33.8553
   -19.2485 -19.2393 -19.2339 -19.2281 -19.2245 -19.2144 -19.2111 -19.2056
   -19.1944 -19.1886 -19.1662 -19.1616 -19.1447 -19.1434 -11.0617  -6.9696
    -5.0853  -4.7719  -3.7878  -3.2471  -1.6585   1.2044   1.6871   2.2802
     3.9756   4.4362   5.7573   6.2760

          k =-0.4915-0.0946 0.0000 ( 84443 PWs)   bands (ev):

   -67.5396 -67.5292 -34.5127 -34.4455 -34.2249 -34.1180 -34.0043 -33.9348
   -19.2440 -19.2361 -19.2334 -19.2268 -19.2246 -19.2154 -19.2137 -19.2052
   -19.1955 -19.1917 -19.1678 -19.1651 -19.1450 -19.1435 -11.0212  -6.4500
    -4.9313  -4.8719  -4.4113  -3.0323  -1.4560   0.0387   1.9850   2.3259
     3.8251   4.5413   5.4240   6.3676

          k =-0.4915-0.0001 0.0000 ( 84491 PWs)   bands (ev):

   -67.5397 -67.5292 -34.4740 -34.3904 -34.2480 -34.1155 -34.0338 -33.9844
   -19.2411 -19.2348 -19.2302 -19.2297 -19.2245 -19.2159 -19.2148 -19.2047
   -19.1949 -19.1946 -19.1682 -19.1674 -19.1452 -19.1435 -11.0010  -5.7713
    -5.6039  -4.7479  -4.5380  -2.8548  -1.2642  -0.5926   1.8953   2.4630
     3.6660   4.5876   5.2476   6.6444

          k =-0.4915 0.0944 0.0000 ( 84448 PWs)   bands (ev):

   -67.5397 -67.5292 -34.5123 -34.4445 -34.2260 -34.1177 -34.0036 -33.9350
   -19.2437 -19.2365 -19.2336 -19.2268 -19.2244 -19.2156 -19.2134 -19.2049
   -19.1955 -19.1918 -19.1678 -19.1652 -19.1450 -19.1435 -11.0220  -6.4520
    -4.9283  -4.8709  -4.4106  -3.0264  -1.4554   0.0318   1.9799   2.3213
     3.8245   4.5433   5.4235   6.3622

          k =-0.4915 0.1890 0.0000 ( 84488 PWs)   bands (ev):

   -67.5397 -67.5293 -34.5794 -34.5119 -34.2260 -34.0989 -33.9542 -33.8552
   -19.2483 -19.2396 -19.2341 -19.2282 -19.2244 -19.2145 -19.2108 -19.2053
   -19.1945 -19.1886 -19.1662 -19.1618 -19.1447 -19.1434 -11.0631  -6.9714
    -5.0864  -4.7669  -3.7840  -3.2394  -1.6590   1.1949   1.6818   2.2712
     3.9746   4.4358   5.7542   6.2766

          k =-0.4916-0.8508 0.0000 ( 84490 PWs)   bands (ev):

   -67.5397 -67.5293 -34.6085 -34.5390 -34.2283 -34.0929 -33.9286 -33.8219
   -19.2502 -19.2405 -19.2351 -19.2283 -19.2250 -19.2141 -19.2095 -19.2054
   -19.1936 -19.1873 -19.1653 -19.1602 -19.1446 -19.1434 -11.0834  -7.1566
    -5.1734  -4.8003  -3.4182  -3.2851  -1.7665   1.4206   2.0797   2.3242
     3.1969   4.7985   5.7681   6.3382

     the Fermi energy is     0.8295 ev

!    total energy              =   -1375.70145204 Ry
     estimated scf accuracy    <          5.5E-13 Ry
     smearing contrib. (-TS)   =      -0.00000369 Ry
     internal energy E=F+TS    =   -1375.70144835 Ry

     The total energy is F=E-TS. E is the sum of the following terms:
     one-electron contribution =  -11616.53412142 Ry
     hartree contribution      =    5838.41413899 Ry
     xc contribution           =    -140.31297664 Ry
     ewald contribution        =    4542.73151073 Ry

     convergence has been achieved in  19 iterations

     negative rho (up, down):  2.760E-05 0.000E+00

     Forces acting on atoms (cartesian axes, Ry/au):

     atom    1 type  2   force =    -0.00045443    0.00025786   -0.00000125
     atom    2 type  1   force =     0.00003910    0.00027368   -0.00018867
     atom    3 type  1   force =     0.00009870   -0.00034937    0.00018882
     atom    4 type  3   force =     0.00026919   -0.00055443   -0.00005957
     atom    5 type  3   force =     0.00004744    0.00037226    0.00006068

     Total force =     0.001039     Total SCF correction =     0.000007


     Computing stress (Cartesian axis) and pressure


     negative rho (up, down):  2.760E-05 0.000E+00
          total   stress  (Ry/bohr**3)                   (kbar)     P=        0.17
   0.00000043   0.00000012   0.00000076            0.06        0.02        0.11
   0.00000012   0.00000321  -0.00000378            0.02        0.47       -0.56
   0.00000076  -0.00000378  -0.00000008            0.11       -0.56       -0.01


     Writing output data file /scratch/as3359/Ta2CH2-VCrelax/Ta.save/
 
     init_run     :     95.76s CPU     51.87s WALL (       1 calls)
     electrons    :   4183.09s CPU   2127.06s WALL (       1 calls)
     forces       :     26.63s CPU     13.71s WALL (       1 calls)
     stress       :    135.66s CPU     69.38s WALL (       1 calls)

     Called by init_run:
     wfcinit      :     78.02s CPU     39.83s WALL (       1 calls)
     potinit      :      5.13s CPU      2.61s WALL (       1 calls)
     hinit0       :      9.26s CPU      7.16s WALL (       1 calls)

     Called by electrons:
     c_bands      :   3406.64s CPU   1721.09s WALL (      19 calls)
     sum_band     :    706.71s CPU    363.70s WALL (      19 calls)
     v_of_rho     :     10.61s CPU      5.87s WALL (      20 calls)
     newd         :     57.70s CPU     35.72s WALL (      20 calls)
     mix_rho      :      4.09s CPU      2.26s WALL (      19 calls)

     Called by c_bands:
     init_us_2    :     70.96s CPU     35.52s WALL (    3034 calls)
     cegterg      :   3201.44s CPU   1617.60s WALL (    1406 calls)

     Called by *egterg:
     cdiaghg      :     16.46s CPU      8.44s WALL (    7120 calls)
     h_psi        :   2704.65s CPU   1368.73s WALL (    7194 calls)
     s_psi        :    114.76s CPU     57.43s WALL (    7194 calls)
     g_psi        :     12.21s CPU      6.12s WALL (    5714 calls)

     Called by h_psi:
     h_psi:calbec :     86.42s CPU     43.28s WALL (    7194 calls)
     vloc_psi     :   2481.30s CPU   1256.78s WALL (    7194 calls)
     add_vuspsi   :    117.31s CPU     58.73s WALL (    7194 calls)

     General routines
     calbec       :    120.42s CPU     60.34s WALL (    8970 calls)
     fft          :      6.21s CPU      3.35s WALL (     245 calls)
     ffts         :      0.45s CPU      0.24s WALL (      19 calls)
     fftw         :   2495.43s CPU   1265.98s WALL (  301206 calls)
 
     Parallel routines
 
     PWSCF        :      1h14m CPU  37m50.87s WALL

 
   This run was terminated on:  21:17:44   7Apr2022            

=------------------------------------------------------------------------------=
   JOB DONE.
=------------------------------------------------------------------------------=
