
     Program PWSCF v.6.8 starts on  7Apr2022 at 18:23:55 

     This program is part of the open-source Quantum ESPRESSO suite
     for quantum simulation of materials; please cite
         "P. Giannozzi et al., J. Phys.:Condens. Matter 21 395502 (2009);
         "P. Giannozzi et al., J. Phys.:Condens. Matter 29 465901 (2017);
         "P. Giannozzi et al., J. Chem. Phys. 152 154105 (2020);
          URL http://www.quantum-espresso.org", 
     in publications or presentations arising from this work. More details at
     http://www.quantum-espresso.org/quote

     Parallel version (MPI & OpenMP), running on       4 processor cores
     Number of MPI processes:                 2
     Threads/MPI process:                     2

     MPI processes distributed on     1 nodes
     R & G space division:  proc/nbgrp/npool/nimage =       2
     122888 MiB available memory on the printing compute node when the environment starts
 
     Reading input from Ta2CH2.scf.170.in

     Current dimensions of program PWSCF are:
     Max number of different atomic species (ntypx) = 10
     Max number of k-points (npk) =  40000
     Max angular momentum in pseudopotentials (lmaxx) =  4
     file Ta.pbesol-spfn-rrkjus_psl.1.0.0.UPF: wavefunction(s)  5S 5P renormalized

     Subspace diagonalization in iterative solution of the eigenvalue problem:
     a serial algorithm will be used

 
     Parallelization info
     --------------------
     sticks:   dense  smooth     PW     G-vecs:    dense   smooth      PW
     Min         750     750    219               229654   229654   36685
     Max         751     751    220               229659   229659   36686
     Sum        1501    1501    439               459313   459313   73371
 
     Using Slab Decomposition
 


     bravais-lattice index     =            0
     lattice parameter (alat)  =       5.5500  a.u.
     unit-cell volume          =    1533.2393 (a.u.)^3
     number of atoms/cell      =            5
     number of atomic types    =            3
     number of electrons       =        60.00
     number of Kohn-Sham states=           36
     kinetic-energy cutoff     =     170.0000  Ry
     charge density cutoff     =     680.0000  Ry
     scf convergence threshold =      1.0E-12
     mixing beta               =       0.7000
     number of iterations used =            8  plain     mixing
     Exchange-correlation= PBESOL
                           (   1   4  10   8   0   0   0)

     celldm(1)=   5.550000  celldm(2)=   0.000000  celldm(3)=   0.000000
     celldm(4)=   0.000000  celldm(5)=   0.000000  celldm(6)=   0.000000

     crystal axes: (cart. coord. in units of alat)
               a(1) = (   1.017295  -0.000177   0.000000 )  
               a(2) = (  -0.508801   0.881714   0.000000 )  
               a(3) = (   0.000000   0.000000  10.000000 )  

     reciprocal axes: (cart. coord. in units 2 pi/alat)
               b(1) = (  0.983098  0.567305  0.000000 )  
               b(2) = (  0.000198  1.134269  0.000000 )  
               b(3) = (  0.000000  0.000000  0.100000 )  


     PseudoPot. # 1 for Ta read from file:
     /shared/home/as3359/pseudo/Ta.pbesol-spfn-rrkjus_psl.1.0.0.UPF
     MD5 check sum: f099565ffaca9b150a52e9412a28e20b
     Pseudo is Ultrasoft + core correction, Zval = 27.0
     Generated using &quot;atomic&quot; code by A. Dal Corso  v.6.3
     Using radial grid of 1273 points,  8 beta functions with: 
                l(1) =   0
                l(2) =   0
                l(3) =   1
                l(4) =   1
                l(5) =   2
                l(6) =   2
                l(7) =   3
                l(8) =   3
     Q(r) pseudized with 0 coefficients 


     PseudoPot. # 2 for C  read from file:
     /shared/home/as3359/pseudo/C.pbesol-n-rrkjus_psl.1.0.0.UPF
     MD5 check sum: 05995be603a8a7c99da3dc4413f31573
     Pseudo is Ultrasoft + core correction, Zval =  4.0
     Generated using &quot;atomic&quot; code by A. Dal Corso  v.6.3MaX
     Using radial grid of 1073 points,  4 beta functions with: 
                l(1) =   0
                l(2) =   0
                l(3) =   1
                l(4) =   1
     Q(r) pseudized with 0 coefficients 


     PseudoPot. # 3 for H  read from file:
     /shared/home/as3359/pseudo/H.pbesol-rrkjus_psl.0.1.UPF
     MD5 check sum: 1dbb1a5c48b1283557b8117eb856a7ca
     Pseudo is Ultrasoft, Zval =  1.0
     Generated using "atomic" code by A. Dal Corso  v.5.0.2 svn rev. 9415
     Using radial grid of  929 points,  2 beta functions with: 
                l(1) =   0
                l(2) =   0
     Q(r) pseudized with 0 coefficients 


     atomic species   valence    mass     pseudopotential
        Ta            27.00   180.94788     Ta( 1.00)
        C              4.00    12.01070     C ( 1.00)
        H              1.00     1.00000     H ( 1.00)

     No symmetry found



   Cartesian axes

     site n.     atom                  positions (alat units)
         1           C   tau(   1) = (   0.0000000   0.0000000   0.0000000  )
         2           Ta  tau(   2) = (   0.5088008   0.2948413  -0.4364511  )
         3           Ta  tau(   3) = (  -0.0007447   0.5869407   0.4364532  )
         4           H   tau(   4) = (  -0.0017928  -0.0015314   0.8341930  )
         5           H   tau(   5) = (   0.0002769   0.0024412  -0.8341930  )

     number of k points=    74  Marzari-Vanderbilt smearing, width (Ry)=  0.0010
                       cart. coord. in units 2pi/alat
        k(    1) = (   0.0000000   0.0000000   0.0000000), wk =   0.0138889
        k(    2) = (   0.0000165   0.0945224   0.0000000), wk =   0.0277778
        k(    3) = (   0.0000329   0.1890448   0.0000000), wk =   0.0277778
        k(    4) = (   0.0000494   0.2835672   0.0000000), wk =   0.0277778
        k(    5) = (   0.0000659   0.3780896   0.0000000), wk =   0.0277778
        k(    6) = (   0.0000823   0.4726120   0.0000000), wk =   0.0277778
        k(    7) = (  -0.0000988  -0.5671343   0.0000000), wk =   0.0138889
        k(    8) = (   0.0819248   0.0472755   0.0000000), wk =   0.0277778
        k(    9) = (   0.0819413   0.1417978   0.0000000), wk =   0.0277778
        k(   10) = (   0.0819577   0.2363202   0.0000000), wk =   0.0277778
        k(   11) = (   0.0819742   0.3308426   0.0000000), wk =   0.0277778
        k(   12) = (   0.0819907   0.4253650   0.0000000), wk =   0.0277778
        k(   13) = (   0.0820071   0.5198874   0.0000000), wk =   0.0277778
        k(   14) = (   0.0818260  -0.5198589   0.0000000), wk =   0.0277778
        k(   15) = (   0.0818425  -0.4253365   0.0000000), wk =   0.0277778
        k(   16) = (   0.0818590  -0.3308141   0.0000000), wk =   0.0277778
        k(   17) = (   0.0818754  -0.2362917   0.0000000), wk =   0.0277778
        k(   18) = (   0.0818919  -0.1417693   0.0000000), wk =   0.0277778
        k(   19) = (   0.0819084  -0.0472469   0.0000000), wk =   0.0277778
        k(   20) = (   0.1638496   0.0945509   0.0000000), wk =   0.0277778
        k(   21) = (   0.1638661   0.1890733   0.0000000), wk =   0.0277778
        k(   22) = (   0.1638826   0.2835957   0.0000000), wk =   0.0277778
        k(   23) = (   0.1638990   0.3781181   0.0000000), wk =   0.0277778
        k(   24) = (   0.1639155   0.4726405   0.0000000), wk =   0.0277778
        k(   25) = (   0.1639319   0.5671629   0.0000000), wk =   0.0277778
        k(   26) = (   0.1637508  -0.4725834   0.0000000), wk =   0.0277778
        k(   27) = (   0.1637673  -0.3780610   0.0000000), wk =   0.0277778
        k(   28) = (   0.1637838  -0.2835386   0.0000000), wk =   0.0277778
        k(   29) = (   0.1638002  -0.1890163   0.0000000), wk =   0.0277778
        k(   30) = (   0.1638167  -0.0944939   0.0000000), wk =   0.0277778
        k(   31) = (   0.1638332   0.0000285   0.0000000), wk =   0.0277778
        k(   32) = (   0.2457744   0.1418264   0.0000000), wk =   0.0277778
        k(   33) = (   0.2457909   0.2363488   0.0000000), wk =   0.0277778
        k(   34) = (   0.2458074   0.3308711   0.0000000), wk =   0.0277778
        k(   35) = (   0.2458238   0.4253935   0.0000000), wk =   0.0277778
        k(   36) = (   0.2458403   0.5199159   0.0000000), wk =   0.0277778
        k(   37) = (   0.2458568   0.6144383   0.0000000), wk =   0.0277778
        k(   38) = (   0.2456757  -0.4253080   0.0000000), wk =   0.0277778
        k(   39) = (   0.2456921  -0.3307856   0.0000000), wk =   0.0277778
        k(   40) = (   0.2457086  -0.2362632   0.0000000), wk =   0.0277778
        k(   41) = (   0.2457251  -0.1417408   0.0000000), wk =   0.0277778
        k(   42) = (   0.2457415  -0.0472184   0.0000000), wk =   0.0277778
        k(   43) = (   0.2457580   0.0473040   0.0000000), wk =   0.0277778
        k(   44) = (   0.3276993   0.1891018   0.0000000), wk =   0.0277778
        k(   45) = (   0.3277157   0.2836242   0.0000000), wk =   0.0277778
        k(   46) = (   0.3277322   0.3781466   0.0000000), wk =   0.0277778
        k(   47) = (   0.3277486   0.4726690   0.0000000), wk =   0.0277778
        k(   48) = (   0.3277651   0.5671914   0.0000000), wk =   0.0277778
        k(   49) = (   0.3277816   0.6617138   0.0000000), wk =   0.0277778
        k(   50) = (   0.3276005  -0.3780325   0.0000000), wk =   0.0277778
        k(   51) = (   0.3276169  -0.2835101   0.0000000), wk =   0.0277778
        k(   52) = (   0.3276334  -0.1889877   0.0000000), wk =   0.0277778
        k(   53) = (   0.3276499  -0.0944653   0.0000000), wk =   0.0277778
        k(   54) = (   0.3276663   0.0000570   0.0000000), wk =   0.0277778
        k(   55) = (   0.3276828   0.0945794   0.0000000), wk =   0.0277778
        k(   56) = (   0.4096241   0.2363773   0.0000000), wk =   0.0277778
        k(   57) = (   0.4096405   0.3308997   0.0000000), wk =   0.0277778
        k(   58) = (   0.4096570   0.4254221   0.0000000), wk =   0.0277778
        k(   59) = (   0.4096735   0.5199445   0.0000000), wk =   0.0277778
        k(   60) = (   0.4096899   0.6144668   0.0000000), wk =   0.0277778
        k(   61) = (   0.4097064   0.7089892   0.0000000), wk =   0.0277778
        k(   62) = (   0.4095253  -0.3307571   0.0000000), wk =   0.0277778
        k(   63) = (   0.4095418  -0.2362347   0.0000000), wk =   0.0277778
        k(   64) = (   0.4095582  -0.1417123   0.0000000), wk =   0.0277778
        k(   65) = (   0.4095747  -0.0471899   0.0000000), wk =   0.0277778
        k(   66) = (   0.4095911   0.0473325   0.0000000), wk =   0.0277778
        k(   67) = (   0.4096076   0.1418549   0.0000000), wk =   0.0277778
        k(   68) = (  -0.4915489  -0.2836527   0.0000000), wk =   0.0138889
        k(   69) = (  -0.4915324  -0.1891303   0.0000000), wk =   0.0277778
        k(   70) = (  -0.4915160  -0.0946080   0.0000000), wk =   0.0277778
        k(   71) = (  -0.4914995  -0.0000856   0.0000000), wk =   0.0277778
        k(   72) = (  -0.4914830   0.0944368   0.0000000), wk =   0.0277778
        k(   73) = (  -0.4914666   0.1889592   0.0000000), wk =   0.0277778
        k(   74) = (  -0.4916477  -0.8507871   0.0000000), wk =   0.0138889

     Dense  grid:   459313 G-vectors     FFT dimensions: (  48,  48, 480)

     Estimated max dynamical RAM per process >       3.34 GB

     Estimated total dynamical RAM >       6.67 GB

     Initial potential from superposition of free atoms

     starting charge   59.99840, renormalised to   60.00000

     negative rho (up, down):  4.182E-05 0.000E+00
     Starting wfcs are   40 randomized atomic wfcs

     total cpu time spent up to now is       30.2 secs

     Self-consistent Calculation

     iteration #  1     ecut=   170.00 Ry     beta= 0.70
     Davidson diagonalization with overlap
     ethr =  1.00E-02,  avg # of iterations =  2.0

     negative rho (up, down):  3.643E-05 0.000E+00

     total cpu time spent up to now is       85.1 secs

     total energy              =   -1375.12229407 Ry
     estimated scf accuracy    <       1.04873970 Ry

     iteration #  2     ecut=   170.00 Ry     beta= 0.70
     Davidson diagonalization with overlap
     ethr =  1.75E-03,  avg # of iterations =  7.2

     negative rho (up, down):  2.876E-05 0.000E+00

     total cpu time spent up to now is      160.4 secs

     total energy              =   -1374.71697305 Ry
     estimated scf accuracy    <       5.41480691 Ry

     iteration #  3     ecut=   170.00 Ry     beta= 0.70
     Davidson diagonalization with overlap
     ethr =  1.75E-03,  avg # of iterations =  4.7

     negative rho (up, down):  3.963E-05 0.000E+00

     total cpu time spent up to now is      227.6 secs

     total energy              =   -1375.66801838 Ry
     estimated scf accuracy    <       0.22869667 Ry

     iteration #  4     ecut=   170.00 Ry     beta= 0.70
     Davidson diagonalization with overlap
     ethr =  3.81E-04,  avg # of iterations =  2.4

     negative rho (up, down):  7.177E-05 0.000E+00

     total cpu time spent up to now is      283.6 secs

     total energy              =   -1375.69752484 Ry
     estimated scf accuracy    <       0.02237166 Ry

     iteration #  5     ecut=   170.00 Ry     beta= 0.70
     Davidson diagonalization with overlap
     ethr =  3.73E-05,  avg # of iterations = 12.0

     negative rho (up, down):  7.796E-05 0.000E+00

     total cpu time spent up to now is      364.9 secs

     total energy              =   -1375.69373175 Ry
     estimated scf accuracy    <       0.07413194 Ry

     iteration #  6     ecut=   170.00 Ry     beta= 0.70
     Davidson diagonalization with overlap
     ethr =  3.73E-05,  avg # of iterations = 10.2

     negative rho (up, down):  9.519E-05 0.000E+00

     total cpu time spent up to now is      432.1 secs

     total energy              =   -1375.69934697 Ry
     estimated scf accuracy    <       0.02841614 Ry

     iteration #  7     ecut=   170.00 Ry     beta= 0.70
     Davidson diagonalization with overlap
     ethr =  3.73E-05,  avg # of iterations =  3.4

     negative rho (up, down):  1.065E-04 0.000E+00

     total cpu time spent up to now is      484.3 secs

     total energy              =   -1375.70118184 Ry
     estimated scf accuracy    <       0.00024883 Ry

     iteration #  8     ecut=   170.00 Ry     beta= 0.70
     Davidson diagonalization with overlap
     c_bands:  1 eigenvalues not converged
     c_bands:  1 eigenvalues not converged
     c_bands:  1 eigenvalues not converged
     c_bands:  1 eigenvalues not converged
     ethr =  4.15E-07,  avg # of iterations = 11.1

     negative rho (up, down):  1.162E-04 0.000E+00

     total cpu time spent up to now is      563.2 secs

     total energy              =   -1375.70125821 Ry
     estimated scf accuracy    <       0.00002008 Ry

     iteration #  9     ecut=   170.00 Ry     beta= 0.70
     Davidson diagonalization with overlap
     ethr =  3.35E-08,  avg # of iterations =  2.7

     negative rho (up, down):  1.173E-04 0.000E+00

     total cpu time spent up to now is      618.0 secs

     total energy              =   -1375.70126180 Ry
     estimated scf accuracy    <       0.00000568 Ry

     iteration # 10     ecut=   170.00 Ry     beta= 0.70
     Davidson diagonalization with overlap
     ethr =  9.47E-09,  avg # of iterations =  2.0

     negative rho (up, down):  1.176E-04 0.000E+00

     total cpu time spent up to now is      671.2 secs

     total energy              =   -1375.70126228 Ry
     estimated scf accuracy    <       0.00000093 Ry

     iteration # 11     ecut=   170.00 Ry     beta= 0.70
     Davidson diagonalization with overlap
     ethr =  1.54E-09,  avg # of iterations =  2.5

     negative rho (up, down):  1.176E-04 0.000E+00

     total cpu time spent up to now is      730.4 secs

     total energy              =   -1375.70126243 Ry
     estimated scf accuracy    <       0.00000010 Ry

     iteration # 12     ecut=   170.00 Ry     beta= 0.70
     Davidson diagonalization with overlap
     ethr =  1.69E-10,  avg # of iterations =  3.1

     negative rho (up, down):  1.176E-04 0.000E+00

     total cpu time spent up to now is      791.2 secs

     total energy              =   -1375.70126244 Ry
     estimated scf accuracy    <       0.00000003 Ry

     iteration # 13     ecut=   170.00 Ry     beta= 0.70
     Davidson diagonalization with overlap
     ethr =  5.77E-11,  avg # of iterations =  2.0

     negative rho (up, down):  1.176E-04 0.000E+00

     total cpu time spent up to now is      843.7 secs

     total energy              =   -1375.70126244 Ry
     estimated scf accuracy    <          5.2E-09 Ry

     iteration # 14     ecut=   170.00 Ry     beta= 0.70
     Davidson diagonalization with overlap
     ethr =  8.71E-12,  avg # of iterations =  3.4

     negative rho (up, down):  1.177E-04 0.000E+00

     total cpu time spent up to now is      899.7 secs

     total energy              =   -1375.70126244 Ry
     estimated scf accuracy    <          4.2E-10 Ry

     iteration # 15     ecut=   170.00 Ry     beta= 0.70
     Davidson diagonalization with overlap
     ethr =  7.08E-13,  avg # of iterations =  2.0

     negative rho (up, down):  1.177E-04 0.000E+00

     total cpu time spent up to now is      958.1 secs

     total energy              =   -1375.70126244 Ry
     estimated scf accuracy    <          9.6E-11 Ry

     iteration # 16     ecut=   170.00 Ry     beta= 0.70
     Davidson diagonalization with overlap
     ethr =  1.60E-13,  avg # of iterations =  2.5

     negative rho (up, down):  1.177E-04 0.000E+00

     total cpu time spent up to now is     1011.5 secs

     total energy              =   -1375.70126244 Ry
     estimated scf accuracy    <          7.1E-11 Ry

     iteration # 17     ecut=   170.00 Ry     beta= 0.70
     Davidson diagonalization with overlap
     ethr =  1.18E-13,  avg # of iterations =  1.4

     negative rho (up, down):  1.177E-04 0.000E+00

     total cpu time spent up to now is     1059.5 secs

     total energy              =   -1375.70126244 Ry
     estimated scf accuracy    <          1.5E-11 Ry

     iteration # 18     ecut=   170.00 Ry     beta= 0.70
     Davidson diagonalization with overlap
     ethr =  1.00E-13,  avg # of iterations =  1.8

     negative rho (up, down):  1.177E-04 0.000E+00

     total cpu time spent up to now is     1109.1 secs

     total energy              =   -1375.70126244 Ry
     estimated scf accuracy    <          2.9E-12 Ry

     iteration # 19     ecut=   170.00 Ry     beta= 0.70
     Davidson diagonalization with overlap
     ethr =  1.00E-13,  avg # of iterations =  1.0

     negative rho (up, down):  1.177E-04 0.000E+00

     total cpu time spent up to now is     1155.6 secs

     End of self-consistent calculation

          k = 0.0000 0.0000 0.0000 ( 57387 PWs)   bands (ev):

   -67.6109 -67.5793 -34.5972 -34.1138 -33.6991 -33.6977 -33.6590 -33.6587
   -19.2565 -19.2424 -19.2233 -19.2228 -19.2226 -19.2225 -19.2015 -19.2014
   -19.2002 -19.1996 -19.1991 -19.1929 -19.1190 -19.1182 -12.8529  -8.3507
    -5.2548  -3.4726  -3.2163  -3.2014  -1.2331   0.3196   0.3395   2.4917
     2.5035   2.9054   2.9383   3.4873

          k = 0.0000 0.0945 0.0000 ( 57449 PWs)   bands (ev):

   -67.6064 -67.5758 -34.5823 -34.1126 -33.7580 -33.7162 -33.7157 -33.6683
   -19.2548 -19.2418 -19.2244 -19.2229 -19.2227 -19.2213 -19.2036 -19.2016
   -19.2004 -19.1995 -19.1956 -19.1896 -19.1224 -19.1217 -12.7136  -8.1321
    -5.3198  -3.5508  -3.3886  -3.1603  -1.0614  -0.0552   0.5498   1.8791
     2.1878   2.9302   3.3022   4.1843

          k = 0.0000 0.1890 0.0000 ( 57454 PWs)   bands (ev):

   -67.5940 -67.5661 -34.5421 -34.1164 -33.9136 -33.8666 -33.7605 -33.6964
   -19.2507 -19.2402 -19.2284 -19.2231 -19.2223 -19.2175 -19.2087 -19.2023
   -19.2018 -19.1979 -19.1859 -19.1807 -19.1315 -19.1309 -12.3437  -7.5534
    -5.4871  -4.0333  -3.4650  -3.0960  -1.0090  -0.4085   1.1335   1.3100
     2.0982   2.7904   3.6420   4.9579

          k = 0.0000 0.2836 0.0000 ( 57408 PWs)   bands (ev):

   -67.5767 -67.5531 -34.4924 -34.1941 -34.0668 -34.0415 -33.8182 -33.7372
   -19.2474 -19.2373 -19.2335 -19.2242 -19.2221 -19.2138 -19.2133 -19.2042
   -19.2013 -19.1951 -19.1726 -19.1684 -19.1435 -19.1423 -11.8703  -6.9305
    -5.6162  -4.4653  -3.5643  -3.1178  -1.6551   0.3115   1.1536   1.8932
     2.5019   2.6844   3.7586   5.5404

          k = 0.0001 0.3781 0.0000 ( 57342 PWs)   bands (ev):

   -67.5589 -67.5405 -34.4799 -34.3742 -34.2121 -34.0709 -33.8738 -33.7790
   -19.2478 -19.2380 -19.2329 -19.2261 -19.2254 -19.2137 -19.2121 -19.2050
   -19.1987 -19.1916 -19.1590 -19.1560 -19.1549 -19.1522 -11.4461  -6.8499
    -5.3718  -4.6849  -3.6245  -3.2344  -1.9183   1.1165   1.4877   2.0737
     2.6881   3.7811   3.9158   6.0530

          k = 0.0001 0.4726 0.0000 ( 57421 PWs)   bands (ev):

   -67.5452 -67.5319 -34.5601 -34.4952 -34.2404 -34.0838 -33.9136 -33.8100
   -19.2496 -19.2403 -19.2337 -19.2279 -19.2259 -19.2135 -19.2109 -19.2050
   -19.1953 -19.1888 -19.1628 -19.1585 -19.1487 -19.1469 -11.1752  -7.0603
    -5.1830  -4.7670  -3.4532  -3.3571  -1.8314   1.5218   1.7914   2.1382
     3.1450   4.3195   5.1293   6.1966

          k =-0.0001-0.5671 0.0000 ( 57444 PWs)   bands (ev):

   -67.5399 -67.5291 -34.6072 -34.5378 -34.2303 -34.0913 -33.9281 -33.8214
   -19.2505 -19.2408 -19.2354 -19.2287 -19.2252 -19.2143 -19.2092 -19.2051
   -19.1938 -19.1876 -19.1656 -19.1606 -19.1448 -19.1436 -11.0856  -7.1574
    -5.1752  -4.7931  -3.4073  -3.2808  -1.7693   1.4153   2.0587   2.3149
     3.2030   4.7973   5.7629   6.3428

          k = 0.0819 0.0473 0.0000 ( 57437 PWs)   bands (ev):

   -67.6064 -67.5758 -34.5822 -34.1127 -33.7592 -33.7158 -33.7151 -33.6684
   -19.2547 -19.2417 -19.2245 -19.2230 -19.2228 -19.2211 -19.2035 -19.2017
   -19.2010 -19.1989 -19.1956 -19.1897 -19.1224 -19.1217 -12.7134  -8.1318
    -5.3178  -3.5470  -3.3853  -3.1737  -1.0628  -0.0390   0.5335   1.8789
     2.1866   2.9624   3.2866   4.1707

          k = 0.0819 0.1418 0.0000 ( 57421 PWs)   bands (ev):

   -67.5979 -67.5691 -34.5546 -34.1134 -33.8556 -33.8329 -33.7357 -33.6966
   -19.2517 -19.2407 -19.2266 -19.2248 -19.2214 -19.2186 -19.2068 -19.2024
   -19.2017 -19.1982 -19.1890 -19.1836 -19.1286 -19.1281 -12.4584  -7.7275
    -5.4295  -3.8035  -3.6599  -2.9878  -0.7503  -0.6293   0.8725   1.6535
     1.8061   2.9997   3.5724   4.8332

          k = 0.0820 0.2363 0.0000 ( 57369 PWs)   bands (ev):

   -67.5830 -67.5578 -34.5087 -34.1400 -34.0115 -33.9914 -33.7953 -33.7402
   -19.2471 -19.2391 -19.2309 -19.2260 -19.2206 -19.2148 -19.2119 -19.2037
   -19.2019 -19.1963 -19.1775 -19.1729 -19.1391 -19.1387 -12.0355  -7.0692
    -5.5908  -4.3091  -3.8491  -2.7948  -1.3676  -0.1430   0.7437   1.9405
     2.2366   2.7780   3.9446   5.3435

          k = 0.0820 0.3308 0.0000 ( 57373 PWs)   bands (ev):

   -67.5655 -67.5450 -34.4709 -34.2832 -34.1622 -34.0643 -33.8650 -33.7883
   -19.2454 -19.2356 -19.2353 -19.2277 -19.2216 -19.2151 -19.2122 -19.2050
   -19.1997 -19.1936 -19.1641 -19.1606 -19.1511 -19.1496 -11.5862  -6.6416
    -5.5395  -4.6353  -4.0062  -2.8074  -1.8142   0.5101   0.8130   2.1934
     2.8457   3.4096   4.0770   5.9448

          k = 0.0820 0.4254 0.0000 ( 57363 PWs)   bands (ev):

   -67.5496 -67.5345 -34.5052 -34.4340 -34.2357 -34.0825 -33.9223 -33.8303
   -19.2469 -19.2388 -19.2329 -19.2279 -19.2250 -19.2141 -19.2123 -19.2051
   -19.1966 -19.1908 -19.1610 -19.1580 -19.1521 -19.1497 -11.2417  -6.7894
    -5.1708  -4.7567  -4.0129  -3.0090  -1.8172   0.8261   1.5705   2.0191
     3.6580   3.9491   4.7820   6.2967

          k = 0.0820 0.5199 0.0000 ( 57446 PWs)   bands (ev):

   -67.5399 -67.5291 -34.5781 -34.5107 -34.2279 -34.0976 -33.9538 -33.8548
   -19.2485 -19.2400 -19.2344 -19.2286 -19.2247 -19.2147 -19.2106 -19.2050
   -19.1946 -19.1889 -19.1665 -19.1622 -19.1450 -19.1436 -11.0653  -6.9719
    -5.0877  -4.7601  -3.7747  -3.2364  -1.6598   1.1844   1.6766   2.2610
     3.9728   4.4365   5.7498   6.2771

          k = 0.0818-0.5199 0.0000 ( 57442 PWs)   bands (ev):

   -67.5399 -67.5291 -34.5779 -34.5105 -34.2279 -34.0976 -33.9539 -33.8548
   -19.2485 -19.2400 -19.2342 -19.2287 -19.2247 -19.2147 -19.2107 -19.2050
   -19.1946 -19.1889 -19.1665 -19.1622 -19.1450 -19.1436 -11.0655  -6.9716
    -5.0876  -4.7599  -3.7709  -3.2409  -1.6592   1.1849   1.6765   2.2615
     3.9718   4.4371   5.7495   6.2772

          k = 0.0818-0.4253 0.0000 ( 57371 PWs)   bands (ev):

   -67.5496 -67.5346 -34.5048 -34.4336 -34.2356 -34.0826 -33.9227 -33.8304
   -19.2469 -19.2388 -19.2327 -19.2279 -19.2252 -19.2139 -19.2127 -19.2051
   -19.1965 -19.1908 -19.1610 -19.1580 -19.1521 -19.1497 -11.2421  -6.7888
    -5.1718  -4.7553  -4.0079  -3.0148  -1.8161   0.8268   1.5743   2.0169
     3.6536   3.9485   4.7808   6.2949

          k = 0.0819-0.3308 0.0000 ( 57391 PWs)   bands (ev):

   -67.5655 -67.5450 -34.4709 -34.2825 -34.1617 -34.0643 -33.8656 -33.7884
   -19.2454 -19.2356 -19.2353 -19.2277 -19.2216 -19.2152 -19.2125 -19.2049
   -19.1996 -19.1936 -19.1641 -19.1606 -19.1511 -19.1495 -11.5868  -6.6413
    -5.5411  -4.6328  -4.0022  -2.8105  -1.8139   0.5072   0.8191   2.1923
     2.8395   3.4078   4.0761   5.9472

          k = 0.0819-0.2363 0.0000 ( 57376 PWs)   bands (ev):

   -67.5831 -67.5578 -34.5088 -34.1395 -34.0114 -33.9906 -33.7960 -33.7404
   -19.2471 -19.2391 -19.2309 -19.2259 -19.2205 -19.2151 -19.2120 -19.2035
   -19.2018 -19.1965 -19.1775 -19.1729 -19.1392 -19.1387 -12.0359  -7.0695
    -5.5927  -4.3067  -3.8465  -2.7933  -1.3694  -0.1412   0.7408   1.9412
     2.2381   2.7723   3.9402   5.3486

          k = 0.0819-0.1418 0.0000 ( 57427 PWs)   bands (ev):

   -67.5979 -67.5691 -34.5547 -34.1132 -33.8547 -33.8326 -33.7363 -33.6967
   -19.2517 -19.2407 -19.2266 -19.2246 -19.2212 -19.2189 -19.2069 -19.2022
   -19.2014 -19.1985 -19.1890 -19.1835 -19.1286 -19.1281 -12.4587  -7.7279
    -5.4315  -3.8039  -3.6580  -2.9830  -0.7490  -0.6341   0.8750   1.6479
     1.8102   2.9965   3.5662   4.8420

          k = 0.0819-0.0472 0.0000 ( 57443 PWs)   bands (ev):

   -67.6064 -67.5758 -34.5823 -34.1127 -33.7585 -33.7159 -33.7155 -33.6684
   -19.2548 -19.2417 -19.2245 -19.2229 -19.2227 -19.2212 -19.2036 -19.2016
   -19.2007 -19.1992 -19.1956 -19.1897 -19.1224 -19.1217 -12.7135  -8.1320
    -5.3186  -3.5487  -3.3868  -3.1677  -1.0622  -0.0463   0.5410   1.8789
     2.1873   2.9485   3.2927   4.1769

          k = 0.1638 0.0946 0.0000 ( 57446 PWs)   bands (ev):

   -67.5939 -67.5660 -34.5419 -34.1168 -33.9148 -33.8670 -33.7600 -33.6965
   -19.2504 -19.2402 -19.2285 -19.2229 -19.2229 -19.2171 -19.2085 -19.2030
   -19.2020 -19.1974 -19.1860 -19.1808 -19.1315 -19.1309 -12.3429  -7.5523
    -5.4795  -4.0346  -3.4702  -3.1109  -1.0093  -0.3970   1.1208   1.3215
     2.0946   2.8199   3.6311   4.9483

          k = 0.1639 0.1891 0.0000 ( 57395 PWs)   bands (ev):

   -67.5830 -67.5577 -34.5085 -34.1403 -34.0126 -33.9908 -33.7955 -33.7404
   -19.2468 -19.2393 -19.2310 -19.2260 -19.2208 -19.2146 -19.2118 -19.2040
   -19.2020 -19.1961 -19.1775 -19.1729 -19.1392 -19.1386 -12.0350  -7.0682
    -5.5851  -4.3124  -3.8539  -2.8029  -1.3671  -0.1380   0.7509   1.9370
     2.2380   2.7866   3.9422   5.3383

          k = 0.1639 0.2836 0.0000 ( 57394 PWs)   bands (ev):

   -67.5678 -67.5467 -34.4707 -34.2270 -34.1481 -34.0557 -33.8610 -33.8160
   -19.2413 -19.2390 -19.2335 -19.2295 -19.2201 -19.2150 -19.2132 -19.2051
   -19.1999 -19.1946 -19.1660 -19.1623 -19.1495 -19.1492 -11.6350  -6.4251
    -5.6904  -4.6299  -4.2208  -2.5249  -1.6904   0.0607   0.4340   2.2175
     3.0406   3.2028   4.4849   5.7341

          k = 0.1639 0.3781 0.0000 ( 57360 PWs)   bands (ev):

   -67.5521 -67.5361 -34.4659 -34.3528 -34.2294 -34.0821 -33.9450 -33.8862
   -19.2414 -19.2359 -19.2350 -19.2301 -19.2224 -19.2155 -19.2134 -19.2055
   -19.1966 -19.1935 -19.1604 -19.1593 -19.1539 -19.1513 -11.2676  -6.2100
    -5.4664  -4.8013  -4.3832  -2.6460  -1.6840  -0.1875   1.2095   2.1697
     3.6381   4.2118   4.8801   6.3404

          k = 0.1639 0.4726 0.0000 ( 57377 PWs)   bands (ev):

   -67.5398 -67.5291 -34.5107 -34.4430 -34.2273 -34.1174 -34.0032 -33.9351
   -19.2437 -19.2370 -19.2338 -19.2274 -19.2245 -19.2159 -19.2134 -19.2048
   -19.1956 -19.1921 -19.1681 -19.1656 -19.1453 -19.1437 -11.0241  -6.4519
    -4.9280  -4.8662  -4.4034  -3.0257  -1.4535   0.0248   1.9797   2.3107
     3.8268   4.5346   5.4231   6.3571

          k = 0.1639 0.5672 0.0000 ( 57404 PWs)   bands (ev):

   -67.5349 -67.5269 -34.5378 -34.4720 -34.2095 -34.1443 -34.0194 -33.9534
   -19.2447 -19.2373 -19.2325 -19.2298 -19.2227 -19.2165 -19.2128 -19.2045
   -19.1957 -19.1913 -19.1709 -19.1678 -19.1419 -19.1410 -10.9411  -6.5621
    -4.8972  -4.7264  -4.3081  -3.2763  -1.3139   0.2284   2.2188   2.4624
     4.0583   4.4472   5.5835   6.1203

          k = 0.1638-0.4726 0.0000 ( 57377 PWs)   bands (ev):

   -67.5398 -67.5291 -34.5100 -34.4423 -34.2272 -34.1178 -34.0037 -33.9351
   -19.2437 -19.2370 -19.2335 -19.2276 -19.2247 -19.2159 -19.2136 -19.2047
   -19.1956 -19.1920 -19.1681 -19.1656 -19.1453 -19.1437 -11.0248  -6.4508
    -4.9311  -4.8631  -4.3985  -3.0307  -1.4523   0.0254   1.9838   2.3074
     3.8291   4.5248   5.4244   6.3578

          k = 0.1638-0.3781 0.0000 ( 57364 PWs)   bands (ev):

   -67.5521 -67.5361 -34.4653 -34.3515 -34.2291 -34.0823 -33.9459 -33.8863
   -19.2413 -19.2359 -19.2348 -19.2304 -19.2225 -19.2155 -19.2138 -19.2053
   -19.1965 -19.1935 -19.1605 -19.1593 -19.1539 -19.1513 -11.2686  -6.2089
    -5.4689  -4.7970  -4.3785  -2.6508  -1.6818  -0.1895   1.2150   2.1646
     3.6364   4.2048   4.8755   6.3440

          k = 0.1638-0.2835 0.0000 ( 57387 PWs)   bands (ev):

   -67.5679 -67.5467 -34.4707 -34.2256 -34.1476 -34.0556 -33.8618 -33.8163
   -19.2414 -19.2389 -19.2334 -19.2295 -19.2199 -19.2152 -19.2136 -19.2048
   -19.1997 -19.1947 -19.1660 -19.1622 -19.1495 -19.1492 -11.6360  -6.4258
    -5.6933  -4.6247  -4.2161  -2.5243  -1.6902   0.0529   0.4400   2.2144
     3.0350   3.2007   4.4781   5.7431

          k = 0.1638-0.1890 0.0000 ( 57385 PWs)   bands (ev):

   -67.5830 -67.5578 -34.5087 -34.1397 -34.0117 -33.9904 -33.7961 -33.7405
   -19.2469 -19.2392 -19.2309 -19.2259 -19.2206 -19.2150 -19.2120 -19.2036
   -19.2018 -19.1964 -19.1775 -19.1729 -19.1392 -19.1387 -12.0357  -7.0692
    -5.5893  -4.3086  -3.8492  -2.7978  -1.3691  -0.1384   0.7447   1.9393
     2.2388   2.7772   3.9384   5.3458

          k = 0.1638-0.0945 0.0000 ( 57448 PWs)   bands (ev):

   -67.5939 -67.5661 -34.5420 -34.1167 -33.9140 -33.8669 -33.7603 -33.6966
   -19.2505 -19.2402 -19.2285 -19.2230 -19.2226 -19.2173 -19.2087 -19.2026
   -19.2018 -19.1977 -19.1860 -19.1807 -19.1314 -19.1309 -12.3433  -7.5530
    -5.4826  -4.0341  -3.4677  -3.1044  -1.0093  -0.4019   1.1266   1.3164
     2.0963   2.8070   3.6352   4.9526

          k = 0.1638 0.0000 0.0000 ( 57421 PWs)   bands (ev):

   -67.5979 -67.5691 -34.5545 -34.1136 -33.8565 -33.8330 -33.7350 -33.6966
   -19.2516 -19.2407 -19.2267 -19.2248 -19.2214 -19.2185 -19.2069 -19.2026
   -19.2018 -19.1980 -19.1890 -19.1836 -19.1286 -19.1281 -12.4581  -7.7272
    -5.4267  -3.8033  -3.6621  -2.9941  -0.7520  -0.6237   0.8697   1.6614
     1.8007   3.0029   3.5802   4.8217

          k = 0.2458 0.1418 0.0000 ( 57404 PWs)   bands (ev):

   -67.5765 -67.5530 -34.4920 -34.1953 -34.0684 -34.0414 -33.8181 -33.7374
   -19.2468 -19.2373 -19.2337 -19.2239 -19.2227 -19.2138 -19.2128 -19.2049
   -19.2016 -19.1947 -19.1726 -19.1685 -19.1435 -19.1422 -11.8687  -6.9276
    -5.6046  -4.4755  -3.5740  -3.1345  -1.6531   0.3212   1.1723   1.8883
     2.5284   2.6775   3.7510   5.5317

          k = 0.2458 0.2363 0.0000 ( 57372 PWs)   bands (ev):

   -67.5653 -67.5450 -34.4709 -34.2840 -34.1625 -34.0646 -33.8655 -33.7885
   -19.2449 -19.2360 -19.2350 -19.2276 -19.2219 -19.2151 -19.2122 -19.2055
   -19.1999 -19.1934 -19.1641 -19.1606 -19.1511 -19.1494 -11.5850  -6.6368
    -5.5334  -4.6438  -4.0127  -2.8238  -1.8128   0.5277   0.8217   2.2036
     2.8461   3.4040   4.0789   5.9350

          k = 0.2458 0.3309 0.0000 ( 57356 PWs)   bands (ev):

   -67.5519 -67.5361 -34.4661 -34.3534 -34.2290 -34.0822 -33.9457 -33.8861
   -19.2415 -19.2357 -19.2345 -19.2305 -19.2225 -19.2152 -19.2138 -19.2058
   -19.1967 -19.1933 -19.1605 -19.1591 -19.1539 -19.1513 -11.2668  -6.2039
    -5.4712  -4.8025  -4.3861  -2.6556  -1.6843  -0.1762   1.2145   2.1741
     3.6381   4.2094   4.8829   6.3352

          k = 0.2458 0.4254 0.0000 ( 57318 PWs)   bands (ev):

   -67.5397 -67.5291 -34.4726 -34.3882 -34.2494 -34.1155 -34.0343 -33.9844
   -19.2411 -19.2348 -19.2309 -19.2300 -19.2248 -19.2164 -19.2149 -19.2048
   -19.1952 -19.1946 -19.1685 -19.1676 -19.1454 -19.1437 -11.0027  -5.7680
    -5.6044  -4.7457  -4.5329  -2.8582  -1.2599  -0.5966   1.9005   2.4539
     3.6699   4.5720   5.2456   6.6398

          k = 0.2458 0.5199 0.0000 ( 57379 PWs)   bands (ev):

   -67.5316 -67.5260 -34.4638 -34.3990 -34.2519 -34.1836 -34.0665 -34.0417
   -19.2420 -19.2322 -19.2308 -19.2285 -19.2231 -19.2186 -19.2162 -19.2029
   -19.1969 -19.1948 -19.1736 -19.1723 -19.1403 -19.1395 -10.8553  -5.9397
    -5.1443  -4.7277  -4.6205  -3.1523  -0.9457  -0.4716   2.5595   2.7678
     3.5033   4.1698   5.1627   6.3215

          k = 0.2459 0.6144 0.0000 ( 57379 PWs)   bands (ev):

   -67.5317 -67.5260 -34.4630 -34.3983 -34.2520 -34.1843 -34.0677 -34.0407
   -19.2419 -19.2320 -19.2308 -19.2286 -19.2234 -19.2187 -19.2162 -19.2028
   -19.1969 -19.1947 -19.1736 -19.1724 -19.1403 -19.1395 -10.8558  -5.9385
    -5.1444  -4.7277  -4.6184  -3.1539  -0.9453  -0.4715   2.5624   2.7636
     3.5071   4.1619   5.1632   6.3204

          k = 0.2457-0.4253 0.0000 ( 57314 PWs)   bands (ev):

   -67.5398 -67.5291 -34.4714 -34.3864 -34.2500 -34.1161 -34.0353 -33.9841
   -19.2407 -19.2346 -19.2309 -19.2304 -19.2249 -19.2166 -19.2149 -19.2046
   -19.1952 -19.1944 -19.1685 -19.1677 -19.1454 -19.1437 -11.0039  -5.7661
    -5.6048  -4.7437  -4.5287  -2.8609  -1.2572  -0.5998   1.9040   2.4475
     3.6727   4.5588   5.2454   6.6360

          k = 0.2457-0.3308 0.0000 ( 57358 PWs)   bands (ev):

   -67.5521 -67.5361 -34.4654 -34.3517 -34.2290 -34.0823 -33.9463 -33.8863
   -19.2412 -19.2358 -19.2346 -19.2306 -19.2225 -19.2154 -19.2140 -19.2055
   -19.1965 -19.1934 -19.1605 -19.1592 -19.1539 -19.1513 -11.2682  -6.2059
    -5.4713  -4.7977  -4.3802  -2.6558  -1.6818  -0.1834   1.2177   2.1669
     3.6364   4.2033   4.8771   6.3408

          k = 0.2457-0.2363 0.0000 ( 57369 PWs)   bands (ev):

   -67.5654 -67.5450 -34.4708 -34.2829 -34.1619 -34.0644 -33.8659 -33.7887
   -19.2450 -19.2357 -19.2352 -19.2276 -19.2217 -19.2152 -19.2125 -19.2051
   -19.1997 -19.1935 -19.1641 -19.1606 -19.1511 -19.1494 -11.5861  -6.6392
    -5.5373  -4.6377  -4.0058  -2.8194  -1.8129   0.5171   0.8236   2.1979
     2.8397   3.4046   4.0770   5.9418

          k = 0.2457-0.1417 0.0000 ( 57412 PWs)   bands (ev):

   -67.5766 -67.5530 -34.4922 -34.1949 -34.0674 -34.0415 -33.8182 -33.7374
   -19.2470 -19.2373 -19.2337 -19.2240 -19.2223 -19.2139 -19.2131 -19.2046
   -19.2014 -19.1949 -19.1726 -19.1684 -19.1435 -19.1422 -11.8695  -6.9293
    -5.6094  -4.4711  -3.5693  -3.1274  -1.6538   0.3170   1.1638   1.8906
     2.5167   2.6806   3.7538   5.5357

          k = 0.2457-0.0472 0.0000 ( 57387 PWs)   bands (ev):

   -67.5829 -67.5577 -34.5085 -34.1409 -34.0120 -33.9920 -33.7948 -33.7402
   -19.2468 -19.2392 -19.2311 -19.2260 -19.2207 -19.2146 -19.2120 -19.2039
   -19.2020 -19.1961 -19.1776 -19.1730 -19.1391 -19.1387 -12.0347  -7.0686
    -5.5848  -4.3142  -3.8545  -2.8016  -1.3650  -0.1430   0.7518   1.9380
     2.2360   2.7895   3.9485   5.3339

          k = 0.2458 0.0473 0.0000 ( 57393 PWs)   bands (ev):

   -67.5829 -67.5577 -34.5084 -34.1410 -34.0128 -33.9915 -33.7948 -33.7402
   -19.2467 -19.2392 -19.2311 -19.2260 -19.2208 -19.2145 -19.2119 -19.2041
   -19.2021 -19.1960 -19.1776 -19.1730 -19.1392 -19.1386 -12.0344  -7.0679
    -5.5824  -4.3156  -3.8567  -2.8053  -1.3648  -0.1408   0.7551   1.9363
     2.2368   2.7932   3.9478   5.3315

          k = 0.3277 0.1891 0.0000 ( 57340 PWs)   bands (ev):

   -67.5586 -67.5404 -34.4805 -34.3758 -34.2117 -34.0719 -33.8741 -33.7794
   -19.2475 -19.2380 -19.2325 -19.2260 -19.2257 -19.2141 -19.2119 -19.2058
   -19.1988 -19.1915 -19.1590 -19.1560 -19.1549 -19.1520 -11.4436  -6.8446
    -5.3632  -4.6979  -3.6364  -3.2525  -1.9164   1.1361   1.5053   2.0958
     2.6846   3.7782   3.9103   6.0450

          k = 0.3277 0.2836 0.0000 ( 57361 PWs)   bands (ev):

   -67.5493 -67.5345 -34.5063 -34.4355 -34.2341 -34.0837 -33.9231 -33.8307
   -19.2469 -19.2386 -19.2322 -19.2279 -19.2254 -19.2140 -19.2128 -19.2058
   -19.1966 -19.1907 -19.1610 -19.1577 -19.1520 -19.1497 -11.2394  -6.7842
    -5.1663  -4.7676  -4.0200  -3.0284  -1.8149   0.8496   1.5810   2.0331
     3.6565   3.9495   4.7815   6.2859

          k = 0.3277 0.3781 0.0000 ( 57378 PWs)   bands (ev):

   -67.5395 -67.5291 -34.5118 -34.4445 -34.2254 -34.1178 -34.0046 -33.9348
   -19.2442 -19.2363 -19.2332 -19.2273 -19.2250 -19.2157 -19.2140 -19.2054
   -19.1957 -19.1919 -19.1681 -19.1653 -19.1452 -19.1437 -11.0222  -6.4485
    -4.9345  -4.8683  -4.4059  -3.0377  -1.4541   0.0397   1.9903   2.3207
     3.8285   4.5300   5.4243   6.3673

          k = 0.3277 0.4727 0.0000 ( 57381 PWs)   bands (ev):

   -67.5314 -67.5261 -34.4650 -34.4004 -34.2511 -34.1820 -34.0680 -34.0411
   -19.2424 -19.2320 -19.2300 -19.2284 -19.2237 -19.2185 -19.2165 -19.2031
   -19.1971 -19.1946 -19.1736 -19.1721 -19.1402 -19.1395 -10.8541  -5.9393
    -5.1485  -4.7326  -4.6169  -3.1565  -0.9492  -0.4634   2.5683   2.7726
     3.5022   4.1697   5.1613   6.3236

          k = 0.3278 0.5672 0.0000 ( 57386 PWs)   bands (ev):

   -67.5268 -67.5266 -34.3853 -34.3445 -34.3437 -34.2326 -34.0830 -34.0805
   -19.2417 -19.2299 -19.2299 -19.2233 -19.2230 -19.2214 -19.2203 -19.1997
   -19.1981 -19.1978 -19.1754 -19.1753 -19.1382 -19.1382 -10.7905  -5.4409
    -5.4371  -4.9152  -4.5612  -3.1831  -0.6384  -0.6331   2.9581   2.9596
     3.4962   3.5038   4.8877   6.6781

          k = 0.3278 0.6617 0.0000 ( 57384 PWs)   bands (ev):

   -67.5316 -67.5260 -34.4638 -34.3988 -34.2517 -34.1835 -34.0684 -34.0405
   -19.2421 -19.2319 -19.2304 -19.2286 -19.2237 -19.2186 -19.2163 -19.2029
   -19.1971 -19.1946 -19.1736 -19.1723 -19.1403 -19.1395 -10.8551  -5.9385
    -5.1466  -4.7302  -4.6168  -3.1559  -0.9471  -0.4671   2.5673   2.7661
     3.5064   4.1621   5.1625   6.3208

          k = 0.3276-0.3780 0.0000 ( 57373 PWs)   bands (ev):

   -67.5397 -67.5291 -34.5108 -34.4428 -34.2264 -34.1179 -34.0045 -33.9350
   -19.2438 -19.2367 -19.2332 -19.2276 -19.2250 -19.2159 -19.2139 -19.2050
   -19.1956 -19.1918 -19.1681 -19.1655 -19.1452 -19.1437 -11.0237  -6.4494
    -4.9345  -4.8642  -4.4002  -3.0367  -1.4524   0.0334   1.9893   2.3128
     3.8303   4.5223   5.4250   6.3626

          k = 0.3276-0.2835 0.0000 ( 57371 PWs)   bands (ev):

   -67.5495 -67.5345 -34.5055 -34.4341 -34.2349 -34.0831 -33.9231 -33.8307
   -19.2467 -19.2387 -19.2324 -19.2279 -19.2254 -19.2139 -19.2130 -19.2055
   -19.1965 -19.1907 -19.1610 -19.1578 -19.1520 -19.1497 -11.2409  -6.7865
    -5.1692  -4.7615  -4.0118  -3.0250  -1.8144   0.8397   1.5795   2.0247
     3.6526   3.9488   4.7805   6.2881

          k = 0.3276-0.1890 0.0000 ( 57342 PWs)   bands (ev):

   -67.5587 -67.5405 -34.4802 -34.3749 -34.2120 -34.0714 -33.8741 -33.7793
   -19.2476 -19.2380 -19.2327 -19.2260 -19.2255 -19.2140 -19.2120 -19.2054
   -19.1987 -19.1915 -19.1590 -19.1560 -19.1549 -19.1521 -11.4447  -6.8475
    -5.3668  -4.6922  -3.6305  -3.2447  -1.9169   1.1277   1.4967   2.0860
     2.6862   3.7795   3.9125   6.0479

          k = 0.3276-0.0945 0.0000 ( 57368 PWs)   bands (ev):

   -67.5653 -67.5450 -34.4709 -34.2844 -34.1628 -34.0644 -33.8648 -33.7883
   -19.2451 -19.2358 -19.2352 -19.2277 -19.2216 -19.2152 -19.2121 -19.2053
   -19.1999 -19.1935 -19.1641 -19.1606 -19.1510 -19.1495 -11.5848  -6.6398
    -5.5340  -4.6433  -4.0140  -2.8134  -1.8136   0.5236   0.8096   2.2010
     2.8539   3.4094   4.0784   5.9365

          k = 0.3277 0.0001 0.0000 ( 57390 PWs)   bands (ev):

   -67.5677 -67.5466 -34.4706 -34.2289 -34.1485 -34.0559 -33.8602 -33.8157
   -19.2410 -19.2391 -19.2337 -19.2294 -19.2201 -19.2149 -19.2130 -19.2053
   -19.2001 -19.1945 -19.1660 -19.1623 -19.1495 -19.1492 -11.6338  -6.4247
    -5.6865  -4.6366  -4.2261  -2.5264  -1.6908   0.0706   0.4259   2.2221
     3.0476   3.2065   4.4928   5.7225

          k = 0.3277 0.0946 0.0000 ( 57368 PWs)   bands (ev):

   -67.5652 -67.5450 -34.4709 -34.2848 -34.1629 -34.0647 -33.8650 -33.7883
   -19.2449 -19.2360 -19.2350 -19.2277 -19.2217 -19.2151 -19.2121 -19.2056
   -19.2000 -19.1934 -19.1641 -19.1606 -19.1511 -19.1494 -11.5842  -6.6372
    -5.5316  -4.6470  -4.0170  -2.8209  -1.8133   0.5313   0.8139   2.2057
     2.8541   3.4069   4.0794   5.9321

          k = 0.4096 0.2364 0.0000 ( 57413 PWs)   bands (ev):

   -67.5448 -67.5319 -34.5619 -34.4975 -34.2375 -34.0858 -33.9142 -33.8106
   -19.2496 -19.2401 -19.2332 -19.2276 -19.2261 -19.2134 -19.2116 -19.2058
   -19.1952 -19.1887 -19.1627 -19.1582 -19.1487 -19.1469 -11.1718  -7.0566
    -5.1780  -4.7798  -3.4640  -3.3759  -1.8282   1.5324   1.8290   2.1540
     3.1359   4.3233   5.1303   6.1881

          k = 0.4096 0.3309 0.0000 ( 57438 PWs)   bands (ev):

   -67.5394 -67.5291 -34.5798 -34.5130 -34.2243 -34.0999 -33.9546 -33.8552
   -19.2487 -19.2395 -19.2339 -19.2284 -19.2247 -19.2146 -19.2113 -19.2058
   -19.1946 -19.1888 -19.1664 -19.1618 -19.1449 -19.1436 -11.0620  -6.9692
    -5.0851  -4.7717  -3.7840  -3.2514  -1.6576   1.2052   1.6869   2.2809
     3.9745   4.4373   5.7567   6.2755

          k = 0.4097 0.4254 0.0000 ( 57406 PWs)   bands (ev):

   -67.5345 -67.5270 -34.5398 -34.4745 -34.2058 -34.1454 -34.0208 -33.9530
   -19.2453 -19.2364 -19.2325 -19.2295 -19.2226 -19.2164 -19.2134 -19.2052
   -19.1958 -19.1912 -19.1709 -19.1675 -19.1419 -19.1410 -10.9379  -6.5616
    -4.8991  -4.7357  -4.3130  -3.2834  -1.3155   0.2416   2.2285   2.4796
     4.0533   4.4559   5.5795   6.1271

          k = 0.4097 0.5199 0.0000 ( 57375 PWs)   bands (ev):

   -67.5313 -67.5261 -34.4658 -34.4013 -34.2501 -34.1819 -34.0673 -34.0416
   -19.2425 -19.2322 -19.2300 -19.2283 -19.2234 -19.2184 -19.2167 -19.2032
   -19.1970 -19.1947 -19.1736 -19.1721 -19.1402 -19.1395 -10.8534  -5.9410
    -5.1483  -4.7332  -4.6190  -3.1546  -0.9501  -0.4636   2.5642   2.7787
     3.4972   4.1789   5.1619   6.3250

          k = 0.4097 0.6145 0.0000 ( 57380 PWs)   bands (ev):

   -67.5314 -67.5261 -34.4654 -34.4004 -34.2507 -34.1826 -34.0665 -34.0420
   -19.2423 -19.2324 -19.2304 -19.2283 -19.2231 -19.2185 -19.2165 -19.2031
   -19.1969 -19.1948 -19.1735 -19.1722 -19.1402 -19.1395 -10.8539  -5.9415
    -5.1464  -4.7308  -4.6210  -3.1524  -0.9485  -0.4674   2.5603   2.7763
     3.4976   4.1792   5.1626   6.3233

          k = 0.4097 0.7090 0.0000 ( 57400 PWs)   bands (ev):

   -67.5346 -67.5270 -34.5390 -34.4730 -34.2076 -34.1449 -34.0202 -33.9533
   -19.2450 -19.2369 -19.2325 -19.2296 -19.2227 -19.2165 -19.2132 -19.2049
   -19.1958 -19.1912 -19.1708 -19.1676 -19.1419 -19.1410 -10.9392  -6.5623
    -4.8980  -4.7318  -4.3112  -3.2795  -1.3145   0.2354   2.2236   2.4720
     4.0552   4.4524   5.5815   6.1233

          k = 0.4095-0.3308 0.0000 ( 57434 PWs)   bands (ev):

   -67.5396 -67.5291 -34.5790 -34.5115 -34.2261 -34.0988 -33.9544 -33.8551
   -19.2485 -19.2398 -19.2341 -19.2286 -19.2247 -19.2147 -19.2111 -19.2055
   -19.1946 -19.1888 -19.1664 -19.1620 -19.1449 -19.1436 -11.0636  -6.9707
    -5.0861  -4.7666  -3.7764  -3.2482  -1.6575   1.1961   1.6816   2.2725
     3.9724   4.4375   5.7535   6.2765

          k = 0.4095-0.2362 0.0000 ( 57413 PWs)   bands (ev):

   -67.5450 -67.5319 -34.5612 -34.4961 -34.2389 -34.0848 -33.9140 -33.8104
   -19.2495 -19.2403 -19.2335 -19.2278 -19.2260 -19.2135 -19.2114 -19.2055
   -19.1953 -19.1887 -19.1627 -19.1583 -19.1487 -19.1468 -11.1732  -7.0588
    -5.1802  -4.7743  -3.4585  -3.3676  -1.8292   1.5269   1.8125   2.1465
     3.1394   4.3218   5.1298   6.1912

          k = 0.4096-0.1417 0.0000 ( 57361 PWs)   bands (ev):

   -67.5494 -67.5345 -34.5063 -34.4350 -34.2349 -34.0831 -33.9224 -33.8305
   -19.2468 -19.2388 -19.2328 -19.2278 -19.2250 -19.2141 -19.2124 -19.2055
   -19.1967 -19.1907 -19.1610 -19.1578 -19.1520 -19.1497 -11.2397  -6.7879
    -5.1671  -4.7646  -4.0221  -3.0134  -1.8170   0.8381   1.5707   2.0302
     3.6621   3.9497   4.7837   6.2927

          k = 0.4096-0.0472 0.0000 ( 57358 PWs)   bands (ev):

   -67.5519 -67.5361 -34.4667 -34.3546 -34.2290 -34.0822 -33.9446 -33.8859
   -19.2415 -19.2360 -19.2349 -19.2301 -19.2224 -19.2155 -19.2133 -19.2058
   -19.1969 -19.1934 -19.1604 -19.1592 -19.1539 -19.1513 -11.2658  -6.2084
    -5.4662  -4.8071  -4.3901  -2.6459  -1.6873  -0.1789   1.2046   2.1796
     3.6400   4.2194   4.8876   6.3330

          k = 0.4096 0.0473 0.0000 ( 57362 PWs)   bands (ev):

   -67.5518 -67.5361 -34.4668 -34.3550 -34.2287 -34.0823 -33.9450 -33.8858
   -19.2416 -19.2358 -19.2346 -19.2303 -19.2224 -19.2153 -19.2135 -19.2059
   -19.1969 -19.1933 -19.1604 -19.1591 -19.1539 -19.1514 -11.2654  -6.2053
    -5.4686  -4.8077  -4.3913  -2.6505  -1.6877  -0.1737   1.2069   2.1817
     3.6400   4.2184   4.8887   6.3309

          k = 0.4096 0.1419 0.0000 ( 57353 PWs)   bands (ev):

   -67.5493 -67.5345 -34.5067 -34.4360 -34.2340 -34.0838 -33.9227 -33.8306
   -19.2469 -19.2386 -19.2325 -19.2278 -19.2252 -19.2140 -19.2126 -19.2059
   -19.1967 -19.1907 -19.1610 -19.1577 -19.1520 -19.1497 -11.2387  -6.7850
    -5.1652  -4.7694  -4.0253  -3.0226  -1.8164   0.8486   1.5761   2.0365
     3.6616   3.9497   4.7836   6.2886

          k =-0.4915-0.2837 0.0000 ( 57432 PWs)   bands (ev):

   -67.5393 -67.5291 -34.6091 -34.5404 -34.2262 -34.0942 -33.9287 -33.8220
   -19.2506 -19.2404 -19.2351 -19.2284 -19.2252 -19.2143 -19.2100 -19.2060
   -19.1938 -19.1876 -19.1655 -19.1602 -19.1448 -19.1436 -11.0818  -7.1549
    -5.1720  -4.8055  -3.4262  -3.2906  -1.7652   1.4263   2.0956   2.3334
     3.1930   4.7995   5.7720   6.3354

          k =-0.4915-0.1891 0.0000 ( 57434 PWs)   bands (ev):

   -67.5394 -67.5291 -34.5800 -34.5132 -34.2241 -34.1000 -33.9544 -33.8552
   -19.2487 -19.2395 -19.2341 -19.2283 -19.2247 -19.2146 -19.2113 -19.2059
   -19.1946 -19.1888 -19.1664 -19.1618 -19.1449 -19.1436 -11.0617  -6.9696
    -5.0853  -4.7719  -3.7878  -3.2471  -1.6585   1.2044   1.6871   2.2802
     3.9756   4.4362   5.7573   6.2767

          k =-0.4915-0.0946 0.0000 ( 57386 PWs)   bands (ev):

   -67.5394 -67.5291 -34.5126 -34.4454 -34.2248 -34.1179 -34.0042 -33.9347
   -19.2443 -19.2363 -19.2336 -19.2270 -19.2248 -19.2157 -19.2139 -19.2054
   -19.1957 -19.1920 -19.1681 -19.1653 -19.1452 -19.1437 -11.0212  -6.4500
    -4.9313  -4.8719  -4.4113  -3.0323  -1.4560   0.0387   1.9850   2.3259
     3.8251   4.5413   5.4240   6.3676

          k =-0.4915-0.0001 0.0000 ( 57318 PWs)   bands (ev):

   -67.5395 -67.5291 -34.4739 -34.3903 -34.2479 -34.1154 -34.0337 -33.9843
   -19.2413 -19.2350 -19.2305 -19.2299 -19.2248 -19.2161 -19.2151 -19.2049
   -19.1951 -19.1949 -19.1685 -19.1676 -19.1454 -19.1438 -11.0010  -5.7713
    -5.6039  -4.7479  -4.5380  -2.8548  -1.2642  -0.5926   1.8953   2.4630
     3.6660   4.5876   5.2476   6.6443

          k =-0.4915 0.0944 0.0000 ( 57384 PWs)   bands (ev):

   -67.5395 -67.5291 -34.5122 -34.4444 -34.2259 -34.1176 -34.0035 -33.9349
   -19.2440 -19.2367 -19.2339 -19.2271 -19.2246 -19.2159 -19.2136 -19.2051
   -19.1957 -19.1920 -19.1680 -19.1655 -19.1452 -19.1437 -11.0220  -6.4519
    -4.9282  -4.8709  -4.4106  -3.0263  -1.4554   0.0318   1.9799   2.3213
     3.8245   4.5433   5.4235   6.3623

          k =-0.4915 0.1890 0.0000 ( 57440 PWs)   bands (ev):

   -67.5396 -67.5291 -34.5794 -34.5118 -34.2259 -34.0988 -33.9541 -33.8551
   -19.2485 -19.2398 -19.2343 -19.2284 -19.2246 -19.2147 -19.2110 -19.2055
   -19.1947 -19.1888 -19.1664 -19.1620 -19.1449 -19.1436 -11.0631  -6.9714
    -5.0864  -4.7669  -3.7840  -3.2394  -1.6590   1.1949   1.6818   2.2712
     3.9746   4.4359   5.7543   6.2768

          k =-0.4916-0.8508 0.0000 ( 57440 PWs)   bands (ev):

   -67.5396 -67.5291 -34.6084 -34.5389 -34.2282 -34.0928 -33.9285 -33.8218
   -19.2504 -19.2407 -19.2353 -19.2285 -19.2252 -19.2144 -19.2097 -19.2056
   -19.1938 -19.1875 -19.1655 -19.1604 -19.1448 -19.1436 -11.0834  -7.1566
    -5.1734  -4.8003  -3.4182  -3.2851  -1.7665   1.4206   2.0797   2.3243
     3.1969   4.7985   5.7681   6.3382

     the Fermi energy is     0.8296 ev

!    total energy              =   -1375.70126244 Ry
     estimated scf accuracy    <          6.4E-13 Ry
     smearing contrib. (-TS)   =      -0.00000369 Ry
     internal energy E=F+TS    =   -1375.70125875 Ry

     The total energy is F=E-TS. E is the sum of the following terms:
     one-electron contribution =  -11616.53347673 Ry
     hartree contribution      =    5838.41364010 Ry
     xc contribution           =    -140.31293285 Ry
     ewald contribution        =    4542.73151073 Ry

     convergence has been achieved in  19 iterations

     negative rho (up, down):  1.177E-04 0.000E+00

     Forces acting on atoms (cartesian axes, Ry/au):

     atom    1 type  2   force =    -0.00045443    0.00025786   -0.00000149
     atom    2 type  1   force =     0.00003911    0.00027376   -0.00018844
     atom    3 type  1   force =     0.00009866   -0.00034943    0.00018931
     atom    4 type  3   force =     0.00026923   -0.00055439   -0.00005908
     atom    5 type  3   force =     0.00004743    0.00037221    0.00005970

     Total force =     0.001039     Total SCF correction =     0.000008


     Computing stress (Cartesian axis) and pressure


     negative rho (up, down):  1.177E-04 0.000E+00
          total   stress  (Ry/bohr**3)                   (kbar)     P=        0.17
   0.00000043   0.00000012   0.00000076            0.06        0.02        0.11
   0.00000012   0.00000321  -0.00000378            0.02        0.47       -0.56
   0.00000076  -0.00000378  -0.00000010            0.11       -0.56       -0.01


     Writing output data file /scratch/as3359/Ta2CH2-VCrelax/Ta.save/
 
     init_run     :     54.21s CPU     30.02s WALL (       1 calls)
     electrons    :   2207.76s CPU   1125.42s WALL (       1 calls)
     forces       :     17.86s CPU      9.19s WALL (       1 calls)
     stress       :     87.30s CPU     44.65s WALL (       1 calls)

     Called by init_run:
     wfcinit      :     42.16s CPU     21.87s WALL (       1 calls)
     potinit      :      3.42s CPU      1.74s WALL (       1 calls)
     hinit0       :      6.43s CPU      4.91s WALL (       1 calls)

     Called by electrons:
     c_bands      :   1803.29s CPU    911.76s WALL (      19 calls)
     sum_band     :    358.43s CPU    185.75s WALL (      19 calls)
     v_of_rho     :      6.96s CPU      3.78s WALL (      20 calls)
     newd         :     38.04s CPU     23.66s WALL (      20 calls)
     mix_rho      :      2.80s CPU      1.54s WALL (      19 calls)

     Called by c_bands:
     init_us_2    :     47.08s CPU     23.57s WALL (    3034 calls)
     cegterg      :   1665.28s CPU    842.16s WALL (    1406 calls)

     Called by *egterg:
     cdiaghg      :     16.27s CPU      8.32s WALL (    7131 calls)
     h_psi        :   1324.17s CPU    671.38s WALL (    7205 calls)
     s_psi        :     74.88s CPU     37.47s WALL (    7205 calls)
     g_psi        :      8.64s CPU      4.34s WALL (    5725 calls)

     Called by h_psi:
     h_psi:calbec :     58.46s CPU     29.28s WALL (    7205 calls)
     vloc_psi     :   1173.39s CPU    595.66s WALL (    7205 calls)
     add_vuspsi   :     79.62s CPU     39.85s WALL (    7205 calls)

     General routines
     calbec       :     80.40s CPU     40.28s WALL (    8981 calls)
     fft          :      5.17s CPU      2.65s WALL (     245 calls)
     ffts         :      0.25s CPU      0.13s WALL (      19 calls)
     fftw         :   1171.22s CPU    595.59s WALL (  303112 calls)
 
     Parallel routines
 
     PWSCF        :  39m34.30s CPU  20m15.58s WALL

 
   This run was terminated on:  18:44:11   7Apr2022            

=------------------------------------------------------------------------------=
   JOB DONE.
=------------------------------------------------------------------------------=
