
     Program PWSCF v.6.8 starts on  7Apr2022 at 19: 4:30 

     This program is part of the open-source Quantum ESPRESSO suite
     for quantum simulation of materials; please cite
         "P. Giannozzi et al., J. Phys.:Condens. Matter 21 395502 (2009);
         "P. Giannozzi et al., J. Phys.:Condens. Matter 29 465901 (2017);
         "P. Giannozzi et al., J. Chem. Phys. 152 154105 (2020);
          URL http://www.quantum-espresso.org", 
     in publications or presentations arising from this work. More details at
     http://www.quantum-espresso.org/quote

     Parallel version (MPI & OpenMP), running on       4 processor cores
     Number of MPI processes:                 2
     Threads/MPI process:                     2

     MPI processes distributed on     1 nodes
     R & G space division:  proc/nbgrp/npool/nimage =       2
     122676 MiB available memory on the printing compute node when the environment starts
 
     Reading input from Ta2CH2.scf.180.in

     Current dimensions of program PWSCF are:
     Max number of different atomic species (ntypx) = 10
     Max number of k-points (npk) =  40000
     Max angular momentum in pseudopotentials (lmaxx) =  4
     file Ta.pbesol-spfn-rrkjus_psl.1.0.0.UPF: wavefunction(s)  5S 5P renormalized

     Subspace diagonalization in iterative solution of the eigenvalue problem:
     a serial algorithm will be used

 
     Parallelization info
     --------------------
     sticks:   dense  smooth     PW     G-vecs:    dense   smooth      PW
     Min         792     792    231               249987   249987   39611
     Max         793     793    232               249988   249988   39624
     Sum        1585    1585    463               499975   499975   79235
 
     Using Slab Decomposition
 


     bravais-lattice index     =            0
     lattice parameter (alat)  =       5.5500  a.u.
     unit-cell volume          =    1533.2393 (a.u.)^3
     number of atoms/cell      =            5
     number of atomic types    =            3
     number of electrons       =        60.00
     number of Kohn-Sham states=           36
     kinetic-energy cutoff     =     180.0000  Ry
     charge density cutoff     =     720.0000  Ry
     scf convergence threshold =      1.0E-12
     mixing beta               =       0.7000
     number of iterations used =            8  plain     mixing
     Exchange-correlation= PBESOL
                           (   1   4  10   8   0   0   0)

     celldm(1)=   5.550000  celldm(2)=   0.000000  celldm(3)=   0.000000
     celldm(4)=   0.000000  celldm(5)=   0.000000  celldm(6)=   0.000000

     crystal axes: (cart. coord. in units of alat)
               a(1) = (   1.017295  -0.000177   0.000000 )  
               a(2) = (  -0.508801   0.881714   0.000000 )  
               a(3) = (   0.000000   0.000000  10.000000 )  

     reciprocal axes: (cart. coord. in units 2 pi/alat)
               b(1) = (  0.983098  0.567305  0.000000 )  
               b(2) = (  0.000198  1.134269  0.000000 )  
               b(3) = (  0.000000  0.000000  0.100000 )  


     PseudoPot. # 1 for Ta read from file:
     /shared/home/as3359/pseudo/Ta.pbesol-spfn-rrkjus_psl.1.0.0.UPF
     MD5 check sum: f099565ffaca9b150a52e9412a28e20b
     Pseudo is Ultrasoft + core correction, Zval = 27.0
     Generated using &quot;atomic&quot; code by A. Dal Corso  v.6.3
     Using radial grid of 1273 points,  8 beta functions with: 
                l(1) =   0
                l(2) =   0
                l(3) =   1
                l(4) =   1
                l(5) =   2
                l(6) =   2
                l(7) =   3
                l(8) =   3
     Q(r) pseudized with 0 coefficients 


     PseudoPot. # 2 for C  read from file:
     /shared/home/as3359/pseudo/C.pbesol-n-rrkjus_psl.1.0.0.UPF
     MD5 check sum: 05995be603a8a7c99da3dc4413f31573
     Pseudo is Ultrasoft + core correction, Zval =  4.0
     Generated using &quot;atomic&quot; code by A. Dal Corso  v.6.3MaX
     Using radial grid of 1073 points,  4 beta functions with: 
                l(1) =   0
                l(2) =   0
                l(3) =   1
                l(4) =   1
     Q(r) pseudized with 0 coefficients 


     PseudoPot. # 3 for H  read from file:
     /shared/home/as3359/pseudo/H.pbesol-rrkjus_psl.0.1.UPF
     MD5 check sum: 1dbb1a5c48b1283557b8117eb856a7ca
     Pseudo is Ultrasoft, Zval =  1.0
     Generated using "atomic" code by A. Dal Corso  v.5.0.2 svn rev. 9415
     Using radial grid of  929 points,  2 beta functions with: 
                l(1) =   0
                l(2) =   0
     Q(r) pseudized with 0 coefficients 


     atomic species   valence    mass     pseudopotential
        Ta            27.00   180.94788     Ta( 1.00)
        C              4.00    12.01070     C ( 1.00)
        H              1.00     1.00000     H ( 1.00)

     No symmetry found



   Cartesian axes

     site n.     atom                  positions (alat units)
         1           C   tau(   1) = (   0.0000000   0.0000000   0.0000000  )
         2           Ta  tau(   2) = (   0.5088008   0.2948413  -0.4364511  )
         3           Ta  tau(   3) = (  -0.0007447   0.5869407   0.4364532  )
         4           H   tau(   4) = (  -0.0017928  -0.0015314   0.8341930  )
         5           H   tau(   5) = (   0.0002769   0.0024412  -0.8341930  )

     number of k points=    74  Marzari-Vanderbilt smearing, width (Ry)=  0.0010
                       cart. coord. in units 2pi/alat
        k(    1) = (   0.0000000   0.0000000   0.0000000), wk =   0.0138889
        k(    2) = (   0.0000165   0.0945224   0.0000000), wk =   0.0277778
        k(    3) = (   0.0000329   0.1890448   0.0000000), wk =   0.0277778
        k(    4) = (   0.0000494   0.2835672   0.0000000), wk =   0.0277778
        k(    5) = (   0.0000659   0.3780896   0.0000000), wk =   0.0277778
        k(    6) = (   0.0000823   0.4726120   0.0000000), wk =   0.0277778
        k(    7) = (  -0.0000988  -0.5671343   0.0000000), wk =   0.0138889
        k(    8) = (   0.0819248   0.0472755   0.0000000), wk =   0.0277778
        k(    9) = (   0.0819413   0.1417978   0.0000000), wk =   0.0277778
        k(   10) = (   0.0819577   0.2363202   0.0000000), wk =   0.0277778
        k(   11) = (   0.0819742   0.3308426   0.0000000), wk =   0.0277778
        k(   12) = (   0.0819907   0.4253650   0.0000000), wk =   0.0277778
        k(   13) = (   0.0820071   0.5198874   0.0000000), wk =   0.0277778
        k(   14) = (   0.0818260  -0.5198589   0.0000000), wk =   0.0277778
        k(   15) = (   0.0818425  -0.4253365   0.0000000), wk =   0.0277778
        k(   16) = (   0.0818590  -0.3308141   0.0000000), wk =   0.0277778
        k(   17) = (   0.0818754  -0.2362917   0.0000000), wk =   0.0277778
        k(   18) = (   0.0818919  -0.1417693   0.0000000), wk =   0.0277778
        k(   19) = (   0.0819084  -0.0472469   0.0000000), wk =   0.0277778
        k(   20) = (   0.1638496   0.0945509   0.0000000), wk =   0.0277778
        k(   21) = (   0.1638661   0.1890733   0.0000000), wk =   0.0277778
        k(   22) = (   0.1638826   0.2835957   0.0000000), wk =   0.0277778
        k(   23) = (   0.1638990   0.3781181   0.0000000), wk =   0.0277778
        k(   24) = (   0.1639155   0.4726405   0.0000000), wk =   0.0277778
        k(   25) = (   0.1639319   0.5671629   0.0000000), wk =   0.0277778
        k(   26) = (   0.1637508  -0.4725834   0.0000000), wk =   0.0277778
        k(   27) = (   0.1637673  -0.3780610   0.0000000), wk =   0.0277778
        k(   28) = (   0.1637838  -0.2835386   0.0000000), wk =   0.0277778
        k(   29) = (   0.1638002  -0.1890163   0.0000000), wk =   0.0277778
        k(   30) = (   0.1638167  -0.0944939   0.0000000), wk =   0.0277778
        k(   31) = (   0.1638332   0.0000285   0.0000000), wk =   0.0277778
        k(   32) = (   0.2457744   0.1418264   0.0000000), wk =   0.0277778
        k(   33) = (   0.2457909   0.2363488   0.0000000), wk =   0.0277778
        k(   34) = (   0.2458074   0.3308711   0.0000000), wk =   0.0277778
        k(   35) = (   0.2458238   0.4253935   0.0000000), wk =   0.0277778
        k(   36) = (   0.2458403   0.5199159   0.0000000), wk =   0.0277778
        k(   37) = (   0.2458568   0.6144383   0.0000000), wk =   0.0277778
        k(   38) = (   0.2456757  -0.4253080   0.0000000), wk =   0.0277778
        k(   39) = (   0.2456921  -0.3307856   0.0000000), wk =   0.0277778
        k(   40) = (   0.2457086  -0.2362632   0.0000000), wk =   0.0277778
        k(   41) = (   0.2457251  -0.1417408   0.0000000), wk =   0.0277778
        k(   42) = (   0.2457415  -0.0472184   0.0000000), wk =   0.0277778
        k(   43) = (   0.2457580   0.0473040   0.0000000), wk =   0.0277778
        k(   44) = (   0.3276993   0.1891018   0.0000000), wk =   0.0277778
        k(   45) = (   0.3277157   0.2836242   0.0000000), wk =   0.0277778
        k(   46) = (   0.3277322   0.3781466   0.0000000), wk =   0.0277778
        k(   47) = (   0.3277486   0.4726690   0.0000000), wk =   0.0277778
        k(   48) = (   0.3277651   0.5671914   0.0000000), wk =   0.0277778
        k(   49) = (   0.3277816   0.6617138   0.0000000), wk =   0.0277778
        k(   50) = (   0.3276005  -0.3780325   0.0000000), wk =   0.0277778
        k(   51) = (   0.3276169  -0.2835101   0.0000000), wk =   0.0277778
        k(   52) = (   0.3276334  -0.1889877   0.0000000), wk =   0.0277778
        k(   53) = (   0.3276499  -0.0944653   0.0000000), wk =   0.0277778
        k(   54) = (   0.3276663   0.0000570   0.0000000), wk =   0.0277778
        k(   55) = (   0.3276828   0.0945794   0.0000000), wk =   0.0277778
        k(   56) = (   0.4096241   0.2363773   0.0000000), wk =   0.0277778
        k(   57) = (   0.4096405   0.3308997   0.0000000), wk =   0.0277778
        k(   58) = (   0.4096570   0.4254221   0.0000000), wk =   0.0277778
        k(   59) = (   0.4096735   0.5199445   0.0000000), wk =   0.0277778
        k(   60) = (   0.4096899   0.6144668   0.0000000), wk =   0.0277778
        k(   61) = (   0.4097064   0.7089892   0.0000000), wk =   0.0277778
        k(   62) = (   0.4095253  -0.3307571   0.0000000), wk =   0.0277778
        k(   63) = (   0.4095418  -0.2362347   0.0000000), wk =   0.0277778
        k(   64) = (   0.4095582  -0.1417123   0.0000000), wk =   0.0277778
        k(   65) = (   0.4095747  -0.0471899   0.0000000), wk =   0.0277778
        k(   66) = (   0.4095911   0.0473325   0.0000000), wk =   0.0277778
        k(   67) = (   0.4096076   0.1418549   0.0000000), wk =   0.0277778
        k(   68) = (  -0.4915489  -0.2836527   0.0000000), wk =   0.0138889
        k(   69) = (  -0.4915324  -0.1891303   0.0000000), wk =   0.0277778
        k(   70) = (  -0.4915160  -0.0946080   0.0000000), wk =   0.0277778
        k(   71) = (  -0.4914995  -0.0000856   0.0000000), wk =   0.0277778
        k(   72) = (  -0.4914830   0.0944368   0.0000000), wk =   0.0277778
        k(   73) = (  -0.4914666   0.1889592   0.0000000), wk =   0.0277778
        k(   74) = (  -0.4916477  -0.8507871   0.0000000), wk =   0.0138889

     Dense  grid:   499975 G-vectors     FFT dimensions: (  50,  50, 480)

     Estimated max dynamical RAM per process >       3.63 GB

     Estimated total dynamical RAM >       7.27 GB

     Initial potential from superposition of free atoms

     starting charge   59.99840, renormalised to   60.00000

     negative rho (up, down):  4.269E-05 0.000E+00
     Starting wfcs are   40 randomized atomic wfcs

     total cpu time spent up to now is       35.5 secs

     Self-consistent Calculation

     iteration #  1     ecut=   180.00 Ry     beta= 0.70
     Davidson diagonalization with overlap
     ethr =  1.00E-02,  avg # of iterations =  2.0

     negative rho (up, down):  2.584E-06 0.000E+00

     total cpu time spent up to now is      100.5 secs

     total energy              =   -1375.12257845 Ry
     estimated scf accuracy    <       1.04845075 Ry

     iteration #  2     ecut=   180.00 Ry     beta= 0.70
     Davidson diagonalization with overlap
     c_bands:  1 eigenvalues not converged
     ethr =  1.75E-03,  avg # of iterations =  7.1

     negative rho (up, down):  6.342E-07 0.000E+00

     total cpu time spent up to now is      188.9 secs

     total energy              =   -1374.71690114 Ry
     estimated scf accuracy    <       5.41472754 Ry

     iteration #  3     ecut=   180.00 Ry     beta= 0.70
     Davidson diagonalization with overlap
     ethr =  1.75E-03,  avg # of iterations =  4.7

     negative rho (up, down):  1.177E-06 0.000E+00

     total cpu time spent up to now is      268.4 secs

     total energy              =   -1375.66820464 Ry
     estimated scf accuracy    <       0.22850793 Ry

     iteration #  4     ecut=   180.00 Ry     beta= 0.70
     Davidson diagonalization with overlap
     ethr =  3.81E-04,  avg # of iterations =  2.4

     negative rho (up, down):  8.948E-06 0.000E+00

     total cpu time spent up to now is      335.3 secs

     total energy              =   -1375.69779445 Ry
     estimated scf accuracy    <       0.02184028 Ry

     iteration #  5     ecut=   180.00 Ry     beta= 0.70
     Davidson diagonalization with overlap
     c_bands:  1 eigenvalues not converged
     c_bands:  1 eigenvalues not converged
     ethr =  3.64E-05,  avg # of iterations = 10.1

     negative rho (up, down):  1.223E-05 0.000E+00

     total cpu time spent up to now is      425.3 secs

     total energy              =   -1375.69743283 Ry
     estimated scf accuracy    <       0.01808467 Ry

     iteration #  6     ecut=   180.00 Ry     beta= 0.70
     Davidson diagonalization with overlap
     ethr =  3.01E-05,  avg # of iterations = 11.1

     negative rho (up, down):  1.862E-05 0.000E+00

     total cpu time spent up to now is      506.8 secs

     total energy              =   -1375.69652875 Ry
     estimated scf accuracy    <       0.08312117 Ry

     iteration #  7     ecut=   180.00 Ry     beta= 0.70
     Davidson diagonalization with overlap
     ethr =  3.01E-05,  avg # of iterations =  8.2

     negative rho (up, down):  2.370E-05 0.000E+00

     total cpu time spent up to now is      579.5 secs

     total energy              =   -1375.70122016 Ry
     estimated scf accuracy    <       0.00031808 Ry

     iteration #  8     ecut=   180.00 Ry     beta= 0.70
     Davidson diagonalization with overlap
     c_bands:  1 eigenvalues not converged
     c_bands:  1 eigenvalues not converged
     c_bands:  1 eigenvalues not converged
     c_bands:  1 eigenvalues not converged
     c_bands:  1 eigenvalues not converged
     ethr =  5.30E-07,  avg # of iterations =  8.6

     negative rho (up, down):  2.798E-05 0.000E+00

     total cpu time spent up to now is      667.2 secs

     total energy              =   -1375.70129522 Ry
     estimated scf accuracy    <       0.00003330 Ry

     iteration #  9     ecut=   180.00 Ry     beta= 0.70
     Davidson diagonalization with overlap
     ethr =  5.55E-08,  avg # of iterations =  2.2

     negative rho (up, down):  2.850E-05 0.000E+00

     total cpu time spent up to now is      730.6 secs

     total energy              =   -1375.70129943 Ry
     estimated scf accuracy    <       0.00000386 Ry

     iteration # 10     ecut=   180.00 Ry     beta= 0.70
     Davidson diagonalization with overlap
     ethr =  6.44E-09,  avg # of iterations =  2.1

     negative rho (up, down):  2.879E-05 0.000E+00

     total cpu time spent up to now is      798.5 secs

     total energy              =   -1375.70129990 Ry
     estimated scf accuracy    <       0.00000066 Ry

     iteration # 11     ecut=   180.00 Ry     beta= 0.70
     Davidson diagonalization with overlap
     ethr =  1.11E-09,  avg # of iterations =  2.2

     negative rho (up, down):  2.882E-05 0.000E+00

     total cpu time spent up to now is      869.3 secs

     total energy              =   -1375.70130002 Ry
     estimated scf accuracy    <       0.00000010 Ry

     iteration # 12     ecut=   180.00 Ry     beta= 0.70
     Davidson diagonalization with overlap
     ethr =  1.65E-10,  avg # of iterations =  3.0

     negative rho (up, down):  2.883E-05 0.000E+00

     total cpu time spent up to now is      935.3 secs

     total energy              =   -1375.70130004 Ry
     estimated scf accuracy    <       0.00000002 Ry

     iteration # 13     ecut=   180.00 Ry     beta= 0.70
     Davidson diagonalization with overlap
     ethr =  3.95E-11,  avg # of iterations =  2.0

     negative rho (up, down):  2.884E-05 0.000E+00

     total cpu time spent up to now is      998.6 secs

     total energy              =   -1375.70130004 Ry
     estimated scf accuracy    <          4.4E-09 Ry

     iteration # 14     ecut=   180.00 Ry     beta= 0.70
     Davidson diagonalization with overlap
     ethr =  7.34E-12,  avg # of iterations =  4.6

     negative rho (up, down):  2.884E-05 0.000E+00

     total cpu time spent up to now is     1068.9 secs

     total energy              =   -1375.70130004 Ry
     estimated scf accuracy    <          4.7E-10 Ry

     iteration # 15     ecut=   180.00 Ry     beta= 0.70
     Davidson diagonalization with overlap
     ethr =  7.80E-13,  avg # of iterations =  2.2

     negative rho (up, down):  2.884E-05 0.000E+00

     total cpu time spent up to now is     1132.1 secs

     total energy              =   -1375.70130004 Ry
     estimated scf accuracy    <          1.0E-10 Ry

     iteration # 16     ecut=   180.00 Ry     beta= 0.70
     Davidson diagonalization with overlap
     ethr =  1.75E-13,  avg # of iterations =  4.4

     negative rho (up, down):  2.884E-05 0.000E+00

     total cpu time spent up to now is     1200.2 secs

     total energy              =   -1375.70130004 Ry
     estimated scf accuracy    <          2.7E-12 Ry

     iteration # 17     ecut=   180.00 Ry     beta= 0.70
     Davidson diagonalization with overlap
     ethr =  1.00E-13,  avg # of iterations =  1.1

     negative rho (up, down):  2.884E-05 0.000E+00

     total cpu time spent up to now is     1256.1 secs

     total energy              =   -1375.70130004 Ry
     estimated scf accuracy    <          1.7E-12 Ry

     iteration # 18     ecut=   180.00 Ry     beta= 0.70
     Davidson diagonalization with overlap
     ethr =  1.00E-13,  avg # of iterations =  1.0

     negative rho (up, down):  2.884E-05 0.000E+00

     total cpu time spent up to now is     1312.3 secs

     total energy              =   -1375.70130004 Ry
     estimated scf accuracy    <          1.3E-12 Ry

     iteration # 19     ecut=   180.00 Ry     beta= 0.70
     Davidson diagonalization with overlap
     ethr =  1.00E-13,  avg # of iterations =  1.0

     negative rho (up, down):  2.884E-05 0.000E+00

     total cpu time spent up to now is     1368.5 secs

     total energy              =   -1375.70130004 Ry
     estimated scf accuracy    <          1.1E-12 Ry

     iteration # 20     ecut=   180.00 Ry     beta= 0.70
     Davidson diagonalization with overlap
     ethr =  1.00E-13,  avg # of iterations =  1.0

     negative rho (up, down):  2.884E-05 0.000E+00

     total cpu time spent up to now is     1423.8 secs

     End of self-consistent calculation

          k = 0.0000 0.0000 0.0000 ( 62253 PWs)   bands (ev):

   -67.6110 -67.5794 -34.5972 -34.1138 -33.6991 -33.6977 -33.6590 -33.6588
   -19.2564 -19.2424 -19.2232 -19.2228 -19.2225 -19.2224 -19.2014 -19.2014
   -19.2002 -19.1995 -19.1990 -19.1928 -19.1189 -19.1181 -12.8530  -8.3508
    -5.2549  -3.4727  -3.2163  -3.2015  -1.2331   0.3195   0.3395   2.4916
     2.5034   2.9054   2.9382   3.4872

          k = 0.0000 0.0945 0.0000 ( 62261 PWs)   bands (ev):

   -67.6065 -67.5759 -34.5824 -34.1127 -33.7580 -33.7162 -33.7158 -33.6683
   -19.2547 -19.2417 -19.2243 -19.2228 -19.2226 -19.2212 -19.2035 -19.2016
   -19.2003 -19.1994 -19.1955 -19.1896 -19.1223 -19.1216 -12.7136  -8.1321
    -5.3199  -3.5509  -3.3887  -3.1604  -1.0615  -0.0553   0.5498   1.8790
     2.1877   2.9302   3.3021   4.1842

          k = 0.0000 0.1890 0.0000 ( 62370 PWs)   bands (ev):

   -67.5941 -67.5662 -34.5422 -34.1165 -33.9136 -33.8667 -33.7606 -33.6965
   -19.2506 -19.2401 -19.2283 -19.2230 -19.2222 -19.2174 -19.2087 -19.2022
   -19.2017 -19.1978 -19.1859 -19.1806 -19.1314 -19.1309 -12.3437  -7.5534
    -5.4871  -4.0333  -3.4650  -3.0960  -1.0090  -0.4085   1.1335   1.3099
     2.0981   2.7903   3.6419   4.9553

          k = 0.0000 0.2836 0.0000 ( 62511 PWs)   bands (ev):

   -67.5768 -67.5532 -34.4925 -34.1942 -34.0668 -34.0416 -33.8182 -33.7372
   -19.2473 -19.2372 -19.2334 -19.2241 -19.2220 -19.2137 -19.2132 -19.2042
   -19.2012 -19.1950 -19.1725 -19.1683 -19.1434 -19.1422 -11.8703  -6.9305
    -5.6163  -4.4653  -3.5644  -3.1178  -1.6551   0.3115   1.1535   1.8932
     2.5018   2.6844   3.7585   5.5382

          k = 0.0001 0.3781 0.0000 ( 62557 PWs)   bands (ev):

   -67.5590 -67.5406 -34.4799 -34.3743 -34.2121 -34.0710 -33.8739 -33.7791
   -19.2478 -19.2379 -19.2328 -19.2260 -19.2253 -19.2136 -19.2120 -19.2050
   -19.1986 -19.1915 -19.1589 -19.1559 -19.1548 -19.1521 -11.4461  -6.8500
    -5.3719  -4.6849  -3.6245  -3.2344  -1.9183   1.1165   1.4877   2.0737
     2.6881   3.7810   3.9157   6.0528

          k = 0.0001 0.4726 0.0000 ( 62597 PWs)   bands (ev):

   -67.5453 -67.5320 -34.5602 -34.4952 -34.2404 -34.0838 -33.9137 -33.8100
   -19.2496 -19.2402 -19.2336 -19.2278 -19.2258 -19.2134 -19.2109 -19.2049
   -19.1952 -19.1887 -19.1627 -19.1584 -19.1486 -19.1468 -11.1752  -7.0604
    -5.1831  -4.7670  -3.4532  -3.3572  -1.8315   1.5218   1.7914   2.1382
     3.1449   4.3194   5.1292   6.1966

          k =-0.0001-0.5671 0.0000 ( 62556 PWs)   bands (ev):

   -67.5400 -67.5292 -34.6073 -34.5378 -34.2303 -34.0913 -33.9281 -33.8214
   -19.2504 -19.2407 -19.2354 -19.2286 -19.2251 -19.2142 -19.2092 -19.2051
   -19.1938 -19.1875 -19.1655 -19.1605 -19.1447 -19.1435 -11.0856  -7.1575
    -5.1753  -4.7932  -3.4073  -3.2808  -1.7693   1.4153   2.0587   2.3149
     3.2030   4.7972   5.7628   6.3428

          k = 0.0819 0.0473 0.0000 ( 62259 PWs)   bands (ev):

   -67.6065 -67.5759 -34.5823 -34.1127 -33.7592 -33.7158 -33.7152 -33.6684
   -19.2547 -19.2416 -19.2244 -19.2229 -19.2227 -19.2210 -19.2034 -19.2017
   -19.2009 -19.1988 -19.1955 -19.1896 -19.1223 -19.1216 -12.7134  -8.1319
    -5.3179  -3.5470  -3.3853  -3.1737  -1.0629  -0.0390   0.5334   1.8789
     2.1866   2.9623   3.2865   4.1706

          k = 0.0819 0.1418 0.0000 ( 62388 PWs)   bands (ev):

   -67.5980 -67.5692 -34.5547 -34.1134 -33.8556 -33.8330 -33.7357 -33.6966
   -19.2516 -19.2406 -19.2265 -19.2247 -19.2213 -19.2186 -19.2068 -19.2023
   -19.2016 -19.1981 -19.1889 -19.1835 -19.1285 -19.1281 -12.4584  -7.7275
    -5.4296  -3.8036  -3.6600  -2.9879  -0.7503  -0.6294   0.8724   1.6534
     1.8060   2.9996   3.5723   4.8329

          k = 0.0820 0.2363 0.0000 ( 62491 PWs)   bands (ev):

   -67.5831 -67.5579 -34.5087 -34.1400 -34.0115 -33.9915 -33.7954 -33.7403
   -19.2470 -19.2391 -19.2308 -19.2259 -19.2205 -19.2147 -19.2118 -19.2036
   -19.2018 -19.1962 -19.1775 -19.1728 -19.1391 -19.1386 -12.0355  -7.0692
    -5.5908  -4.3091  -3.8491  -2.7948  -1.3676  -0.1431   0.7436   1.9405
     2.2365   2.7780   3.9445   5.3417

          k = 0.0820 0.3308 0.0000 ( 62530 PWs)   bands (ev):

   -67.5656 -67.5451 -34.4710 -34.2833 -34.1622 -34.0643 -33.8651 -33.7883
   -19.2453 -19.2355 -19.2352 -19.2276 -19.2215 -19.2150 -19.2121 -19.2049
   -19.1997 -19.1935 -19.1640 -19.1605 -19.1510 -19.1495 -11.5863  -6.6416
    -5.5396  -4.6353  -4.0062  -2.8074  -1.8143   0.5101   0.8129   2.1934
     2.8457   3.4096   4.0769   5.9436

          k = 0.0820 0.4254 0.0000 ( 62533 PWs)   bands (ev):

   -67.5497 -67.5346 -34.5052 -34.4340 -34.2358 -34.0825 -33.9224 -33.8304
   -19.2468 -19.2387 -19.2328 -19.2278 -19.2249 -19.2140 -19.2122 -19.2051
   -19.1965 -19.1907 -19.1609 -19.1579 -19.1520 -19.1496 -11.2417  -6.7895
    -5.1709  -4.7567  -4.0129  -3.0091  -1.8172   0.8261   1.5704   2.0190
     3.6580   3.9490   4.7819   6.2967

          k = 0.0820 0.5199 0.0000 ( 62573 PWs)   bands (ev):

   -67.5400 -67.5292 -34.5781 -34.5107 -34.2279 -34.0976 -33.9538 -33.8548
   -19.2484 -19.2399 -19.2343 -19.2286 -19.2246 -19.2146 -19.2105 -19.2050
   -19.1946 -19.1888 -19.1664 -19.1621 -19.1449 -19.1435 -11.0653  -6.9720
    -5.0878  -4.7601  -3.7747  -3.2365  -1.6599   1.1843   1.6765   2.2609
     3.9728   4.4364   5.7497   6.2765

          k = 0.0818-0.5199 0.0000 ( 62585 PWs)   bands (ev):

   -67.5400 -67.5292 -34.5780 -34.5106 -34.2279 -34.0977 -33.9540 -33.8549
   -19.2484 -19.2399 -19.2342 -19.2286 -19.2246 -19.2146 -19.2106 -19.2049
   -19.1945 -19.1888 -19.1664 -19.1621 -19.1449 -19.1435 -11.0655  -6.9717
    -5.0877  -4.7600  -3.7709  -3.2409  -1.6592   1.1848   1.6765   2.2614
     3.9717   4.4370   5.7495   6.2768

          k = 0.0818-0.4253 0.0000 ( 62531 PWs)   bands (ev):

   -67.5498 -67.5347 -34.5048 -34.4337 -34.2357 -34.0826 -33.9227 -33.8305
   -19.2468 -19.2387 -19.2326 -19.2279 -19.2251 -19.2138 -19.2126 -19.2050
   -19.1964 -19.1907 -19.1610 -19.1579 -19.1520 -19.1496 -11.2422  -6.7889
    -5.1718  -4.7553  -4.0079  -3.0148  -1.8161   0.8267   1.5743   2.0169
     3.6536   3.9484   4.7807   6.2948

          k = 0.0819-0.3308 0.0000 ( 62528 PWs)   bands (ev):

   -67.5656 -67.5451 -34.4709 -34.2826 -34.1617 -34.0644 -33.8656 -33.7885
   -19.2453 -19.2355 -19.2352 -19.2276 -19.2215 -19.2151 -19.2124 -19.2048
   -19.1995 -19.1935 -19.1640 -19.1605 -19.1510 -19.1495 -11.5868  -6.6414
    -5.5411  -4.6329  -4.0023  -2.8106  -1.8140   0.5071   0.8190   2.1922
     2.8394   3.4077   4.0760   5.9460

          k = 0.0819-0.2363 0.0000 ( 62493 PWs)   bands (ev):

   -67.5832 -67.5579 -34.5088 -34.1395 -34.0114 -33.9906 -33.7960 -33.7405
   -19.2470 -19.2391 -19.2308 -19.2259 -19.2204 -19.2150 -19.2119 -19.2034
   -19.2017 -19.1964 -19.1774 -19.1728 -19.1391 -19.1386 -12.0360  -7.0696
    -5.5927  -4.3068  -3.8466  -2.7934  -1.3695  -0.1413   0.7407   1.9411
     2.2381   2.7723   3.9401   5.3466

          k = 0.0819-0.1418 0.0000 ( 62396 PWs)   bands (ev):

   -67.5980 -67.5692 -34.5547 -34.1133 -33.8547 -33.8327 -33.7363 -33.6968
   -19.2517 -19.2406 -19.2265 -19.2245 -19.2211 -19.2188 -19.2069 -19.2021
   -19.2013 -19.1985 -19.1889 -19.1834 -19.1285 -19.1281 -12.4587  -7.7279
    -5.4315  -3.8040  -3.6581  -2.9830  -0.7490  -0.6341   0.8749   1.6479
     1.8102   2.9964   3.5661   4.8419

          k = 0.0819-0.0472 0.0000 ( 62253 PWs)   bands (ev):

   -67.6065 -67.5759 -34.5823 -34.1127 -33.7586 -33.7159 -33.7155 -33.6685
   -19.2547 -19.2417 -19.2244 -19.2228 -19.2227 -19.2211 -19.2035 -19.2016
   -19.2006 -19.1991 -19.1956 -19.1896 -19.1223 -19.1216 -12.7135  -8.1320
    -5.3187  -3.5487  -3.3869  -3.1678  -1.0623  -0.0463   0.5409   1.8789
     2.1873   2.9484   3.2927   4.1768

          k = 0.1638 0.0946 0.0000 ( 62381 PWs)   bands (ev):

   -67.5940 -67.5661 -34.5419 -34.1168 -33.9148 -33.8671 -33.7601 -33.6966
   -19.2503 -19.2401 -19.2284 -19.2229 -19.2228 -19.2170 -19.2085 -19.2029
   -19.2019 -19.1973 -19.1859 -19.1807 -19.1314 -19.1308 -12.3429  -7.5524
    -5.4795  -4.0346  -3.4703  -3.1109  -1.0094  -0.3971   1.1207   1.3214
     2.0946   2.8198   3.6311   4.9459

          k = 0.1639 0.1891 0.0000 ( 62487 PWs)   bands (ev):

   -67.5831 -67.5579 -34.5086 -34.1403 -34.0127 -33.9908 -33.7955 -33.7404
   -19.2467 -19.2392 -19.2309 -19.2259 -19.2207 -19.2145 -19.2118 -19.2039
   -19.2020 -19.1960 -19.1775 -19.1729 -19.1391 -19.1385 -12.0350  -7.0682
    -5.5851  -4.3125  -3.8540  -2.8029  -1.3671  -0.1380   0.7509   1.9369
     2.2379   2.7865   3.9421   5.3365

          k = 0.1639 0.2836 0.0000 ( 62542 PWs)   bands (ev):

   -67.5679 -67.5468 -34.4707 -34.2271 -34.1482 -34.0557 -33.8610 -33.8161
   -19.2412 -19.2389 -19.2334 -19.2294 -19.2200 -19.2149 -19.2131 -19.2050
   -19.1999 -19.1945 -19.1659 -19.1622 -19.1494 -19.1491 -11.6350  -6.4252
    -5.6904  -4.6299  -4.2209  -2.5250  -1.6905   0.0607   0.4340   2.2175
     3.0406   3.2028   4.4848   5.7336

          k = 0.1639 0.3781 0.0000 ( 62534 PWs)   bands (ev):

   -67.5522 -67.5362 -34.4659 -34.3528 -34.2294 -34.0821 -33.9451 -33.8862
   -19.2413 -19.2358 -19.2349 -19.2300 -19.2223 -19.2154 -19.2133 -19.2054
   -19.1966 -19.1934 -19.1603 -19.1592 -19.1538 -19.1512 -11.2677  -6.2100
    -5.4664  -4.8013  -4.3833  -2.6461  -1.6840  -0.1876   1.2094   2.1696
     3.6381   4.2117   4.8801   6.3402

          k = 0.1639 0.4726 0.0000 ( 62589 PWs)   bands (ev):

   -67.5399 -67.5292 -34.5108 -34.4430 -34.2273 -34.1175 -34.0033 -33.9351
   -19.2437 -19.2369 -19.2337 -19.2273 -19.2244 -19.2158 -19.2133 -19.2047
   -19.1955 -19.1920 -19.1680 -19.1655 -19.1452 -19.1436 -11.0242  -6.4519
    -4.9281  -4.8662  -4.4035  -3.0257  -1.4535   0.0247   1.9797   2.3107
     3.8267   4.5345   5.4231   6.3570

          k = 0.1639 0.5672 0.0000 ( 62592 PWs)   bands (ev):

   -67.5350 -67.5270 -34.5378 -34.4720 -34.2095 -34.1443 -34.0195 -33.9534
   -19.2447 -19.2372 -19.2324 -19.2297 -19.2226 -19.2164 -19.2127 -19.2045
   -19.1956 -19.1912 -19.1708 -19.1677 -19.1418 -19.1409 -10.9411  -6.5622
    -4.8973  -4.7264  -4.3082  -3.2763  -1.3139   0.2284   2.2188   2.4623
     4.0582   4.4471   5.5834   6.1199

          k = 0.1638-0.4726 0.0000 ( 62593 PWs)   bands (ev):

   -67.5399 -67.5292 -34.5101 -34.4424 -34.2273 -34.1179 -34.0038 -33.9351
   -19.2436 -19.2369 -19.2334 -19.2275 -19.2246 -19.2158 -19.2135 -19.2046
   -19.1955 -19.1919 -19.1680 -19.1655 -19.1452 -19.1436 -11.0249  -6.4508
    -4.9311  -4.8631  -4.3985  -3.0307  -1.4524   0.0253   1.9838   2.3073
     3.8291   4.5248   5.4243   6.3576

          k = 0.1638-0.3781 0.0000 ( 62540 PWs)   bands (ev):

   -67.5522 -67.5362 -34.4653 -34.3516 -34.2292 -34.0823 -33.9460 -33.8864
   -19.2412 -19.2358 -19.2347 -19.2303 -19.2224 -19.2154 -19.2138 -19.2053
   -19.1964 -19.1934 -19.1604 -19.1592 -19.1538 -19.1512 -11.2687  -6.2089
    -5.4690  -4.7971  -4.3786  -2.6508  -1.6819  -0.1896   1.2150   2.1646
     3.6363   4.2047   4.8754   6.3438

          k = 0.1638-0.2835 0.0000 ( 62548 PWs)   bands (ev):

   -67.5680 -67.5468 -34.4707 -34.2256 -34.1476 -34.0556 -33.8619 -33.8164
   -19.2414 -19.2388 -19.2333 -19.2294 -19.2198 -19.2151 -19.2135 -19.2048
   -19.1996 -19.1946 -19.1659 -19.1622 -19.1494 -19.1492 -11.6360  -6.4259
    -5.6934  -4.6248  -4.2162  -2.5244  -1.6903   0.0528   0.4400   2.2143
     3.0350   3.2007   4.4780   5.7426

          k = 0.1638-0.1890 0.0000 ( 62493 PWs)   bands (ev):

   -67.5831 -67.5579 -34.5087 -34.1398 -34.0117 -33.9905 -33.7961 -33.7406
   -19.2469 -19.2391 -19.2309 -19.2258 -19.2205 -19.2149 -19.2119 -19.2035
   -19.2017 -19.1963 -19.1774 -19.1728 -19.1391 -19.1386 -12.0357  -7.0692
    -5.5893  -4.3087  -3.8492  -2.7979  -1.3691  -0.1384   0.7447   1.9392
     2.2388   2.7772   3.9383   5.3439

          k = 0.1638-0.0945 0.0000 ( 62380 PWs)   bands (ev):

   -67.5940 -67.5662 -34.5420 -34.1167 -33.9141 -33.8669 -33.7604 -33.6966
   -19.2504 -19.2401 -19.2284 -19.2229 -19.2225 -19.2172 -19.2086 -19.2025
   -19.2018 -19.1976 -19.1859 -19.1807 -19.1314 -19.1308 -12.3433  -7.5530
    -5.4826  -4.0341  -3.4677  -3.1045  -1.0094  -0.4020   1.1265   1.3163
     2.0962   2.8069   3.6352   4.9501

          k = 0.1638 0.0000 0.0000 ( 62389 PWs)   bands (ev):

   -67.5980 -67.5692 -34.5545 -34.1136 -33.8565 -33.8331 -33.7351 -33.6967
   -19.2515 -19.2406 -19.2266 -19.2247 -19.2213 -19.2184 -19.2068 -19.2025
   -19.2017 -19.1979 -19.1890 -19.1835 -19.1285 -19.1280 -12.4581  -7.7273
    -5.4268  -3.8033  -3.6621  -2.9941  -0.7521  -0.6237   0.8697   1.6614
     1.8007   3.0028   3.5801   4.8213

          k = 0.2458 0.1418 0.0000 ( 62509 PWs)   bands (ev):

   -67.5766 -67.5531 -34.4921 -34.1954 -34.0684 -34.0414 -33.8182 -33.7375
   -19.2467 -19.2372 -19.2336 -19.2238 -19.2226 -19.2137 -19.2128 -19.2048
   -19.2015 -19.1947 -19.1726 -19.1684 -19.1434 -19.1421 -11.8688  -6.9276
    -5.6046  -4.4756  -3.5740  -3.1346  -1.6532   0.3212   1.1723   1.8882
     2.5283   2.6775   3.7510   5.5295

          k = 0.2458 0.2363 0.0000 ( 62540 PWs)   bands (ev):

   -67.5654 -67.5451 -34.4709 -34.2841 -34.1625 -34.0646 -33.8656 -33.7886
   -19.2448 -19.2359 -19.2349 -19.2275 -19.2218 -19.2150 -19.2121 -19.2054
   -19.1998 -19.1933 -19.1640 -19.1605 -19.1510 -19.1493 -11.5850  -6.6369
    -5.5334  -4.6439  -4.0128  -2.8238  -1.8128   0.5277   0.8217   2.2036
     2.8460   3.4039   4.0789   5.9339

          k = 0.2458 0.3309 0.0000 ( 62546 PWs)   bands (ev):

   -67.5520 -67.5362 -34.4662 -34.3535 -34.2290 -34.0822 -33.9458 -33.8861
   -19.2414 -19.2356 -19.2344 -19.2304 -19.2224 -19.2152 -19.2137 -19.2057
   -19.1966 -19.1932 -19.1604 -19.1590 -19.1538 -19.1512 -11.2669  -6.2039
    -5.4713  -4.8026  -4.3861  -2.6557  -1.6844  -0.1762   1.2144   2.1740
     3.6381   4.2093   4.8828   6.3350

          k = 0.2458 0.4254 0.0000 ( 62552 PWs)   bands (ev):

   -67.5398 -67.5292 -34.4726 -34.3882 -34.2494 -34.1155 -34.0343 -33.9844
   -19.2410 -19.2347 -19.2308 -19.2299 -19.2248 -19.2163 -19.2148 -19.2047
   -19.1951 -19.1945 -19.1684 -19.1675 -19.1453 -19.1437 -11.0028  -5.7681
    -5.6045  -4.7458  -4.5329  -2.8582  -1.2599  -0.5966   1.9004   2.4538
     3.6699   4.5720   5.2455   6.6394

          k = 0.2458 0.5199 0.0000 ( 62611 PWs)   bands (ev):

   -67.5317 -67.5261 -34.4638 -34.3990 -34.2520 -34.1836 -34.0665 -34.0417
   -19.2419 -19.2321 -19.2307 -19.2284 -19.2230 -19.2185 -19.2161 -19.2028
   -19.1968 -19.1947 -19.1735 -19.1723 -19.1402 -19.1394 -10.8554  -5.9398
    -5.1444  -4.7278  -4.6205  -3.1524  -0.9457  -0.4716   2.5595   2.7677
     3.5032   4.1697   5.1626   6.3214

          k = 0.2459 0.6144 0.0000 ( 62599 PWs)   bands (ev):

   -67.5318 -67.5261 -34.4631 -34.3984 -34.2520 -34.1844 -34.0677 -34.0408
   -19.2418 -19.2319 -19.2307 -19.2286 -19.2233 -19.2186 -19.2161 -19.2027
   -19.1969 -19.1946 -19.1735 -19.1723 -19.1402 -19.1394 -10.8559  -5.9386
    -5.1444  -4.7277  -4.6184  -3.1540  -0.9453  -0.4715   2.5624   2.7636
     3.5070   4.1619   5.1631   6.3204

          k = 0.2457-0.4253 0.0000 ( 62550 PWs)   bands (ev):

   -67.5399 -67.5292 -34.4715 -34.3865 -34.2501 -34.1161 -34.0353 -33.9841
   -19.2406 -19.2345 -19.2309 -19.2303 -19.2249 -19.2165 -19.2148 -19.2045
   -19.1951 -19.1944 -19.1684 -19.1676 -19.1453 -19.1436 -11.0040  -5.7661
    -5.6049  -4.7437  -4.5288  -2.8609  -1.2572  -0.5998   1.9040   2.4475
     3.6727   4.5588   5.2453   6.6358

          k = 0.2457-0.3308 0.0000 ( 62548 PWs)   bands (ev):

   -67.5522 -67.5362 -34.4655 -34.3518 -34.2291 -34.0823 -33.9464 -33.8864
   -19.2411 -19.2357 -19.2345 -19.2305 -19.2224 -19.2153 -19.2140 -19.2054
   -19.1964 -19.1933 -19.1604 -19.1591 -19.1538 -19.1512 -11.2682  -6.2059
    -5.4714  -4.7977  -4.3803  -2.6558  -1.6819  -0.1834   1.2177   2.1669
     3.6364   4.2033   4.8770   6.3407

          k = 0.2457-0.2363 0.0000 ( 62536 PWs)   bands (ev):

   -67.5655 -67.5451 -34.4708 -34.2830 -34.1619 -34.0645 -33.8659 -33.7887
   -19.2450 -19.2357 -19.2351 -19.2275 -19.2217 -19.2152 -19.2124 -19.2050
   -19.1996 -19.1934 -19.1640 -19.1605 -19.1510 -19.1494 -11.5862  -6.6392
    -5.5373  -4.6377  -4.0059  -2.8195  -1.8129   0.5170   0.8235   2.1978
     2.8396   3.4045   4.0769   5.9407

          k = 0.2457-0.1417 0.0000 ( 62505 PWs)   bands (ev):

   -67.5767 -67.5531 -34.4922 -34.1949 -34.0674 -34.0415 -33.8183 -33.7374
   -19.2469 -19.2372 -19.2336 -19.2240 -19.2223 -19.2138 -19.2130 -19.2045
   -19.2013 -19.1948 -19.1725 -19.1683 -19.1434 -19.1421 -11.8695  -6.9293
    -5.6094  -4.4711  -3.5694  -3.1274  -1.6539   0.3169   1.1637   1.8906
     2.5166   2.6805   3.7537   5.5335

          k = 0.2457-0.0472 0.0000 ( 62485 PWs)   bands (ev):

   -67.5831 -67.5578 -34.5085 -34.1409 -34.0120 -33.9920 -33.7948 -33.7402
   -19.2467 -19.2391 -19.2310 -19.2259 -19.2206 -19.2145 -19.2119 -19.2039
   -19.2019 -19.1960 -19.1775 -19.1729 -19.1390 -19.1386 -12.0347  -7.0686
    -5.5848  -4.3143  -3.8545  -2.8017  -1.3650  -0.1430   0.7517   1.9379
     2.2360   2.7895   3.9484   5.3322

          k = 0.2458 0.0473 0.0000 ( 62487 PWs)   bands (ev):

   -67.5830 -67.5578 -34.5084 -34.1410 -34.0129 -33.9915 -33.7949 -33.7402
   -19.2466 -19.2391 -19.2310 -19.2259 -19.2207 -19.2144 -19.2118 -19.2040
   -19.2020 -19.1959 -19.1775 -19.1729 -19.1391 -19.1385 -12.0345  -7.0680
    -5.5825  -4.3157  -3.8567  -2.8053  -1.3648  -0.1409   0.7550   1.9363
     2.2367   2.7931   3.9477   5.3298

          k = 0.3277 0.1891 0.0000 ( 62565 PWs)   bands (ev):

   -67.5587 -67.5405 -34.4805 -34.3759 -34.2118 -34.0719 -33.8742 -33.7795
   -19.2474 -19.2379 -19.2324 -19.2259 -19.2256 -19.2140 -19.2118 -19.2057
   -19.1987 -19.1914 -19.1589 -19.1559 -19.1548 -19.1519 -11.4436  -6.8446
    -5.3633  -4.6979  -3.6364  -3.2525  -1.9165   1.1361   1.5053   2.0958
     2.6846   3.7782   3.9102   6.0447

          k = 0.3277 0.2836 0.0000 ( 62524 PWs)   bands (ev):

   -67.5494 -67.5346 -34.5063 -34.4355 -34.2342 -34.0837 -33.9231 -33.8308
   -19.2468 -19.2385 -19.2321 -19.2278 -19.2253 -19.2139 -19.2127 -19.2058
   -19.1965 -19.1906 -19.1609 -19.1576 -19.1520 -19.1496 -11.2394  -6.7843
    -5.1664  -4.7677  -4.0201  -3.0284  -1.8150   0.8496   1.5809   2.0331
     3.6565   3.9494   4.7815   6.2858

          k = 0.3277 0.3781 0.0000 ( 62597 PWs)   bands (ev):

   -67.5396 -67.5292 -34.5119 -34.4446 -34.2254 -34.1179 -34.0047 -33.9349
   -19.2441 -19.2362 -19.2332 -19.2272 -19.2249 -19.2156 -19.2139 -19.2053
   -19.1956 -19.1918 -19.1680 -19.1652 -19.1451 -19.1436 -11.0222  -6.4486
    -4.9346  -4.8683  -4.4059  -3.0377  -1.4542   0.0396   1.9903   2.3207
     3.8285   4.5300   5.4242   6.3672

          k = 0.3277 0.4727 0.0000 ( 62605 PWs)   bands (ev):

   -67.5315 -67.5262 -34.4650 -34.4004 -34.2512 -34.1821 -34.0681 -34.0411
   -19.2423 -19.2319 -19.2299 -19.2283 -19.2236 -19.2184 -19.2164 -19.2030
   -19.1970 -19.1945 -19.1735 -19.1721 -19.1402 -19.1394 -10.8541  -5.9393
    -5.1485  -4.7327  -4.6170  -3.1566  -0.9492  -0.4635   2.5683   2.7726
     3.5021   4.1696   5.1612   6.3235

          k = 0.3278 0.5672 0.0000 ( 62584 PWs)   bands (ev):

   -67.5270 -67.5267 -34.3853 -34.3446 -34.3438 -34.2326 -34.0831 -34.0805
   -19.2416 -19.2298 -19.2298 -19.2233 -19.2229 -19.2213 -19.2202 -19.1997
   -19.1980 -19.1977 -19.1753 -19.1752 -19.1381 -19.1381 -10.7906  -5.4409
    -5.4371  -4.9152  -4.5613  -3.1831  -0.6385  -0.6332   2.9580   2.9595
     3.4962   3.5037   4.8876   6.6786

          k = 0.3278 0.6617 0.0000 ( 62605 PWs)   bands (ev):

   -67.5317 -67.5261 -34.4639 -34.3988 -34.2518 -34.1835 -34.0684 -34.0406
   -19.2420 -19.2318 -19.2303 -19.2285 -19.2236 -19.2186 -19.2162 -19.2028
   -19.1970 -19.1945 -19.1735 -19.1722 -19.1402 -19.1394 -10.8552  -5.9386
    -5.1466  -4.7302  -4.6169  -3.1560  -0.9472  -0.4672   2.5673   2.7661
     3.5063   4.1621   5.1624   6.3208

          k = 0.3276-0.3780 0.0000 ( 62603 PWs)   bands (ev):

   -67.5398 -67.5292 -34.5108 -34.4429 -34.2264 -34.1180 -34.0045 -33.9351
   -19.2437 -19.2366 -19.2331 -19.2275 -19.2249 -19.2158 -19.2138 -19.2049
   -19.1955 -19.1917 -19.1680 -19.1654 -19.1452 -19.1436 -11.0237  -6.4494
    -4.9346  -4.8642  -4.4003  -3.0367  -1.4524   0.0334   1.9892   2.3127
     3.8302   4.5222   5.4249   6.3625

          k = 0.3276-0.2835 0.0000 ( 62532 PWs)   bands (ev):

   -67.5496 -67.5346 -34.5055 -34.4342 -34.2350 -34.0832 -33.9232 -33.8308
   -19.2467 -19.2387 -19.2323 -19.2278 -19.2253 -19.2138 -19.2129 -19.2054
   -19.1964 -19.1906 -19.1609 -19.1577 -19.1520 -19.1496 -11.2409  -6.7865
    -5.1692  -4.7615  -4.0119  -3.0250  -1.8145   0.8397   1.5794   2.0247
     3.6525   3.9488   4.7804   6.2880

          k = 0.3276-0.1890 0.0000 ( 62563 PWs)   bands (ev):

   -67.5588 -67.5406 -34.4802 -34.3750 -34.2120 -34.0714 -33.8741 -33.7794
   -19.2475 -19.2380 -19.2326 -19.2259 -19.2255 -19.2139 -19.2119 -19.2053
   -19.1986 -19.1914 -19.1589 -19.1559 -19.1548 -19.1520 -11.4448  -6.8475
    -5.3669  -4.6923  -3.6305  -3.2448  -1.9169   1.1276   1.4966   2.0859
     2.6861   3.7795   3.9124   6.0477

          k = 0.3276-0.0945 0.0000 ( 62536 PWs)   bands (ev):

   -67.5654 -67.5451 -34.4710 -34.2845 -34.1628 -34.0645 -33.8648 -33.7883
   -19.2450 -19.2357 -19.2351 -19.2276 -19.2215 -19.2151 -19.2120 -19.2053
   -19.1998 -19.1934 -19.1640 -19.1605 -19.1510 -19.1494 -11.5849  -6.6398
    -5.5340  -4.6433  -4.0141  -2.8135  -1.8137   0.5236   0.8096   2.2010
     2.8538   3.4093   4.0783   5.9354

          k = 0.3277 0.0001 0.0000 ( 62540 PWs)   bands (ev):

   -67.5678 -67.5467 -34.4707 -34.2289 -34.1485 -34.0559 -33.8603 -33.8158
   -19.2410 -19.2390 -19.2336 -19.2293 -19.2200 -19.2148 -19.2129 -19.2052
   -19.2001 -19.1944 -19.1659 -19.1622 -19.1494 -19.1491 -11.6338  -6.4247
    -5.6865  -4.6366  -4.2261  -2.5264  -1.6908   0.0705   0.4259   2.2220
     3.0475   3.2065   4.4927   5.7220

          k = 0.3277 0.0946 0.0000 ( 62540 PWs)   bands (ev):

   -67.5653 -67.5451 -34.4710 -34.2849 -34.1629 -34.0647 -33.8650 -33.7884
   -19.2448 -19.2359 -19.2349 -19.2276 -19.2216 -19.2150 -19.2120 -19.2055
   -19.1999 -19.1933 -19.1640 -19.1606 -19.1510 -19.1493 -11.5843  -6.6372
    -5.5316  -4.6470  -4.0170  -2.8210  -1.8133   0.5313   0.8138   2.2056
     2.8540   3.4068   4.0794   5.9310

          k = 0.4096 0.2364 0.0000 ( 62585 PWs)   bands (ev):

   -67.5449 -67.5320 -34.5620 -34.4975 -34.2375 -34.0859 -33.9143 -33.8106
   -19.2496 -19.2400 -19.2331 -19.2275 -19.2260 -19.2133 -19.2115 -19.2058
   -19.1952 -19.1886 -19.1626 -19.1581 -19.1486 -19.1468 -11.1718  -7.0566
    -5.1781  -4.7798  -3.4641  -3.3759  -1.8283   1.5323   1.8289   2.1539
     3.1358   4.3232   5.1302   6.1880

          k = 0.4096 0.3309 0.0000 ( 62575 PWs)   bands (ev):

   -67.5395 -67.5292 -34.5799 -34.5131 -34.2243 -34.1000 -33.9546 -33.8553
   -19.2486 -19.2394 -19.2339 -19.2284 -19.2246 -19.2145 -19.2113 -19.2058
   -19.1945 -19.1887 -19.1663 -19.1617 -19.1448 -19.1435 -11.0620  -6.9693
    -5.0852  -4.7717  -3.7840  -3.2515  -1.6577   1.2051   1.6869   2.2808
     3.9744   4.4372   5.7567   6.2753

          k = 0.4097 0.4254 0.0000 ( 62596 PWs)   bands (ev):

   -67.5346 -67.5271 -34.5399 -34.4745 -34.2058 -34.1455 -34.0209 -33.9531
   -19.2453 -19.2363 -19.2324 -19.2294 -19.2225 -19.2163 -19.2134 -19.2051
   -19.1957 -19.1911 -19.1708 -19.1674 -19.1418 -19.1409 -10.9380  -6.5616
    -4.8992  -4.7357  -4.3131  -3.2835  -1.3155   0.2415   2.2285   2.4796
     4.0532   4.4559   5.5794   6.1270

          k = 0.4097 0.5199 0.0000 ( 62603 PWs)   bands (ev):

   -67.5314 -67.5262 -34.4658 -34.4014 -34.2502 -34.1819 -34.0674 -34.0416
   -19.2424 -19.2322 -19.2299 -19.2282 -19.2233 -19.2183 -19.2166 -19.2031
   -19.1969 -19.1947 -19.1735 -19.1721 -19.1401 -19.1394 -10.8534  -5.9410
    -5.1484  -4.7333  -4.6191  -3.1546  -0.9502  -0.4637   2.5642   2.7786
     3.4971   4.1789   5.1618   6.3250

          k = 0.4097 0.6145 0.0000 ( 62601 PWs)   bands (ev):

   -67.5315 -67.5262 -34.4654 -34.4004 -34.2507 -34.1826 -34.0665 -34.0420
   -19.2422 -19.2323 -19.2303 -19.2282 -19.2230 -19.2184 -19.2164 -19.2030
   -19.1969 -19.1947 -19.1735 -19.1722 -19.1402 -19.1394 -10.8539  -5.9415
    -5.1464  -4.7309  -4.6210  -3.1524  -0.9486  -0.4674   2.5602   2.7762
     3.4975   4.1792   5.1625   6.3233

          k = 0.4097 0.7090 0.0000 ( 62598 PWs)   bands (ev):

   -67.5347 -67.5271 -34.5391 -34.4731 -34.2077 -34.1449 -34.0203 -33.9533
   -19.2449 -19.2368 -19.2324 -19.2295 -19.2226 -19.2164 -19.2131 -19.2048
   -19.1957 -19.1911 -19.1708 -19.1675 -19.1418 -19.1409 -10.9393  -6.5623
    -4.8981  -4.7318  -4.3113  -3.2795  -1.3146   0.2353   2.2236   2.4719
     4.0552   4.4523   5.5814   6.1231

          k = 0.4095-0.3308 0.0000 ( 62577 PWs)   bands (ev):

   -67.5397 -67.5292 -34.5790 -34.5115 -34.2261 -34.0988 -33.9544 -33.8552
   -19.2484 -19.2398 -19.2340 -19.2285 -19.2246 -19.2146 -19.2110 -19.2054
   -19.1945 -19.1887 -19.1663 -19.1619 -19.1449 -19.1435 -11.0636  -6.9708
    -5.0862  -4.7666  -3.7764  -3.2482  -1.6576   1.1961   1.6815   2.2724
     3.9723   4.4375   5.7534   6.2755

          k = 0.4095-0.2362 0.0000 ( 62581 PWs)   bands (ev):

   -67.5451 -67.5320 -34.5613 -34.4961 -34.2390 -34.0848 -33.9141 -33.8104
   -19.2494 -19.2402 -19.2334 -19.2277 -19.2259 -19.2134 -19.2113 -19.2054
   -19.1952 -19.1886 -19.1626 -19.1582 -19.1486 -19.1468 -11.1733  -7.0589
    -5.1803  -4.7743  -3.4585  -3.3677  -1.8292   1.5269   1.8125   2.1464
     3.1393   4.3217   5.1297   6.1911

          k = 0.4096-0.1417 0.0000 ( 62536 PWs)   bands (ev):

   -67.5495 -67.5346 -34.5063 -34.4351 -34.2350 -34.0832 -33.9224 -33.8305
   -19.2467 -19.2387 -19.2327 -19.2277 -19.2249 -19.2141 -19.2123 -19.2055
   -19.1966 -19.1906 -19.1609 -19.1577 -19.1519 -19.1496 -11.2398  -6.7879
    -5.1672  -4.7647  -4.0222  -3.0135  -1.8171   0.8380   1.5707   2.0302
     3.6621   3.9496   4.7837   6.2926

          k = 0.4096-0.0472 0.0000 ( 62534 PWs)   bands (ev):

   -67.5520 -67.5362 -34.4667 -34.3546 -34.2290 -34.0823 -33.9447 -33.8859
   -19.2414 -19.2359 -19.2348 -19.2300 -19.2223 -19.2154 -19.2132 -19.2057
   -19.1968 -19.1933 -19.1603 -19.1591 -19.1538 -19.1513 -11.2658  -6.2084
    -5.4662  -4.8072  -4.3902  -2.6460  -1.6874  -0.1789   1.2045   2.1796
     3.6400   4.2193   4.8875   6.3328

          k = 0.4096 0.0473 0.0000 ( 62534 PWs)   bands (ev):

   -67.5519 -67.5362 -34.4668 -34.3550 -34.2287 -34.0824 -33.9450 -33.8858
   -19.2415 -19.2357 -19.2345 -19.2302 -19.2223 -19.2152 -19.2134 -19.2058
   -19.1968 -19.1933 -19.1604 -19.1590 -19.1538 -19.1513 -11.2655  -6.2053
    -5.4687  -4.8077  -4.3913  -2.6506  -1.6877  -0.1738   1.2069   2.1816
     3.6399   4.2184   4.8886   6.3307

          k = 0.4096 0.1419 0.0000 ( 62522 PWs)   bands (ev):

   -67.5494 -67.5346 -34.5067 -34.4361 -34.2340 -34.0838 -33.9227 -33.8306
   -19.2468 -19.2385 -19.2324 -19.2277 -19.2251 -19.2139 -19.2125 -19.2058
   -19.1966 -19.1906 -19.1609 -19.1576 -19.1519 -19.1497 -11.2388  -6.7851
    -5.1653  -4.7695  -4.0254  -3.0226  -1.8165   0.8486   1.5760   2.0364
     3.6616   3.9497   4.7836   6.2885

          k =-0.4915-0.2837 0.0000 ( 62588 PWs)   bands (ev):

   -67.5394 -67.5292 -34.6092 -34.5404 -34.2262 -34.0942 -33.9288 -33.8221
   -19.2505 -19.2404 -19.2350 -19.2283 -19.2251 -19.2142 -19.2099 -19.2059
   -19.1937 -19.1875 -19.1654 -19.1601 -19.1447 -19.1435 -11.0819  -7.1549
    -5.1720  -4.8056  -3.4262  -3.2907  -1.7652   1.4262   2.0955   2.3334
     3.1930   4.7994   5.7720   6.3354

          k =-0.4915-0.1891 0.0000 ( 62573 PWs)   bands (ev):

   -67.5395 -67.5292 -34.5801 -34.5133 -34.2242 -34.1000 -33.9545 -33.8552
   -19.2486 -19.2394 -19.2340 -19.2282 -19.2246 -19.2145 -19.2112 -19.2058
   -19.1945 -19.1887 -19.1663 -19.1617 -19.1448 -19.1436 -11.0617  -6.9696
    -5.0853  -4.7719  -3.7878  -3.2471  -1.6585   1.2043   1.6871   2.2801
     3.9756   4.4361   5.7572   6.2761

          k =-0.4915-0.0946 0.0000 ( 62597 PWs)   bands (ev):

   -67.5395 -67.5292 -34.5127 -34.4454 -34.2248 -34.1180 -34.0042 -33.9347
   -19.2442 -19.2362 -19.2335 -19.2269 -19.2247 -19.2156 -19.2138 -19.2053
   -19.1956 -19.1919 -19.1680 -19.1652 -19.1451 -19.1436 -11.0212  -6.4501
    -4.9313  -4.8719  -4.4114  -3.0324  -1.4560   0.0386   1.9850   2.3258
     3.8251   4.5413   5.4240   6.3675

          k =-0.4915-0.0001 0.0000 ( 62556 PWs)   bands (ev):

   -67.5396 -67.5292 -34.4740 -34.3903 -34.2479 -34.1155 -34.0338 -33.9843
   -19.2412 -19.2349 -19.2304 -19.2298 -19.2247 -19.2160 -19.2150 -19.2049
   -19.1950 -19.1948 -19.1684 -19.1675 -19.1453 -19.1437 -11.0011  -5.7714
    -5.6039  -4.7479  -4.5380  -2.8548  -1.2642  -0.5927   1.8953   2.4630
     3.6659   4.5875   5.2476   6.6440

          k =-0.4915 0.0944 0.0000 ( 62605 PWs)   bands (ev):

   -67.5397 -67.5292 -34.5123 -34.4444 -34.2259 -34.1176 -34.0036 -33.9349
   -19.2439 -19.2366 -19.2338 -19.2270 -19.2245 -19.2158 -19.2135 -19.2050
   -19.1957 -19.1919 -19.1679 -19.1654 -19.1451 -19.1436 -11.0221  -6.4520
    -4.9283  -4.8710  -4.4106  -3.0264  -1.4555   0.0318   1.9798   2.3213
     3.8244   4.5433   5.4234   6.3621

          k =-0.4915 0.1890 0.0000 ( 62573 PWs)   bands (ev):

   -67.5397 -67.5292 -34.5794 -34.5119 -34.2260 -34.0989 -33.9542 -33.8551
   -19.2484 -19.2397 -19.2342 -19.2284 -19.2245 -19.2146 -19.2109 -19.2054
   -19.1946 -19.1887 -19.1663 -19.1619 -19.1449 -19.1435 -11.0632  -6.9714
    -5.0864  -4.7670  -3.7840  -3.2394  -1.6591   1.1948   1.6817   2.2712
     3.9745   4.4358   5.7542   6.2763

          k =-0.4916-0.8508 0.0000 ( 62580 PWs)   bands (ev):

   -67.5397 -67.5292 -34.6084 -34.5389 -34.2283 -34.0928 -33.9285 -33.8219
   -19.2504 -19.2406 -19.2352 -19.2285 -19.2251 -19.2143 -19.2096 -19.2055
   -19.1937 -19.1875 -19.1654 -19.1603 -19.1447 -19.1435 -11.0835  -7.1567
    -5.1734  -4.8003  -3.4183  -3.2851  -1.7665   1.4206   2.0796   2.3242
     3.1969   4.7984   5.7680   6.3382

     the Fermi energy is     0.8295 ev

!    total energy              =   -1375.70130004 Ry
     estimated scf accuracy    <          5.4E-14 Ry
     smearing contrib. (-TS)   =      -0.00000369 Ry
     internal energy E=F+TS    =   -1375.70129635 Ry

     The total energy is F=E-TS. E is the sum of the following terms:
     one-electron contribution =  -11616.53356743 Ry
     hartree contribution      =    5838.41372249 Ry
     xc contribution           =    -140.31296213 Ry
     ewald contribution        =    4542.73151073 Ry

     convergence has been achieved in  20 iterations

     negative rho (up, down):  2.884E-05 0.000E+00

     Forces acting on atoms (cartesian axes, Ry/au):

     atom    1 type  2   force =    -0.00045445    0.00025787   -0.00000133
     atom    2 type  1   force =     0.00003893    0.00027349   -0.00018693
     atom    3 type  1   force =     0.00009888   -0.00034920    0.00018731
     atom    4 type  3   force =     0.00026925   -0.00055431   -0.00005927
     atom    5 type  3   force =     0.00004739    0.00037214    0.00006022

     Total force =     0.001039     Total SCF correction =     0.000002


     Computing stress (Cartesian axis) and pressure


     negative rho (up, down):  2.884E-05 0.000E+00
          total   stress  (Ry/bohr**3)                   (kbar)     P=        0.18
   0.00000048   0.00000012   0.00000076            0.07        0.02        0.11
   0.00000012   0.00000326  -0.00000378            0.02        0.48       -0.56
   0.00000076  -0.00000378  -0.00000001            0.11       -0.56       -0.00


     Writing output data file /scratch/as3359/Ta2CH2-VCrelax/Ta.save/
 
     init_run     :     64.18s CPU     35.31s WALL (       1 calls)
     electrons    :   2729.33s CPU   1388.31s WALL (       1 calls)
     forces       :     19.43s CPU     10.02s WALL (       1 calls)
     stress       :     97.31s CPU     49.88s WALL (       1 calls)

     Called by init_run:
     wfcinit      :     51.06s CPU     26.44s WALL (       1 calls)
     potinit      :      3.78s CPU      1.92s WALL (       1 calls)
     hinit0       :      6.97s CPU      5.33s WALL (       1 calls)

     Called by electrons:
     c_bands      :   2232.62s CPU   1126.84s WALL (      20 calls)
     sum_band     :    443.90s CPU    229.25s WALL (      20 calls)
     v_of_rho     :      7.97s CPU      4.45s WALL (      21 calls)
     newd         :     43.46s CPU     27.12s WALL (      21 calls)
     mix_rho      :      3.28s CPU      1.80s WALL (      20 calls)

     Called by c_bands:
     init_us_2    :     53.62s CPU     26.84s WALL (    3182 calls)
     cegterg      :   2075.47s CPU   1047.69s WALL (    1480 calls)

     Called by *egterg:
     cdiaghg      :     16.93s CPU      8.65s WALL (    7477 calls)
     h_psi        :   1698.59s CPU    859.05s WALL (    7551 calls)
     s_psi        :     85.71s CPU     42.89s WALL (    7551 calls)
     g_psi        :      9.69s CPU      4.86s WALL (    5997 calls)

     Called by h_psi:
     h_psi:calbec :     66.47s CPU     33.29s WALL (    7551 calls)
     vloc_psi     :   1527.50s CPU    773.15s WALL (    7551 calls)
     add_vuspsi   :     90.09s CPU     45.09s WALL (    7551 calls)

     General routines
     calbec       :     92.95s CPU     46.57s WALL (    9401 calls)
     fft          :      7.49s CPU      3.95s WALL (     256 calls)
     ffts         :      0.31s CPU      0.16s WALL (      20 calls)
     fftw         :   1545.41s CPU    783.23s WALL (  315380 calls)
 
     Parallel routines
 
     PWSCF        :  48m38.16s CPU  24m50.57s WALL

 
   This run was terminated on:  19:29:20   7Apr2022            

=------------------------------------------------------------------------------=
   JOB DONE.
=------------------------------------------------------------------------------=
