
     Program PWSCF v.6.8 starts on  7Apr2022 at 14:48: 3 

     This program is part of the open-source Quantum ESPRESSO suite
     for quantum simulation of materials; please cite
         "P. Giannozzi et al., J. Phys.:Condens. Matter 21 395502 (2009);
         "P. Giannozzi et al., J. Phys.:Condens. Matter 29 465901 (2017);
         "P. Giannozzi et al., J. Chem. Phys. 152 154105 (2020);
          URL http://www.quantum-espresso.org", 
     in publications or presentations arising from this work. More details at
     http://www.quantum-espresso.org/quote

     Parallel version (MPI & OpenMP), running on       4 processor cores
     Number of MPI processes:                 2
     Threads/MPI process:                     2

     MPI processes distributed on     1 nodes
     R & G space division:  proc/nbgrp/npool/nimage =       2
     124275 MiB available memory on the printing compute node when the environment starts
 
     Reading input from Ta2CH2.scf.95.in

     Current dimensions of program PWSCF are:
     Max number of different atomic species (ntypx) = 10
     Max number of k-points (npk) =  40000
     Max angular momentum in pseudopotentials (lmaxx) =  4
     file Ta.pbesol-spfn-rrkjus_psl.1.0.0.UPF: wavefunction(s)  5S 5P renormalized

     Subspace diagonalization in iterative solution of the eigenvalue problem:
     a serial algorithm will be used

 
     Parallelization info
     --------------------
     sticks:   dense  smooth     PW     G-vecs:    dense   smooth      PW
     Min         423     423    126                96045    96045   16542
     Max         424     424    127                96066    96066   16581
     Sum         847     847    253               192111   192111   33123
 
     Using Slab Decomposition
 


     bravais-lattice index     =            0
     lattice parameter (alat)  =       5.5500  a.u.
     unit-cell volume          =    1533.2393 (a.u.)^3
     number of atoms/cell      =            5
     number of atomic types    =            3
     number of electrons       =        60.00
     number of Kohn-Sham states=           36
     kinetic-energy cutoff     =      95.0000  Ry
     charge density cutoff     =     380.0000  Ry
     scf convergence threshold =      1.0E-12
     mixing beta               =       0.7000
     number of iterations used =            8  plain     mixing
     Exchange-correlation= PBESOL
                           (   1   4  10   8   0   0   0)

     celldm(1)=   5.550000  celldm(2)=   0.000000  celldm(3)=   0.000000
     celldm(4)=   0.000000  celldm(5)=   0.000000  celldm(6)=   0.000000

     crystal axes: (cart. coord. in units of alat)
               a(1) = (   1.017295  -0.000177   0.000000 )  
               a(2) = (  -0.508801   0.881714   0.000000 )  
               a(3) = (   0.000000   0.000000  10.000000 )  

     reciprocal axes: (cart. coord. in units 2 pi/alat)
               b(1) = (  0.983098  0.567305  0.000000 )  
               b(2) = (  0.000198  1.134269  0.000000 )  
               b(3) = (  0.000000  0.000000  0.100000 )  


     PseudoPot. # 1 for Ta read from file:
     /shared/home/as3359/pseudo/Ta.pbesol-spfn-rrkjus_psl.1.0.0.UPF
     MD5 check sum: f099565ffaca9b150a52e9412a28e20b
     Pseudo is Ultrasoft + core correction, Zval = 27.0
     Generated using &quot;atomic&quot; code by A. Dal Corso  v.6.3
     Using radial grid of 1273 points,  8 beta functions with: 
                l(1) =   0
                l(2) =   0
                l(3) =   1
                l(4) =   1
                l(5) =   2
                l(6) =   2
                l(7) =   3
                l(8) =   3
     Q(r) pseudized with 0 coefficients 


     PseudoPot. # 2 for C  read from file:
     /shared/home/as3359/pseudo/C.pbesol-n-rrkjus_psl.1.0.0.UPF
     MD5 check sum: 05995be603a8a7c99da3dc4413f31573
     Pseudo is Ultrasoft + core correction, Zval =  4.0
     Generated using &quot;atomic&quot; code by A. Dal Corso  v.6.3MaX
     Using radial grid of 1073 points,  4 beta functions with: 
                l(1) =   0
                l(2) =   0
                l(3) =   1
                l(4) =   1
     Q(r) pseudized with 0 coefficients 


     PseudoPot. # 3 for H  read from file:
     /shared/home/as3359/pseudo/H.pbesol-rrkjus_psl.0.1.UPF
     MD5 check sum: 1dbb1a5c48b1283557b8117eb856a7ca
     Pseudo is Ultrasoft, Zval =  1.0
     Generated using "atomic" code by A. Dal Corso  v.5.0.2 svn rev. 9415
     Using radial grid of  929 points,  2 beta functions with: 
                l(1) =   0
                l(2) =   0
     Q(r) pseudized with 0 coefficients 


     atomic species   valence    mass     pseudopotential
        Ta            27.00   180.94788     Ta( 1.00)
        C              4.00    12.01070     C ( 1.00)
        H              1.00     1.00000     H ( 1.00)

     No symmetry found



   Cartesian axes

     site n.     atom                  positions (alat units)
         1           C   tau(   1) = (   0.0000000   0.0000000   0.0000000  )
         2           Ta  tau(   2) = (   0.5088008   0.2948413  -0.4364511  )
         3           Ta  tau(   3) = (  -0.0007447   0.5869407   0.4364532  )
         4           H   tau(   4) = (  -0.0017928  -0.0015314   0.8341930  )
         5           H   tau(   5) = (   0.0002769   0.0024412  -0.8341930  )

     number of k points=    74  Marzari-Vanderbilt smearing, width (Ry)=  0.0010
                       cart. coord. in units 2pi/alat
        k(    1) = (   0.0000000   0.0000000   0.0000000), wk =   0.0138889
        k(    2) = (   0.0000165   0.0945224   0.0000000), wk =   0.0277778
        k(    3) = (   0.0000329   0.1890448   0.0000000), wk =   0.0277778
        k(    4) = (   0.0000494   0.2835672   0.0000000), wk =   0.0277778
        k(    5) = (   0.0000659   0.3780896   0.0000000), wk =   0.0277778
        k(    6) = (   0.0000823   0.4726120   0.0000000), wk =   0.0277778
        k(    7) = (  -0.0000988  -0.5671343   0.0000000), wk =   0.0138889
        k(    8) = (   0.0819248   0.0472755   0.0000000), wk =   0.0277778
        k(    9) = (   0.0819413   0.1417978   0.0000000), wk =   0.0277778
        k(   10) = (   0.0819577   0.2363202   0.0000000), wk =   0.0277778
        k(   11) = (   0.0819742   0.3308426   0.0000000), wk =   0.0277778
        k(   12) = (   0.0819907   0.4253650   0.0000000), wk =   0.0277778
        k(   13) = (   0.0820071   0.5198874   0.0000000), wk =   0.0277778
        k(   14) = (   0.0818260  -0.5198589   0.0000000), wk =   0.0277778
        k(   15) = (   0.0818425  -0.4253365   0.0000000), wk =   0.0277778
        k(   16) = (   0.0818590  -0.3308141   0.0000000), wk =   0.0277778
        k(   17) = (   0.0818754  -0.2362917   0.0000000), wk =   0.0277778
        k(   18) = (   0.0818919  -0.1417693   0.0000000), wk =   0.0277778
        k(   19) = (   0.0819084  -0.0472469   0.0000000), wk =   0.0277778
        k(   20) = (   0.1638496   0.0945509   0.0000000), wk =   0.0277778
        k(   21) = (   0.1638661   0.1890733   0.0000000), wk =   0.0277778
        k(   22) = (   0.1638826   0.2835957   0.0000000), wk =   0.0277778
        k(   23) = (   0.1638990   0.3781181   0.0000000), wk =   0.0277778
        k(   24) = (   0.1639155   0.4726405   0.0000000), wk =   0.0277778
        k(   25) = (   0.1639319   0.5671629   0.0000000), wk =   0.0277778
        k(   26) = (   0.1637508  -0.4725834   0.0000000), wk =   0.0277778
        k(   27) = (   0.1637673  -0.3780610   0.0000000), wk =   0.0277778
        k(   28) = (   0.1637838  -0.2835386   0.0000000), wk =   0.0277778
        k(   29) = (   0.1638002  -0.1890163   0.0000000), wk =   0.0277778
        k(   30) = (   0.1638167  -0.0944939   0.0000000), wk =   0.0277778
        k(   31) = (   0.1638332   0.0000285   0.0000000), wk =   0.0277778
        k(   32) = (   0.2457744   0.1418264   0.0000000), wk =   0.0277778
        k(   33) = (   0.2457909   0.2363488   0.0000000), wk =   0.0277778
        k(   34) = (   0.2458074   0.3308711   0.0000000), wk =   0.0277778
        k(   35) = (   0.2458238   0.4253935   0.0000000), wk =   0.0277778
        k(   36) = (   0.2458403   0.5199159   0.0000000), wk =   0.0277778
        k(   37) = (   0.2458568   0.6144383   0.0000000), wk =   0.0277778
        k(   38) = (   0.2456757  -0.4253080   0.0000000), wk =   0.0277778
        k(   39) = (   0.2456921  -0.3307856   0.0000000), wk =   0.0277778
        k(   40) = (   0.2457086  -0.2362632   0.0000000), wk =   0.0277778
        k(   41) = (   0.2457251  -0.1417408   0.0000000), wk =   0.0277778
        k(   42) = (   0.2457415  -0.0472184   0.0000000), wk =   0.0277778
        k(   43) = (   0.2457580   0.0473040   0.0000000), wk =   0.0277778
        k(   44) = (   0.3276993   0.1891018   0.0000000), wk =   0.0277778
        k(   45) = (   0.3277157   0.2836242   0.0000000), wk =   0.0277778
        k(   46) = (   0.3277322   0.3781466   0.0000000), wk =   0.0277778
        k(   47) = (   0.3277486   0.4726690   0.0000000), wk =   0.0277778
        k(   48) = (   0.3277651   0.5671914   0.0000000), wk =   0.0277778
        k(   49) = (   0.3277816   0.6617138   0.0000000), wk =   0.0277778
        k(   50) = (   0.3276005  -0.3780325   0.0000000), wk =   0.0277778
        k(   51) = (   0.3276169  -0.2835101   0.0000000), wk =   0.0277778
        k(   52) = (   0.3276334  -0.1889877   0.0000000), wk =   0.0277778
        k(   53) = (   0.3276499  -0.0944653   0.0000000), wk =   0.0277778
        k(   54) = (   0.3276663   0.0000570   0.0000000), wk =   0.0277778
        k(   55) = (   0.3276828   0.0945794   0.0000000), wk =   0.0277778
        k(   56) = (   0.4096241   0.2363773   0.0000000), wk =   0.0277778
        k(   57) = (   0.4096405   0.3308997   0.0000000), wk =   0.0277778
        k(   58) = (   0.4096570   0.4254221   0.0000000), wk =   0.0277778
        k(   59) = (   0.4096735   0.5199445   0.0000000), wk =   0.0277778
        k(   60) = (   0.4096899   0.6144668   0.0000000), wk =   0.0277778
        k(   61) = (   0.4097064   0.7089892   0.0000000), wk =   0.0277778
        k(   62) = (   0.4095253  -0.3307571   0.0000000), wk =   0.0277778
        k(   63) = (   0.4095418  -0.2362347   0.0000000), wk =   0.0277778
        k(   64) = (   0.4095582  -0.1417123   0.0000000), wk =   0.0277778
        k(   65) = (   0.4095747  -0.0471899   0.0000000), wk =   0.0277778
        k(   66) = (   0.4095911   0.0473325   0.0000000), wk =   0.0277778
        k(   67) = (   0.4096076   0.1418549   0.0000000), wk =   0.0277778
        k(   68) = (  -0.4915489  -0.2836527   0.0000000), wk =   0.0138889
        k(   69) = (  -0.4915324  -0.1891303   0.0000000), wk =   0.0277778
        k(   70) = (  -0.4915160  -0.0946080   0.0000000), wk =   0.0277778
        k(   71) = (  -0.4914995  -0.0000856   0.0000000), wk =   0.0277778
        k(   72) = (  -0.4914830   0.0944368   0.0000000), wk =   0.0277778
        k(   73) = (  -0.4914666   0.1889592   0.0000000), wk =   0.0277778
        k(   74) = (  -0.4916477  -0.8507871   0.0000000), wk =   0.0138889

     Dense  grid:   192111 G-vectors     FFT dimensions: (  36,  36, 360)

     Estimated max dynamical RAM per process >       1.40 GB

     Estimated total dynamical RAM >       2.80 GB

     Check: negative core charge=   -0.000001

     Initial potential from superposition of free atoms

     starting charge   59.99840, renormalised to   60.00000

     negative rho (up, down):  4.732E-04 0.000E+00
     Starting wfcs are   40 randomized atomic wfcs

     total cpu time spent up to now is       12.6 secs

     Self-consistent Calculation

     iteration #  1     ecut=    95.00 Ry     beta= 0.70
     Davidson diagonalization with overlap
     ethr =  1.00E-02,  avg # of iterations =  2.0

     negative rho (up, down):  2.814E-04 0.000E+00

     total cpu time spent up to now is       35.0 secs

     total energy              =   -1375.12059541 Ry
     estimated scf accuracy    <       1.04988078 Ry

     iteration #  2     ecut=    95.00 Ry     beta= 0.70
     Davidson diagonalization with overlap
     ethr =  1.75E-03,  avg # of iterations =  7.5

     negative rho (up, down):  1.756E-04 0.000E+00

     total cpu time spent up to now is       66.2 secs

     total energy              =   -1374.70776610 Ry
     estimated scf accuracy    <       5.45697199 Ry

     iteration #  3     ecut=    95.00 Ry     beta= 0.70
     Davidson diagonalization with overlap
     ethr =  1.75E-03,  avg # of iterations =  4.8

     negative rho (up, down):  2.021E-04 0.000E+00

     total cpu time spent up to now is       93.6 secs

     total energy              =   -1375.66664759 Ry
     estimated scf accuracy    <       0.23093937 Ry

     iteration #  4     ecut=    95.00 Ry     beta= 0.70
     Davidson diagonalization with overlap
     ethr =  3.85E-04,  avg # of iterations =  2.4

     negative rho (up, down):  2.327E-04 0.000E+00

     total cpu time spent up to now is      116.2 secs

     total energy              =   -1375.69613190 Ry
     estimated scf accuracy    <       0.02260347 Ry

     iteration #  5     ecut=    95.00 Ry     beta= 0.70
     Davidson diagonalization with overlap
     ethr =  3.77E-05,  avg # of iterations = 11.7

     negative rho (up, down):  2.452E-04 0.000E+00

     total cpu time spent up to now is      149.4 secs

     total energy              =   -1375.69335279 Ry
     estimated scf accuracy    <       0.05453002 Ry

     iteration #  6     ecut=    95.00 Ry     beta= 0.70
     Davidson diagonalization with overlap
     c_bands:  1 eigenvalues not converged
     c_bands:  1 eigenvalues not converged
     c_bands:  1 eigenvalues not converged
     ethr =  3.77E-05,  avg # of iterations = 11.6

     negative rho (up, down):  2.909E-04 0.000E+00

     total cpu time spent up to now is      178.1 secs

     total energy              =   -1375.69744149 Ry
     estimated scf accuracy    <       0.03764845 Ry

     iteration #  7     ecut=    95.00 Ry     beta= 0.70
     Davidson diagonalization with overlap
     ethr =  3.77E-05,  avg # of iterations =  4.7

     negative rho (up, down):  3.231E-04 0.000E+00

     total cpu time spent up to now is      200.2 secs

     total energy              =   -1375.69975291 Ry
     estimated scf accuracy    <       0.00025369 Ry

     iteration #  8     ecut=    95.00 Ry     beta= 0.70
     Davidson diagonalization with overlap
     c_bands:  1 eigenvalues not converged
     c_bands:  1 eigenvalues not converged
     c_bands:  1 eigenvalues not converged
     c_bands:  1 eigenvalues not converged
     c_bands:  1 eigenvalues not converged
     c_bands:  1 eigenvalues not converged
     c_bands:  1 eigenvalues not converged
     c_bands:  1 eigenvalues not converged
     c_bands:  1 eigenvalues not converged
     c_bands:  1 eigenvalues not converged
     c_bands:  1 eigenvalues not converged
     c_bands:  1 eigenvalues not converged
     c_bands:  1 eigenvalues not converged
     c_bands:  1 eigenvalues not converged
     c_bands:  1 eigenvalues not converged
     ethr =  4.23E-07,  avg # of iterations = 12.3

     negative rho (up, down):  3.467E-04 0.000E+00

     total cpu time spent up to now is      233.7 secs

     total energy              =   -1375.69983442 Ry
     estimated scf accuracy    <       0.00002709 Ry

     iteration #  9     ecut=    95.00 Ry     beta= 0.70
     Davidson diagonalization with overlap
     ethr =  4.51E-08,  avg # of iterations =  2.7

     negative rho (up, down):  3.505E-04 0.000E+00

     total cpu time spent up to now is      255.7 secs

     total energy              =   -1375.69983902 Ry
     estimated scf accuracy    <       0.00000532 Ry

     iteration # 10     ecut=    95.00 Ry     beta= 0.70
     Davidson diagonalization with overlap
     ethr =  8.87E-09,  avg # of iterations =  2.0

     negative rho (up, down):  3.516E-04 0.000E+00

     total cpu time spent up to now is      277.3 secs

     total energy              =   -1375.69983955 Ry
     estimated scf accuracy    <       0.00000060 Ry

     iteration # 11     ecut=    95.00 Ry     beta= 0.70
     Davidson diagonalization with overlap
     ethr =  9.96E-10,  avg # of iterations =  2.9

     negative rho (up, down):  3.515E-04 0.000E+00

     total cpu time spent up to now is      301.8 secs

     total energy              =   -1375.69983965 Ry
     estimated scf accuracy    <       0.00000007 Ry

     iteration # 12     ecut=    95.00 Ry     beta= 0.70
     Davidson diagonalization with overlap
     ethr =  1.24E-10,  avg # of iterations =  2.6

     negative rho (up, down):  3.516E-04 0.000E+00

     total cpu time spent up to now is      326.2 secs

     total energy              =   -1375.69983966 Ry
     estimated scf accuracy    <       0.00000002 Ry

     iteration # 13     ecut=    95.00 Ry     beta= 0.70
     Davidson diagonalization with overlap
     ethr =  4.06E-11,  avg # of iterations =  2.0

     negative rho (up, down):  3.516E-04 0.000E+00

     total cpu time spent up to now is      347.8 secs

     total energy              =   -1375.69983966 Ry
     estimated scf accuracy    <          4.4E-09 Ry

     iteration # 14     ecut=    95.00 Ry     beta= 0.70
     Davidson diagonalization with overlap
     ethr =  7.26E-12,  avg # of iterations =  3.0

     negative rho (up, down):  3.516E-04 0.000E+00

     total cpu time spent up to now is      371.1 secs

     total energy              =   -1375.69983967 Ry
     estimated scf accuracy    <          3.3E-10 Ry

     iteration # 15     ecut=    95.00 Ry     beta= 0.70
     Davidson diagonalization with overlap
     ethr =  5.48E-13,  avg # of iterations =  2.2

     negative rho (up, down):  3.516E-04 0.000E+00

     total cpu time spent up to now is      394.2 secs

     total energy              =   -1375.69983967 Ry
     estimated scf accuracy    <          9.0E-11 Ry

     iteration # 16     ecut=    95.00 Ry     beta= 0.70
     Davidson diagonalization with overlap
     ethr =  1.51E-13,  avg # of iterations =  2.1

     negative rho (up, down):  3.516E-04 0.000E+00

     total cpu time spent up to now is      415.7 secs

     total energy              =   -1375.69983967 Ry
     estimated scf accuracy    <          1.8E-10 Ry

     iteration # 17     ecut=    95.00 Ry     beta= 0.70
     Davidson diagonalization with overlap
     ethr =  1.51E-13,  avg # of iterations =  1.6

     negative rho (up, down):  3.516E-04 0.000E+00

     total cpu time spent up to now is      435.5 secs

     total energy              =   -1375.69983967 Ry
     estimated scf accuracy    <          8.0E-12 Ry

     iteration # 18     ecut=    95.00 Ry     beta= 0.70
     Davidson diagonalization with overlap
     ethr =  1.00E-13,  avg # of iterations =  1.6

     negative rho (up, down):  3.516E-04 0.000E+00

     total cpu time spent up to now is      455.5 secs

     total energy              =   -1375.69983967 Ry
     estimated scf accuracy    <          1.9E-12 Ry

     iteration # 19     ecut=    95.00 Ry     beta= 0.70
     Davidson diagonalization with overlap
     ethr =  1.00E-13,  avg # of iterations =  1.0

     negative rho (up, down):  3.516E-04 0.000E+00

     total cpu time spent up to now is      474.4 secs

     End of self-consistent calculation

          k = 0.0000 0.0000 0.0000 ( 23987 PWs)   bands (ev):

   -67.6119 -67.5803 -34.5976 -34.1141 -33.6994 -33.6980 -33.6593 -33.6591
   -19.2591 -19.2451 -19.2259 -19.2255 -19.2253 -19.2252 -19.2043 -19.2042
   -19.2029 -19.2023 -19.2017 -19.1956 -19.1217 -19.1209 -12.8539  -8.3517
    -5.2557  -3.4734  -3.2171  -3.2022  -1.2339   0.3188   0.3387   2.4909
     2.5028   2.9047   2.9375   3.4852

          k = 0.0000 0.0945 0.0000 ( 23949 PWs)   bands (ev):

   -67.6074 -67.5768 -34.5827 -34.1130 -33.7583 -33.7165 -33.7161 -33.6686
   -19.2575 -19.2444 -19.2271 -19.2256 -19.2253 -19.2240 -19.2064 -19.2044
   -19.2030 -19.2022 -19.1983 -19.1923 -19.1251 -19.1244 -12.7146  -8.1331
    -5.3207  -3.5517  -3.3895  -3.1611  -1.0623  -0.0560   0.5490   1.8782
     2.1870   2.9290   3.3015   4.1821

          k = 0.0000 0.1890 0.0000 ( 23977 PWs)   bands (ev):

   -67.5950 -67.5671 -34.5425 -34.1168 -33.9139 -33.8670 -33.7609 -33.6968
   -19.2533 -19.2428 -19.2311 -19.2258 -19.2250 -19.2201 -19.2115 -19.2050
   -19.2045 -19.2006 -19.1886 -19.1834 -19.1342 -19.1337 -12.3446  -7.5543
    -5.4879  -4.0341  -3.4658  -3.0968  -1.0098  -0.4093   1.1327   1.3090
     2.0974   2.7890   3.6413   4.8989

          k = 0.0000 0.2836 0.0000 ( 23963 PWs)   bands (ev):

   -67.5777 -67.5540 -34.4928 -34.1945 -34.0671 -34.0419 -33.8185 -33.7375
   -19.2500 -19.2399 -19.2362 -19.2270 -19.2248 -19.2165 -19.2160 -19.2069
   -19.2040 -19.1977 -19.1753 -19.1711 -19.1462 -19.1450 -11.8712  -6.9314
    -5.6171  -4.4662  -3.5652  -3.1186  -1.6559   0.3107   1.1527   1.8925
     2.5008   2.6837   3.7579   5.4962

          k = 0.0001 0.3781 0.0000 ( 23993 PWs)   bands (ev):

   -67.5599 -67.5415 -34.4802 -34.3746 -34.2124 -34.0713 -33.8742 -33.7793
   -19.2505 -19.2407 -19.2356 -19.2288 -19.2281 -19.2163 -19.2148 -19.2077
   -19.2013 -19.1943 -19.1617 -19.1586 -19.1576 -19.1549 -11.4470  -6.8509
    -5.3727  -4.6858  -3.6253  -3.2352  -1.9191   1.1157   1.4868   2.0728
     2.6874   3.7803   3.9151   6.0477

          k = 0.0001 0.4726 0.0000 ( 24000 PWs)   bands (ev):

   -67.5462 -67.5329 -34.5605 -34.4956 -34.2408 -34.0841 -33.9140 -33.8103
   -19.2523 -19.2431 -19.2364 -19.2307 -19.2286 -19.2162 -19.2136 -19.2077
   -19.1979 -19.1914 -19.1655 -19.1612 -19.1514 -19.1495 -11.1760  -7.0613
    -5.1839  -4.7679  -3.4540  -3.3580  -1.8323   1.5210   1.7905   2.1374
     3.1442   4.3188   5.1286   6.1957

          k =-0.0001-0.5671 0.0000 ( 24012 PWs)   bands (ev):

   -67.5409 -67.5301 -34.6076 -34.5381 -34.2307 -34.0916 -33.9284 -33.8217
   -19.2531 -19.2435 -19.2382 -19.2314 -19.2279 -19.2170 -19.2119 -19.2078
   -19.1965 -19.1903 -19.1683 -19.1633 -19.1475 -19.1463 -11.0864  -7.1584
    -5.1761  -4.7940  -3.4081  -3.2817  -1.7701   1.4145   2.0578   2.3141
     3.2023   4.7966   5.7622   6.3420

          k = 0.0819 0.0473 0.0000 ( 23955 PWs)   bands (ev):

   -67.6074 -67.5767 -34.5826 -34.1131 -33.7595 -33.7161 -33.7155 -33.6687
   -19.2574 -19.2444 -19.2272 -19.2257 -19.2255 -19.2237 -19.2062 -19.2045
   -19.2036 -19.2016 -19.1983 -19.1924 -19.1251 -19.1244 -12.7143  -8.1328
    -5.3187  -3.5478  -3.3861  -3.1745  -1.0637  -0.0398   0.5327   1.8780
     2.1859   2.9611   3.2859   4.1688

          k = 0.0819 0.1418 0.0000 ( 23991 PWs)   bands (ev):

   -67.5989 -67.5701 -34.5550 -34.1137 -33.8559 -33.8333 -33.7360 -33.6969
   -19.2543 -19.2433 -19.2293 -19.2275 -19.2241 -19.2213 -19.2096 -19.2051
   -19.2044 -19.2009 -19.1917 -19.1862 -19.1313 -19.1309 -12.4593  -7.7285
    -5.4304  -3.8044  -3.6608  -2.9886  -0.7511  -0.6302   0.8717   1.6527
     1.8050   2.9986   3.5708   4.8180

          k = 0.0820 0.2363 0.0000 ( 23962 PWs)   bands (ev):

   -67.5840 -67.5588 -34.5091 -34.1404 -34.0118 -33.9918 -33.7956 -33.7406
   -19.2497 -19.2418 -19.2336 -19.2287 -19.2233 -19.2175 -19.2146 -19.2063
   -19.2046 -19.1990 -19.1802 -19.1756 -19.1419 -19.1414 -12.0364  -7.0702
    -5.5917  -4.3099  -3.8499  -2.7956  -1.3684  -0.1439   0.7429   1.9396
     2.2356   2.7772   3.9432   5.3030

          k = 0.0820 0.3308 0.0000 ( 23958 PWs)   bands (ev):

   -67.5665 -67.5460 -34.4713 -34.2836 -34.1625 -34.0646 -33.8654 -33.7886
   -19.2480 -19.2383 -19.2379 -19.2304 -19.2243 -19.2178 -19.2149 -19.2077
   -19.2024 -19.1962 -19.1668 -19.1633 -19.1538 -19.1523 -11.5871  -6.6425
    -5.5404  -4.6362  -4.0070  -2.8082  -1.8151   0.5093   0.8121   2.1925
     2.8449   3.4089   4.0761   5.9204

          k = 0.0820 0.4254 0.0000 ( 23977 PWs)   bands (ev):

   -67.5506 -67.5355 -34.5056 -34.4344 -34.2361 -34.0828 -33.9227 -33.8306
   -19.2496 -19.2415 -19.2356 -19.2306 -19.2277 -19.2167 -19.2150 -19.2078
   -19.1992 -19.1935 -19.1637 -19.1607 -19.1547 -19.1524 -11.2425  -6.7904
    -5.1717  -4.7576  -4.0137  -3.0099  -1.8180   0.8253   1.5696   2.0183
     3.6572   3.9483   4.7812   6.2955

          k = 0.0820 0.5199 0.0000 ( 24003 PWs)   bands (ev):

   -67.5408 -67.5301 -34.5785 -34.5111 -34.2282 -34.0979 -33.9541 -33.8551
   -19.2511 -19.2427 -19.2371 -19.2314 -19.2273 -19.2174 -19.2132 -19.2077
   -19.1973 -19.1915 -19.1692 -19.1649 -19.1477 -19.1463 -11.0661  -6.9729
    -5.0886  -4.7609  -3.7755  -3.2373  -1.6607   1.1835   1.6757   2.2602
     3.9721   4.4357   5.7490   6.2754

          k = 0.0818-0.5199 0.0000 ( 24007 PWs)   bands (ev):

   -67.5409 -67.5301 -34.5783 -34.5109 -34.2282 -34.0980 -33.9543 -33.8552
   -19.2511 -19.2427 -19.2370 -19.2315 -19.2274 -19.2174 -19.2133 -19.2077
   -19.1973 -19.1915 -19.1692 -19.1649 -19.1477 -19.1463 -11.0663  -6.9726
    -5.0885  -4.7608  -3.7717  -3.2417  -1.6601   1.1840   1.6757   2.2607
     3.9710   4.4363   5.7488   6.2755

          k = 0.0818-0.4253 0.0000 ( 23981 PWs)   bands (ev):

   -67.5506 -67.5355 -34.5052 -34.4340 -34.2360 -34.0829 -33.9230 -33.8307
   -19.2495 -19.2415 -19.2354 -19.2307 -19.2279 -19.2165 -19.2154 -19.2077
   -19.1991 -19.1934 -19.1637 -19.1607 -19.1547 -19.1524 -11.2430  -6.7897
    -5.1727  -4.7562  -4.0087  -3.0156  -1.8169   0.8260   1.5735   2.0161
     3.6528   3.9478   4.7800   6.2937

          k = 0.0819-0.3308 0.0000 ( 23956 PWs)   bands (ev):

   -67.5665 -67.5460 -34.4713 -34.2829 -34.1620 -34.0647 -33.8659 -33.7888
   -19.2480 -19.2383 -19.2379 -19.2304 -19.2243 -19.2178 -19.2152 -19.2075
   -19.2023 -19.1963 -19.1668 -19.1632 -19.1538 -19.1523 -11.5877  -6.6422
    -5.5420  -4.6337  -4.0031  -2.8114  -1.8148   0.5063   0.8182   2.1914
     2.8387   3.4070   4.0752   5.9226

          k = 0.0819-0.2363 0.0000 ( 23958 PWs)   bands (ev):

   -67.5841 -67.5588 -34.5092 -34.1399 -34.0117 -33.9909 -33.7963 -33.7407
   -19.2498 -19.2418 -19.2336 -19.2287 -19.2232 -19.2178 -19.2147 -19.2061
   -19.2045 -19.1991 -19.1802 -19.1755 -19.1419 -19.1414 -12.0369  -7.0705
    -5.5935  -4.3076  -3.8474  -2.7941  -1.3702  -0.1421   0.7400   1.9403
     2.2372   2.7715   3.9388   5.3071

          k = 0.0819-0.1418 0.0000 ( 23979 PWs)   bands (ev):

   -67.5989 -67.5701 -34.5551 -34.1136 -33.8550 -33.8330 -33.7366 -33.6970
   -19.2544 -19.2434 -19.2294 -19.2273 -19.2239 -19.2216 -19.2097 -19.2049
   -19.2041 -19.2012 -19.1917 -19.1862 -19.1313 -19.1309 -12.4596  -7.7289
    -5.4323  -3.8048  -3.6589  -2.9838  -0.7498  -0.6349   0.8742   1.6471
     1.8092   2.9954   3.5647   4.8245

          k = 0.0819-0.0472 0.0000 ( 23955 PWs)   bands (ev):

   -67.6074 -67.5768 -34.5827 -34.1130 -33.7589 -33.7162 -33.7158 -33.6688
   -19.2574 -19.2444 -19.2272 -19.2256 -19.2254 -19.2238 -19.2063 -19.2044
   -19.2033 -19.2019 -19.1983 -19.1923 -19.1251 -19.1244 -12.7144  -8.1330
    -5.3195  -3.5495  -3.3877  -3.1686  -1.0631  -0.0471   0.5402   1.8780
     2.1866   2.9472   3.2920   4.1748

          k = 0.1638 0.0946 0.0000 ( 23985 PWs)   bands (ev):

   -67.5949 -67.5670 -34.5423 -34.1172 -33.9151 -33.8674 -33.7603 -33.6969
   -19.2530 -19.2428 -19.2312 -19.2257 -19.2256 -19.2197 -19.2113 -19.2056
   -19.2047 -19.2000 -19.1886 -19.1835 -19.1342 -19.1336 -12.3438  -7.5533
    -5.4803  -4.0354  -3.4710  -3.1117  -1.0102  -0.3979   1.1200   1.3205
     2.0939   2.8185   3.6304   4.8932

          k = 0.1639 0.1891 0.0000 ( 23968 PWs)   bands (ev):

   -67.5840 -67.5587 -34.5089 -34.1406 -34.0130 -33.9911 -33.7958 -33.7407
   -19.2494 -19.2419 -19.2337 -19.2287 -19.2235 -19.2173 -19.2146 -19.2066
   -19.2048 -19.1988 -19.1802 -19.1756 -19.1419 -19.1413 -12.0359  -7.0692
    -5.5860  -4.3133  -3.8548  -2.8037  -1.3679  -0.1388   0.7501   1.9360
     2.2371   2.7857   3.9407   5.2995

          k = 0.1639 0.2836 0.0000 ( 23971 PWs)   bands (ev):

   -67.5688 -67.5477 -34.4711 -34.2274 -34.1485 -34.0561 -33.8613 -33.8164
   -19.2439 -19.2417 -19.2362 -19.2322 -19.2228 -19.2177 -19.2158 -19.2078
   -19.2026 -19.1972 -19.1687 -19.1650 -19.1522 -19.1519 -11.6359  -6.4261
    -5.6912  -4.6307  -4.2217  -2.5257  -1.6913   0.0599   0.4332   2.2166
     3.0398   3.2020   4.4833   5.7238

          k = 0.1639 0.3781 0.0000 ( 23970 PWs)   bands (ev):

   -67.5530 -67.5371 -34.4662 -34.3532 -34.2297 -34.0824 -33.9454 -33.8865
   -19.2441 -19.2386 -19.2377 -19.2328 -19.2251 -19.2182 -19.2161 -19.2082
   -19.1993 -19.1961 -19.1631 -19.1620 -19.1566 -19.1540 -11.2685  -6.2109
    -5.4673  -4.8022  -4.3841  -2.6469  -1.6848  -0.1883   1.2087   2.1688
     3.6374   4.2110   4.8792   6.3354

          k = 0.1639 0.4726 0.0000 ( 23958 PWs)   bands (ev):

   -67.5408 -67.5301 -34.5111 -34.4433 -34.2276 -34.1178 -34.0036 -33.9354
   -19.2464 -19.2397 -19.2365 -19.2301 -19.2272 -19.2186 -19.2161 -19.2074
   -19.1983 -19.1947 -19.1708 -19.1683 -19.1479 -19.1464 -11.0250  -6.4528
    -4.9289  -4.8671  -4.4043  -3.0265  -1.4543   0.0239   1.9790   2.3100
     3.8260   4.5338   5.4223   6.3559

          k = 0.1639 0.5672 0.0000 ( 23996 PWs)   bands (ev):

   -67.5359 -67.5279 -34.5382 -34.4724 -34.2098 -34.1447 -34.0198 -33.9537
   -19.2474 -19.2400 -19.2352 -19.2325 -19.2254 -19.2192 -19.2155 -19.2072
   -19.1984 -19.1939 -19.1736 -19.1705 -19.1446 -19.1437 -10.9419  -6.5631
    -4.8981  -4.7272  -4.3090  -3.2771  -1.3147   0.2276   2.2180   2.4616
     4.0575   4.4464   5.5827   6.1191

          k = 0.1638-0.4726 0.0000 ( 23958 PWs)   bands (ev):

   -67.5408 -67.5301 -34.5104 -34.4427 -34.2276 -34.1182 -34.0041 -33.9354
   -19.2463 -19.2397 -19.2362 -19.2303 -19.2274 -19.2186 -19.2163 -19.2074
   -19.1982 -19.1946 -19.1708 -19.1683 -19.1479 -19.1464 -11.0257  -6.4517
    -4.9320  -4.8639  -4.3993  -3.0315  -1.4532   0.0245   1.9830   2.3066
     3.8284   4.5240   5.4236   6.3565

          k = 0.1638-0.3781 0.0000 ( 23970 PWs)   bands (ev):

   -67.5531 -67.5371 -34.4657 -34.3519 -34.2295 -34.0826 -33.9463 -33.8866
   -19.2439 -19.2386 -19.2375 -19.2331 -19.2252 -19.2181 -19.2166 -19.2080
   -19.1991 -19.1961 -19.1632 -19.1620 -19.1566 -19.1540 -11.2695  -6.2098
    -5.4698  -4.7979  -4.3794  -2.6516  -1.6827  -0.1903   1.2142   2.1638
     3.6356   4.2039   4.8746   6.3391

          k = 0.1638-0.2835 0.0000 ( 23965 PWs)   bands (ev):

   -67.5689 -67.5477 -34.4711 -34.2260 -34.1479 -34.0559 -33.8621 -33.8166
   -19.2441 -19.2415 -19.2361 -19.2322 -19.2226 -19.2179 -19.2163 -19.2075
   -19.2023 -19.1974 -19.1686 -19.1649 -19.1522 -19.1519 -11.6369  -6.4268
    -5.6942  -4.6256  -4.2170  -2.5252  -1.6911   0.0521   0.4392   2.2134
     3.0342   3.1999   4.4765   5.7324

          k = 0.1638-0.1890 0.0000 ( 23964 PWs)   bands (ev):

   -67.5840 -67.5588 -34.5091 -34.1401 -34.0120 -33.9908 -33.7964 -33.7409
   -19.2496 -19.2419 -19.2337 -19.2286 -19.2233 -19.2177 -19.2147 -19.2063
   -19.2045 -19.1990 -19.1802 -19.1756 -19.1419 -19.1414 -12.0366  -7.0701
    -5.5902  -4.3095  -3.8500  -2.7986  -1.3699  -0.1392   0.7439   1.9383
     2.2379   2.7763   3.9370   5.3052

          k = 0.1638-0.0945 0.0000 ( 23983 PWs)   bands (ev):

   -67.5949 -67.5670 -34.5424 -34.1170 -33.9144 -33.8672 -33.7606 -33.6969
   -19.2531 -19.2428 -19.2312 -19.2257 -19.2253 -19.2200 -19.2114 -19.2053
   -19.2046 -19.2003 -19.1886 -19.1834 -19.1342 -19.1336 -12.3442  -7.5539
    -5.4835  -4.0350  -3.4685  -3.1053  -1.0102  -0.4028   1.1258   1.3154
     2.0955   2.8056   3.6345   4.8958

          k = 0.1638 0.0000 0.0000 ( 23989 PWs)   bands (ev):

   -67.5988 -67.5701 -34.5549 -34.1139 -33.8568 -33.8334 -33.7354 -33.6970
   -19.2542 -19.2433 -19.2294 -19.2275 -19.2241 -19.2212 -19.2096 -19.2052
   -19.2045 -19.2006 -19.1917 -19.1863 -19.1313 -19.1309 -12.4590  -7.7282
    -5.4276  -3.8041  -3.6629  -2.9949  -0.7529  -0.6245   0.8689   1.6606
     1.7997   3.0018   3.5786   4.8087

          k = 0.2458 0.1418 0.0000 ( 23958 PWs)   bands (ev):

   -67.5775 -67.5540 -34.4924 -34.1957 -34.0687 -34.0417 -33.8185 -33.7377
   -19.2495 -19.2400 -19.2364 -19.2267 -19.2254 -19.2165 -19.2155 -19.2076
   -19.2043 -19.1974 -19.1753 -19.1711 -19.1462 -19.1449 -11.8696  -6.9286
    -5.6054  -4.4764  -3.5748  -3.1354  -1.6540   0.3204   1.1714   1.8875
     2.5273   2.6768   3.7503   5.4892

          k = 0.2458 0.2363 0.0000 ( 23960 PWs)   bands (ev):

   -67.5663 -67.5459 -34.4712 -34.2844 -34.1628 -34.0650 -33.8659 -33.7889
   -19.2476 -19.2387 -19.2376 -19.2303 -19.2246 -19.2178 -19.2149 -19.2081
   -19.2026 -19.1960 -19.1668 -19.1633 -19.1538 -19.1521 -11.5859  -6.6378
    -5.5343  -4.6447  -4.0136  -2.8246  -1.8136   0.5269   0.8209   2.2027
     2.8453   3.4032   4.0781   5.9117

          k = 0.2458 0.3309 0.0000 ( 23960 PWs)   bands (ev):

   -67.5529 -67.5371 -34.4665 -34.3538 -34.2293 -34.0825 -33.9461 -33.8864
   -19.2441 -19.2384 -19.2372 -19.2332 -19.2253 -19.2179 -19.2165 -19.2085
   -19.1994 -19.1959 -19.1632 -19.1618 -19.1566 -19.1540 -11.2677  -6.2048
    -5.4721  -4.8034  -4.3869  -2.6564  -1.6852  -0.1770   1.2137   2.1732
     3.6373   4.2085   4.8820   6.3303

          k = 0.2458 0.4254 0.0000 ( 23947 PWs)   bands (ev):

   -67.5406 -67.5301 -34.4729 -34.3885 -34.2498 -34.1159 -34.0346 -33.9847
   -19.2437 -19.2375 -19.2335 -19.2327 -19.2276 -19.2191 -19.2176 -19.2074
   -19.1978 -19.1973 -19.1712 -19.1703 -19.1481 -19.1464 -11.0036  -5.7689
    -5.6053  -4.7466  -4.5337  -2.8590  -1.2607  -0.5974   1.8997   2.4530
     3.6691   4.5712   5.2449   6.6372

          k = 0.2458 0.5199 0.0000 ( 23956 PWs)   bands (ev):

   -67.5326 -67.5270 -34.4642 -34.3993 -34.2523 -34.1839 -34.0668 -34.0420
   -19.2447 -19.2350 -19.2335 -19.2312 -19.2258 -19.2214 -19.2189 -19.2055
   -19.1995 -19.1975 -19.1763 -19.1750 -19.1429 -19.1422 -10.8562  -5.9406
    -5.1452  -4.7286  -4.6214  -3.1532  -0.9466  -0.4724   2.5588   2.7670
     3.5025   4.1690   5.1620   6.3205

          k = 0.2459 0.6144 0.0000 ( 23950 PWs)   bands (ev):

   -67.5327 -67.5270 -34.4634 -34.3987 -34.2523 -34.1847 -34.0680 -34.0410
   -19.2446 -19.2348 -19.2335 -19.2314 -19.2261 -19.2214 -19.2188 -19.2054
   -19.1996 -19.1974 -19.1763 -19.1750 -19.1430 -19.1422 -10.8567  -5.9394
    -5.1453  -4.7286  -4.6193  -3.1548  -0.9461  -0.4723   2.5617   2.7629
     3.5063   4.1611   5.1624   6.3194

          k = 0.2457-0.4253 0.0000 ( 23941 PWs)   bands (ev):

   -67.5408 -67.5301 -34.4718 -34.3868 -34.2504 -34.1164 -34.0356 -33.9844
   -19.2434 -19.2374 -19.2336 -19.2331 -19.2277 -19.2193 -19.2176 -19.2072
   -19.1978 -19.1971 -19.1712 -19.1704 -19.1481 -19.1464 -11.0048  -5.7670
    -5.6057  -4.7446  -4.5296  -2.8617  -1.2580  -0.6006   1.9032   2.4467
     3.6719   4.5580   5.2447   6.6341

          k = 0.2457-0.3308 0.0000 ( 23962 PWs)   bands (ev):

   -67.5531 -67.5371 -34.4658 -34.3521 -34.2294 -34.0826 -33.9466 -33.8867
   -19.2439 -19.2385 -19.2373 -19.2333 -19.2253 -19.2180 -19.2168 -19.2081
   -19.1992 -19.1960 -19.1632 -19.1619 -19.1566 -19.1540 -11.2691  -6.2068
    -5.4722  -4.7985  -4.3811  -2.6566  -1.6827  -0.1842   1.2169   2.1661
     3.6357   4.2025   4.8762   6.3358

          k = 0.2457-0.2363 0.0000 ( 23956 PWs)   bands (ev):

   -67.5664 -67.5460 -34.4712 -34.2833 -34.1622 -34.0648 -33.8662 -33.7890
   -19.2477 -19.2385 -19.2379 -19.2303 -19.2245 -19.2179 -19.2152 -19.2078
   -19.2023 -19.1961 -19.1668 -19.1633 -19.1538 -19.1522 -11.5870  -6.6401
    -5.5382  -4.6386  -4.0067  -2.8203  -1.8138   0.5162   0.8227   2.1969
     2.8389   3.4038   4.0761   5.9179

          k = 0.2457-0.1417 0.0000 ( 23962 PWs)   bands (ev):

   -67.5776 -67.5540 -34.4926 -34.1952 -34.0677 -34.0419 -33.8186 -33.7377
   -19.2497 -19.2399 -19.2364 -19.2268 -19.2250 -19.2166 -19.2158 -19.2072
   -19.2041 -19.1976 -19.1753 -19.1711 -19.1462 -19.1449 -11.8704  -6.9303
    -5.6102  -4.4720  -3.5701  -3.1282  -1.6547   0.3161   1.1628   1.8899
     2.5157   2.6798   3.7531   5.4924

          k = 0.2457-0.0472 0.0000 ( 23972 PWs)   bands (ev):

   -67.5839 -67.5587 -34.5089 -34.1413 -34.0123 -33.9923 -33.7951 -33.7405
   -19.2495 -19.2418 -19.2338 -19.2287 -19.2234 -19.2173 -19.2147 -19.2066
   -19.2047 -19.1988 -19.1802 -19.1756 -19.1418 -19.1414 -12.0356  -7.0695
    -5.5857  -4.3151  -3.8553  -2.8025  -1.3658  -0.1438   0.7510   1.9370
     2.2351   2.7886   3.9471   5.2955

          k = 0.2458 0.0473 0.0000 ( 23974 PWs)   bands (ev):

   -67.5839 -67.5587 -34.5088 -34.1413 -34.0132 -33.9918 -33.7952 -33.7405
   -19.2493 -19.2419 -19.2338 -19.2287 -19.2235 -19.2172 -19.2146 -19.2067
   -19.2048 -19.1987 -19.1802 -19.1757 -19.1419 -19.1413 -12.0353  -7.0689
    -5.5833  -4.3165  -3.8575  -2.8061  -1.3656  -0.1417   0.7543   1.9354
     2.2359   2.7923   3.9464   5.2938

          k = 0.3277 0.1891 0.0000 ( 23983 PWs)   bands (ev):

   -67.5596 -67.5414 -34.4809 -34.3762 -34.2121 -34.0722 -33.8745 -33.7798
   -19.2501 -19.2407 -19.2352 -19.2287 -19.2285 -19.2167 -19.2146 -19.2084
   -19.2015 -19.1941 -19.1617 -19.1587 -19.1576 -19.1547 -11.4445  -6.8455
    -5.3641  -4.6988  -3.6372  -3.2533  -1.9173   1.1353   1.5045   2.0949
     2.6839   3.7775   3.9096   6.0402

          k = 0.3277 0.2836 0.0000 ( 23979 PWs)   bands (ev):

   -67.5503 -67.5355 -34.5066 -34.4358 -34.2345 -34.0840 -33.9234 -33.8310
   -19.2495 -19.2413 -19.2349 -19.2306 -19.2281 -19.2166 -19.2155 -19.2085
   -19.1992 -19.1933 -19.1637 -19.1604 -19.1547 -19.1524 -11.2402  -6.7852
    -5.1672  -4.7685  -4.0209  -3.0292  -1.8158   0.8488   1.5802   2.0323
     3.6557   3.9487   4.7808   6.2846

          k = 0.3277 0.3781 0.0000 ( 23953 PWs)   bands (ev):

   -67.5405 -67.5301 -34.5122 -34.4449 -34.2257 -34.1182 -34.0050 -33.9351
   -19.2469 -19.2390 -19.2360 -19.2300 -19.2277 -19.2184 -19.2167 -19.2080
   -19.1983 -19.1945 -19.1708 -19.1680 -19.1479 -19.1464 -11.0230  -6.4495
    -4.9354  -4.8692  -4.4067  -3.0385  -1.4550   0.0388   1.9896   2.3200
     3.8278   4.5293   5.4235   6.3661

          k = 0.3277 0.4727 0.0000 ( 23961 PWs)   bands (ev):

   -67.5324 -67.5271 -34.4653 -34.4008 -34.2515 -34.1824 -34.0683 -34.0414
   -19.2451 -19.2347 -19.2327 -19.2312 -19.2263 -19.2212 -19.2191 -19.2058
   -19.1997 -19.1973 -19.1763 -19.1748 -19.1429 -19.1422 -10.8549  -5.9402
    -5.1494  -4.7335  -4.6178  -3.1574  -0.9500  -0.4643   2.5676   2.7719
     3.5014   4.1689   5.1605   6.3225

          k = 0.3278 0.5672 0.0000 ( 23977 PWs)   bands (ev):

   -67.5278 -67.5276 -34.3856 -34.3449 -34.3441 -34.2329 -34.0834 -34.0808
   -19.2444 -19.2327 -19.2326 -19.2260 -19.2256 -19.2241 -19.2231 -19.2024
   -19.2008 -19.2005 -19.1781 -19.1780 -19.1409 -19.1409 -10.7914  -5.4418
    -5.4380  -4.9161  -4.5621  -3.1839  -0.6393  -0.6340   2.9574   2.9589
     3.4954   3.5030   4.8869   6.6780

          k = 0.3278 0.6617 0.0000 ( 23963 PWs)   bands (ev):

   -67.5325 -67.5270 -34.4642 -34.3992 -34.2521 -34.1838 -34.0687 -34.0409
   -19.2448 -19.2346 -19.2331 -19.2314 -19.2264 -19.2214 -19.2189 -19.2056
   -19.1997 -19.1972 -19.1763 -19.1749 -19.1429 -19.1422 -10.8559  -5.9394
    -5.1475  -4.7311  -4.6177  -3.1568  -0.9480  -0.4679   2.5666   2.7653
     3.5056   4.1614   5.1617   6.3198

          k = 0.3276-0.3780 0.0000 ( 23956 PWs)   bands (ev):

   -67.5407 -67.5301 -34.5111 -34.4432 -34.2268 -34.1183 -34.0048 -33.9353
   -19.2465 -19.2394 -19.2360 -19.2303 -19.2276 -19.2186 -19.2166 -19.2077
   -19.1983 -19.1945 -19.1708 -19.1682 -19.1479 -19.1464 -11.0245  -6.4503
    -4.9354  -4.8651  -4.4011  -3.0375  -1.4533   0.0326   1.9885   2.3120
     3.8295   4.5215   5.4242   6.3614

          k = 0.3276-0.2835 0.0000 ( 23977 PWs)   bands (ev):

   -67.5505 -67.5355 -34.5058 -34.4345 -34.2353 -34.0835 -33.9235 -33.8310
   -19.2494 -19.2415 -19.2351 -19.2306 -19.2281 -19.2166 -19.2157 -19.2081
   -19.1991 -19.1933 -19.1637 -19.1605 -19.1547 -19.1524 -11.2417  -6.7874
    -5.1701  -4.7624  -4.0127  -3.0258  -1.8153   0.8389   1.5787   2.0239
     3.6518   3.9481   4.7797   6.2869

          k = 0.3276-0.1890 0.0000 ( 23987 PWs)   bands (ev):

   -67.5597 -67.5415 -34.4806 -34.3753 -34.2123 -34.0717 -33.8744 -33.7797
   -19.2502 -19.2408 -19.2354 -19.2288 -19.2283 -19.2166 -19.2148 -19.2081
   -19.2014 -19.1942 -19.1617 -19.1587 -19.1576 -19.1548 -11.4456  -6.8484
    -5.3677  -4.6931  -3.6313  -3.2456  -1.9177   1.1268   1.4958   2.0851
     2.6854   3.7788   3.9118   6.0429

          k = 0.3276-0.0945 0.0000 ( 23962 PWs)   bands (ev):

   -67.5663 -67.5460 -34.4713 -34.2848 -34.1631 -34.0648 -33.8651 -33.7886
   -19.2477 -19.2385 -19.2379 -19.2305 -19.2243 -19.2178 -19.2148 -19.2080
   -19.2026 -19.1961 -19.1668 -19.1633 -19.1537 -19.1522 -11.5857  -6.6407
    -5.5349  -4.6441  -4.0149  -2.8143  -1.8145   0.5228   0.8088   2.2001
     2.8531   3.4086   4.0775   5.9128

          k = 0.3277 0.0001 0.0000 ( 23981 PWs)   bands (ev):

   -67.5687 -67.5476 -34.4710 -34.2292 -34.1488 -34.0562 -33.8606 -33.8161
   -19.2437 -19.2417 -19.2364 -19.2321 -19.2228 -19.2176 -19.2157 -19.2079
   -19.2028 -19.1972 -19.1687 -19.1650 -19.1522 -19.1519 -11.6347  -6.4256
    -5.6874  -4.6375  -4.2269  -2.5272  -1.6916   0.0698   0.4251   2.2211
     3.0468   3.2057   4.4912   5.7125

          k = 0.3277 0.0946 0.0000 ( 23962 PWs)   bands (ev):

   -67.5662 -67.5459 -34.4713 -34.2852 -34.1632 -34.0650 -33.8653 -33.7887
   -19.2476 -19.2387 -19.2377 -19.2304 -19.2245 -19.2178 -19.2148 -19.2082
   -19.2027 -19.1960 -19.1668 -19.1633 -19.1538 -19.1521 -11.5851  -6.6381
    -5.5325  -4.6479  -4.0178  -2.8217  -1.8141   0.5305   0.8130   2.2047
     2.8532   3.4061   4.0786   5.9088

          k = 0.4096 0.2364 0.0000 ( 23982 PWs)   bands (ev):

   -67.5457 -67.5329 -34.5623 -34.4978 -34.2378 -34.0862 -33.9146 -33.8109
   -19.2523 -19.2428 -19.2359 -19.2304 -19.2288 -19.2161 -19.2143 -19.2085
   -19.1979 -19.1913 -19.1654 -19.1609 -19.1514 -19.1496 -11.1726  -7.0575
    -5.1789  -4.7806  -3.4649  -3.3767  -1.8291   1.5316   1.8281   2.1532
     3.1351   4.3226   5.1296   6.1871

          k = 0.4096 0.3309 0.0000 ( 24011 PWs)   bands (ev):

   -67.5404 -67.5301 -34.5802 -34.5134 -34.2247 -34.1003 -33.9549 -33.8555
   -19.2514 -19.2422 -19.2367 -19.2312 -19.2274 -19.2173 -19.2140 -19.2085
   -19.1972 -19.1914 -19.1691 -19.1645 -19.1476 -19.1463 -11.0628  -6.9702
    -5.0860  -4.7726  -3.7848  -3.2523  -1.6585   1.2043   1.6861   2.2801
     3.9737   4.4365   5.7560   6.2740

          k = 0.4097 0.4254 0.0000 ( 24000 PWs)   bands (ev):

   -67.5354 -67.5280 -34.5402 -34.4749 -34.2062 -34.1458 -34.0212 -33.9534
   -19.2480 -19.2391 -19.2352 -19.2322 -19.2253 -19.2191 -19.2161 -19.2078
   -19.1984 -19.1938 -19.1736 -19.1702 -19.1446 -19.1437 -10.9388  -6.5625
    -4.9000  -4.7365  -4.3139  -3.2843  -1.3164   0.2407   2.2277   2.4789
     4.0525   4.4552   5.5787   6.1261

          k = 0.4097 0.5199 0.0000 ( 23956 PWs)   bands (ev):

   -67.5323 -67.5271 -34.4661 -34.4017 -34.2505 -34.1822 -34.0677 -34.0419
   -19.2452 -19.2350 -19.2326 -19.2310 -19.2260 -19.2211 -19.2193 -19.2058
   -19.1996 -19.1974 -19.1763 -19.1748 -19.1429 -19.1422 -10.8542  -5.9419
    -5.1492  -4.7341  -4.6199  -3.1554  -0.9510  -0.4645   2.5635   2.7779
     3.4963   4.1782   5.1611   6.3240

          k = 0.4097 0.6145 0.0000 ( 23960 PWs)   bands (ev):

   -67.5324 -67.5271 -34.4657 -34.4007 -34.2510 -34.1830 -34.0668 -34.0423
   -19.2450 -19.2351 -19.2330 -19.2310 -19.2258 -19.2212 -19.2192 -19.2057
   -19.1996 -19.1974 -19.1762 -19.1749 -19.1429 -19.1422 -10.8547  -5.9424
    -5.1473  -4.7317  -4.6219  -3.1532  -0.9494  -0.4682   2.5595   2.7755
     3.4968   4.1785   5.1619   6.3226

          k = 0.4097 0.7090 0.0000 ( 23994 PWs)   bands (ev):

   -67.5356 -67.5280 -34.5394 -34.4734 -34.2080 -34.1452 -34.0206 -33.9536
   -19.2476 -19.2396 -19.2352 -19.2324 -19.2253 -19.2192 -19.2158 -19.2075
   -19.1984 -19.1938 -19.1735 -19.1703 -19.1446 -19.1437 -10.9401  -6.5632
    -4.8989  -4.7327  -4.3121  -3.2804  -1.3154   0.2345   2.2228   2.4713
     4.0544   4.4516   5.5807   6.1224

          k = 0.4095-0.3308 0.0000 ( 24011 PWs)   bands (ev):

   -67.5406 -67.5301 -34.5793 -34.5118 -34.2265 -34.0992 -33.9548 -33.8555
   -19.2511 -19.2426 -19.2368 -19.2314 -19.2274 -19.2174 -19.2138 -19.2081
   -19.1973 -19.1914 -19.1691 -19.1647 -19.1476 -19.1463 -11.0644  -6.9716
    -5.0870  -4.7675  -3.7772  -3.2490  -1.6584   1.1953   1.6807   2.2717
     3.9716   4.4368   5.7527   6.2748

          k = 0.4095-0.2362 0.0000 ( 23994 PWs)   bands (ev):

   -67.5459 -67.5329 -34.5616 -34.4965 -34.2393 -34.0852 -33.9144 -33.8107
   -19.2522 -19.2430 -19.2362 -19.2305 -19.2287 -19.2162 -19.2140 -19.2081
   -19.1979 -19.1913 -19.1654 -19.1610 -19.1514 -19.1495 -11.1741  -7.0598
    -5.1811  -4.7752  -3.4594  -3.3685  -1.8301   1.5261   1.8116   2.1457
     3.1387   4.3211   5.1291   6.1902

          k = 0.4096-0.1417 0.0000 ( 23977 PWs)   bands (ev):

   -67.5504 -67.5355 -34.5067 -34.4354 -34.2353 -34.0835 -33.9227 -33.8308
   -19.2494 -19.2415 -19.2355 -19.2305 -19.2277 -19.2168 -19.2151 -19.2082
   -19.1993 -19.1934 -19.1637 -19.1605 -19.1547 -19.1524 -11.2406  -6.7888
    -5.1680  -4.7655  -4.0230  -3.0143  -1.8179   0.8372   1.5699   2.0294
     3.6613   3.9489   4.7830   6.2915

          k = 0.4096-0.0472 0.0000 ( 23968 PWs)   bands (ev):

   -67.5529 -67.5370 -34.4671 -34.3550 -34.2293 -34.0826 -33.9450 -33.8862
   -19.2441 -19.2387 -19.2376 -19.2327 -19.2251 -19.2181 -19.2160 -19.2084
   -19.1995 -19.1960 -19.1631 -19.1619 -19.1566 -19.1540 -11.2667  -6.2093
    -5.4671  -4.8080  -4.3910  -2.6468  -1.6882  -0.1797   1.2038   2.1788
     3.6392   4.2186   4.8867   6.3280

          k = 0.4096 0.0473 0.0000 ( 23960 PWs)   bands (ev):

   -67.5528 -67.5370 -34.4672 -34.3554 -34.2290 -34.0827 -33.9453 -33.8861
   -19.2442 -19.2385 -19.2373 -19.2330 -19.2251 -19.2180 -19.2162 -19.2086
   -19.1995 -19.1960 -19.1631 -19.1618 -19.1566 -19.1540 -11.2663  -6.2062
    -5.4695  -4.8086  -4.3921  -2.6513  -1.6885  -0.1745   1.2061   2.1808
     3.6392   4.2176   4.8878   6.3259

          k = 0.4096 0.1419 0.0000 ( 23977 PWs)   bands (ev):

   -67.5502 -67.5355 -34.5071 -34.4364 -34.2343 -34.0841 -33.9230 -33.8309
   -19.2495 -19.2413 -19.2352 -19.2305 -19.2279 -19.2167 -19.2153 -19.2085
   -19.1993 -19.1933 -19.1637 -19.1604 -19.1547 -19.1524 -11.2396  -6.7860
    -5.1661  -4.7703  -4.0262  -3.0234  -1.8173   0.8478   1.5752   2.0357
     3.6608   3.9490   4.7829   6.2874

          k =-0.4915-0.2837 0.0000 ( 24004 PWs)   bands (ev):

   -67.5403 -67.5301 -34.6095 -34.5408 -34.2266 -34.0945 -33.9291 -33.8224
   -19.2533 -19.2432 -19.2378 -19.2312 -19.2279 -19.2170 -19.2127 -19.2087
   -19.1964 -19.1902 -19.1682 -19.1629 -19.1475 -19.1463 -11.0827  -7.1558
    -5.1729  -4.8064  -3.4270  -3.2915  -1.7660   1.4255   2.0947   2.3327
     3.1923   4.7988   5.7714   6.3346

          k =-0.4915-0.1891 0.0000 ( 24008 PWs)   bands (ev):

   -67.5404 -67.5301 -34.5804 -34.5136 -34.2245 -34.1003 -33.9548 -33.8555
   -19.2514 -19.2422 -19.2368 -19.2311 -19.2273 -19.2173 -19.2140 -19.2085
   -19.1973 -19.1915 -19.1691 -19.1645 -19.1476 -19.1463 -11.0626  -6.9705
    -5.0862  -4.7728  -3.7886  -3.2479  -1.6593   1.2035   1.6863   2.2794
     3.9748   4.4355   5.7565   6.2749

          k =-0.4915-0.0946 0.0000 ( 23948 PWs)   bands (ev):

   -67.5404 -67.5301 -34.5130 -34.4458 -34.2252 -34.1183 -34.0045 -33.9350
   -19.2469 -19.2390 -19.2363 -19.2297 -19.2275 -19.2184 -19.2166 -19.2080
   -19.1984 -19.1946 -19.1708 -19.1680 -19.1479 -19.1464 -11.0220  -6.4510
    -4.9322  -4.8728  -4.4122  -3.0332  -1.4568   0.0378   1.9842   2.3251
     3.8243   4.5405   5.4233   6.3665

          k =-0.4915-0.0001 0.0000 ( 23937 PWs)   bands (ev):

   -67.5405 -67.5301 -34.4743 -34.3906 -34.2482 -34.1158 -34.0340 -33.9846
   -19.2440 -19.2377 -19.2331 -19.2326 -19.2275 -19.2189 -19.2177 -19.2076
   -19.1977 -19.1975 -19.1712 -19.1703 -19.1481 -19.1464 -11.0019  -5.7722
    -5.6048  -4.7488  -4.5389  -2.8556  -1.2650  -0.5935   1.8946   2.4622
     3.6652   4.5868   5.2469   6.6421

          k =-0.4915 0.0944 0.0000 ( 23948 PWs)   bands (ev):

   -67.5405 -67.5301 -34.5126 -34.4447 -34.2262 -34.1180 -34.0039 -33.9352
   -19.2466 -19.2394 -19.2366 -19.2298 -19.2273 -19.2186 -19.2163 -19.2078
   -19.1984 -19.1946 -19.1707 -19.1682 -19.1479 -19.1464 -11.0229  -6.4529
    -4.9291  -4.8718  -4.4114  -3.0272  -1.4563   0.0310   1.9791   2.3205
     3.8237   4.5426   5.4227   6.3610

          k =-0.4915 0.1890 0.0000 ( 23998 PWs)   bands (ev):

   -67.5406 -67.5301 -34.5797 -34.5122 -34.2263 -34.0992 -33.9545 -33.8554
   -19.2511 -19.2425 -19.2371 -19.2312 -19.2273 -19.2174 -19.2136 -19.2081
   -19.1973 -19.1915 -19.1691 -19.1647 -19.1476 -19.1463 -11.0640  -6.9723
    -5.0872  -4.7678  -3.7848  -3.2403  -1.6599   1.1940   1.6810   2.2705
     3.9738   4.4351   5.7535   6.2749

          k =-0.4916-0.8508 0.0000 ( 24004 PWs)   bands (ev):

   -67.5406 -67.5301 -34.6087 -34.5392 -34.2286 -34.0931 -33.9289 -33.8221
   -19.2531 -19.2434 -19.2380 -19.2313 -19.2278 -19.2171 -19.2124 -19.2083
   -19.1965 -19.1902 -19.1682 -19.1631 -19.1475 -19.1463 -11.0843  -7.1576
    -5.1743  -4.8011  -3.4190  -3.2859  -1.7674   1.4198   2.0788   2.3235
     3.1962   4.7978   5.7674   6.3374

     the Fermi energy is     0.8287 ev

!    total energy              =   -1375.69983967 Ry
     estimated scf accuracy    <          4.3E-13 Ry
     smearing contrib. (-TS)   =      -0.00000370 Ry
     internal energy E=F+TS    =   -1375.69983596 Ry

     The total energy is F=E-TS. E is the sum of the following terms:
     one-electron contribution =  -11616.52382148 Ry
     hartree contribution      =    5838.40505607 Ry
     xc contribution           =    -140.31258127 Ry
     ewald contribution        =    4542.73151073 Ry

     convergence has been achieved in  19 iterations

     negative rho (up, down):  3.516E-04 0.000E+00

     Forces acting on atoms (cartesian axes, Ry/au):

     atom    1 type  2   force =    -0.00045458    0.00025791   -0.00000105
     atom    2 type  1   force =     0.00003937    0.00027356   -0.00021052
     atom    3 type  1   force =     0.00009873   -0.00034942    0.00021011
     atom    4 type  3   force =     0.00026890   -0.00055490   -0.00006206
     atom    5 type  3   force =     0.00004758    0.00037285    0.00006351

     Total force =     0.001048     Total SCF correction =     0.000006


     Computing stress (Cartesian axis) and pressure


     negative rho (up, down):  3.516E-04 0.000E+00
          total   stress  (Ry/bohr**3)                   (kbar)     P=       -0.32
  -0.00000291   0.00000012   0.00000076           -0.43        0.02        0.11
   0.00000012  -0.00000014  -0.00000378            0.02       -0.02       -0.56
   0.00000076  -0.00000378  -0.00000342            0.11       -0.56       -0.50


     Writing output data file /scratch/as3359/Ta2CH2-VCrelax/Ta.save/
 
     init_run     :     22.45s CPU     12.35s WALL (       1 calls)
     electrons    :    903.57s CPU    461.90s WALL (       1 calls)
     forces       :      7.46s CPU      3.85s WALL (       1 calls)
     stress       :     28.38s CPU     14.59s WALL (       1 calls)

     Called by init_run:
     wfcinit      :     17.01s CPU      8.72s WALL (       1 calls)
     potinit      :      1.42s CPU      0.72s WALL (       1 calls)
     hinit0       :      3.11s CPU      2.30s WALL (       1 calls)

     Called by electrons:
     c_bands      :    748.70s CPU    379.11s WALL (      19 calls)
     sum_band     :    136.15s CPU     71.27s WALL (      19 calls)
     v_of_rho     :      2.84s CPU      1.56s WALL (      20 calls)
     newd         :     15.54s CPU      9.79s WALL (      20 calls)
     mix_rho      :      1.08s CPU      0.58s WALL (      19 calls)

     Called by c_bands:
     init_us_2    :     19.78s CPU      9.90s WALL (    3034 calls)
     cegterg      :    684.52s CPU    346.77s WALL (    1406 calls)

     Called by *egterg:
     cdiaghg      :     16.62s CPU      8.52s WALL (    7368 calls)
     h_psi        :    530.23s CPU    269.20s WALL (    7442 calls)
     s_psi        :     28.01s CPU     14.03s WALL (    7442 calls)
     g_psi        :      3.51s CPU      1.76s WALL (    5962 calls)

     Called by h_psi:
     h_psi:calbec :     25.76s CPU     12.93s WALL (    7442 calls)
     vloc_psi     :    467.26s CPU    237.58s WALL (    7442 calls)
     add_vuspsi   :     32.25s CPU     16.16s WALL (    7442 calls)

     General routines
     calbec       :     36.09s CPU     18.13s WALL (    9218 calls)
     fft          :      1.60s CPU      0.82s WALL (     245 calls)
     ffts         :      0.09s CPU      0.05s WALL (      19 calls)
     fftw         :    471.58s CPU    239.99s WALL (  303808 calls)
 
     Parallel routines
 
     PWSCF        :  16m 5.51s CPU   8m16.07s WALL

 
   This run was terminated on:  14:56:19   7Apr2022            

=------------------------------------------------------------------------------=
   JOB DONE.
=------------------------------------------------------------------------------=
