
     Program PWSCF v.6.8 starts on  7Apr2022 at 14:20:12 

     This program is part of the open-source Quantum ESPRESSO suite
     for quantum simulation of materials; please cite
         "P. Giannozzi et al., J. Phys.:Condens. Matter 21 395502 (2009);
         "P. Giannozzi et al., J. Phys.:Condens. Matter 29 465901 (2017);
         "P. Giannozzi et al., J. Chem. Phys. 152 154105 (2020);
          URL http://www.quantum-espresso.org", 
     in publications or presentations arising from this work. More details at
     http://www.quantum-espresso.org/quote

     Parallel version (MPI & OpenMP), running on       4 processor cores
     Number of MPI processes:                 2
     Threads/MPI process:                     2

     MPI processes distributed on     1 nodes
     R & G space division:  proc/nbgrp/npool/nimage =       2
     124573 MiB available memory on the printing compute node when the environment starts
 
     Reading input from Ta2CH2.scf.75.in

     Current dimensions of program PWSCF are:
     Max number of different atomic species (ntypx) = 10
     Max number of k-points (npk) =  40000
     Max angular momentum in pseudopotentials (lmaxx) =  4
     file Ta.pbesol-spfn-rrkjus_psl.1.0.0.UPF: wavefunction(s)  5S 5P renormalized

     Subspace diagonalization in iterative solution of the eigenvalue problem:
     a serial algorithm will be used

 
     Parallelization info
     --------------------
     sticks:   dense  smooth     PW     G-vecs:    dense   smooth      PW
     Min         330     330    105                67315    67315   12086
     Max         331     331    106                67318    67318   12089
     Sum         661     661    211               134633   134633   24175
 
     Using Slab Decomposition
 


     bravais-lattice index     =            0
     lattice parameter (alat)  =       5.5500  a.u.
     unit-cell volume          =    1533.2393 (a.u.)^3
     number of atoms/cell      =            5
     number of atomic types    =            3
     number of electrons       =        60.00
     number of Kohn-Sham states=           36
     kinetic-energy cutoff     =      75.0000  Ry
     charge density cutoff     =     300.0000  Ry
     scf convergence threshold =      1.0E-12
     mixing beta               =       0.7000
     number of iterations used =            8  plain     mixing
     Exchange-correlation= PBESOL
                           (   1   4  10   8   0   0   0)

     celldm(1)=   5.550000  celldm(2)=   0.000000  celldm(3)=   0.000000
     celldm(4)=   0.000000  celldm(5)=   0.000000  celldm(6)=   0.000000

     crystal axes: (cart. coord. in units of alat)
               a(1) = (   1.017295  -0.000177   0.000000 )  
               a(2) = (  -0.508801   0.881714   0.000000 )  
               a(3) = (   0.000000   0.000000  10.000000 )  

     reciprocal axes: (cart. coord. in units 2 pi/alat)
               b(1) = (  0.983098  0.567305  0.000000 )  
               b(2) = (  0.000198  1.134269  0.000000 )  
               b(3) = (  0.000000  0.000000  0.100000 )  


     PseudoPot. # 1 for Ta read from file:
     /shared/home/as3359/pseudo/Ta.pbesol-spfn-rrkjus_psl.1.0.0.UPF
     MD5 check sum: f099565ffaca9b150a52e9412a28e20b
     Pseudo is Ultrasoft + core correction, Zval = 27.0
     Generated using &quot;atomic&quot; code by A. Dal Corso  v.6.3
     Using radial grid of 1273 points,  8 beta functions with: 
                l(1) =   0
                l(2) =   0
                l(3) =   1
                l(4) =   1
                l(5) =   2
                l(6) =   2
                l(7) =   3
                l(8) =   3
     Q(r) pseudized with 0 coefficients 


     PseudoPot. # 2 for C  read from file:
     /shared/home/as3359/pseudo/C.pbesol-n-rrkjus_psl.1.0.0.UPF
     MD5 check sum: 05995be603a8a7c99da3dc4413f31573
     Pseudo is Ultrasoft + core correction, Zval =  4.0
     Generated using &quot;atomic&quot; code by A. Dal Corso  v.6.3MaX
     Using radial grid of 1073 points,  4 beta functions with: 
                l(1) =   0
                l(2) =   0
                l(3) =   1
                l(4) =   1
     Q(r) pseudized with 0 coefficients 


     PseudoPot. # 3 for H  read from file:
     /shared/home/as3359/pseudo/H.pbesol-rrkjus_psl.0.1.UPF
     MD5 check sum: 1dbb1a5c48b1283557b8117eb856a7ca
     Pseudo is Ultrasoft, Zval =  1.0
     Generated using "atomic" code by A. Dal Corso  v.5.0.2 svn rev. 9415
     Using radial grid of  929 points,  2 beta functions with: 
                l(1) =   0
                l(2) =   0
     Q(r) pseudized with 0 coefficients 


     atomic species   valence    mass     pseudopotential
        Ta            27.00   180.94788     Ta( 1.00)
        C              4.00    12.01070     C ( 1.00)
        H              1.00     1.00000     H ( 1.00)

     No symmetry found



   Cartesian axes

     site n.     atom                  positions (alat units)
         1           C   tau(   1) = (   0.0000000   0.0000000   0.0000000  )
         2           Ta  tau(   2) = (   0.5088008   0.2948413  -0.4364511  )
         3           Ta  tau(   3) = (  -0.0007447   0.5869407   0.4364532  )
         4           H   tau(   4) = (  -0.0017928  -0.0015314   0.8341930  )
         5           H   tau(   5) = (   0.0002769   0.0024412  -0.8341930  )

     number of k points=    74  Marzari-Vanderbilt smearing, width (Ry)=  0.0010
                       cart. coord. in units 2pi/alat
        k(    1) = (   0.0000000   0.0000000   0.0000000), wk =   0.0138889
        k(    2) = (   0.0000165   0.0945224   0.0000000), wk =   0.0277778
        k(    3) = (   0.0000329   0.1890448   0.0000000), wk =   0.0277778
        k(    4) = (   0.0000494   0.2835672   0.0000000), wk =   0.0277778
        k(    5) = (   0.0000659   0.3780896   0.0000000), wk =   0.0277778
        k(    6) = (   0.0000823   0.4726120   0.0000000), wk =   0.0277778
        k(    7) = (  -0.0000988  -0.5671343   0.0000000), wk =   0.0138889
        k(    8) = (   0.0819248   0.0472755   0.0000000), wk =   0.0277778
        k(    9) = (   0.0819413   0.1417978   0.0000000), wk =   0.0277778
        k(   10) = (   0.0819577   0.2363202   0.0000000), wk =   0.0277778
        k(   11) = (   0.0819742   0.3308426   0.0000000), wk =   0.0277778
        k(   12) = (   0.0819907   0.4253650   0.0000000), wk =   0.0277778
        k(   13) = (   0.0820071   0.5198874   0.0000000), wk =   0.0277778
        k(   14) = (   0.0818260  -0.5198589   0.0000000), wk =   0.0277778
        k(   15) = (   0.0818425  -0.4253365   0.0000000), wk =   0.0277778
        k(   16) = (   0.0818590  -0.3308141   0.0000000), wk =   0.0277778
        k(   17) = (   0.0818754  -0.2362917   0.0000000), wk =   0.0277778
        k(   18) = (   0.0818919  -0.1417693   0.0000000), wk =   0.0277778
        k(   19) = (   0.0819084  -0.0472469   0.0000000), wk =   0.0277778
        k(   20) = (   0.1638496   0.0945509   0.0000000), wk =   0.0277778
        k(   21) = (   0.1638661   0.1890733   0.0000000), wk =   0.0277778
        k(   22) = (   0.1638826   0.2835957   0.0000000), wk =   0.0277778
        k(   23) = (   0.1638990   0.3781181   0.0000000), wk =   0.0277778
        k(   24) = (   0.1639155   0.4726405   0.0000000), wk =   0.0277778
        k(   25) = (   0.1639319   0.5671629   0.0000000), wk =   0.0277778
        k(   26) = (   0.1637508  -0.4725834   0.0000000), wk =   0.0277778
        k(   27) = (   0.1637673  -0.3780610   0.0000000), wk =   0.0277778
        k(   28) = (   0.1637838  -0.2835386   0.0000000), wk =   0.0277778
        k(   29) = (   0.1638002  -0.1890163   0.0000000), wk =   0.0277778
        k(   30) = (   0.1638167  -0.0944939   0.0000000), wk =   0.0277778
        k(   31) = (   0.1638332   0.0000285   0.0000000), wk =   0.0277778
        k(   32) = (   0.2457744   0.1418264   0.0000000), wk =   0.0277778
        k(   33) = (   0.2457909   0.2363488   0.0000000), wk =   0.0277778
        k(   34) = (   0.2458074   0.3308711   0.0000000), wk =   0.0277778
        k(   35) = (   0.2458238   0.4253935   0.0000000), wk =   0.0277778
        k(   36) = (   0.2458403   0.5199159   0.0000000), wk =   0.0277778
        k(   37) = (   0.2458568   0.6144383   0.0000000), wk =   0.0277778
        k(   38) = (   0.2456757  -0.4253080   0.0000000), wk =   0.0277778
        k(   39) = (   0.2456921  -0.3307856   0.0000000), wk =   0.0277778
        k(   40) = (   0.2457086  -0.2362632   0.0000000), wk =   0.0277778
        k(   41) = (   0.2457251  -0.1417408   0.0000000), wk =   0.0277778
        k(   42) = (   0.2457415  -0.0472184   0.0000000), wk =   0.0277778
        k(   43) = (   0.2457580   0.0473040   0.0000000), wk =   0.0277778
        k(   44) = (   0.3276993   0.1891018   0.0000000), wk =   0.0277778
        k(   45) = (   0.3277157   0.2836242   0.0000000), wk =   0.0277778
        k(   46) = (   0.3277322   0.3781466   0.0000000), wk =   0.0277778
        k(   47) = (   0.3277486   0.4726690   0.0000000), wk =   0.0277778
        k(   48) = (   0.3277651   0.5671914   0.0000000), wk =   0.0277778
        k(   49) = (   0.3277816   0.6617138   0.0000000), wk =   0.0277778
        k(   50) = (   0.3276005  -0.3780325   0.0000000), wk =   0.0277778
        k(   51) = (   0.3276169  -0.2835101   0.0000000), wk =   0.0277778
        k(   52) = (   0.3276334  -0.1889877   0.0000000), wk =   0.0277778
        k(   53) = (   0.3276499  -0.0944653   0.0000000), wk =   0.0277778
        k(   54) = (   0.3276663   0.0000570   0.0000000), wk =   0.0277778
        k(   55) = (   0.3276828   0.0945794   0.0000000), wk =   0.0277778
        k(   56) = (   0.4096241   0.2363773   0.0000000), wk =   0.0277778
        k(   57) = (   0.4096405   0.3308997   0.0000000), wk =   0.0277778
        k(   58) = (   0.4096570   0.4254221   0.0000000), wk =   0.0277778
        k(   59) = (   0.4096735   0.5199445   0.0000000), wk =   0.0277778
        k(   60) = (   0.4096899   0.6144668   0.0000000), wk =   0.0277778
        k(   61) = (   0.4097064   0.7089892   0.0000000), wk =   0.0277778
        k(   62) = (   0.4095253  -0.3307571   0.0000000), wk =   0.0277778
        k(   63) = (   0.4095418  -0.2362347   0.0000000), wk =   0.0277778
        k(   64) = (   0.4095582  -0.1417123   0.0000000), wk =   0.0277778
        k(   65) = (   0.4095747  -0.0471899   0.0000000), wk =   0.0277778
        k(   66) = (   0.4095911   0.0473325   0.0000000), wk =   0.0277778
        k(   67) = (   0.4096076   0.1418549   0.0000000), wk =   0.0277778
        k(   68) = (  -0.4915489  -0.2836527   0.0000000), wk =   0.0138889
        k(   69) = (  -0.4915324  -0.1891303   0.0000000), wk =   0.0277778
        k(   70) = (  -0.4915160  -0.0946080   0.0000000), wk =   0.0277778
        k(   71) = (  -0.4914995  -0.0000856   0.0000000), wk =   0.0277778
        k(   72) = (  -0.4914830   0.0944368   0.0000000), wk =   0.0277778
        k(   73) = (  -0.4914666   0.1889592   0.0000000), wk =   0.0277778
        k(   74) = (  -0.4916477  -0.8507871   0.0000000), wk =   0.0138889

     Dense  grid:   134633 G-vectors     FFT dimensions: (  32,  32, 320)

     Estimated max dynamical RAM per process >    1007.34 MB

     Estimated total dynamical RAM >       1.97 GB

     Check: negative core charge=   -0.000001

     Initial potential from superposition of free atoms

     starting charge   59.99840, renormalised to   60.00000

     negative rho (up, down):  8.116E-04 0.000E+00
     Starting wfcs are   40 randomized atomic wfcs

     total cpu time spent up to now is        9.0 secs

     Self-consistent Calculation

     iteration #  1     ecut=    75.00 Ry     beta= 0.70
     Davidson diagonalization with overlap
     ethr =  1.00E-02,  avg # of iterations =  2.0

     negative rho (up, down):  7.684E-04 0.000E+00

     total cpu time spent up to now is       24.6 secs

     total energy              =   -1375.11828936 Ry
     estimated scf accuracy    <       1.05018175 Ry

     iteration #  2     ecut=    75.00 Ry     beta= 0.70
     Davidson diagonalization with overlap
     ethr =  1.75E-03,  avg # of iterations =  7.7

     negative rho (up, down):  5.297E-04 0.000E+00

     total cpu time spent up to now is       46.7 secs

     total energy              =   -1374.70290946 Ry
     estimated scf accuracy    <       5.47254375 Ry

     iteration #  3     ecut=    75.00 Ry     beta= 0.70
     Davidson diagonalization with overlap
     ethr =  1.75E-03,  avg # of iterations =  4.8

     negative rho (up, down):  5.765E-04 0.000E+00

     total cpu time spent up to now is       66.2 secs

     total energy              =   -1375.66441214 Ry
     estimated scf accuracy    <       0.23156557 Ry

     iteration #  4     ecut=    75.00 Ry     beta= 0.70
     Davidson diagonalization with overlap
     ethr =  3.86E-04,  avg # of iterations =  2.4

     negative rho (up, down):  6.652E-04 0.000E+00

     total cpu time spent up to now is       82.1 secs

     total energy              =   -1375.69353009 Ry
     estimated scf accuracy    <       0.02353043 Ry

     iteration #  5     ecut=    75.00 Ry     beta= 0.70
     Davidson diagonalization with overlap
     c_bands:  1 eigenvalues not converged
     ethr =  3.92E-05,  avg # of iterations = 12.0

     negative rho (up, down):  6.896E-04 0.000E+00

     total cpu time spent up to now is      105.8 secs

     total energy              =   -1375.68637219 Ry
     estimated scf accuracy    <       0.14763947 Ry

     iteration #  6     ecut=    75.00 Ry     beta= 0.70
     Davidson diagonalization with overlap
     c_bands:  1 eigenvalues not converged
     c_bands:  1 eigenvalues not converged
     ethr =  3.92E-05,  avg # of iterations = 12.3

     negative rho (up, down):  7.674E-04 0.000E+00

     total cpu time spent up to now is      126.4 secs

     total energy              =   -1375.69634785 Ry
     estimated scf accuracy    <       0.01507059 Ry

     iteration #  7     ecut=    75.00 Ry     beta= 0.70
     Davidson diagonalization with overlap
     ethr =  2.51E-05,  avg # of iterations =  3.1

     negative rho (up, down):  8.276E-04 0.000E+00

     total cpu time spent up to now is      141.2 secs

     total energy              =   -1375.69750645 Ry
     estimated scf accuracy    <       0.00024728 Ry

     iteration #  8     ecut=    75.00 Ry     beta= 0.70
     Davidson diagonalization with overlap
     ethr =  4.12E-07,  avg # of iterations = 10.7

     negative rho (up, down):  8.652E-04 0.000E+00

     total cpu time spent up to now is      164.0 secs

     total energy              =   -1375.69757513 Ry
     estimated scf accuracy    <       0.00002169 Ry

     iteration #  9     ecut=    75.00 Ry     beta= 0.70
     Davidson diagonalization with overlap
     ethr =  3.62E-08,  avg # of iterations =  2.4

     negative rho (up, down):  8.697E-04 0.000E+00

     total cpu time spent up to now is      179.6 secs

     total energy              =   -1375.69757874 Ry
     estimated scf accuracy    <       0.00000668 Ry

     iteration # 10     ecut=    75.00 Ry     beta= 0.70
     Davidson diagonalization with overlap
     ethr =  1.11E-08,  avg # of iterations =  2.0

     negative rho (up, down):  8.704E-04 0.000E+00

     total cpu time spent up to now is      194.8 secs

     total energy              =   -1375.69757928 Ry
     estimated scf accuracy    <       0.00000115 Ry

     iteration # 11     ecut=    75.00 Ry     beta= 0.70
     Davidson diagonalization with overlap
     ethr =  1.91E-09,  avg # of iterations =  2.4

     negative rho (up, down):  8.703E-04 0.000E+00

     total cpu time spent up to now is      211.9 secs

     total energy              =   -1375.69757945 Ry
     estimated scf accuracy    <       0.00000011 Ry

     iteration # 12     ecut=    75.00 Ry     beta= 0.70
     Davidson diagonalization with overlap
     ethr =  1.76E-10,  avg # of iterations =  3.1

     negative rho (up, down):  8.702E-04 0.000E+00

     total cpu time spent up to now is      229.6 secs

     total energy              =   -1375.69757947 Ry
     estimated scf accuracy    <       0.00000003 Ry

     iteration # 13     ecut=    75.00 Ry     beta= 0.70
     Davidson diagonalization with overlap
     ethr =  5.45E-11,  avg # of iterations =  2.0

     negative rho (up, down):  8.702E-04 0.000E+00

     total cpu time spent up to now is      244.8 secs

     total energy              =   -1375.69757947 Ry
     estimated scf accuracy    <          5.7E-09 Ry

     iteration # 14     ecut=    75.00 Ry     beta= 0.70
     Davidson diagonalization with overlap
     ethr =  9.42E-12,  avg # of iterations =  3.0

     negative rho (up, down):  8.703E-04 0.000E+00

     total cpu time spent up to now is      260.7 secs

     total energy              =   -1375.69757947 Ry
     estimated scf accuracy    <          3.9E-10 Ry

     iteration # 15     ecut=    75.00 Ry     beta= 0.70
     Davidson diagonalization with overlap
     ethr =  6.56E-13,  avg # of iterations =  2.2

     negative rho (up, down):  8.703E-04 0.000E+00

     total cpu time spent up to now is      277.6 secs

     total energy              =   -1375.69757947 Ry
     estimated scf accuracy    <          1.6E-10 Ry

     iteration # 16     ecut=    75.00 Ry     beta= 0.70
     Davidson diagonalization with overlap
     ethr =  2.65E-13,  avg # of iterations =  2.0

     negative rho (up, down):  8.703E-04 0.000E+00

     total cpu time spent up to now is      292.3 secs

     total energy              =   -1375.69757947 Ry
     estimated scf accuracy    <          8.4E-11 Ry

     iteration # 17     ecut=    75.00 Ry     beta= 0.70
     Davidson diagonalization with overlap
     ethr =  1.40E-13,  avg # of iterations =  1.6

     negative rho (up, down):  8.703E-04 0.000E+00

     total cpu time spent up to now is      306.4 secs

     total energy              =   -1375.69757947 Ry
     estimated scf accuracy    <          6.2E-12 Ry

     iteration # 18     ecut=    75.00 Ry     beta= 0.70
     Davidson diagonalization with overlap
     ethr =  1.00E-13,  avg # of iterations =  1.5

     negative rho (up, down):  8.703E-04 0.000E+00

     total cpu time spent up to now is      320.3 secs

     total energy              =   -1375.69757947 Ry
     estimated scf accuracy    <          1.5E-12 Ry

     iteration # 19     ecut=    75.00 Ry     beta= 0.70
     Davidson diagonalization with overlap
     ethr =  1.00E-13,  avg # of iterations =  1.0

     negative rho (up, down):  8.703E-04 0.000E+00

     total cpu time spent up to now is      333.8 secs

     End of self-consistent calculation

          k = 0.0000 0.0000 0.0000 ( 16859 PWs)   bands (ev):

   -67.6122 -67.5807 -34.5968 -34.1133 -33.6986 -33.6972 -33.6585 -33.6582
   -19.2602 -19.2462 -19.2270 -19.2265 -19.2261 -19.2260 -19.2051 -19.2050
   -19.2039 -19.2032 -19.2026 -19.1964 -19.1226 -19.1218 -12.8538  -8.3517
    -5.2556  -3.4733  -3.2169  -3.2021  -1.2338   0.3190   0.3389   2.4910
     2.5028   2.9048   2.9377   3.4854

          k = 0.0000 0.0945 0.0000 ( 16857 PWs)   bands (ev):

   -67.6077 -67.5771 -34.5819 -34.1122 -33.7575 -33.7157 -33.7152 -33.6678
   -19.2585 -19.2455 -19.2279 -19.2265 -19.2263 -19.2249 -19.2072 -19.2052
   -19.2040 -19.2032 -19.1991 -19.1931 -19.1260 -19.1254 -12.7144  -8.1331
    -5.3206  -3.5515  -3.3894  -3.1610  -1.0621  -0.0558   0.5492   1.8783
     2.1871   2.9291   3.3016   4.1822

          k = 0.0000 0.1890 0.0000 ( 16803 PWs)   bands (ev):

   -67.5952 -67.5674 -34.5417 -34.1160 -33.9131 -33.8661 -33.7601 -33.6959
   -19.2544 -19.2439 -19.2319 -19.2266 -19.2260 -19.2211 -19.2123 -19.2060
   -19.2054 -19.2016 -19.1894 -19.1842 -19.1351 -19.1346 -12.3445  -7.5543
    -5.4879  -4.0340  -3.4657  -3.0967  -1.0096  -0.4092   1.1329   1.3092
     2.0975   2.7892   3.6414   4.8963

          k = 0.0000 0.2836 0.0000 ( 16781 PWs)   bands (ev):

   -67.5780 -67.5544 -34.4920 -34.1937 -34.0663 -34.0411 -33.8177 -33.7367
   -19.2511 -19.2410 -19.2370 -19.2277 -19.2256 -19.2175 -19.2169 -19.2079
   -19.2049 -19.1988 -19.1761 -19.1719 -19.1471 -19.1459 -11.8710  -6.9313
    -5.6170  -4.4661  -3.5650  -3.1185  -1.6558   0.3108   1.1528   1.8926
     2.5010   2.6838   3.7580   5.4951

          k = 0.0001 0.3781 0.0000 ( 16811 PWs)   bands (ev):

   -67.5602 -67.5418 -34.4794 -34.3738 -34.2116 -34.0705 -33.8733 -33.7785
   -19.2515 -19.2415 -19.2366 -19.2296 -19.2289 -19.2174 -19.2157 -19.2087
   -19.2024 -19.1953 -19.1625 -19.1594 -19.1585 -19.1558 -11.4468  -6.8508
    -5.3726  -4.6856  -3.6252  -3.2351  -1.9190   1.1158   1.4869   2.0730
     2.6875   3.7805   3.9152   6.0478

          k = 0.0001 0.4726 0.0000 ( 16834 PWs)   bands (ev):

   -67.5465 -67.5332 -34.5597 -34.4948 -34.2400 -34.0833 -33.9132 -33.8095
   -19.2533 -19.2439 -19.2372 -19.2314 -19.2296 -19.2170 -19.2147 -19.2087
   -19.1990 -19.1925 -19.1664 -19.1621 -19.1522 -19.1503 -11.1758  -7.0612
    -5.1838  -4.7677  -3.4539  -3.3579  -1.8322   1.5211   1.7907   2.1375
     3.1443   4.3189   5.1287   6.1958

          k =-0.0001-0.5671 0.0000 ( 16830 PWs)   bands (ev):

   -67.5412 -67.5304 -34.6068 -34.5373 -34.2299 -34.0908 -33.9276 -33.8209
   -19.2541 -19.2443 -19.2390 -19.2322 -19.2289 -19.2178 -19.2130 -19.2089
   -19.1976 -19.1914 -19.1692 -19.1642 -19.1483 -19.1471 -11.0862  -7.1583
    -5.1760  -4.7938  -3.4080  -3.2816  -1.7701   1.4145   2.0580   2.3142
     3.2024   4.7967   5.7623   6.3431

          k = 0.0819 0.0473 0.0000 ( 16853 PWs)   bands (ev):

   -67.6077 -67.5771 -34.5818 -34.1122 -33.7587 -33.7153 -33.7146 -33.6679
   -19.2584 -19.2454 -19.2281 -19.2266 -19.2263 -19.2247 -19.2070 -19.2053
   -19.2046 -19.2025 -19.1991 -19.1932 -19.1260 -19.1254 -12.7142  -8.1328
    -5.3186  -3.5477  -3.3860  -3.1744  -1.0635  -0.0396   0.5329   1.8781
     2.1860   2.9613   3.2860   4.1688

          k = 0.0819 0.1418 0.0000 ( 16811 PWs)   bands (ev):

   -67.5992 -67.5704 -34.5542 -34.1129 -33.8551 -33.8324 -33.7352 -33.6961
   -19.2554 -19.2444 -19.2301 -19.2284 -19.2250 -19.2223 -19.2104 -19.2061
   -19.2053 -19.2019 -19.1925 -19.1870 -19.1323 -19.1318 -12.4592  -7.7284
    -5.4303  -3.8043  -3.6606  -2.9885  -0.7510  -0.6300   0.8719   1.6528
     1.8052   2.9988   3.5709   4.8164

          k = 0.0820 0.2363 0.0000 ( 16763 PWs)   bands (ev):

   -67.5843 -67.5591 -34.5083 -34.1395 -34.0110 -33.9909 -33.7948 -33.7397
   -19.2508 -19.2428 -19.2344 -19.2295 -19.2242 -19.2184 -19.2155 -19.2073
   -19.2055 -19.2000 -19.1810 -19.1764 -19.1428 -19.1424 -12.0362  -7.0701
    -5.5916  -4.3098  -3.8498  -2.7955  -1.3683  -0.1437   0.7430   1.9397
     2.2358   2.7773   3.9433   5.3015

          k = 0.0820 0.3308 0.0000 ( 16792 PWs)   bands (ev):

   -67.5667 -67.5463 -34.4705 -34.2828 -34.1617 -34.0638 -33.8645 -33.7878
   -19.2491 -19.2391 -19.2390 -19.2312 -19.2251 -19.2188 -19.2157 -19.2087
   -19.2034 -19.1973 -19.1676 -19.1641 -19.1547 -19.1532 -11.5870  -6.6424
    -5.5404  -4.6360  -4.0069  -2.8081  -1.8149   0.5094   0.8122   2.1926
     2.8451   3.4090   4.0762   5.9200

          k = 0.0820 0.4254 0.0000 ( 16819 PWs)   bands (ev):

   -67.5509 -67.5358 -34.5048 -34.4336 -34.2353 -34.0820 -33.9218 -33.8298
   -19.2506 -19.2423 -19.2365 -19.2315 -19.2285 -19.2177 -19.2159 -19.2088
   -19.2003 -19.1945 -19.1647 -19.1616 -19.1555 -19.1532 -11.2423  -6.7903
    -5.1716  -4.7574  -4.0136  -3.0098  -1.8179   0.8254   1.5697   2.0184
     3.6573   3.9484   4.7813   6.2958

          k = 0.0820 0.5199 0.0000 ( 16838 PWs)   bands (ev):

   -67.5412 -67.5304 -34.5777 -34.5103 -34.2274 -34.0971 -33.9533 -33.8543
   -19.2521 -19.2435 -19.2379 -19.2321 -19.2284 -19.2182 -19.2143 -19.2087
   -19.1984 -19.1926 -19.1701 -19.1658 -19.1484 -19.1471 -11.0659  -6.9728
    -5.0885  -4.7608  -3.7754  -3.2372  -1.6606   1.1836   1.6758   2.2603
     3.9722   4.4358   5.7491   6.2764

          k = 0.0818-0.5199 0.0000 ( 16838 PWs)   bands (ev):

   -67.5412 -67.5304 -34.5775 -34.5101 -34.2274 -34.0972 -33.9534 -33.8543
   -19.2521 -19.2435 -19.2378 -19.2322 -19.2284 -19.2182 -19.2144 -19.2087
   -19.1983 -19.1926 -19.1701 -19.1658 -19.1484 -19.1471 -11.0661  -6.9725
    -5.0884  -4.7606  -3.7716  -3.2416  -1.6600   1.1841   1.6758   2.2608
     3.9711   4.4365   5.7489   6.2765

          k = 0.0818-0.4253 0.0000 ( 16813 PWs)   bands (ev):

   -67.5509 -67.5358 -34.5044 -34.4332 -34.2352 -34.0821 -33.9222 -33.8299
   -19.2505 -19.2423 -19.2363 -19.2315 -19.2287 -19.2175 -19.2163 -19.2088
   -19.2002 -19.1945 -19.1647 -19.1616 -19.1555 -19.1532 -11.2428  -6.7897
    -5.1726  -4.7561  -4.0086  -3.0155  -1.8168   0.8261   1.5736   2.0162
     3.6529   3.9479   4.7801   6.2938

          k = 0.0819-0.3308 0.0000 ( 16793 PWs)   bands (ev):

   -67.5668 -67.5463 -34.4705 -34.2821 -34.1612 -34.0639 -33.8651 -33.7879
   -19.2490 -19.2391 -19.2389 -19.2312 -19.2251 -19.2188 -19.2161 -19.2086
   -19.2033 -19.1973 -19.1676 -19.1640 -19.1547 -19.1532 -11.5875  -6.6422
    -5.5419  -4.6336  -4.0029  -2.8112  -1.8147   0.5065   0.8184   2.1915
     2.8388   3.4072   4.0753   5.9223

          k = 0.0819-0.2363 0.0000 ( 16767 PWs)   bands (ev):

   -67.5843 -67.5591 -34.5084 -34.1390 -34.0109 -33.9901 -33.7955 -33.7399
   -19.2508 -19.2428 -19.2344 -19.2295 -19.2241 -19.2187 -19.2156 -19.2071
   -19.2054 -19.2002 -19.1810 -19.1763 -19.1428 -19.1424 -12.0367  -7.0704
    -5.5935  -4.3075  -3.8472  -2.7940  -1.3701  -0.1419   0.7401   1.9404
     2.2374   2.7716   3.9389   5.3056

          k = 0.0819-0.1418 0.0000 ( 16811 PWs)   bands (ev):

   -67.5992 -67.5704 -34.5543 -34.1128 -33.8542 -33.8322 -33.7358 -33.6962
   -19.2554 -19.2444 -19.2301 -19.2282 -19.2248 -19.2226 -19.2105 -19.2058
   -19.2050 -19.2022 -19.1925 -19.1870 -19.1323 -19.1318 -12.4595  -7.7288
    -5.4322  -3.8047  -3.6587  -2.9837  -0.7497  -0.6347   0.8744   1.6473
     1.8094   2.9956   3.5648   4.8223

          k = 0.0819-0.0472 0.0000 ( 16853 PWs)   bands (ev):

   -67.6077 -67.5771 -34.5819 -34.1122 -33.7581 -33.7154 -33.7150 -33.6679
   -19.2585 -19.2455 -19.2280 -19.2265 -19.2263 -19.2248 -19.2071 -19.2052
   -19.2043 -19.2028 -19.1991 -19.1931 -19.1260 -19.1254 -12.7143  -8.1329
    -5.3194  -3.5494  -3.3875  -3.1684  -1.0630  -0.0469   0.5404   1.8781
     2.1867   2.9474   3.2921   4.1750

          k = 0.1638 0.0946 0.0000 ( 16799 PWs)   bands (ev):

   -67.5952 -67.5673 -34.5414 -34.1163 -33.9143 -33.8666 -33.7595 -33.6960
   -19.2541 -19.2439 -19.2320 -19.2266 -19.2264 -19.2207 -19.2121 -19.2066
   -19.2056 -19.2010 -19.1894 -19.1842 -19.1351 -19.1345 -12.3437  -7.5533
    -5.4802  -4.0353  -3.4709  -3.1116  -1.0100  -0.3977   1.1202   1.3207
     2.0940   2.8187   3.6305   4.8909

          k = 0.1639 0.1891 0.0000 ( 16766 PWs)   bands (ev):

   -67.5842 -67.5590 -34.5081 -34.1398 -34.0122 -33.9903 -33.7950 -33.7398
   -19.2505 -19.2430 -19.2345 -19.2295 -19.2244 -19.2182 -19.2154 -19.2076
   -19.2057 -19.1998 -19.1810 -19.1764 -19.1428 -19.1423 -12.0357  -7.0691
    -5.5859  -4.3132  -3.8546  -2.8036  -1.3677  -0.1387   0.7502   1.9362
     2.2372   2.7859   3.9408   5.2982

          k = 0.1639 0.2836 0.0000 ( 16778 PWs)   bands (ev):

   -67.5690 -67.5480 -34.4703 -34.2266 -34.1477 -34.0552 -33.8605 -33.8155
   -19.2450 -19.2427 -19.2370 -19.2330 -19.2236 -19.2186 -19.2167 -19.2088
   -19.2036 -19.1983 -19.1694 -19.1658 -19.1531 -19.1529 -11.6357  -6.4260
    -5.6912  -4.6307  -4.2216  -2.5256  -1.6911   0.0600   0.4334   2.2167
     3.0400   3.2021   4.4834   5.7237

          k = 0.1639 0.3781 0.0000 ( 16825 PWs)   bands (ev):

   -67.5533 -67.5374 -34.4654 -34.3523 -34.2289 -34.0816 -33.9446 -33.8857
   -19.2450 -19.2395 -19.2386 -19.2337 -19.2259 -19.2192 -19.2169 -19.2092
   -19.2003 -19.1972 -19.1641 -19.1629 -19.1574 -19.1548 -11.2683  -6.2108
    -5.4672  -4.8021  -4.3839  -2.6467  -1.6847  -0.1882   1.2088   2.1689
     3.6375   4.2111   4.8793   6.3355

          k = 0.1639 0.4726 0.0000 ( 16848 PWs)   bands (ev):

   -67.5411 -67.5304 -34.5103 -34.4425 -34.2268 -34.1170 -34.0028 -33.9346
   -19.2473 -19.2406 -19.2373 -19.2309 -19.2282 -19.2195 -19.2171 -19.2085
   -19.1993 -19.1958 -19.1717 -19.1692 -19.1487 -19.1472 -11.0247  -6.4528
    -4.9288  -4.8669  -4.4042  -3.0264  -1.4542   0.0240   1.9791   2.3100
     3.8261   4.5339   5.4224   6.3559

          k = 0.1639 0.5672 0.0000 ( 16840 PWs)   bands (ev):

   -67.5362 -67.5282 -34.5374 -34.4716 -34.2090 -34.1438 -34.0190 -33.9529
   -19.2483 -19.2409 -19.2360 -19.2333 -19.2264 -19.2200 -19.2165 -19.2082
   -19.1994 -19.1950 -19.1745 -19.1714 -19.1454 -19.1445 -10.9417  -6.5630
    -4.8980  -4.7271  -4.3089  -3.2770  -1.3147   0.2277   2.2181   2.4617
     4.0576   4.4465   5.5828   6.1191

          k = 0.1638-0.4726 0.0000 ( 16848 PWs)   bands (ev):

   -67.5411 -67.5304 -34.5096 -34.4419 -34.2268 -34.1174 -34.0033 -33.9346
   -19.2472 -19.2406 -19.2370 -19.2312 -19.2284 -19.2194 -19.2173 -19.2084
   -19.1993 -19.1957 -19.1717 -19.1692 -19.1487 -19.1472 -11.0254  -6.4517
    -4.9318  -4.8638  -4.3992  -3.0314  -1.4531   0.0246   1.9831   2.3066
     3.8285   4.5241   5.4237   6.3565

          k = 0.1638-0.3781 0.0000 ( 16829 PWs)   bands (ev):

   -67.5534 -67.5374 -34.4648 -34.3511 -34.2287 -34.0818 -33.9454 -33.8858
   -19.2449 -19.2394 -19.2384 -19.2340 -19.2260 -19.2191 -19.2174 -19.2090
   -19.2002 -19.1972 -19.1641 -19.1629 -19.1574 -19.1548 -11.2693  -6.2097
    -5.4697  -4.7978  -4.3792  -2.6515  -1.6825  -0.1902   1.2144   2.1639
     3.6357   4.2040   4.8747   6.3390

          k = 0.1638-0.2835 0.0000 ( 16784 PWs)   bands (ev):

   -67.5691 -67.5480 -34.4702 -34.2251 -34.1471 -34.0551 -33.8613 -33.8158
   -19.2452 -19.2425 -19.2369 -19.2330 -19.2234 -19.2188 -19.2171 -19.2085
   -19.2034 -19.1984 -19.1694 -19.1657 -19.1532 -19.1529 -11.6367  -6.4267
    -5.6941  -4.6255  -4.2168  -2.5250  -1.6909   0.0522   0.4394   2.2135
     3.0344   3.2000   4.4766   5.7323

          k = 0.1638-0.1890 0.0000 ( 16766 PWs)   bands (ev):

   -67.5843 -67.5591 -34.5083 -34.1393 -34.0112 -33.9899 -33.7956 -33.7400
   -19.2506 -19.2429 -19.2345 -19.2294 -19.2242 -19.2186 -19.2156 -19.2073
   -19.2054 -19.2001 -19.1810 -19.1763 -19.1428 -19.1423 -12.0364  -7.0701
    -5.5901  -4.3094  -3.8499  -2.7985  -1.3698  -0.1391   0.7440   1.9385
     2.2381   2.7765   3.9371   5.3038

          k = 0.1638-0.0945 0.0000 ( 16799 PWs)   bands (ev):

   -67.5952 -67.5674 -34.5416 -34.1162 -33.9135 -33.8664 -33.7598 -33.6961
   -19.2542 -19.2439 -19.2320 -19.2265 -19.2262 -19.2209 -19.2123 -19.2063
   -19.2054 -19.2013 -19.1894 -19.1842 -19.1351 -19.1346 -12.3441  -7.5539
    -5.4834  -4.0348  -3.4684  -3.1052  -1.0100  -0.4027   1.1260   1.3156
     2.0956   2.8058   3.6346   4.8936

          k = 0.1638 0.0000 0.0000 ( 16807 PWs)   bands (ev):

   -67.5991 -67.5704 -34.5541 -34.1131 -33.8560 -33.8325 -33.7345 -33.6961
   -19.2553 -19.2444 -19.2302 -19.2284 -19.2250 -19.2222 -19.2104 -19.2062
   -19.2053 -19.2016 -19.1925 -19.1871 -19.1322 -19.1318 -12.4589  -7.7282
    -5.4275  -3.8040  -3.6628  -2.9948  -0.7527  -0.6243   0.8691   1.6608
     1.7999   3.0020   3.5787   4.8076

          k = 0.2458 0.1418 0.0000 ( 16781 PWs)   bands (ev):

   -67.5778 -67.5543 -34.4916 -34.1949 -34.0679 -34.0409 -33.8176 -33.7369
   -19.2505 -19.2410 -19.2372 -19.2274 -19.2263 -19.2174 -19.2164 -19.2086
   -19.2052 -19.1984 -19.1761 -19.1719 -19.1471 -19.1458 -11.8695  -6.9285
    -5.6054  -4.4763  -3.5747  -3.1353  -1.6538   0.3205   1.1715   1.8877
     2.5275   2.6769   3.7504   5.4881

          k = 0.2458 0.2363 0.0000 ( 16795 PWs)   bands (ev):

   -67.5666 -67.5463 -34.4704 -34.2836 -34.1620 -34.0641 -33.8651 -33.7880
   -19.2486 -19.2395 -19.2386 -19.2311 -19.2254 -19.2188 -19.2158 -19.2092
   -19.2036 -19.1971 -19.1676 -19.1641 -19.1547 -19.1530 -11.5857  -6.6377
    -5.5342  -4.6446  -4.0134  -2.8245  -1.8135   0.5270   0.8210   2.2028
     2.8454   3.4033   4.0782   5.9114

          k = 0.2458 0.3309 0.0000 ( 16823 PWs)   bands (ev):

   -67.5532 -67.5374 -34.4657 -34.3530 -34.2285 -34.0817 -33.9453 -33.8856
   -19.2451 -19.2393 -19.2381 -19.2341 -19.2260 -19.2190 -19.2173 -19.2095
   -19.2004 -19.1970 -19.1641 -19.1627 -19.1574 -19.1548 -11.2675  -6.2047
    -5.4720  -4.8033  -4.3868  -2.6563  -1.6851  -0.1769   1.2138   2.1733
     3.6375   4.2087   4.8821   6.3303

          k = 0.2458 0.4254 0.0000 ( 16851 PWs)   bands (ev):

   -67.5409 -67.5304 -34.4721 -34.3877 -34.2490 -34.1150 -34.0338 -33.9839
   -19.2446 -19.2383 -19.2346 -19.2337 -19.2283 -19.2199 -19.2186 -19.2085
   -19.1989 -19.1983 -19.1721 -19.1712 -19.1489 -19.1472 -11.0033  -5.7689
    -5.6052  -4.7465  -4.5336  -2.8589  -1.2606  -0.5973   1.8998   2.4531
     3.6692   4.5714   5.2450   6.6376

          k = 0.2458 0.5199 0.0000 ( 16843 PWs)   bands (ev):

   -67.5329 -67.5273 -34.4634 -34.3985 -34.2515 -34.1831 -34.0660 -34.0412
   -19.2455 -19.2357 -19.2345 -19.2320 -19.2269 -19.2221 -19.2199 -19.2066
   -19.2006 -19.1985 -19.1772 -19.1760 -19.1437 -19.1430 -10.8559  -5.9406
    -5.1451  -4.7285  -4.6213  -3.1530  -0.9465  -0.4723   2.5588   2.7671
     3.5026   4.1691   5.1621   6.3206

          k = 0.2459 0.6144 0.0000 ( 16845 PWs)   bands (ev):

   -67.5330 -67.5273 -34.4626 -34.3979 -34.2515 -34.1839 -34.0672 -34.0403
   -19.2454 -19.2355 -19.2345 -19.2321 -19.2271 -19.2222 -19.2199 -19.2065
   -19.2007 -19.1984 -19.1772 -19.1760 -19.1437 -19.1430 -10.8564  -5.9394
    -5.1452  -4.7285  -4.6192  -3.1546  -0.9460  -0.4723   2.5618   2.7629
     3.5064   4.1612   5.1625   6.3196

          k = 0.2457-0.4253 0.0000 ( 16845 PWs)   bands (ev):

   -67.5411 -67.5304 -34.4710 -34.3860 -34.2496 -34.1156 -34.0348 -33.9836
   -19.2442 -19.2381 -19.2347 -19.2341 -19.2285 -19.2201 -19.2186 -19.2082
   -19.1989 -19.1982 -19.1722 -19.1713 -19.1489 -19.1472 -11.0046  -5.7669
    -5.6056  -4.7445  -4.5295  -2.8616  -1.2579  -0.6005   1.9034   2.4468
     3.6720   4.5581   5.2448   6.6342

          k = 0.2457-0.3308 0.0000 ( 16825 PWs)   bands (ev):

   -67.5534 -67.5374 -34.4650 -34.3513 -34.2286 -34.0818 -33.9458 -33.8858
   -19.2448 -19.2394 -19.2382 -19.2342 -19.2260 -19.2190 -19.2176 -19.2092
   -19.2002 -19.1971 -19.1641 -19.1628 -19.1574 -19.1548 -11.2689  -6.2067
    -5.4722  -4.7984  -4.3809  -2.6565  -1.6826  -0.1841   1.2171   2.1662
     3.6358   4.2026   4.8763   6.3360

          k = 0.2457-0.2363 0.0000 ( 16795 PWs)   bands (ev):

   -67.5667 -67.5463 -34.4704 -34.2825 -34.1614 -34.0640 -33.8654 -33.7882
   -19.2487 -19.2393 -19.2389 -19.2311 -19.2253 -19.2189 -19.2161 -19.2088
   -19.2034 -19.1972 -19.1676 -19.1640 -19.1547 -19.1531 -11.5868  -6.6400
    -5.5381  -4.6385  -4.0065  -2.8202  -1.8136   0.5164   0.8229   2.1971
     2.8390   3.4040   4.0762   5.9176

          k = 0.2457-0.1417 0.0000 ( 16773 PWs)   bands (ev):

   -67.5779 -67.5543 -34.4918 -34.1944 -34.0669 -34.0410 -33.8177 -33.7369
   -19.2507 -19.2410 -19.2372 -19.2275 -19.2259 -19.2175 -19.2167 -19.2082
   -19.2050 -19.1986 -19.1761 -19.1719 -19.1471 -19.1459 -11.8702  -6.9302
    -5.6102  -4.4719  -3.5700  -3.1281  -1.6545   0.3163   1.1630   1.8900
     2.5158   2.6800   3.7532   5.4913

          k = 0.2457-0.0472 0.0000 ( 16761 PWs)   bands (ev):

   -67.5842 -67.5590 -34.5081 -34.1404 -34.0115 -33.9915 -33.7943 -33.7397
   -19.2505 -19.2429 -19.2346 -19.2295 -19.2243 -19.2182 -19.2155 -19.2076
   -19.2056 -19.1998 -19.1810 -19.1764 -19.1428 -19.1423 -12.0354  -7.0695
    -5.5856  -4.3150  -3.8552  -2.8023  -1.3656  -0.1437   0.7511   1.9372
     2.2353   2.7888   3.9472   5.2942

          k = 0.2458 0.0473 0.0000 ( 16759 PWs)   bands (ev):

   -67.5842 -67.5590 -34.5080 -34.1405 -34.0124 -33.9910 -33.7943 -33.7397
   -19.2504 -19.2429 -19.2346 -19.2295 -19.2244 -19.2181 -19.2155 -19.2078
   -19.2057 -19.1997 -19.1810 -19.1764 -19.1428 -19.1423 -12.0352  -7.0688
    -5.5832  -4.3164  -3.8574  -2.8060  -1.3655  -0.1415   0.7544   1.9356
     2.2360   2.7925   3.9465   5.2926

          k = 0.3277 0.1891 0.0000 ( 16809 PWs)   bands (ev):

   -67.5599 -67.5417 -34.4801 -34.3754 -34.2113 -34.0714 -33.8736 -33.7789
   -19.2512 -19.2415 -19.2362 -19.2295 -19.2292 -19.2178 -19.2154 -19.2095
   -19.2025 -19.1952 -19.1625 -19.1595 -19.1585 -19.1556 -11.4443  -6.8454
    -5.3640  -4.6986  -3.6371  -3.2532  -1.9172   1.1354   1.5046   2.0950
     2.6840   3.7776   3.9097   6.0403

          k = 0.3277 0.2836 0.0000 ( 16813 PWs)   bands (ev):

   -67.5506 -67.5358 -34.5058 -34.4350 -34.2337 -34.0832 -33.9226 -33.8302
   -19.2505 -19.2421 -19.2358 -19.2315 -19.2289 -19.2176 -19.2164 -19.2095
   -19.2003 -19.1944 -19.1646 -19.1613 -19.1555 -19.1532 -11.2400  -6.7851
    -5.1671  -4.7684  -4.0207  -3.0291  -1.8157   0.8489   1.5803   2.0324
     3.6558   3.9488   4.7809   6.2848

          k = 0.3277 0.3781 0.0000 ( 16850 PWs)   bands (ev):

   -67.5408 -67.5304 -34.5114 -34.4441 -34.2249 -34.1174 -34.0041 -33.9343
   -19.2478 -19.2399 -19.2368 -19.2308 -19.2287 -19.2192 -19.2177 -19.2091
   -19.1994 -19.1956 -19.1717 -19.1689 -19.1487 -19.1472 -11.0228  -6.4494
    -4.9353  -4.8691  -4.4066  -3.0384  -1.4549   0.0389   1.9897   2.3200
     3.8279   4.5293   5.4236   6.3661

          k = 0.3277 0.4727 0.0000 ( 16845 PWs)   bands (ev):

   -67.5327 -67.5274 -34.4646 -34.3999 -34.2507 -34.1816 -34.0675 -34.0406
   -19.2459 -19.2355 -19.2337 -19.2319 -19.2274 -19.2220 -19.2202 -19.2068
   -19.2008 -19.1983 -19.1773 -19.1758 -19.1437 -19.1430 -10.8547  -5.9401
    -5.1493  -4.7334  -4.6177  -3.1572  -0.9499  -0.4642   2.5677   2.7719
     3.5014   4.1690   5.1607   6.3227

          k = 0.3278 0.5672 0.0000 ( 16894 PWs)   bands (ev):

   -67.5282 -67.5279 -34.3848 -34.3441 -34.3433 -34.2321 -34.0826 -34.0800
   -19.2452 -19.2334 -19.2334 -19.2271 -19.2267 -19.2251 -19.2238 -19.2035
   -19.2018 -19.2015 -19.1790 -19.1789 -19.1417 -19.1417 -10.7911  -5.4417
    -5.4379  -4.9160  -4.5620  -3.1837  -0.6392  -0.6339   2.9574   2.9589
     3.4955   3.5031   4.8871   6.6765

          k = 0.3278 0.6617 0.0000 ( 16843 PWs)   bands (ev):

   -67.5329 -67.5273 -34.4634 -34.3984 -34.2513 -34.1830 -34.0679 -34.0401
   -19.2455 -19.2354 -19.2341 -19.2321 -19.2274 -19.2222 -19.2200 -19.2066
   -19.2008 -19.1983 -19.1772 -19.1759 -19.1437 -19.1430 -10.8557  -5.9394
    -5.1474  -4.7309  -4.6176  -3.1566  -0.9479  -0.4679   2.5667   2.7654
     3.5057   4.1615   5.1619   6.3200

          k = 0.3276-0.3780 0.0000 ( 16850 PWs)   bands (ev):

   -67.5410 -67.5304 -34.5103 -34.4424 -34.2260 -34.1175 -34.0040 -33.9345
   -19.2474 -19.2403 -19.2367 -19.2311 -19.2286 -19.2194 -19.2176 -19.2087
   -19.1993 -19.1956 -19.1717 -19.1691 -19.1487 -19.1471 -11.0243  -6.4502
    -4.9353  -4.8650  -4.4009  -3.0374  -1.4532   0.0327   1.9886   2.3121
     3.8296   4.5216   5.4243   6.3614

          k = 0.3276-0.2835 0.0000 ( 16813 PWs)   bands (ev):

   -67.5508 -67.5358 -34.5051 -34.4337 -34.2345 -34.0827 -33.9226 -33.8302
   -19.2504 -19.2423 -19.2359 -19.2315 -19.2289 -19.2175 -19.2166 -19.2091
   -19.2002 -19.1944 -19.1646 -19.1615 -19.1555 -19.1532 -11.2415  -6.7873
    -5.1700  -4.7622  -4.0126  -3.0257  -1.8152   0.8390   1.5788   2.0240
     3.6519   3.9482   4.7798   6.2871

          k = 0.3276-0.1890 0.0000 ( 16811 PWs)   bands (ev):

   -67.5600 -67.5418 -34.4798 -34.3745 -34.2115 -34.0709 -33.8736 -33.7788
   -19.2512 -19.2416 -19.2364 -19.2295 -19.2291 -19.2177 -19.2156 -19.2091
   -19.2024 -19.1952 -19.1625 -19.1595 -19.1585 -19.1557 -11.4454  -6.8483
    -5.3677  -4.6930  -3.6312  -3.2455  -1.9176   1.1269   1.4959   2.0852
     2.6855   3.7789   3.9119   6.0430

          k = 0.3276-0.0945 0.0000 ( 16791 PWs)   bands (ev):

   -67.5666 -67.5463 -34.4705 -34.2840 -34.1623 -34.0640 -33.8643 -33.7878
   -19.2488 -19.2393 -19.2389 -19.2313 -19.2251 -19.2188 -19.2156 -19.2090
   -19.2036 -19.1972 -19.1676 -19.1641 -19.1547 -19.1531 -11.5856  -6.6406
    -5.5348  -4.6440  -4.0147  -2.8141  -1.8144   0.5229   0.8089   2.2002
     2.8532   3.4087   4.0776   5.9125

          k = 0.3277 0.0001 0.0000 ( 16770 PWs)   bands (ev):

   -67.5689 -67.5479 -34.4702 -34.2284 -34.1480 -34.0554 -33.8598 -33.8152
   -19.2448 -19.2428 -19.2372 -19.2329 -19.2236 -19.2186 -19.2165 -19.2089
   -19.2038 -19.1982 -19.1695 -19.1658 -19.1531 -19.1528 -11.6345  -6.4255
    -5.6873  -4.6374  -4.2268  -2.5271  -1.6915   0.0699   0.4253   2.2212
     3.0469   3.2058   4.4913   5.7125

          k = 0.3277 0.0946 0.0000 ( 16789 PWs)   bands (ev):

   -67.5665 -67.5463 -34.4705 -34.2844 -34.1624 -34.0642 -33.8645 -33.7878
   -19.2486 -19.2395 -19.2386 -19.2312 -19.2253 -19.2188 -19.2156 -19.2092
   -19.2037 -19.1971 -19.1676 -19.1641 -19.1547 -19.1530 -11.5850  -6.6380
    -5.5324  -4.6478  -4.0177  -2.8216  -1.8140   0.5306   0.8132   2.2048
     2.8534   3.4063   4.0787   5.9085

          k = 0.4096 0.2364 0.0000 ( 16834 PWs)   bands (ev):

   -67.5460 -67.5332 -34.5615 -34.4970 -34.2370 -34.0854 -33.9137 -33.8101
   -19.2533 -19.2436 -19.2368 -19.2311 -19.2298 -19.2169 -19.2154 -19.2096
   -19.1989 -19.1924 -19.1664 -19.1618 -19.1522 -19.1503 -11.1724  -7.0575
    -5.1788  -4.7805  -3.4648  -3.3766  -1.8290   1.5316   1.8282   2.1532
     3.1352   4.3227   5.1297   6.1872

          k = 0.4096 0.3309 0.0000 ( 16834 PWs)   bands (ev):

   -67.5407 -67.5304 -34.5794 -34.5126 -34.2238 -34.0995 -33.9541 -33.8547
   -19.2523 -19.2431 -19.2375 -19.2319 -19.2284 -19.2181 -19.2151 -19.2096
   -19.1983 -19.1925 -19.1701 -19.1654 -19.1484 -19.1471 -11.0626  -6.9701
    -5.0859  -4.7724  -3.7847  -3.2522  -1.6584   1.2044   1.6861   2.2802
     3.9738   4.4366   5.7561   6.2749

          k = 0.4097 0.4254 0.0000 ( 16836 PWs)   bands (ev):

   -67.5357 -67.5283 -34.5394 -34.4740 -34.2053 -34.1450 -34.0204 -33.9525
   -19.2489 -19.2400 -19.2360 -19.2330 -19.2263 -19.2199 -19.2172 -19.2089
   -19.1995 -19.1949 -19.1745 -19.1711 -19.1453 -19.1445 -10.9386  -6.5624
    -4.8999  -4.7364  -4.3138  -3.2842  -1.3163   0.2408   2.2278   2.4790
     4.0526   4.4553   5.5788   6.1262

          k = 0.4097 0.5199 0.0000 ( 16843 PWs)   bands (ev):

   -67.5326 -67.5274 -34.4654 -34.4009 -34.2497 -34.1814 -34.0669 -34.0411
   -19.2460 -19.2357 -19.2337 -19.2318 -19.2271 -19.2219 -19.2204 -19.2069
   -19.2007 -19.1985 -19.1772 -19.1758 -19.1437 -19.1430 -10.8540  -5.9419
    -5.1491  -4.7340  -4.6198  -3.1552  -0.9509  -0.4644   2.5636   2.7780
     3.4964   4.1783   5.1612   6.3241

          k = 0.4097 0.6145 0.0000 ( 16840 PWs)   bands (ev):

   -67.5327 -67.5274 -34.4649 -34.3999 -34.2502 -34.1821 -34.0660 -34.0415
   -19.2457 -19.2358 -19.2340 -19.2318 -19.2269 -19.2220 -19.2202 -19.2068
   -19.2007 -19.1985 -19.1772 -19.1759 -19.1437 -19.1430 -10.8545  -5.9423
    -5.1472  -4.7316  -4.6218  -3.1530  -0.9493  -0.4681   2.5596   2.7756
     3.4968   4.1786   5.1620   6.3224

          k = 0.4097 0.7090 0.0000 ( 16840 PWs)   bands (ev):

   -67.5359 -67.5283 -34.5386 -34.4726 -34.2072 -34.1444 -34.0197 -33.9528
   -19.2485 -19.2405 -19.2360 -19.2331 -19.2264 -19.2200 -19.2169 -19.2086
   -19.1995 -19.1949 -19.1745 -19.1713 -19.1454 -19.1444 -10.9399  -6.5632
    -4.8988  -4.7325  -4.3120  -3.2802  -1.3153   0.2346   2.2229   2.4713
     4.0545   4.4517   5.5808   6.1224

          k = 0.4095-0.3308 0.0000 ( 16836 PWs)   bands (ev):

   -67.5409 -67.5304 -34.5786 -34.5110 -34.2256 -34.0983 -33.9539 -33.8546
   -19.2521 -19.2434 -19.2376 -19.2321 -19.2284 -19.2182 -19.2148 -19.2092
   -19.1983 -19.1925 -19.1700 -19.1656 -19.1484 -19.1471 -11.0642  -6.9716
    -5.0869  -4.7673  -3.7771  -3.2489  -1.6583   1.1954   1.6808   2.2718
     3.9717   4.4369   5.7528   6.2748

          k = 0.4095-0.2362 0.0000 ( 16830 PWs)   bands (ev):

   -67.5462 -67.5332 -34.5608 -34.4957 -34.2385 -34.0843 -33.9135 -33.8099
   -19.2532 -19.2438 -19.2370 -19.2313 -19.2297 -19.2170 -19.2151 -19.2092
   -19.1990 -19.1924 -19.1663 -19.1619 -19.1522 -19.1503 -11.1739  -7.0597
    -5.1810  -4.7750  -3.4593  -3.3684  -1.8300   1.5262   1.8118   2.1457
     3.1387   4.3212   5.1292   6.1903

          k = 0.4096-0.1417 0.0000 ( 16821 PWs)   bands (ev):

   -67.5507 -67.5358 -34.5059 -34.4346 -34.2345 -34.0826 -33.9219 -33.8300
   -19.2504 -19.2423 -19.2364 -19.2314 -19.2285 -19.2178 -19.2159 -19.2092
   -19.2004 -19.1945 -19.1646 -19.1615 -19.1555 -19.1532 -11.2404  -6.7887
    -5.1679  -4.7654  -4.0229  -3.0142  -1.8178   0.8373   1.5700   2.0295
     3.6614   3.9491   4.7831   6.2915

          k = 0.4096-0.0472 0.0000 ( 16827 PWs)   bands (ev):

   -67.5532 -67.5374 -34.4663 -34.3541 -34.2285 -34.0817 -33.9442 -33.8854
   -19.2451 -19.2395 -19.2385 -19.2337 -19.2259 -19.2192 -19.2168 -19.2095
   -19.2006 -19.1971 -19.1640 -19.1628 -19.1574 -19.1548 -11.2665  -6.2092
    -5.4670  -4.8079  -4.3909  -2.6467  -1.6881  -0.1796   1.2039   2.1789
     3.6393   4.2187   4.8868   6.3280

          k = 0.4096 0.0473 0.0000 ( 16831 PWs)   bands (ev):

   -67.5531 -67.5374 -34.4664 -34.3546 -34.2282 -34.0819 -33.9445 -33.8853
   -19.2452 -19.2394 -19.2382 -19.2339 -19.2259 -19.2190 -19.2170 -19.2096
   -19.2006 -19.1970 -19.1641 -19.1627 -19.1574 -19.1548 -11.2661  -6.2061
    -5.4695  -4.8085  -4.3920  -2.6512  -1.6884  -0.1744   1.2063   2.1809
     3.6393   4.2177   4.8879   6.3260

          k = 0.4096 0.1419 0.0000 ( 16815 PWs)   bands (ev):

   -67.5505 -67.5358 -34.5063 -34.4356 -34.2335 -34.0833 -33.9222 -33.8301
   -19.2505 -19.2421 -19.2360 -19.2314 -19.2287 -19.2177 -19.2162 -19.2096
   -19.2004 -19.1944 -19.1646 -19.1613 -19.1555 -19.1532 -11.2394  -6.7859
    -5.1660  -4.7702  -4.0260  -3.0233  -1.8172   0.8479   1.5753   2.0358
     3.6609   3.9491   4.7830   6.2875

          k =-0.4915-0.2837 0.0000 ( 16814 PWs)   bands (ev):

   -67.5406 -67.5304 -34.6087 -34.5400 -34.2258 -34.0937 -33.9282 -33.8215
   -19.2542 -19.2440 -19.2386 -19.2319 -19.2289 -19.2178 -19.2137 -19.2097
   -19.1975 -19.1913 -19.1691 -19.1638 -19.1482 -19.1471 -11.0825  -7.1557
    -5.1728  -4.8062  -3.4269  -3.2914  -1.7659   1.4255   2.0948   2.3327
     3.1924   4.7989   5.7715   6.3354

          k =-0.4915-0.1891 0.0000 ( 16828 PWs)   bands (ev):

   -67.5407 -67.5304 -34.5796 -34.5128 -34.2237 -34.0995 -33.9539 -33.8547
   -19.2523 -19.2431 -19.2376 -19.2318 -19.2284 -19.2181 -19.2150 -19.2096
   -19.1983 -19.1925 -19.1700 -19.1654 -19.1484 -19.1471 -11.0623  -6.9705
    -5.0860  -4.7726  -3.7885  -3.2478  -1.6592   1.2036   1.6863   2.2795
     3.9749   4.4356   5.7566   6.2757

          k =-0.4915-0.0946 0.0000 ( 16852 PWs)   bands (ev):

   -67.5407 -67.5304 -34.5122 -34.4450 -34.2243 -34.1175 -34.0037 -33.9342
   -19.2478 -19.2399 -19.2371 -19.2305 -19.2285 -19.2192 -19.2176 -19.2091
   -19.1994 -19.1957 -19.1717 -19.1689 -19.1487 -19.1472 -11.0218  -6.4509
    -4.9321  -4.8727  -4.4120  -3.0330  -1.4567   0.0379   1.9843   2.3252
     3.8244   4.5406   5.4233   6.3664

          k =-0.4915-0.0001 0.0000 ( 16852 PWs)   bands (ev):

   -67.5408 -67.5304 -34.4735 -34.3898 -34.2474 -34.1150 -34.0332 -33.9838
   -19.2448 -19.2385 -19.2342 -19.2336 -19.2283 -19.2196 -19.2188 -19.2086
   -19.1988 -19.1986 -19.1721 -19.1712 -19.1488 -19.1472 -11.0016  -5.7722
    -5.6047  -4.7487  -4.5387  -2.8555  -1.2649  -0.5934   1.8947   2.4623
     3.6653   4.5869   5.2470   6.6421

          k =-0.4915 0.0944 0.0000 ( 16848 PWs)   bands (ev):

   -67.5408 -67.5304 -34.5118 -34.4439 -34.2254 -34.1171 -34.0031 -33.9344
   -19.2475 -19.2403 -19.2374 -19.2306 -19.2282 -19.2194 -19.2173 -19.2088
   -19.1995 -19.1957 -19.1717 -19.1691 -19.1487 -19.1472 -11.0226  -6.4528
    -4.9290  -4.8717  -4.4113  -3.0271  -1.4562   0.0311   1.9792   2.3206
     3.8238   4.5426   5.4228   6.3610

          k =-0.4915 0.1890 0.0000 ( 16830 PWs)   bands (ev):

   -67.5409 -67.5304 -34.5789 -34.5114 -34.2255 -34.0984 -33.9537 -33.8546
   -19.2521 -19.2434 -19.2379 -19.2319 -19.2283 -19.2182 -19.2147 -19.2092
   -19.1984 -19.1925 -19.1700 -19.1656 -19.1484 -19.1471 -11.0637  -6.9723
    -5.0871  -4.7677  -3.7847  -3.2402  -1.6598   1.1941   1.6810   2.2706
     3.9739   4.4352   5.7536   6.2760

          k =-0.4916-0.8508 0.0000 ( 16822 PWs)   bands (ev):

   -67.5409 -67.5304 -34.6080 -34.5384 -34.2278 -34.0923 -33.9280 -33.8213
   -19.2541 -19.2443 -19.2388 -19.2320 -19.2289 -19.2179 -19.2134 -19.2093
   -19.1975 -19.1913 -19.1691 -19.1640 -19.1483 -19.1471 -11.0841  -7.1575
    -5.1742  -4.8010  -3.4189  -3.2859  -1.7673   1.4198   2.0789   2.3235
     3.1963   4.7979   5.7675   6.3379

     the Fermi energy is     0.8288 ev

!    total energy              =   -1375.69757947 Ry
     estimated scf accuracy    <          2.9E-13 Ry
     smearing contrib. (-TS)   =      -0.00000372 Ry
     internal energy E=F+TS    =   -1375.69757575 Ry

     The total energy is F=E-TS. E is the sum of the following terms:
     one-electron contribution =  -11616.51872817 Ry
     hartree contribution      =    5838.40186938 Ry
     xc contribution           =    -140.31222768 Ry
     ewald contribution        =    4542.73151073 Ry

     convergence has been achieved in  19 iterations

     negative rho (up, down):  8.703E-04 0.000E+00

     Forces acting on atoms (cartesian axes, Ry/au):

     atom    1 type  2   force =    -0.00045446    0.00025791   -0.00000131
     atom    2 type  1   force =     0.00003891    0.00027387   -0.00024044
     atom    3 type  1   force =     0.00009892   -0.00034957    0.00024072
     atom    4 type  3   force =     0.00026891   -0.00055526   -0.00006355
     atom    5 type  3   force =     0.00004773    0.00037305    0.00006457

     Total force =     0.001062     Total SCF correction =     0.000005


     Computing stress (Cartesian axis) and pressure


     negative rho (up, down):  8.703E-04 0.000E+00
          total   stress  (Ry/bohr**3)                   (kbar)     P=       -0.15
  -0.00000182   0.00000012   0.00000076           -0.27        0.02        0.11
   0.00000012   0.00000096  -0.00000379            0.02        0.14       -0.56
   0.00000076  -0.00000379  -0.00000229            0.11       -0.56       -0.34


     Writing output data file /scratch/as3359/Ta2CH2-VCrelax/Ta.save/
 
     init_run     :     15.92s CPU      8.79s WALL (       1 calls)
     electrons    :    633.91s CPU    324.79s WALL (       1 calls)
     forces       :      5.09s CPU      2.63s WALL (       1 calls)
     stress       :     19.26s CPU      9.90s WALL (       1 calls)

     Called by init_run:
     wfcinit      :     11.96s CPU      6.16s WALL (       1 calls)
     potinit      :      0.98s CPU      0.50s WALL (       1 calls)
     hinit0       :      2.36s CPU      1.71s WALL (       1 calls)

     Called by electrons:
     c_bands      :    524.10s CPU    266.03s WALL (      19 calls)
     sum_band     :     97.02s CPU     50.90s WALL (      19 calls)
     v_of_rho     :      1.86s CPU      0.97s WALL (      20 calls)
     newd         :     10.70s CPU      6.79s WALL (      20 calls)
     mix_rho      :      0.69s CPU      0.37s WALL (      19 calls)

     Called by c_bands:
     init_us_2    :     13.53s CPU      6.79s WALL (    3034 calls)
     cegterg      :    482.80s CPU    245.14s WALL (    1406 calls)

     Called by *egterg:
     cdiaghg      :     16.41s CPU      8.37s WALL (    7174 calls)
     h_psi        :    380.14s CPU    193.51s WALL (    7248 calls)
     s_psi        :     18.07s CPU      9.06s WALL (    7248 calls)
     g_psi        :      2.43s CPU      1.23s WALL (    5768 calls)

     Called by h_psi:
     h_psi:calbec :     16.32s CPU      8.21s WALL (    7248 calls)
     vloc_psi     :    338.81s CPU    172.74s WALL (    7248 calls)
     add_vuspsi   :     21.44s CPU     10.75s WALL (    7248 calls)

     General routines
     calbec       :     22.69s CPU     11.42s WALL (    9024 calls)
     fft          :      1.24s CPU      0.63s WALL (     245 calls)
     ffts         :      0.07s CPU      0.04s WALL (      19 calls)
     fftw         :    346.69s CPU    176.98s WALL (  303420 calls)
 
     Parallel routines
 
     PWSCF        :  11m17.12s CPU   5m48.87s WALL

 
   This run was terminated on:  14:26: 1   7Apr2022            

=------------------------------------------------------------------------------=
   JOB DONE.
=------------------------------------------------------------------------------=
