
     Program PWSCF v.6.8 starts on  7Apr2022 at 15:25:22 

     This program is part of the open-source Quantum ESPRESSO suite
     for quantum simulation of materials; please cite
         "P. Giannozzi et al., J. Phys.:Condens. Matter 21 395502 (2009);
         "P. Giannozzi et al., J. Phys.:Condens. Matter 29 465901 (2017);
         "P. Giannozzi et al., J. Chem. Phys. 152 154105 (2020);
          URL http://www.quantum-espresso.org", 
     in publications or presentations arising from this work. More details at
     http://www.quantum-espresso.org/quote

     Parallel version (MPI & OpenMP), running on       4 processor cores
     Number of MPI processes:                 2
     Threads/MPI process:                     2

     MPI processes distributed on     1 nodes
     R & G space division:  proc/nbgrp/npool/nimage =       2
     123940 MiB available memory on the printing compute node when the environment starts
 
     Reading input from Ta2CH2.scf.115.in

     Current dimensions of program PWSCF are:
     Max number of different atomic species (ntypx) = 10
     Max number of k-points (npk) =  40000
     Max angular momentum in pseudopotentials (lmaxx) =  4
     file Ta.pbesol-spfn-rrkjus_psl.1.0.0.UPF: wavefunction(s)  5S 5P renormalized

     Subspace diagonalization in iterative solution of the eigenvalue problem:
     a serial algorithm will be used

 
     Parallelization info
     --------------------
     sticks:   dense  smooth     PW     G-vecs:    dense   smooth      PW
     Min         507     507    156               127743   127743   21552
     Max         508     508    157               127754   127754   21553
     Sum        1015    1015    313               255497   255497   43105
 
     Using Slab Decomposition
 


     bravais-lattice index     =            0
     lattice parameter (alat)  =       5.5500  a.u.
     unit-cell volume          =    1533.2393 (a.u.)^3
     number of atoms/cell      =            5
     number of atomic types    =            3
     number of electrons       =        60.00
     number of Kohn-Sham states=           36
     kinetic-energy cutoff     =     115.0000  Ry
     charge density cutoff     =     460.0000  Ry
     scf convergence threshold =      1.0E-12
     mixing beta               =       0.7000
     number of iterations used =            8  plain     mixing
     Exchange-correlation= PBESOL
                           (   1   4  10   8   0   0   0)

     celldm(1)=   5.550000  celldm(2)=   0.000000  celldm(3)=   0.000000
     celldm(4)=   0.000000  celldm(5)=   0.000000  celldm(6)=   0.000000

     crystal axes: (cart. coord. in units of alat)
               a(1) = (   1.017295  -0.000177   0.000000 )  
               a(2) = (  -0.508801   0.881714   0.000000 )  
               a(3) = (   0.000000   0.000000  10.000000 )  

     reciprocal axes: (cart. coord. in units 2 pi/alat)
               b(1) = (  0.983098  0.567305  0.000000 )  
               b(2) = (  0.000198  1.134269  0.000000 )  
               b(3) = (  0.000000  0.000000  0.100000 )  


     PseudoPot. # 1 for Ta read from file:
     /shared/home/as3359/pseudo/Ta.pbesol-spfn-rrkjus_psl.1.0.0.UPF
     MD5 check sum: f099565ffaca9b150a52e9412a28e20b
     Pseudo is Ultrasoft + core correction, Zval = 27.0
     Generated using &quot;atomic&quot; code by A. Dal Corso  v.6.3
     Using radial grid of 1273 points,  8 beta functions with: 
                l(1) =   0
                l(2) =   0
                l(3) =   1
                l(4) =   1
                l(5) =   2
                l(6) =   2
                l(7) =   3
                l(8) =   3
     Q(r) pseudized with 0 coefficients 


     PseudoPot. # 2 for C  read from file:
     /shared/home/as3359/pseudo/C.pbesol-n-rrkjus_psl.1.0.0.UPF
     MD5 check sum: 05995be603a8a7c99da3dc4413f31573
     Pseudo is Ultrasoft + core correction, Zval =  4.0
     Generated using &quot;atomic&quot; code by A. Dal Corso  v.6.3MaX
     Using radial grid of 1073 points,  4 beta functions with: 
                l(1) =   0
                l(2) =   0
                l(3) =   1
                l(4) =   1
     Q(r) pseudized with 0 coefficients 


     PseudoPot. # 3 for H  read from file:
     /shared/home/as3359/pseudo/H.pbesol-rrkjus_psl.0.1.UPF
     MD5 check sum: 1dbb1a5c48b1283557b8117eb856a7ca
     Pseudo is Ultrasoft, Zval =  1.0
     Generated using "atomic" code by A. Dal Corso  v.5.0.2 svn rev. 9415
     Using radial grid of  929 points,  2 beta functions with: 
                l(1) =   0
                l(2) =   0
     Q(r) pseudized with 0 coefficients 


     atomic species   valence    mass     pseudopotential
        Ta            27.00   180.94788     Ta( 1.00)
        C              4.00    12.01070     C ( 1.00)
        H              1.00     1.00000     H ( 1.00)

     No symmetry found



   Cartesian axes

     site n.     atom                  positions (alat units)
         1           C   tau(   1) = (   0.0000000   0.0000000   0.0000000  )
         2           Ta  tau(   2) = (   0.5088008   0.2948413  -0.4364511  )
         3           Ta  tau(   3) = (  -0.0007447   0.5869407   0.4364532  )
         4           H   tau(   4) = (  -0.0017928  -0.0015314   0.8341930  )
         5           H   tau(   5) = (   0.0002769   0.0024412  -0.8341930  )

     number of k points=    74  Marzari-Vanderbilt smearing, width (Ry)=  0.0010
                       cart. coord. in units 2pi/alat
        k(    1) = (   0.0000000   0.0000000   0.0000000), wk =   0.0138889
        k(    2) = (   0.0000165   0.0945224   0.0000000), wk =   0.0277778
        k(    3) = (   0.0000329   0.1890448   0.0000000), wk =   0.0277778
        k(    4) = (   0.0000494   0.2835672   0.0000000), wk =   0.0277778
        k(    5) = (   0.0000659   0.3780896   0.0000000), wk =   0.0277778
        k(    6) = (   0.0000823   0.4726120   0.0000000), wk =   0.0277778
        k(    7) = (  -0.0000988  -0.5671343   0.0000000), wk =   0.0138889
        k(    8) = (   0.0819248   0.0472755   0.0000000), wk =   0.0277778
        k(    9) = (   0.0819413   0.1417978   0.0000000), wk =   0.0277778
        k(   10) = (   0.0819577   0.2363202   0.0000000), wk =   0.0277778
        k(   11) = (   0.0819742   0.3308426   0.0000000), wk =   0.0277778
        k(   12) = (   0.0819907   0.4253650   0.0000000), wk =   0.0277778
        k(   13) = (   0.0820071   0.5198874   0.0000000), wk =   0.0277778
        k(   14) = (   0.0818260  -0.5198589   0.0000000), wk =   0.0277778
        k(   15) = (   0.0818425  -0.4253365   0.0000000), wk =   0.0277778
        k(   16) = (   0.0818590  -0.3308141   0.0000000), wk =   0.0277778
        k(   17) = (   0.0818754  -0.2362917   0.0000000), wk =   0.0277778
        k(   18) = (   0.0818919  -0.1417693   0.0000000), wk =   0.0277778
        k(   19) = (   0.0819084  -0.0472469   0.0000000), wk =   0.0277778
        k(   20) = (   0.1638496   0.0945509   0.0000000), wk =   0.0277778
        k(   21) = (   0.1638661   0.1890733   0.0000000), wk =   0.0277778
        k(   22) = (   0.1638826   0.2835957   0.0000000), wk =   0.0277778
        k(   23) = (   0.1638990   0.3781181   0.0000000), wk =   0.0277778
        k(   24) = (   0.1639155   0.4726405   0.0000000), wk =   0.0277778
        k(   25) = (   0.1639319   0.5671629   0.0000000), wk =   0.0277778
        k(   26) = (   0.1637508  -0.4725834   0.0000000), wk =   0.0277778
        k(   27) = (   0.1637673  -0.3780610   0.0000000), wk =   0.0277778
        k(   28) = (   0.1637838  -0.2835386   0.0000000), wk =   0.0277778
        k(   29) = (   0.1638002  -0.1890163   0.0000000), wk =   0.0277778
        k(   30) = (   0.1638167  -0.0944939   0.0000000), wk =   0.0277778
        k(   31) = (   0.1638332   0.0000285   0.0000000), wk =   0.0277778
        k(   32) = (   0.2457744   0.1418264   0.0000000), wk =   0.0277778
        k(   33) = (   0.2457909   0.2363488   0.0000000), wk =   0.0277778
        k(   34) = (   0.2458074   0.3308711   0.0000000), wk =   0.0277778
        k(   35) = (   0.2458238   0.4253935   0.0000000), wk =   0.0277778
        k(   36) = (   0.2458403   0.5199159   0.0000000), wk =   0.0277778
        k(   37) = (   0.2458568   0.6144383   0.0000000), wk =   0.0277778
        k(   38) = (   0.2456757  -0.4253080   0.0000000), wk =   0.0277778
        k(   39) = (   0.2456921  -0.3307856   0.0000000), wk =   0.0277778
        k(   40) = (   0.2457086  -0.2362632   0.0000000), wk =   0.0277778
        k(   41) = (   0.2457251  -0.1417408   0.0000000), wk =   0.0277778
        k(   42) = (   0.2457415  -0.0472184   0.0000000), wk =   0.0277778
        k(   43) = (   0.2457580   0.0473040   0.0000000), wk =   0.0277778
        k(   44) = (   0.3276993   0.1891018   0.0000000), wk =   0.0277778
        k(   45) = (   0.3277157   0.2836242   0.0000000), wk =   0.0277778
        k(   46) = (   0.3277322   0.3781466   0.0000000), wk =   0.0277778
        k(   47) = (   0.3277486   0.4726690   0.0000000), wk =   0.0277778
        k(   48) = (   0.3277651   0.5671914   0.0000000), wk =   0.0277778
        k(   49) = (   0.3277816   0.6617138   0.0000000), wk =   0.0277778
        k(   50) = (   0.3276005  -0.3780325   0.0000000), wk =   0.0277778
        k(   51) = (   0.3276169  -0.2835101   0.0000000), wk =   0.0277778
        k(   52) = (   0.3276334  -0.1889877   0.0000000), wk =   0.0277778
        k(   53) = (   0.3276499  -0.0944653   0.0000000), wk =   0.0277778
        k(   54) = (   0.3276663   0.0000570   0.0000000), wk =   0.0277778
        k(   55) = (   0.3276828   0.0945794   0.0000000), wk =   0.0277778
        k(   56) = (   0.4096241   0.2363773   0.0000000), wk =   0.0277778
        k(   57) = (   0.4096405   0.3308997   0.0000000), wk =   0.0277778
        k(   58) = (   0.4096570   0.4254221   0.0000000), wk =   0.0277778
        k(   59) = (   0.4096735   0.5199445   0.0000000), wk =   0.0277778
        k(   60) = (   0.4096899   0.6144668   0.0000000), wk =   0.0277778
        k(   61) = (   0.4097064   0.7089892   0.0000000), wk =   0.0277778
        k(   62) = (   0.4095253  -0.3307571   0.0000000), wk =   0.0277778
        k(   63) = (   0.4095418  -0.2362347   0.0000000), wk =   0.0277778
        k(   64) = (   0.4095582  -0.1417123   0.0000000), wk =   0.0277778
        k(   65) = (   0.4095747  -0.0471899   0.0000000), wk =   0.0277778
        k(   66) = (   0.4095911   0.0473325   0.0000000), wk =   0.0277778
        k(   67) = (   0.4096076   0.1418549   0.0000000), wk =   0.0277778
        k(   68) = (  -0.4915489  -0.2836527   0.0000000), wk =   0.0138889
        k(   69) = (  -0.4915324  -0.1891303   0.0000000), wk =   0.0277778
        k(   70) = (  -0.4915160  -0.0946080   0.0000000), wk =   0.0277778
        k(   71) = (  -0.4914995  -0.0000856   0.0000000), wk =   0.0277778
        k(   72) = (  -0.4914830   0.0944368   0.0000000), wk =   0.0277778
        k(   73) = (  -0.4914666   0.1889592   0.0000000), wk =   0.0277778
        k(   74) = (  -0.4916477  -0.8507871   0.0000000), wk =   0.0138889

     Dense  grid:   255497 G-vectors     FFT dimensions: (  40,  40, 384)

     Estimated max dynamical RAM per process >       1.86 GB

     Estimated total dynamical RAM >       3.72 GB

     Initial potential from superposition of free atoms

     starting charge   59.99840, renormalised to   60.00000

     negative rho (up, down):  3.838E-04 0.000E+00
     Starting wfcs are   40 randomized atomic wfcs

     total cpu time spent up to now is       17.1 secs

     Self-consistent Calculation

     iteration #  1     ecut=   115.00 Ry     beta= 0.70
     Davidson diagonalization with overlap
     ethr =  1.00E-02,  avg # of iterations =  2.0

     negative rho (up, down):  1.346E-04 0.000E+00

     total cpu time spent up to now is       47.9 secs

     total energy              =   -1375.12108256 Ry
     estimated scf accuracy    <       1.04966108 Ry

     iteration #  2     ecut=   115.00 Ry     beta= 0.70
     Davidson diagonalization with overlap
     ethr =  1.75E-03,  avg # of iterations =  7.5

     negative rho (up, down):  1.180E-04 0.000E+00

     total cpu time spent up to now is       90.8 secs

     total energy              =   -1374.71152522 Ry
     estimated scf accuracy    <       5.44144982 Ry

     iteration #  3     ecut=   115.00 Ry     beta= 0.70
     Davidson diagonalization with overlap
     ethr =  1.75E-03,  avg # of iterations =  4.8

     negative rho (up, down):  1.364E-04 0.000E+00

     total cpu time spent up to now is      128.9 secs

     total energy              =   -1375.66730845 Ry
     estimated scf accuracy    <       0.23045970 Ry

     iteration #  4     ecut=   115.00 Ry     beta= 0.70
     Davidson diagonalization with overlap
     ethr =  3.84E-04,  avg # of iterations =  2.5

     negative rho (up, down):  1.404E-04 0.000E+00

     total cpu time spent up to now is      160.3 secs

     total energy              =   -1375.69469993 Ry
     estimated scf accuracy    <       0.02806434 Ry

     iteration #  5     ecut=   115.00 Ry     beta= 0.70
     Davidson diagonalization with overlap
     ethr =  4.68E-05,  avg # of iterations = 10.6

     negative rho (up, down):  1.466E-04 0.000E+00

     total cpu time spent up to now is      202.8 secs

     total energy              =   -1375.67822780 Ry
     estimated scf accuracy    <       0.38838328 Ry

     iteration #  6     ecut=   115.00 Ry     beta= 0.70
     Davidson diagonalization with overlap
     c_bands:  1 eigenvalues not converged
     c_bands:  1 eigenvalues not converged
     ethr =  4.68E-05,  avg # of iterations = 11.4

     negative rho (up, down):  1.733E-04 0.000E+00

     total cpu time spent up to now is      244.0 secs

     total energy              =   -1375.69968341 Ry
     estimated scf accuracy    <       0.00592946 Ry

     iteration #  7     ecut=   115.00 Ry     beta= 0.70
     Davidson diagonalization with overlap
     c_bands:  1 eigenvalues not converged
     ethr =  9.88E-06,  avg # of iterations =  6.3

     negative rho (up, down):  1.888E-04 0.000E+00

     total cpu time spent up to now is      281.1 secs

     total energy              =   -1375.70047451 Ry
     estimated scf accuracy    <       0.00021447 Ry

     iteration #  8     ecut=   115.00 Ry     beta= 0.70
     Davidson diagonalization with overlap
     ethr =  3.57E-07,  avg # of iterations =  6.8

     negative rho (up, down):  2.000E-04 0.000E+00

     total cpu time spent up to now is      319.9 secs

     total energy              =   -1375.70052159 Ry
     estimated scf accuracy    <       0.00001122 Ry

     iteration #  9     ecut=   115.00 Ry     beta= 0.70
     Davidson diagonalization with overlap
     ethr =  1.87E-08,  avg # of iterations =  3.4

     negative rho (up, down):  2.012E-04 0.000E+00

     total cpu time spent up to now is      353.0 secs

     total energy              =   -1375.70052316 Ry
     estimated scf accuracy    <       0.00000445 Ry

     iteration # 10     ecut=   115.00 Ry     beta= 0.70
     Davidson diagonalization with overlap
     ethr =  7.42E-09,  avg # of iterations =  2.0

     negative rho (up, down):  2.017E-04 0.000E+00

     total cpu time spent up to now is      385.6 secs

     total energy              =   -1375.70052359 Ry
     estimated scf accuracy    <       0.00000063 Ry

     iteration # 11     ecut=   115.00 Ry     beta= 0.70
     Davidson diagonalization with overlap
     ethr =  1.05E-09,  avg # of iterations =  2.8

     negative rho (up, down):  2.017E-04 0.000E+00

     total cpu time spent up to now is      419.9 secs

     total energy              =   -1375.70052372 Ry
     estimated scf accuracy    <       0.00000007 Ry

     iteration # 12     ecut=   115.00 Ry     beta= 0.70
     Davidson diagonalization with overlap
     ethr =  1.09E-10,  avg # of iterations =  2.3

     negative rho (up, down):  2.017E-04 0.000E+00

     total cpu time spent up to now is      449.9 secs

     total energy              =   -1375.70052372 Ry
     estimated scf accuracy    <       0.00000003 Ry

     iteration # 13     ecut=   115.00 Ry     beta= 0.70
     Davidson diagonalization with overlap
     ethr =  4.47E-11,  avg # of iterations =  2.0

     negative rho (up, down):  2.017E-04 0.000E+00

     total cpu time spent up to now is      479.2 secs

     total energy              =   -1375.70052372 Ry
     estimated scf accuracy    <          5.3E-09 Ry

     iteration # 14     ecut=   115.00 Ry     beta= 0.70
     Davidson diagonalization with overlap
     ethr =  8.86E-12,  avg # of iterations =  3.9

     negative rho (up, down):  2.017E-04 0.000E+00

     total cpu time spent up to now is      511.0 secs

     total energy              =   -1375.70052372 Ry
     estimated scf accuracy    <          2.1E-10 Ry

     iteration # 15     ecut=   115.00 Ry     beta= 0.70
     Davidson diagonalization with overlap
     ethr =  3.51E-13,  avg # of iterations =  3.8

     negative rho (up, down):  2.017E-04 0.000E+00

     total cpu time spent up to now is      543.1 secs

     total energy              =   -1375.70052372 Ry
     estimated scf accuracy    <          2.1E-10 Ry

     iteration # 16     ecut=   115.00 Ry     beta= 0.70
     Davidson diagonalization with overlap
     ethr =  3.45E-13,  avg # of iterations =  1.4

     negative rho (up, down):  2.017E-04 0.000E+00

     total cpu time spent up to now is      569.9 secs

     total energy              =   -1375.70052372 Ry
     estimated scf accuracy    <          6.4E-11 Ry

     iteration # 17     ecut=   115.00 Ry     beta= 0.70
     Davidson diagonalization with overlap
     ethr =  1.07E-13,  avg # of iterations =  2.4

     negative rho (up, down):  2.017E-04 0.000E+00

     total cpu time spent up to now is      599.2 secs

     total energy              =   -1375.70052372 Ry
     estimated scf accuracy    <          1.2E-12 Ry

     iteration # 18     ecut=   115.00 Ry     beta= 0.70
     Davidson diagonalization with overlap
     ethr =  1.00E-13,  avg # of iterations =  1.0

     negative rho (up, down):  2.017E-04 0.000E+00

     total cpu time spent up to now is      625.2 secs

     total energy              =   -1375.70052372 Ry
     estimated scf accuracy    <          1.2E-12 Ry

     iteration # 19     ecut=   115.00 Ry     beta= 0.70
     Davidson diagonalization with overlap
     ethr =  1.00E-13,  avg # of iterations =  1.0

     negative rho (up, down):  2.017E-04 0.000E+00

     total cpu time spent up to now is      651.2 secs

     End of self-consistent calculation

          k = 0.0000 0.0000 0.0000 ( 32045 PWs)   bands (ev):

   -67.6111 -67.5796 -34.5974 -34.1140 -33.6993 -33.6978 -33.6592 -33.6589
   -19.2568 -19.2427 -19.2236 -19.2231 -19.2229 -19.2228 -19.2018 -19.2017
   -19.2005 -19.1999 -19.1994 -19.1932 -19.1192 -19.1185 -12.8534  -8.3512
    -5.2552  -3.4730  -3.2167  -3.2018  -1.2335   0.3192   0.3391   2.4913
     2.5031   2.9051   2.9379   3.4862

          k = 0.0000 0.0945 0.0000 ( 32053 PWs)   bands (ev):

   -67.6066 -67.5760 -34.5825 -34.1128 -33.7582 -33.7164 -33.7159 -33.6684
   -19.2551 -19.2421 -19.2247 -19.2232 -19.2229 -19.2216 -19.2039 -19.2019
   -19.2007 -19.1998 -19.1959 -19.1899 -19.1227 -19.1220 -12.7140  -8.1326
    -5.3202  -3.5512  -3.3891  -3.1608  -1.0618  -0.0556   0.5494   1.8786
     2.1874   2.9296   3.3018   4.1832

          k = 0.0000 0.1890 0.0000 ( 31979 PWs)   bands (ev):

   -67.5942 -67.5663 -34.5423 -34.1166 -33.9138 -33.8668 -33.7607 -33.6966
   -19.2509 -19.2405 -19.2287 -19.2234 -19.2226 -19.2178 -19.2090 -19.2026
   -19.2021 -19.1982 -19.1862 -19.1810 -19.1317 -19.1312 -12.3441  -7.5538
    -5.4875  -4.0337  -3.4654  -3.0964  -1.0094  -0.4089   1.1331   1.3095
     2.0978   2.7897   3.6417   4.9244

          k = 0.0000 0.2836 0.0000 ( 31945 PWs)   bands (ev):

   -67.5769 -67.5533 -34.4926 -34.1943 -34.0669 -34.0417 -33.8184 -33.7373
   -19.2477 -19.2375 -19.2338 -19.2245 -19.2224 -19.2141 -19.2136 -19.2045
   -19.2016 -19.1954 -19.1729 -19.1687 -19.1438 -19.1426 -11.8707  -6.9309
    -5.6167  -4.4657  -3.5648  -3.1182  -1.6555   0.3111   1.1531   1.8929
     2.5014   2.6841   3.7582   5.5143

          k = 0.0001 0.3781 0.0000 ( 31891 PWs)   bands (ev):

   -67.5591 -67.5407 -34.4801 -34.3744 -34.2123 -34.0711 -33.8740 -33.7792
   -19.2481 -19.2383 -19.2332 -19.2264 -19.2257 -19.2140 -19.2124 -19.2053
   -19.1990 -19.1919 -19.1593 -19.1563 -19.1552 -19.1525 -11.4465  -6.8504
    -5.3723  -4.6853  -3.6249  -3.2348  -1.9187   1.1161   1.4873   2.0733
     2.6878   3.7807   3.9154   6.0505

          k = 0.0001 0.4726 0.0000 ( 31912 PWs)   bands (ev):

   -67.5454 -67.5321 -34.5603 -34.4954 -34.2406 -34.0839 -33.9138 -33.8102
   -19.2499 -19.2406 -19.2340 -19.2282 -19.2262 -19.2138 -19.2112 -19.2053
   -19.1956 -19.1891 -19.1631 -19.1588 -19.1490 -19.1471 -11.1756  -7.0608
    -5.1835  -4.7674  -3.4536  -3.3576  -1.8319   1.5215   1.7910   2.1378
     3.1446   4.3192   5.1289   6.1962

          k =-0.0001-0.5671 0.0000 ( 31890 PWs)   bands (ev):

   -67.5401 -67.5293 -34.6074 -34.5380 -34.2305 -34.0915 -33.9282 -33.8215
   -19.2508 -19.2411 -19.2358 -19.2290 -19.2255 -19.2146 -19.2095 -19.2054
   -19.1941 -19.1879 -19.1658 -19.1609 -19.1451 -19.1439 -11.0860  -7.1579
    -5.1757  -4.7936  -3.4077  -3.2812  -1.7697   1.4149   2.0583   2.3145
     3.2027   4.7969   5.7626   6.3424

          k = 0.0819 0.0473 0.0000 ( 32049 PWs)   bands (ev):

   -67.6066 -67.5760 -34.5824 -34.1129 -33.7593 -33.7160 -33.7153 -33.6686
   -19.2550 -19.2420 -19.2248 -19.2233 -19.2231 -19.2213 -19.2038 -19.2021
   -19.2013 -19.1992 -19.1959 -19.1900 -19.1227 -19.1220 -12.7138  -8.1323
    -5.3182  -3.5474  -3.3857  -3.1741  -1.0632  -0.0393   0.5331   1.8785
     2.1863   2.9617   3.2862   4.1697

          k = 0.0819 0.1418 0.0000 ( 32007 PWs)   bands (ev):

   -67.5981 -67.5693 -34.5548 -34.1135 -33.8557 -33.8331 -33.7358 -33.6968
   -19.2520 -19.2410 -19.2269 -19.2251 -19.2217 -19.2189 -19.2072 -19.2027
   -19.2020 -19.1985 -19.1893 -19.1838 -19.1289 -19.1284 -12.4588  -7.7280
    -5.4300  -3.8040  -3.6603  -2.9882  -0.7507  -0.6297   0.8721   1.6531
     1.8056   2.9992   3.5716   4.8256

          k = 0.0820 0.2363 0.0000 ( 31968 PWs)   bands (ev):

   -67.5832 -67.5580 -34.5089 -34.1402 -34.0117 -33.9916 -33.7955 -33.7404
   -19.2474 -19.2394 -19.2312 -19.2263 -19.2209 -19.2151 -19.2122 -19.2040
   -19.2022 -19.1966 -19.1778 -19.1732 -19.1394 -19.1390 -12.0359  -7.0697
    -5.5912  -4.3095  -3.8495  -2.7952  -1.3680  -0.1434   0.7433   1.9401
     2.2361   2.7776   3.9439   5.3203

          k = 0.0820 0.3308 0.0000 ( 31934 PWs)   bands (ev):

   -67.5657 -67.5452 -34.4711 -34.2834 -34.1624 -34.0645 -33.8652 -33.7885
   -19.2457 -19.2359 -19.2356 -19.2280 -19.2219 -19.2154 -19.2125 -19.2053
   -19.2000 -19.1939 -19.1644 -19.1609 -19.1513 -19.1498 -11.5867  -6.6420
    -5.5400  -4.6357  -4.0066  -2.8078  -1.8146   0.5097   0.8125   2.1930
     2.8453   3.4093   4.0766   5.9306

          k = 0.0820 0.4254 0.0000 ( 31903 PWs)   bands (ev):

   -67.5498 -67.5347 -34.5054 -34.4342 -34.2359 -34.0827 -33.9225 -33.8305
   -19.2472 -19.2391 -19.2332 -19.2282 -19.2253 -19.2144 -19.2126 -19.2054
   -19.1969 -19.1911 -19.1613 -19.1583 -19.1523 -19.1500 -11.2421  -6.7899
    -5.1713  -4.7571  -4.0133  -3.0094  -1.8176   0.8257   1.5701   2.0187
     3.6576   3.9487   4.7816   6.2964

          k = 0.0820 0.5199 0.0000 ( 31916 PWs)   bands (ev):

   -67.5401 -67.5293 -34.5783 -34.5109 -34.2280 -34.0978 -33.9540 -33.8550
   -19.2488 -19.2403 -19.2347 -19.2290 -19.2250 -19.2150 -19.2109 -19.2053
   -19.1949 -19.1892 -19.1667 -19.1625 -19.1453 -19.1439 -11.0657  -6.9724
    -5.0882  -4.7605  -3.7751  -3.2369  -1.6603   1.1839   1.6762   2.2606
     3.9725   4.4361   5.7494   6.2757

          k = 0.0818-0.5199 0.0000 ( 31908 PWs)   bands (ev):

   -67.5401 -67.5293 -34.5781 -34.5107 -34.2281 -34.0978 -33.9541 -33.8550
   -19.2488 -19.2403 -19.2346 -19.2290 -19.2250 -19.2150 -19.2110 -19.2053
   -19.1949 -19.1892 -19.1667 -19.1625 -19.1453 -19.1439 -11.0659  -6.9721
    -5.0881  -4.7603  -3.7713  -3.2413  -1.6596   1.1845   1.6762   2.2611
     3.9714   4.4367   5.7492   6.2758

          k = 0.0818-0.4253 0.0000 ( 31909 PWs)   bands (ev):

   -67.5498 -67.5348 -34.5050 -34.4338 -34.2358 -34.0828 -33.9228 -33.8306
   -19.2472 -19.2391 -19.2330 -19.2283 -19.2255 -19.2142 -19.2130 -19.2054
   -19.1968 -19.1911 -19.1613 -19.1583 -19.1523 -19.1500 -11.2426  -6.7893
    -5.1722  -4.7557  -4.0083  -3.0152  -1.8165   0.8264   1.5739   2.0166
     3.6532   3.9481   4.7804   6.2945

          k = 0.0819-0.3308 0.0000 ( 31928 PWs)   bands (ev):

   -67.5657 -67.5452 -34.4711 -34.2827 -34.1618 -34.0645 -33.8658 -33.7886
   -19.2457 -19.2359 -19.2356 -19.2280 -19.2219 -19.2155 -19.2128 -19.2052
   -19.1999 -19.1939 -19.1644 -19.1609 -19.1514 -19.1498 -11.5872  -6.6418
    -5.5415  -4.6333  -4.0026  -2.8109  -1.8144   0.5068   0.8187   2.1918
     2.8391   3.4074   4.0756   5.9329

          k = 0.0819-0.2363 0.0000 ( 31972 PWs)   bands (ev):

   -67.5833 -67.5580 -34.5090 -34.1397 -34.0116 -33.9908 -33.7961 -33.7406
   -19.2474 -19.2394 -19.2312 -19.2262 -19.2208 -19.2154 -19.2123 -19.2038
   -19.2021 -19.1967 -19.1778 -19.1732 -19.1394 -19.1390 -12.0364  -7.0700
    -5.5931  -4.3071  -3.8469  -2.7937  -1.3698  -0.1416   0.7404   1.9407
     2.2377   2.7719   3.9395   5.3248

          k = 0.0819-0.1418 0.0000 ( 31997 PWs)   bands (ev):

   -67.5981 -67.5693 -34.5549 -34.1134 -33.8549 -33.8328 -33.7365 -33.6969
   -19.2520 -19.2410 -19.2269 -19.2249 -19.2215 -19.2192 -19.2072 -19.2025
   -19.2017 -19.1988 -19.1893 -19.1838 -19.1289 -19.1284 -12.4591  -7.7284
    -5.4319  -3.8044  -3.6584  -2.9834  -0.7494  -0.6345   0.8746   1.6475
     1.8097   2.9960   3.5654   4.8337

          k = 0.0819-0.0472 0.0000 ( 32051 PWs)   bands (ev):

   -67.6066 -67.5760 -34.5825 -34.1129 -33.7587 -33.7161 -33.7156 -33.6686
   -19.2551 -19.2420 -19.2248 -19.2232 -19.2230 -19.2215 -19.2039 -19.2020
   -19.2010 -19.1995 -19.1959 -19.1900 -19.1227 -19.1220 -12.7139  -8.1325
    -5.3190  -3.5491  -3.3873  -3.1682  -1.0627  -0.0467   0.5406   1.8785
     2.1870   2.9478   3.2924   4.1759

          k = 0.1638 0.0946 0.0000 ( 31981 PWs)   bands (ev):

   -67.5941 -67.5662 -34.5420 -34.1170 -33.9150 -33.8672 -33.7602 -33.6967
   -19.2507 -19.2405 -19.2288 -19.2232 -19.2232 -19.2174 -19.2088 -19.2033
   -19.2023 -19.1977 -19.1863 -19.1811 -19.1317 -19.1312 -12.3433  -7.5528
    -5.4799  -4.0350  -3.4706  -3.1113  -1.0097  -0.3975   1.1204   1.3210
     2.0943   2.8192   3.6308   4.9172

          k = 0.1639 0.1891 0.0000 ( 31966 PWs)   bands (ev):

   -67.5832 -67.5580 -34.5087 -34.1405 -34.0128 -33.9910 -33.7957 -33.7405
   -19.2471 -19.2396 -19.2313 -19.2263 -19.2211 -19.2149 -19.2121 -19.2043
   -19.2024 -19.1964 -19.1778 -19.1732 -19.1395 -19.1389 -12.0354  -7.0687
    -5.5855  -4.3128  -3.8544  -2.8033  -1.3675  -0.1384   0.7505   1.9365
     2.2375   2.7862   3.9414   5.3161

          k = 0.1639 0.2836 0.0000 ( 31961 PWs)   bands (ev):

   -67.5680 -67.5469 -34.4709 -34.2272 -34.1483 -34.0559 -33.8612 -33.8162
   -19.2416 -19.2393 -19.2338 -19.2298 -19.2204 -19.2153 -19.2135 -19.2054
   -19.2002 -19.1949 -19.1663 -19.1626 -19.1498 -19.1495 -11.6354  -6.4256
    -5.6908  -4.6303  -4.2213  -2.5253  -1.6909   0.0603   0.4336   2.2171
     3.0402   3.2024   4.4840   5.7282

          k = 0.1639 0.3781 0.0000 ( 31950 PWs)   bands (ev):

   -67.5522 -67.5363 -34.4661 -34.3530 -34.2295 -34.0823 -33.9452 -33.8864
   -19.2417 -19.2362 -19.2353 -19.2304 -19.2227 -19.2158 -19.2137 -19.2058
   -19.1969 -19.1937 -19.1607 -19.1596 -19.1542 -19.1516 -11.2680  -6.2104
    -5.4668  -4.8017  -4.3837  -2.6464  -1.6844  -0.1879   1.2091   2.1693
     3.6377   4.2114   4.8797   6.3376

          k = 0.1639 0.4726 0.0000 ( 31892 PWs)   bands (ev):

   -67.5400 -67.5293 -34.5109 -34.4431 -34.2275 -34.1176 -34.0034 -33.9353
   -19.2440 -19.2373 -19.2341 -19.2277 -19.2248 -19.2162 -19.2137 -19.2051
   -19.1959 -19.1923 -19.1683 -19.1659 -19.1455 -19.1440 -11.0245  -6.4524
    -4.9285  -4.8666  -4.4039  -3.0261  -1.4539   0.0243   1.9794   2.3104
     3.8264   4.5342   5.4227   6.3565

          k = 0.1639 0.5672 0.0000 ( 31892 PWs)   bands (ev):

   -67.5351 -67.5271 -34.5380 -34.4722 -34.2096 -34.1445 -34.0196 -33.9535
   -19.2450 -19.2376 -19.2328 -19.2301 -19.2230 -19.2168 -19.2131 -19.2048
   -19.1960 -19.1916 -19.1712 -19.1681 -19.1422 -19.1413 -10.9415  -6.5626
    -4.8977  -4.7268  -4.3086  -3.2767  -1.3143   0.2280   2.2185   2.4620
     4.0579   4.4468   5.5831   6.1199

          k = 0.1638-0.4726 0.0000 ( 31903 PWs)   bands (ev):

   -67.5400 -67.5293 -34.5102 -34.4425 -34.2274 -34.1180 -34.0039 -33.9352
   -19.2439 -19.2373 -19.2338 -19.2279 -19.2250 -19.2162 -19.2139 -19.2050
   -19.1958 -19.1923 -19.1684 -19.1659 -19.1455 -19.1440 -11.0252  -6.4513
    -4.9315  -4.8635  -4.3989  -3.0311  -1.4527   0.0250   1.9834   2.3070
     3.8287   4.5244   5.4240   6.3572

          k = 0.1638-0.3781 0.0000 ( 31946 PWs)   bands (ev):

   -67.5523 -67.5363 -34.4655 -34.3517 -34.2293 -34.0825 -33.9461 -33.8865
   -19.2416 -19.2362 -19.2351 -19.2307 -19.2228 -19.2158 -19.2141 -19.2056
   -19.1967 -19.1937 -19.1607 -19.1596 -19.1542 -19.1516 -11.2690  -6.2093
    -5.4694  -4.7975  -4.3789  -2.6512  -1.6822  -0.1899   1.2147   2.1642
     3.6360   4.2043   4.8750   6.3412

          k = 0.1638-0.2835 0.0000 ( 31961 PWs)   bands (ev):

   -67.5681 -67.5469 -34.4709 -34.2258 -34.1478 -34.0558 -33.8620 -33.8165
   -19.2417 -19.2392 -19.2337 -19.2298 -19.2202 -19.2155 -19.2139 -19.2051
   -19.2000 -19.1950 -19.1662 -19.1625 -19.1498 -19.1495 -11.6364  -6.4263
    -5.6938  -4.6252  -4.2165  -2.5247  -1.6906   0.0525   0.4396   2.2139
     3.0346   3.2003   4.4772   5.7370

          k = 0.1638-0.1890 0.0000 ( 31970 PWs)   bands (ev):

   -67.5832 -67.5580 -34.5089 -34.1399 -34.0118 -33.9906 -33.7962 -33.7407
   -19.2472 -19.2395 -19.2312 -19.2262 -19.2209 -19.2153 -19.2123 -19.2039
   -19.2021 -19.1966 -19.1778 -19.1732 -19.1394 -19.1389 -12.0361  -7.0696
    -5.5897  -4.3091  -3.8496  -2.7982  -1.3695  -0.1388   0.7443   1.9388
     2.2384   2.7768   3.9377   5.3225

          k = 0.1638-0.0945 0.0000 ( 31978 PWs)   bands (ev):

   -67.5941 -67.5663 -34.5422 -34.1169 -33.9142 -33.8670 -33.7605 -33.6968
   -19.2508 -19.2405 -19.2288 -19.2233 -19.2229 -19.2176 -19.2090 -19.2029
   -19.2022 -19.1980 -19.1862 -19.1810 -19.1317 -19.1312 -12.3437  -7.5534
    -5.4830  -4.0345  -3.4681  -3.1049  -1.0097  -0.4024   1.1262   1.3159
     2.0959   2.8063   3.6349   4.9203

          k = 0.1638 0.0000 0.0000 ( 31997 PWs)   bands (ev):

   -67.5981 -67.5693 -34.5547 -34.1137 -33.8566 -33.8332 -33.7352 -33.6968
   -19.2519 -19.2409 -19.2270 -19.2251 -19.2217 -19.2188 -19.2072 -19.2029
   -19.2021 -19.1983 -19.1893 -19.1839 -19.1289 -19.1284 -12.4585  -7.7277
    -5.4272  -3.8037  -3.6625  -2.9945  -0.7524  -0.6241   0.8693   1.6610
     1.8002   3.0023   3.5794   4.8153

          k = 0.2458 0.1418 0.0000 ( 31933 PWs)   bands (ev):

   -67.5767 -67.5532 -34.4922 -34.1955 -34.0686 -34.0415 -33.8183 -33.7376
   -19.2471 -19.2376 -19.2340 -19.2242 -19.2230 -19.2141 -19.2131 -19.2052
   -19.2019 -19.1950 -19.1729 -19.1687 -19.1438 -19.1424 -11.8692  -6.9281
    -5.6050  -4.4760  -3.5744  -3.1350  -1.6536   0.3208   1.1719   1.8879
     2.5279   2.6772   3.7507   5.5066

          k = 0.2458 0.2363 0.0000 ( 31941 PWs)   bands (ev):

   -67.5655 -67.5452 -34.4710 -34.2842 -34.1627 -34.0648 -33.8657 -33.7887
   -19.2452 -19.2363 -19.2353 -19.2279 -19.2222 -19.2154 -19.2125 -19.2058
   -19.2002 -19.1937 -19.1644 -19.1609 -19.1514 -19.1497 -11.5854  -6.6373
    -5.5338  -4.6443  -4.0132  -2.8242  -1.8132   0.5273   0.8213   2.2032
     2.8457   3.4036   4.0785   5.9215

          k = 0.2458 0.3309 0.0000 ( 31942 PWs)   bands (ev):

   -67.5521 -67.5363 -34.4663 -34.3536 -34.2292 -34.0824 -33.9459 -33.8862
   -19.2418 -19.2360 -19.2348 -19.2308 -19.2228 -19.2155 -19.2141 -19.2061
   -19.1970 -19.1936 -19.1608 -19.1594 -19.1542 -19.1516 -11.2672  -6.2043
    -5.4717  -4.8030  -4.3865  -2.6560  -1.6847  -0.1766   1.2141   2.1737
     3.6377   4.2090   4.8824   6.3324

          k = 0.2458 0.4254 0.0000 ( 31904 PWs)   bands (ev):

   -67.5399 -67.5293 -34.4728 -34.3884 -34.2496 -34.1157 -34.0345 -33.9846
   -19.2414 -19.2351 -19.2312 -19.2303 -19.2252 -19.2167 -19.2152 -19.2050
   -19.1954 -19.1949 -19.1688 -19.1679 -19.1457 -19.1440 -11.0031  -5.7685
    -5.6049  -4.7462  -4.5333  -2.8586  -1.2603  -0.5970   1.9001   2.4535
     3.6695   4.5716   5.2452   6.6381

          k = 0.2458 0.5199 0.0000 ( 31894 PWs)   bands (ev):

   -67.5318 -67.5262 -34.4640 -34.3992 -34.2521 -34.1838 -34.0667 -34.0419
   -19.2423 -19.2325 -19.2311 -19.2288 -19.2234 -19.2189 -19.2165 -19.2031
   -19.1972 -19.1951 -19.1738 -19.1726 -19.1405 -19.1398 -10.8557  -5.9402
    -5.1448  -4.7281  -4.6209  -3.1527  -0.9461  -0.4720   2.5591   2.7674
     3.5029   4.1694   5.1623   6.3210

          k = 0.2459 0.6144 0.0000 ( 31885 PWs)   bands (ev):

   -67.5319 -67.5262 -34.4632 -34.3985 -34.2522 -34.1845 -34.0679 -34.0409
   -19.2422 -19.2323 -19.2311 -19.2289 -19.2237 -19.2190 -19.2165 -19.2031
   -19.1972 -19.1950 -19.1739 -19.1726 -19.1406 -19.1398 -10.8562  -5.9390
    -5.1448  -4.7281  -4.6188  -3.1543  -0.9457  -0.4719   2.5621   2.7633
     3.5067   4.1615   5.1628   6.3212

          k = 0.2457-0.4253 0.0000 ( 31906 PWs)   bands (ev):

   -67.5400 -67.5293 -34.4716 -34.3866 -34.2502 -34.1163 -34.0355 -33.9843
   -19.2410 -19.2349 -19.2312 -19.2307 -19.2253 -19.2169 -19.2152 -19.2048
   -19.1955 -19.1947 -19.1688 -19.1679 -19.1457 -19.1440 -11.0043  -5.7665
    -5.6053  -4.7441  -4.5292  -2.8613  -1.2576  -0.6002   1.9036   2.4471
     3.6723   4.5584   5.2450   6.6347

          k = 0.2457-0.3308 0.0000 ( 31944 PWs)   bands (ev):

   -67.5523 -67.5363 -34.4656 -34.3519 -34.2292 -34.0825 -33.9465 -33.8865
   -19.2415 -19.2361 -19.2349 -19.2309 -19.2228 -19.2156 -19.2143 -19.2058
   -19.1968 -19.1936 -19.1607 -19.1595 -19.1542 -19.1516 -11.2686  -6.2064
    -5.4718  -4.7981  -4.3807  -2.6562  -1.6823  -0.1838   1.2173   2.1665
     3.6360   4.2029   4.8766   6.3381

          k = 0.2457-0.2363 0.0000 ( 31939 PWs)   bands (ev):

   -67.5656 -67.5452 -34.4710 -34.2831 -34.1620 -34.0646 -33.8661 -33.7889
   -19.2453 -19.2360 -19.2355 -19.2279 -19.2221 -19.2155 -19.2128 -19.2054
   -19.2000 -19.1938 -19.1644 -19.1609 -19.1514 -19.1497 -11.5865  -6.6396
    -5.5377  -4.6381  -4.0062  -2.8199  -1.8133   0.5167   0.8232   2.1974
     2.8393   3.4042   4.0765   5.9279

          k = 0.2457-0.1417 0.0000 ( 31939 PWs)   bands (ev):

   -67.5768 -67.5532 -34.4924 -34.1951 -34.0676 -34.0417 -33.8184 -33.7376
   -19.2473 -19.2376 -19.2340 -19.2243 -19.2226 -19.2142 -19.2134 -19.2048
   -19.2017 -19.1952 -19.1729 -19.1687 -19.1438 -19.1425 -11.8699  -6.9298
    -5.6098  -4.4715  -3.5697  -3.1278  -1.6543   0.3166   1.1633   1.8903
     2.5162   2.6802   3.7535   5.5101

          k = 0.2457-0.0472 0.0000 ( 31970 PWs)   bands (ev):

   -67.5831 -67.5579 -34.5087 -34.1411 -34.0122 -33.9922 -33.7950 -33.7404
   -19.2471 -19.2394 -19.2314 -19.2263 -19.2210 -19.2149 -19.2123 -19.2042
   -19.2023 -19.1964 -19.1778 -19.1733 -19.1394 -19.1390 -12.0351  -7.0690
    -5.5852  -4.3146  -3.8549  -2.8021  -1.3654  -0.1434   0.7514   1.9375
     2.2356   2.7891   3.9477   5.3119

          k = 0.2458 0.0473 0.0000 ( 31964 PWs)   bands (ev):

   -67.5831 -67.5579 -34.5086 -34.1411 -34.0130 -33.9917 -33.7950 -33.7404
   -19.2470 -19.2395 -19.2314 -19.2263 -19.2211 -19.2148 -19.2122 -19.2044
   -19.2024 -19.1963 -19.1778 -19.1733 -19.1394 -19.1389 -12.0349  -7.0684
    -5.5829  -4.3161  -3.8571  -2.8057  -1.3652  -0.1412   0.7547   1.9359
     2.2363   2.7927   3.9470   5.3099

          k = 0.3277 0.1891 0.0000 ( 31885 PWs)   bands (ev):

   -67.5588 -67.5406 -34.4807 -34.3760 -34.2119 -34.0721 -33.8743 -33.7796
   -19.2478 -19.2383 -19.2328 -19.2263 -19.2260 -19.2144 -19.2122 -19.2061
   -19.1991 -19.1917 -19.1593 -19.1563 -19.1552 -19.1522 -11.4440  -6.8450
    -5.3637  -4.6983  -3.6368  -3.2529  -1.9168   1.1357   1.5049   2.0954
     2.6843   3.7779   3.9100   6.0423

          k = 0.3277 0.2836 0.0000 ( 31905 PWs)   bands (ev):

   -67.5495 -67.5347 -34.5065 -34.4357 -34.2343 -34.0838 -33.9232 -33.8309
   -19.2471 -19.2389 -19.2325 -19.2282 -19.2257 -19.2143 -19.2131 -19.2061
   -19.1968 -19.1909 -19.1613 -19.1580 -19.1523 -19.1500 -11.2398  -6.7847
    -5.1668  -4.7681  -4.0204  -3.0288  -1.8153   0.8492   1.5806   2.0327
     3.6561   3.9491   4.7812   6.2853

          k = 0.3277 0.3781 0.0000 ( 31907 PWs)   bands (ev):

   -67.5397 -67.5293 -34.5120 -34.4447 -34.2256 -34.1180 -34.0048 -33.9350
   -19.2445 -19.2366 -19.2335 -19.2276 -19.2253 -19.2160 -19.2143 -19.2056
   -19.1960 -19.1922 -19.1684 -19.1656 -19.1455 -19.1440 -11.0226  -6.4490
    -4.9350  -4.8687  -4.4063  -3.0381  -1.4545   0.0393   1.9900   2.3204
     3.8282   4.5296   5.4239   6.3668

          k = 0.3277 0.4727 0.0000 ( 31889 PWs)   bands (ev):

   -67.5316 -67.5263 -34.4652 -34.4006 -34.2513 -34.1822 -34.0682 -34.0413
   -19.2427 -19.2323 -19.2303 -19.2287 -19.2240 -19.2188 -19.2168 -19.2034
   -19.1974 -19.1949 -19.1739 -19.1724 -19.1405 -19.1398 -10.8545  -5.9397
    -5.1489  -4.7331  -4.6174  -3.1569  -0.9496  -0.4638   2.5680   2.7723
     3.5018   4.1693   5.1609   6.3242

          k = 0.3278 0.5672 0.0000 ( 31884 PWs)   bands (ev):

   -67.5270 -67.5268 -34.3855 -34.3447 -34.3439 -34.2328 -34.0832 -34.0807
   -19.2420 -19.2302 -19.2302 -19.2236 -19.2233 -19.2217 -19.2206 -19.2000
   -19.1984 -19.1981 -19.1756 -19.1756 -19.1385 -19.1385 -10.7909  -5.4413
    -5.4375  -4.9156  -4.5616  -3.1835  -0.6389  -0.6335   2.9577   2.9592
     3.4958   3.5034   4.8873   6.6299

          k = 0.3278 0.6617 0.0000 ( 31889 PWs)   bands (ev):

   -67.5318 -67.5262 -34.4640 -34.3990 -34.2519 -34.1837 -34.0685 -34.0407
   -19.2424 -19.2322 -19.2307 -19.2289 -19.2240 -19.2190 -19.2166 -19.2032
   -19.1974 -19.1948 -19.1739 -19.1725 -19.1405 -19.1398 -10.8555  -5.9390
    -5.1470  -4.7306  -4.6173  -3.1563  -0.9476  -0.4675   2.5670   2.7657
     3.5060   4.1618   5.1621   6.3214

          k = 0.3276-0.3780 0.0000 ( 31905 PWs)   bands (ev):

   -67.5399 -67.5293 -34.5110 -34.4430 -34.2266 -34.1181 -34.0047 -33.9352
   -19.2441 -19.2370 -19.2335 -19.2279 -19.2253 -19.2162 -19.2142 -19.2053
   -19.1959 -19.1921 -19.1683 -19.1657 -19.1455 -19.1440 -11.0241  -6.4498
    -4.9350  -4.8646  -4.4006  -3.0371  -1.4528   0.0330   1.9889   2.3124
     3.8299   4.5219   5.4246   6.3619

          k = 0.3276-0.2835 0.0000 ( 31907 PWs)   bands (ev):

   -67.5497 -67.5347 -34.5057 -34.4343 -34.2351 -34.0833 -33.9233 -33.8309
   -19.2470 -19.2390 -19.2327 -19.2282 -19.2257 -19.2142 -19.2133 -19.2057
   -19.1968 -19.1910 -19.1613 -19.1581 -19.1523 -19.1500 -11.2413  -6.7869
    -5.1696  -4.7619  -4.0122  -3.0254  -1.8148   0.8393   1.5791   2.0243
     3.6522   3.9485   4.7801   6.2874

          k = 0.3276-0.1890 0.0000 ( 31889 PWs)   bands (ev):

   -67.5589 -67.5407 -34.4804 -34.3751 -34.2122 -34.0716 -33.8742 -33.7795
   -19.2479 -19.2384 -19.2330 -19.2263 -19.2259 -19.2143 -19.2123 -19.2057
   -19.1990 -19.1918 -19.1593 -19.1563 -19.1551 -19.1523 -11.4451  -6.8480
    -5.3673  -4.6927  -3.6309  -3.2452  -1.9173   1.1272   1.4963   2.0856
     2.6858   3.7792   3.9122   6.0452

          k = 0.3276-0.0945 0.0000 ( 31926 PWs)   bands (ev):

   -67.5655 -67.5452 -34.4711 -34.2846 -34.1629 -34.0646 -33.8650 -33.7885
   -19.2454 -19.2361 -19.2355 -19.2280 -19.2219 -19.2154 -19.2124 -19.2056
   -19.2002 -19.1938 -19.1644 -19.1609 -19.1513 -19.1497 -11.5853  -6.6402
    -5.5344  -4.6437  -4.0144  -2.8138  -1.8141   0.5232   0.8092   2.2006
     2.8535   3.4090   4.0779   5.9227

          k = 0.3277 0.0001 0.0000 ( 31965 PWs)   bands (ev):

   -67.5679 -67.5468 -34.4708 -34.2290 -34.1486 -34.0561 -33.8604 -33.8159
   -19.2413 -19.2394 -19.2340 -19.2297 -19.2204 -19.2152 -19.2133 -19.2056
   -19.2004 -19.1948 -19.1663 -19.1626 -19.1497 -19.1495 -11.6342  -6.4251
    -5.6869  -4.6370  -4.2265  -2.5268  -1.6912   0.0702   0.4255   2.2216
     3.0472   3.2061   4.4920   5.7168

          k = 0.3277 0.0946 0.0000 ( 31945 PWs)   bands (ev):

   -67.5654 -67.5452 -34.4711 -34.2850 -34.1630 -34.0649 -33.8652 -33.7885
   -19.2452 -19.2363 -19.2353 -19.2280 -19.2220 -19.2154 -19.2124 -19.2059
   -19.2003 -19.1937 -19.1644 -19.1609 -19.1513 -19.1497 -11.5847  -6.6376
    -5.5320  -4.6474  -4.0174  -2.8213  -1.8137   0.5309   0.8135   2.2052
     2.8537   3.4065   4.0790   5.9186

          k = 0.4096 0.2364 0.0000 ( 31912 PWs)   bands (ev):

   -67.5450 -67.5321 -34.5621 -34.4977 -34.2376 -34.0860 -33.9144 -33.8108
   -19.2499 -19.2404 -19.2335 -19.2279 -19.2264 -19.2137 -19.2119 -19.2061
   -19.1955 -19.1890 -19.1630 -19.1584 -19.1490 -19.1472 -11.1722  -7.0571
    -5.1785  -4.7802  -3.4645  -3.3763  -1.8287   1.5320   1.8285   2.1536
     3.1355   4.3229   5.1299   6.1876

          k = 0.4096 0.3309 0.0000 ( 31901 PWs)   bands (ev):

   -67.5396 -67.5293 -34.5800 -34.5132 -34.2245 -34.1001 -33.9548 -33.8554
   -19.2490 -19.2398 -19.2343 -19.2287 -19.2250 -19.2149 -19.2116 -19.2061
   -19.1949 -19.1891 -19.1667 -19.1621 -19.1452 -19.1439 -11.0624  -6.9697
    -5.0856  -4.7721  -3.7844  -3.2519  -1.6581   1.2048   1.6865   2.2805
     3.9741   4.4369   5.7564   6.2744

          k = 0.4097 0.4254 0.0000 ( 31892 PWs)   bands (ev):

   -67.5346 -67.5272 -34.5400 -34.4747 -34.2060 -34.1456 -34.0210 -33.9532
   -19.2456 -19.2367 -19.2328 -19.2298 -19.2229 -19.2167 -19.2137 -19.2055
   -19.1961 -19.1915 -19.1711 -19.1678 -19.1422 -19.1413 -10.9383  -6.5620
    -4.8996  -4.7361  -4.3135  -3.2839  -1.3159   0.2412   2.2281   2.4793
     4.0529   4.4556   5.5791   6.1269

          k = 0.4097 0.5199 0.0000 ( 31898 PWs)   bands (ev):

   -67.5315 -67.5263 -34.4660 -34.4015 -34.2503 -34.1821 -34.0675 -34.0417
   -19.2428 -19.2326 -19.2303 -19.2286 -19.2237 -19.2187 -19.2170 -19.2035
   -19.1973 -19.1950 -19.1739 -19.1724 -19.1405 -19.1398 -10.8538  -5.9415
    -5.1488  -4.7337  -4.6195  -3.1550  -0.9505  -0.4640   2.5639   2.7783
     3.4968   4.1785   5.1615   6.3245

          k = 0.4097 0.6145 0.0000 ( 31890 PWs)   bands (ev):

   -67.5316 -67.5263 -34.4656 -34.4006 -34.2509 -34.1828 -34.0667 -34.0422
   -19.2426 -19.2327 -19.2306 -19.2286 -19.2234 -19.2188 -19.2168 -19.2033
   -19.1972 -19.1951 -19.1738 -19.1725 -19.1405 -19.1398 -10.8543  -5.9419
    -5.1468  -4.7312  -4.6214  -3.1528  -0.9489  -0.4678   2.5599   2.7759
     3.4972   4.1789   5.1622   6.3239

          k = 0.4097 0.7090 0.0000 ( 31892 PWs)   bands (ev):

   -67.5348 -67.5272 -34.5392 -34.4732 -34.2078 -34.1451 -34.0204 -33.9535
   -19.2452 -19.2372 -19.2328 -19.2299 -19.2230 -19.2168 -19.2135 -19.2052
   -19.1961 -19.1915 -19.1711 -19.1679 -19.1422 -19.1413 -10.9396  -6.5628
    -4.8985  -4.7322  -4.3117  -3.2799  -1.3149   0.2350   2.2232   2.4716
     4.0548   4.4520   5.5811   6.1231

          k = 0.4095-0.3308 0.0000 ( 31905 PWs)   bands (ev):

   -67.5398 -67.5293 -34.5792 -34.5117 -34.2263 -34.0990 -33.9546 -33.8553
   -19.2488 -19.2401 -19.2344 -19.2289 -19.2250 -19.2150 -19.2114 -19.2057
   -19.1949 -19.1891 -19.1667 -19.1623 -19.1452 -19.1439 -11.0640  -6.9712
    -5.0865  -4.7670  -3.7768  -3.2486  -1.6580   1.1957   1.6812   2.2721
     3.9720   4.4372   5.7531   6.2745

          k = 0.4095-0.2362 0.0000 ( 31916 PWs)   bands (ev):

   -67.5451 -67.5321 -34.5614 -34.4963 -34.2391 -34.0850 -33.9142 -33.8106
   -19.2498 -19.2406 -19.2338 -19.2281 -19.2263 -19.2138 -19.2116 -19.2057
   -19.1956 -19.1890 -19.1630 -19.1586 -19.1490 -19.1471 -11.1736  -7.0593
    -5.1807  -4.7747  -3.4589  -3.3681  -1.8296   1.5265   1.8121   2.1461
     3.1390   4.3214   5.1295   6.1907

          k = 0.4096-0.1417 0.0000 ( 31895 PWs)   bands (ev):

   -67.5496 -67.5347 -34.5065 -34.4352 -34.2351 -34.0833 -33.9226 -33.8307
   -19.2471 -19.2391 -19.2331 -19.2281 -19.2253 -19.2144 -19.2127 -19.2058
   -19.1970 -19.1910 -19.1613 -19.1581 -19.1523 -19.1500 -11.2401  -6.7883
    -5.1676  -4.7651  -4.0226  -3.0139  -1.8175   0.8377   1.5703   2.0299
     3.6617   3.9493   4.7834   6.2920

          k = 0.4096-0.0472 0.0000 ( 31944 PWs)   bands (ev):

   -67.5521 -67.5363 -34.4669 -34.3548 -34.2292 -34.0824 -33.9448 -33.8861
   -19.2418 -19.2363 -19.2352 -19.2303 -19.2227 -19.2158 -19.2136 -19.2061
   -19.1972 -19.1937 -19.1607 -19.1595 -19.1542 -19.1516 -11.2662  -6.2088
    -5.4666  -4.8076  -4.3906  -2.6464  -1.6878  -0.1793   1.2042   2.1792
     3.6396   4.2190   4.8871   6.3302

          k = 0.4096 0.0473 0.0000 ( 31948 PWs)   bands (ev):

   -67.5520 -67.5363 -34.4670 -34.3552 -34.2289 -34.0825 -33.9452 -33.8859
   -19.2419 -19.2361 -19.2349 -19.2306 -19.2227 -19.2156 -19.2138 -19.2062
   -19.1972 -19.1936 -19.1607 -19.1594 -19.1542 -19.1516 -11.2658  -6.2057
    -5.4691  -4.8081  -4.3917  -2.6509  -1.6881  -0.1741   1.2065   2.1813
     3.6396   4.2180   4.8883   6.3281

          k = 0.4096 0.1419 0.0000 ( 31896 PWs)   bands (ev):

   -67.5494 -67.5347 -34.5069 -34.4362 -34.2342 -34.0839 -33.9229 -33.8307
   -19.2472 -19.2389 -19.2328 -19.2281 -19.2255 -19.2143 -19.2129 -19.2062
   -19.1969 -19.1910 -19.1613 -19.1580 -19.1523 -19.1500 -11.2391  -6.7855
    -5.1657  -4.7699  -4.0257  -3.0230  -1.8168   0.8482   1.5757   2.0361
     3.6613   3.9494   4.7833   6.2884

          k =-0.4915-0.2837 0.0000 ( 31914 PWs)   bands (ev):

   -67.5395 -67.5293 -34.6093 -34.5406 -34.2264 -34.0944 -33.9289 -33.8222
   -19.2509 -19.2407 -19.2354 -19.2287 -19.2255 -19.2146 -19.2103 -19.2063
   -19.1940 -19.1878 -19.1658 -19.1605 -19.1451 -19.1439 -11.0822  -7.1553
    -5.1724  -4.8059  -3.4266  -3.2911  -1.7656   1.4259   2.0951   2.3331
     3.1927   4.7991   5.7717   6.3350

          k =-0.4915-0.1891 0.0000 ( 31899 PWs)   bands (ev):

   -67.5396 -67.5293 -34.5802 -34.5134 -34.2243 -34.1002 -33.9546 -33.8553
   -19.2490 -19.2398 -19.2344 -19.2286 -19.2250 -19.2149 -19.2116 -19.2061
   -19.1949 -19.1891 -19.1667 -19.1621 -19.1452 -19.1439 -11.0621  -6.9701
    -5.0857  -4.7723  -3.7882  -3.2475  -1.6589   1.2040   1.6867   2.2798
     3.9752   4.4358   5.7569   6.2753

          k =-0.4915-0.0946 0.0000 ( 31898 PWs)   bands (ev):

   -67.5396 -67.5293 -34.5128 -34.4456 -34.2250 -34.1181 -34.0044 -33.9349
   -19.2446 -19.2366 -19.2339 -19.2273 -19.2251 -19.2160 -19.2142 -19.2057
   -19.1960 -19.1922 -19.1683 -19.1656 -19.1455 -19.1440 -11.0216  -6.4505
    -4.9317  -4.8723  -4.4117  -3.0327  -1.4564   0.0383   1.9846   2.3255
     3.8247   4.5409   5.4237   6.3671

          k =-0.4915-0.0001 0.0000 ( 31888 PWs)   bands (ev):

   -67.5397 -67.5293 -34.4741 -34.3905 -34.2481 -34.1156 -34.0339 -33.9845
   -19.2416 -19.2353 -19.2308 -19.2302 -19.2251 -19.2164 -19.2153 -19.2052
   -19.1954 -19.1951 -19.1687 -19.1679 -19.1457 -19.1440 -11.0014  -5.7718
    -5.6043  -4.7483  -4.5384  -2.8552  -1.2646  -0.5930   1.8949   2.4626
     3.6656   4.5872   5.2473   6.6428

          k =-0.4915 0.0944 0.0000 ( 31896 PWs)   bands (ev):

   -67.5397 -67.5293 -34.5124 -34.4446 -34.2261 -34.1178 -34.0037 -33.9351
   -19.2442 -19.2370 -19.2342 -19.2274 -19.2249 -19.2162 -19.2139 -19.2054
   -19.1960 -19.1923 -19.1683 -19.1657 -19.1455 -19.1440 -11.0224  -6.4524
    -4.9287  -4.8714  -4.4110  -3.0268  -1.4558   0.0314   1.9795   2.3209
     3.8241   4.5430   5.4231   6.3616

          k =-0.4915 0.1890 0.0000 ( 31900 PWs)   bands (ev):

   -67.5398 -67.5293 -34.5796 -34.5120 -34.2261 -34.0990 -33.9543 -33.8552
   -19.2488 -19.2401 -19.2346 -19.2287 -19.2249 -19.2150 -19.2113 -19.2058
   -19.1950 -19.1891 -19.1667 -19.1623 -19.1452 -19.1439 -11.0635  -6.9718
    -5.0868  -4.7674  -3.7844  -3.2398  -1.6594   1.1944   1.6814   2.2709
     3.9742   4.4355   5.7539   6.2754

          k =-0.4916-0.8508 0.0000 ( 31902 PWs)   bands (ev):

   -67.5398 -67.5293 -34.6086 -34.5391 -34.2284 -34.0930 -33.9287 -33.8220
   -19.2507 -19.2410 -19.2356 -19.2289 -19.2255 -19.2147 -19.2100 -19.2059
   -19.1941 -19.1878 -19.1658 -19.1607 -19.1451 -19.1439 -11.0838  -7.1571
    -5.1738  -4.8007  -3.4186  -3.2855  -1.7669   1.4202   2.0792   2.3239
     3.1966   4.7981   5.7678   6.3378

     the Fermi energy is     0.8291 ev

!    total energy              =   -1375.70052372 Ry
     estimated scf accuracy    <          2.7E-13 Ry
     smearing contrib. (-TS)   =      -0.00000370 Ry
     internal energy E=F+TS    =   -1375.70052002 Ry

     The total energy is F=E-TS. E is the sum of the following terms:
     one-electron contribution =  -11616.53054925 Ry
     hartree contribution      =    5838.41166421 Ry
     xc contribution           =    -140.31314571 Ry
     ewald contribution        =    4542.73151073 Ry

     convergence has been achieved in  19 iterations

     negative rho (up, down):  2.017E-04 0.000E+00

     Forces acting on atoms (cartesian axes, Ry/au):

     atom    1 type  2   force =    -0.00045450    0.00025790   -0.00000126
     atom    2 type  1   force =     0.00003894    0.00027448   -0.00018739
     atom    3 type  1   force =     0.00009891   -0.00035022    0.00018756
     atom    4 type  3   force =     0.00026918   -0.00055459   -0.00005864
     atom    5 type  3   force =     0.00004747    0.00037242    0.00005973

     Total force =     0.001040     Total SCF correction =     0.000005


     Computing stress (Cartesian axis) and pressure


     negative rho (up, down):  2.017E-04 0.000E+00
          total   stress  (Ry/bohr**3)                   (kbar)     P=        0.15
   0.00000025   0.00000012   0.00000076            0.04        0.02        0.11
   0.00000012   0.00000302  -0.00000378            0.02        0.44       -0.56
   0.00000076  -0.00000378  -0.00000028            0.11       -0.56       -0.04


     Writing output data file /scratch/as3359/Ta2CH2-VCrelax/Ta.save/
 
     init_run     :     30.66s CPU     16.85s WALL (       1 calls)
     electrons    :   1241.26s CPU    634.14s WALL (       1 calls)
     forces       :      9.82s CPU      5.07s WALL (       1 calls)
     stress       :     40.21s CPU     20.65s WALL (       1 calls)

     Called by init_run:
     wfcinit      :     23.66s CPU     12.14s WALL (       1 calls)
     potinit      :      1.90s CPU      0.96s WALL (       1 calls)
     hinit0       :      3.93s CPU      2.93s WALL (       1 calls)

     Called by electrons:
     c_bands      :   1020.57s CPU    516.63s WALL (      19 calls)
     sum_band     :    195.56s CPU    102.17s WALL (      19 calls)
     v_of_rho     :      3.77s CPU      2.07s WALL (      20 calls)
     newd         :     20.78s CPU     13.00s WALL (      20 calls)
     mix_rho      :      1.50s CPU      0.84s WALL (      19 calls)

     Called by c_bands:
     init_us_2    :     26.10s CPU     13.07s WALL (    3034 calls)
     cegterg      :    946.32s CPU    479.18s WALL (    1406 calls)

     Called by *egterg:
     cdiaghg      :     16.74s CPU      8.55s WALL (    7177 calls)
     h_psi        :    756.52s CPU    383.92s WALL (    7251 calls)
     s_psi        :     39.96s CPU     20.01s WALL (    7251 calls)
     g_psi        :      3.91s CPU      1.96s WALL (    5771 calls)

     Called by h_psi:
     h_psi:calbec :     32.16s CPU     16.13s WALL (    7251 calls)
     vloc_psi     :    673.82s CPU    342.41s WALL (    7251 calls)
     add_vuspsi   :     43.92s CPU     22.01s WALL (    7251 calls)

     General routines
     calbec       :     44.27s CPU     22.20s WALL (    9027 calls)
     fft          :      1.62s CPU      0.83s WALL (     245 calls)
     ffts         :      0.12s CPU      0.06s WALL (      19 calls)
     fftw         :    687.84s CPU    350.02s WALL (  303878 calls)
 
     Parallel routines
 
     PWSCF        :  22m 6.35s CPU  11m20.71s WALL

 
   This run was terminated on:  15:36:43   7Apr2022            

=------------------------------------------------------------------------------=
   JOB DONE.
=------------------------------------------------------------------------------=
