
     Program PWSCF v.6.8 starts on  7Apr2022 at 14: 9:58 

     This program is part of the open-source Quantum ESPRESSO suite
     for quantum simulation of materials; please cite
         "P. Giannozzi et al., J. Phys.:Condens. Matter 21 395502 (2009);
         "P. Giannozzi et al., J. Phys.:Condens. Matter 29 465901 (2017);
         "P. Giannozzi et al., J. Chem. Phys. 152 154105 (2020);
          URL http://www.quantum-espresso.org", 
     in publications or presentations arising from this work. More details at
     http://www.quantum-espresso.org/quote

     Parallel version (MPI & OpenMP), running on       4 processor cores
     Number of MPI processes:                 2
     Threads/MPI process:                     2

     MPI processes distributed on     1 nodes
     R & G space division:  proc/nbgrp/npool/nimage =       2
     124714 MiB available memory on the printing compute node when the environment starts
 
     Reading input from Ta2CH2.scf.65.in

     Current dimensions of program PWSCF are:
     Max number of different atomic species (ntypx) = 10
     Max number of k-points (npk) =  40000
     Max angular momentum in pseudopotentials (lmaxx) =  4
     file Ta.pbesol-spfn-rrkjus_psl.1.0.0.UPF: wavefunction(s)  5S 5P renormalized

     Subspace diagonalization in iterative solution of the eigenvalue problem:
     a serial algorithm will be used

 
     Parallelization info
     --------------------
     sticks:   dense  smooth     PW     G-vecs:    dense   smooth      PW
     Min         291     291     93                54389    54389   10005
     Max         292     292     94                54398    54398   10028
     Sum         583     583    187               108787   108787   20033
 
     Using Slab Decomposition
 


     bravais-lattice index     =            0
     lattice parameter (alat)  =       5.5500  a.u.
     unit-cell volume          =    1533.2393 (a.u.)^3
     number of atoms/cell      =            5
     number of atomic types    =            3
     number of electrons       =        60.00
     number of Kohn-Sham states=           36
     kinetic-energy cutoff     =      65.0000  Ry
     charge density cutoff     =     260.0000  Ry
     scf convergence threshold =      1.0E-12
     mixing beta               =       0.7000
     number of iterations used =            8  plain     mixing
     Exchange-correlation= PBESOL
                           (   1   4  10   8   0   0   0)

     celldm(1)=   5.550000  celldm(2)=   0.000000  celldm(3)=   0.000000
     celldm(4)=   0.000000  celldm(5)=   0.000000  celldm(6)=   0.000000

     crystal axes: (cart. coord. in units of alat)
               a(1) = (   1.017295  -0.000177   0.000000 )  
               a(2) = (  -0.508801   0.881714   0.000000 )  
               a(3) = (   0.000000   0.000000  10.000000 )  

     reciprocal axes: (cart. coord. in units 2 pi/alat)
               b(1) = (  0.983098  0.567305  0.000000 )  
               b(2) = (  0.000198  1.134269  0.000000 )  
               b(3) = (  0.000000  0.000000  0.100000 )  


     PseudoPot. # 1 for Ta read from file:
     /shared/home/as3359/pseudo/Ta.pbesol-spfn-rrkjus_psl.1.0.0.UPF
     MD5 check sum: f099565ffaca9b150a52e9412a28e20b
     Pseudo is Ultrasoft + core correction, Zval = 27.0
     Generated using &quot;atomic&quot; code by A. Dal Corso  v.6.3
     Using radial grid of 1273 points,  8 beta functions with: 
                l(1) =   0
                l(2) =   0
                l(3) =   1
                l(4) =   1
                l(5) =   2
                l(6) =   2
                l(7) =   3
                l(8) =   3
     Q(r) pseudized with 0 coefficients 


     PseudoPot. # 2 for C  read from file:
     /shared/home/as3359/pseudo/C.pbesol-n-rrkjus_psl.1.0.0.UPF
     MD5 check sum: 05995be603a8a7c99da3dc4413f31573
     Pseudo is Ultrasoft + core correction, Zval =  4.0
     Generated using &quot;atomic&quot; code by A. Dal Corso  v.6.3MaX
     Using radial grid of 1073 points,  4 beta functions with: 
                l(1) =   0
                l(2) =   0
                l(3) =   1
                l(4) =   1
     Q(r) pseudized with 0 coefficients 


     PseudoPot. # 3 for H  read from file:
     /shared/home/as3359/pseudo/H.pbesol-rrkjus_psl.0.1.UPF
     MD5 check sum: 1dbb1a5c48b1283557b8117eb856a7ca
     Pseudo is Ultrasoft, Zval =  1.0
     Generated using "atomic" code by A. Dal Corso  v.5.0.2 svn rev. 9415
     Using radial grid of  929 points,  2 beta functions with: 
                l(1) =   0
                l(2) =   0
     Q(r) pseudized with 0 coefficients 


     atomic species   valence    mass     pseudopotential
        Ta            27.00   180.94788     Ta( 1.00)
        C              4.00    12.01070     C ( 1.00)
        H              1.00     1.00000     H ( 1.00)

     No symmetry found



   Cartesian axes

     site n.     atom                  positions (alat units)
         1           C   tau(   1) = (   0.0000000   0.0000000   0.0000000  )
         2           Ta  tau(   2) = (   0.5088008   0.2948413  -0.4364511  )
         3           Ta  tau(   3) = (  -0.0007447   0.5869407   0.4364532  )
         4           H   tau(   4) = (  -0.0017928  -0.0015314   0.8341930  )
         5           H   tau(   5) = (   0.0002769   0.0024412  -0.8341930  )

     number of k points=    74  Marzari-Vanderbilt smearing, width (Ry)=  0.0010
                       cart. coord. in units 2pi/alat
        k(    1) = (   0.0000000   0.0000000   0.0000000), wk =   0.0138889
        k(    2) = (   0.0000165   0.0945224   0.0000000), wk =   0.0277778
        k(    3) = (   0.0000329   0.1890448   0.0000000), wk =   0.0277778
        k(    4) = (   0.0000494   0.2835672   0.0000000), wk =   0.0277778
        k(    5) = (   0.0000659   0.3780896   0.0000000), wk =   0.0277778
        k(    6) = (   0.0000823   0.4726120   0.0000000), wk =   0.0277778
        k(    7) = (  -0.0000988  -0.5671343   0.0000000), wk =   0.0138889
        k(    8) = (   0.0819248   0.0472755   0.0000000), wk =   0.0277778
        k(    9) = (   0.0819413   0.1417978   0.0000000), wk =   0.0277778
        k(   10) = (   0.0819577   0.2363202   0.0000000), wk =   0.0277778
        k(   11) = (   0.0819742   0.3308426   0.0000000), wk =   0.0277778
        k(   12) = (   0.0819907   0.4253650   0.0000000), wk =   0.0277778
        k(   13) = (   0.0820071   0.5198874   0.0000000), wk =   0.0277778
        k(   14) = (   0.0818260  -0.5198589   0.0000000), wk =   0.0277778
        k(   15) = (   0.0818425  -0.4253365   0.0000000), wk =   0.0277778
        k(   16) = (   0.0818590  -0.3308141   0.0000000), wk =   0.0277778
        k(   17) = (   0.0818754  -0.2362917   0.0000000), wk =   0.0277778
        k(   18) = (   0.0818919  -0.1417693   0.0000000), wk =   0.0277778
        k(   19) = (   0.0819084  -0.0472469   0.0000000), wk =   0.0277778
        k(   20) = (   0.1638496   0.0945509   0.0000000), wk =   0.0277778
        k(   21) = (   0.1638661   0.1890733   0.0000000), wk =   0.0277778
        k(   22) = (   0.1638826   0.2835957   0.0000000), wk =   0.0277778
        k(   23) = (   0.1638990   0.3781181   0.0000000), wk =   0.0277778
        k(   24) = (   0.1639155   0.4726405   0.0000000), wk =   0.0277778
        k(   25) = (   0.1639319   0.5671629   0.0000000), wk =   0.0277778
        k(   26) = (   0.1637508  -0.4725834   0.0000000), wk =   0.0277778
        k(   27) = (   0.1637673  -0.3780610   0.0000000), wk =   0.0277778
        k(   28) = (   0.1637838  -0.2835386   0.0000000), wk =   0.0277778
        k(   29) = (   0.1638002  -0.1890163   0.0000000), wk =   0.0277778
        k(   30) = (   0.1638167  -0.0944939   0.0000000), wk =   0.0277778
        k(   31) = (   0.1638332   0.0000285   0.0000000), wk =   0.0277778
        k(   32) = (   0.2457744   0.1418264   0.0000000), wk =   0.0277778
        k(   33) = (   0.2457909   0.2363488   0.0000000), wk =   0.0277778
        k(   34) = (   0.2458074   0.3308711   0.0000000), wk =   0.0277778
        k(   35) = (   0.2458238   0.4253935   0.0000000), wk =   0.0277778
        k(   36) = (   0.2458403   0.5199159   0.0000000), wk =   0.0277778
        k(   37) = (   0.2458568   0.6144383   0.0000000), wk =   0.0277778
        k(   38) = (   0.2456757  -0.4253080   0.0000000), wk =   0.0277778
        k(   39) = (   0.2456921  -0.3307856   0.0000000), wk =   0.0277778
        k(   40) = (   0.2457086  -0.2362632   0.0000000), wk =   0.0277778
        k(   41) = (   0.2457251  -0.1417408   0.0000000), wk =   0.0277778
        k(   42) = (   0.2457415  -0.0472184   0.0000000), wk =   0.0277778
        k(   43) = (   0.2457580   0.0473040   0.0000000), wk =   0.0277778
        k(   44) = (   0.3276993   0.1891018   0.0000000), wk =   0.0277778
        k(   45) = (   0.3277157   0.2836242   0.0000000), wk =   0.0277778
        k(   46) = (   0.3277322   0.3781466   0.0000000), wk =   0.0277778
        k(   47) = (   0.3277486   0.4726690   0.0000000), wk =   0.0277778
        k(   48) = (   0.3277651   0.5671914   0.0000000), wk =   0.0277778
        k(   49) = (   0.3277816   0.6617138   0.0000000), wk =   0.0277778
        k(   50) = (   0.3276005  -0.3780325   0.0000000), wk =   0.0277778
        k(   51) = (   0.3276169  -0.2835101   0.0000000), wk =   0.0277778
        k(   52) = (   0.3276334  -0.1889877   0.0000000), wk =   0.0277778
        k(   53) = (   0.3276499  -0.0944653   0.0000000), wk =   0.0277778
        k(   54) = (   0.3276663   0.0000570   0.0000000), wk =   0.0277778
        k(   55) = (   0.3276828   0.0945794   0.0000000), wk =   0.0277778
        k(   56) = (   0.4096241   0.2363773   0.0000000), wk =   0.0277778
        k(   57) = (   0.4096405   0.3308997   0.0000000), wk =   0.0277778
        k(   58) = (   0.4096570   0.4254221   0.0000000), wk =   0.0277778
        k(   59) = (   0.4096735   0.5199445   0.0000000), wk =   0.0277778
        k(   60) = (   0.4096899   0.6144668   0.0000000), wk =   0.0277778
        k(   61) = (   0.4097064   0.7089892   0.0000000), wk =   0.0277778
        k(   62) = (   0.4095253  -0.3307571   0.0000000), wk =   0.0277778
        k(   63) = (   0.4095418  -0.2362347   0.0000000), wk =   0.0277778
        k(   64) = (   0.4095582  -0.1417123   0.0000000), wk =   0.0277778
        k(   65) = (   0.4095747  -0.0471899   0.0000000), wk =   0.0277778
        k(   66) = (   0.4095911   0.0473325   0.0000000), wk =   0.0277778
        k(   67) = (   0.4096076   0.1418549   0.0000000), wk =   0.0277778
        k(   68) = (  -0.4915489  -0.2836527   0.0000000), wk =   0.0138889
        k(   69) = (  -0.4915324  -0.1891303   0.0000000), wk =   0.0277778
        k(   70) = (  -0.4915160  -0.0946080   0.0000000), wk =   0.0277778
        k(   71) = (  -0.4914995  -0.0000856   0.0000000), wk =   0.0277778
        k(   72) = (  -0.4914830   0.0944368   0.0000000), wk =   0.0277778
        k(   73) = (  -0.4914666   0.1889592   0.0000000), wk =   0.0277778
        k(   74) = (  -0.4916477  -0.8507871   0.0000000), wk =   0.0138889

     Dense  grid:   108787 G-vectors     FFT dimensions: (  30,  30, 288)

     Estimated max dynamical RAM per process >     814.61 MB

     Estimated total dynamical RAM >       1.59 GB

     Check: negative core charge=   -0.000003

     Initial potential from superposition of free atoms

     starting charge   59.99840, renormalised to   60.00000

     negative rho (up, down):  3.038E-03 0.000E+00
     Starting wfcs are   40 randomized atomic wfcs

     total cpu time spent up to now is        7.7 secs

     Self-consistent Calculation

     iteration #  1     ecut=    65.00 Ry     beta= 0.70
     Davidson diagonalization with overlap
     ethr =  1.00E-02,  avg # of iterations =  2.0

     negative rho (up, down):  2.292E-03 0.000E+00

     total cpu time spent up to now is       21.0 secs

     total energy              =   -1375.11550472 Ry
     estimated scf accuracy    <       1.05288320 Ry

     iteration #  2     ecut=    65.00 Ry     beta= 0.70
     Davidson diagonalization with overlap
     ethr =  1.75E-03,  avg # of iterations =  7.9

     negative rho (up, down):  4.801E-04 0.000E+00

     total cpu time spent up to now is       39.9 secs

     total energy              =   -1374.65634424 Ry
     estimated scf accuracy    <       5.68671818 Ry

     iteration #  3     ecut=    65.00 Ry     beta= 0.70
     Davidson diagonalization with overlap
     ethr =  1.75E-03,  avg # of iterations =  5.1

     negative rho (up, down):  5.780E-04 0.000E+00

     total cpu time spent up to now is       56.6 secs

     total energy              =   -1375.66210658 Ry
     estimated scf accuracy    <       0.25243328 Ry

     iteration #  4     ecut=    65.00 Ry     beta= 0.70
     Davidson diagonalization with overlap
     ethr =  4.21E-04,  avg # of iterations =  2.2

     negative rho (up, down):  6.920E-04 0.000E+00

     total cpu time spent up to now is       70.0 secs

     total energy              =   -1375.68961139 Ry
     estimated scf accuracy    <       0.03526215 Ry

     iteration #  5     ecut=    65.00 Ry     beta= 0.70
     Davidson diagonalization with overlap
     ethr =  5.88E-05,  avg # of iterations = 10.6

     negative rho (up, down):  8.705E-04 0.000E+00

     total cpu time spent up to now is       87.7 secs

     total energy              =   -1375.67178396 Ry
     estimated scf accuracy    <       0.43218199 Ry

     iteration #  6     ecut=    65.00 Ry     beta= 0.70
     Davidson diagonalization with overlap
     ethr =  5.88E-05,  avg # of iterations = 10.5

     negative rho (up, down):  1.360E-03 0.000E+00

     total cpu time spent up to now is      104.7 secs

     total energy              =   -1375.69515535 Ry
     estimated scf accuracy    <       0.00540015 Ry

     iteration #  7     ecut=    65.00 Ry     beta= 0.70
     Davidson diagonalization with overlap
     ethr =  9.00E-06,  avg # of iterations =  7.3

     negative rho (up, down):  1.963E-03 0.000E+00

     total cpu time spent up to now is      121.3 secs

     total energy              =   -1375.69593199 Ry
     estimated scf accuracy    <       0.00024582 Ry

     iteration #  8     ecut=    65.00 Ry     beta= 0.70
     Davidson diagonalization with overlap
     c_bands:  1 eigenvalues not converged
     c_bands:  1 eigenvalues not converged
     c_bands:  1 eigenvalues not converged
     ethr =  4.10E-07,  avg # of iterations =  5.8

     negative rho (up, down):  2.258E-03 0.000E+00

     total cpu time spent up to now is      137.6 secs

     total energy              =   -1375.69597646 Ry
     estimated scf accuracy    <       0.00002997 Ry

     iteration #  9     ecut=    65.00 Ry     beta= 0.70
     Davidson diagonalization with overlap
     ethr =  5.00E-08,  avg # of iterations =  4.6

     negative rho (up, down):  2.277E-03 0.000E+00

     total cpu time spent up to now is      151.7 secs

     total energy              =   -1375.69598186 Ry
     estimated scf accuracy    <       0.00000841 Ry

     iteration # 10     ecut=    65.00 Ry     beta= 0.70
     Davidson diagonalization with overlap
     ethr =  1.40E-08,  avg # of iterations =  2.0

     negative rho (up, down):  2.285E-03 0.000E+00

     total cpu time spent up to now is      165.5 secs

     total energy              =   -1375.69598250 Ry
     estimated scf accuracy    <       0.00000152 Ry

     iteration # 11     ecut=    65.00 Ry     beta= 0.70
     Davidson diagonalization with overlap
     ethr =  2.53E-09,  avg # of iterations =  2.5

     negative rho (up, down):  2.281E-03 0.000E+00

     total cpu time spent up to now is      179.8 secs

     total energy              =   -1375.69598272 Ry
     estimated scf accuracy    <       0.00000013 Ry

     iteration # 12     ecut=    65.00 Ry     beta= 0.70
     Davidson diagonalization with overlap
     ethr =  2.21E-10,  avg # of iterations =  3.4

     negative rho (up, down):  2.280E-03 0.000E+00

     total cpu time spent up to now is      193.6 secs

     total energy              =   -1375.69598274 Ry
     estimated scf accuracy    <       0.00000006 Ry

     iteration # 13     ecut=    65.00 Ry     beta= 0.70
     Davidson diagonalization with overlap
     ethr =  9.17E-11,  avg # of iterations =  2.0

     negative rho (up, down):  2.280E-03 0.000E+00

     total cpu time spent up to now is      206.4 secs

     total energy              =   -1375.69598274 Ry
     estimated scf accuracy    <          5.8E-09 Ry

     iteration # 14     ecut=    65.00 Ry     beta= 0.70
     Davidson diagonalization with overlap
     ethr =  9.75E-12,  avg # of iterations =  4.8

     negative rho (up, down):  2.280E-03 0.000E+00

     total cpu time spent up to now is      221.0 secs

     total energy              =   -1375.69598274 Ry
     estimated scf accuracy    <          8.0E-10 Ry

     iteration # 15     ecut=    65.00 Ry     beta= 0.70
     Davidson diagonalization with overlap
     ethr =  1.34E-12,  avg # of iterations =  2.0

     negative rho (up, down):  2.281E-03 0.000E+00

     total cpu time spent up to now is      233.9 secs

     total energy              =   -1375.69598274 Ry
     estimated scf accuracy    <          4.0E-10 Ry

     iteration # 16     ecut=    65.00 Ry     beta= 0.70
     Davidson diagonalization with overlap
     ethr =  6.60E-13,  avg # of iterations =  2.1

     negative rho (up, down):  2.281E-03 0.000E+00

     total cpu time spent up to now is      246.2 secs

     total energy              =   -1375.69598274 Ry
     estimated scf accuracy    <          2.8E-10 Ry

     iteration # 17     ecut=    65.00 Ry     beta= 0.70
     Davidson diagonalization with overlap
     ethr =  4.74E-13,  avg # of iterations =  2.6

     negative rho (up, down):  2.281E-03 0.000E+00

     total cpu time spent up to now is      258.9 secs

     total energy              =   -1375.69598274 Ry
     estimated scf accuracy    <          3.6E-12 Ry

     iteration # 18     ecut=    65.00 Ry     beta= 0.70
     Davidson diagonalization with overlap
     ethr =  1.00E-13,  avg # of iterations =  2.4

     negative rho (up, down):  2.281E-03 0.000E+00

     total cpu time spent up to now is      271.5 secs

     total energy              =   -1375.69598274 Ry
     estimated scf accuracy    <          6.8E-12 Ry

     iteration # 19     ecut=    65.00 Ry     beta= 0.70
     Davidson diagonalization with overlap
     ethr =  1.00E-13,  avg # of iterations =  1.0

     negative rho (up, down):  2.281E-03 0.000E+00

     total cpu time spent up to now is      282.9 secs

     End of self-consistent calculation

          k = 0.0000 0.0000 0.0000 ( 13625 PWs)   bands (ev):

   -67.6185 -67.5869 -34.6028 -34.1194 -33.7044 -33.7029 -33.6642 -33.6640
   -19.2808 -19.2670 -19.2500 -19.2497 -19.2480 -19.2475 -19.2292 -19.2290
   -19.2255 -19.2249 -19.2242 -19.2193 -19.1444 -19.1437 -12.8599  -8.3574
    -5.2610  -3.4783  -3.2220  -3.2072  -1.2391   0.3141   0.3341   2.4863
     2.4981   2.9002   2.9330   3.4756

          k = 0.0000 0.0945 0.0000 ( 13599 PWs)   bands (ev):

   -67.6140 -67.5833 -34.5879 -34.1182 -33.7632 -33.7214 -33.7210 -33.6735
   -19.2791 -19.2663 -19.2514 -19.2499 -19.2476 -19.2463 -19.2312 -19.2292
   -19.2252 -19.2243 -19.2217 -19.2161 -19.1478 -19.1472 -12.7206  -8.1387
    -5.3259  -3.5566  -3.3945  -3.1661  -1.0674  -0.0608   0.5444   1.8727
     2.1824   2.9225   3.2970   4.1687

          k = 0.0000 0.1890 0.0000 ( 13583 PWs)   bands (ev):

   -67.6015 -67.5736 -34.5478 -34.1220 -33.9189 -33.8719 -33.7658 -33.7017
   -19.2750 -19.2648 -19.2554 -19.2502 -19.2473 -19.2424 -19.2362 -19.2294
   -19.2271 -19.2226 -19.2122 -19.2072 -19.1569 -19.1564 -12.3506  -7.5599
    -5.4931  -4.0393  -3.4707  -3.1018  -1.0147  -0.4144   1.1281   1.3034
     2.0928   2.7817   3.6368   4.7099

          k = 0.0000 0.2836 0.0000 ( 13519 PWs)   bands (ev):

   -67.5843 -67.5606 -34.4980 -34.1995 -34.0721 -34.0470 -33.8235 -33.7424
   -19.2719 -19.2621 -19.2602 -19.2512 -19.2478 -19.2403 -19.2386 -19.2290
   -19.2283 -19.2200 -19.1989 -19.1949 -19.1688 -19.1677 -11.8771  -6.9369
    -5.6224  -4.4715  -3.5701  -3.1236  -1.6609   0.3056   1.1472   1.8879
     2.4948   2.6792   3.7534   5.3697

          k = 0.0001 0.3781 0.0000 ( 13570 PWs)   bands (ev):

   -67.5665 -67.5480 -34.4853 -34.3796 -34.2174 -34.0765 -33.8791 -33.7843
   -19.2724 -19.2651 -19.2582 -19.2531 -19.2516 -19.2389 -19.2383 -19.2299
   -19.2246 -19.2168 -19.1855 -19.1825 -19.1803 -19.1777 -11.4528  -6.8563
    -5.3780  -4.6911  -3.6303  -3.2403  -1.9243   1.1107   1.4815   2.0677
     2.6829   3.7759   3.9106   6.0253

          k = 0.0001 0.4726 0.0000 ( 13584 PWs)   bands (ev):

   -67.5528 -67.5395 -34.5655 -34.5005 -34.2459 -34.0893 -33.9189 -33.8153
   -19.2742 -19.2674 -19.2607 -19.2548 -19.2507 -19.2401 -19.2359 -19.2298
   -19.2206 -19.2142 -19.1883 -19.1841 -19.1753 -19.1734 -11.1818  -7.0667
    -5.1891  -4.7732  -3.4591  -3.3631  -1.8375   1.5162   1.7852   2.1326
     3.1397   4.3144   5.1243   6.1899

          k =-0.0001-0.5671 0.0000 ( 13600 PWs)   bands (ev):

   -67.5474 -67.5366 -34.6125 -34.5431 -34.2358 -34.0969 -33.9333 -33.8266
   -19.2751 -19.2678 -19.2628 -19.2555 -19.2499 -19.2410 -19.2341 -19.2300
   -19.2190 -19.2132 -19.1911 -19.1862 -19.1714 -19.1702 -11.0922  -7.1639
    -5.1813  -4.7993  -3.4132  -3.2868  -1.7753   1.4097   2.0525   2.3094
     3.1977   4.7922   5.7580   6.3369

          k = 0.0819 0.0473 0.0000 ( 13609 PWs)   bands (ev):

   -67.6139 -67.5833 -34.5879 -34.1183 -33.7644 -33.7211 -33.7204 -33.6736
   -19.2791 -19.2663 -19.2513 -19.2500 -19.2481 -19.2460 -19.2310 -19.2294
   -19.2257 -19.2237 -19.2218 -19.2161 -19.1478 -19.1472 -12.7204  -8.1385
    -5.3239  -3.5527  -3.3911  -3.1795  -1.0688  -0.0445   0.5281   1.8725
     2.1813   2.9546   3.2814   4.1564

          k = 0.0819 0.1418 0.0000 ( 13595 PWs)   bands (ev):

   -67.6055 -67.5767 -34.5602 -34.1189 -33.8608 -33.8382 -33.7409 -33.7018
   -19.2760 -19.2653 -19.2538 -19.2509 -19.2473 -19.2434 -19.2344 -19.2297
   -19.2268 -19.2230 -19.2152 -19.2100 -19.1541 -19.1536 -12.4653  -7.7341
    -5.4356  -3.8096  -3.6657  -2.9936  -0.7563  -0.6350   0.8670   1.6478
     1.7991   2.9929   3.5633   4.5908

          k = 0.0820 0.2363 0.0000 ( 13568 PWs)   bands (ev):

   -67.5906 -67.5653 -34.5143 -34.1455 -34.0168 -33.9967 -33.8006 -33.7455
   -19.2715 -19.2637 -19.2580 -19.2525 -19.2463 -19.2401 -19.2390 -19.2294
   -19.2283 -19.2211 -19.2039 -19.1994 -19.1645 -19.1641 -12.0423  -7.0757
    -5.5969  -4.3152  -3.8549  -2.8006  -1.3734  -0.1489   0.7379   1.9341
     2.2303   2.7721   3.9360   5.1630

          k = 0.0820 0.3308 0.0000 ( 13536 PWs)   bands (ev):

   -67.5730 -67.5525 -34.4765 -34.2885 -34.1675 -34.0698 -33.8703 -33.7935
   -19.2699 -19.2627 -19.2600 -19.2543 -19.2483 -19.2408 -19.2382 -19.2300
   -19.2259 -19.2186 -19.1905 -19.1871 -19.1765 -19.1750 -11.5930  -6.6479
    -5.5458  -4.6415  -4.0120  -2.8132  -1.8201   0.5043   0.8071   2.1869
     2.8401   3.4043   4.0709   5.8422

          k = 0.0820 0.4254 0.0000 ( 13558 PWs)   bands (ev):

   -67.5572 -67.5421 -34.5106 -34.4393 -34.2412 -34.0880 -33.9276 -33.8356
   -19.2715 -19.2658 -19.2595 -19.2540 -19.2509 -19.2401 -19.2379 -19.2300
   -19.2221 -19.2162 -19.1865 -19.1835 -19.1785 -19.1763 -11.2483  -6.7958
    -5.1770  -4.7629  -4.0188  -3.0149  -1.8232   0.8202   1.5648   2.0133
     3.6524   3.9437   4.7767   6.2891

          k = 0.0820 0.5199 0.0000 ( 13590 PWs)   bands (ev):

   -67.5474 -67.5366 -34.5834 -34.5160 -34.2334 -34.1032 -33.9591 -33.8601
   -19.2732 -19.2668 -19.2616 -19.2556 -19.2493 -19.2413 -19.2355 -19.2299
   -19.2199 -19.2144 -19.1920 -19.1877 -19.1716 -19.1703 -11.0719  -6.9784
    -5.0938  -4.7663  -3.7807  -3.2424  -1.6659   1.1784   1.6709   2.2556
     3.9673   4.4312   5.7444   6.2703

          k = 0.0818-0.5199 0.0000 ( 13590 PWs)   bands (ev):

   -67.5474 -67.5366 -34.5832 -34.5159 -34.2334 -34.1032 -33.9592 -33.8601
   -19.2732 -19.2669 -19.2615 -19.2556 -19.2494 -19.2413 -19.2356 -19.2299
   -19.2198 -19.2144 -19.1920 -19.1877 -19.1716 -19.1703 -11.0721  -6.9781
    -5.0937  -4.7662  -3.7769  -3.2469  -1.6653   1.1789   1.6709   2.2561
     3.9662   4.4318   5.7441   6.2704

          k = 0.0818-0.4253 0.0000 ( 13558 PWs)   bands (ev):

   -67.5572 -67.5421 -34.5102 -34.4390 -34.2411 -34.0881 -33.9279 -33.8357
   -19.2715 -19.2658 -19.2594 -19.2541 -19.2510 -19.2400 -19.2381 -19.2299
   -19.2219 -19.2161 -19.1865 -19.1835 -19.1785 -19.1763 -11.2488  -6.7952
    -5.1779  -4.7616  -4.0138  -3.0207  -1.8221   0.8209   1.5686   2.0112
     3.6480   3.9432   4.7755   6.2872

          k = 0.0819-0.3308 0.0000 ( 13532 PWs)   bands (ev):

   -67.5731 -67.5526 -34.4764 -34.2879 -34.1670 -34.0699 -33.8709 -33.7937
   -19.2699 -19.2627 -19.2600 -19.2544 -19.2482 -19.2408 -19.2385 -19.2298
   -19.2257 -19.2186 -19.1905 -19.1870 -19.1765 -19.1750 -11.5936  -6.6476
    -5.5473  -4.6390  -4.0081  -2.8164  -1.8199   0.5014   0.8132   2.1858
     2.8339   3.4025   4.0700   5.8441

          k = 0.0819-0.2363 0.0000 ( 13564 PWs)   bands (ev):

   -67.5906 -67.5653 -34.5144 -34.1450 -34.0167 -33.9959 -33.8012 -33.7457
   -19.2715 -19.2638 -19.2580 -19.2524 -19.2461 -19.2403 -19.2392 -19.2291
   -19.2282 -19.2213 -19.2038 -19.1994 -19.1646 -19.1641 -12.0428  -7.0761
    -5.5987  -4.3128  -3.8523  -2.7991  -1.3752  -0.1471   0.7350   1.9348
     2.2319   2.7664   3.9316   5.1646

          k = 0.0819-0.1418 0.0000 ( 13597 PWs)   bands (ev):

   -67.6055 -67.5767 -34.5603 -34.1188 -33.8600 -33.8379 -33.7416 -33.7020
   -19.2761 -19.2653 -19.2539 -19.2508 -19.2470 -19.2437 -19.2346 -19.2295
   -19.2264 -19.2233 -19.2152 -19.2100 -19.1541 -19.1536 -12.4656  -7.7345
    -5.4375  -3.8100  -3.6638  -2.9888  -0.7550  -0.6397   0.8695   1.6423
     1.8033   2.9897   3.5571   4.5904

          k = 0.0819-0.0472 0.0000 ( 13605 PWs)   bands (ev):

   -67.6139 -67.5833 -34.5879 -34.1183 -33.7638 -33.7212 -33.7207 -33.6737
   -19.2791 -19.2663 -19.2515 -19.2498 -19.2478 -19.2462 -19.2312 -19.2292
   -19.2254 -19.2240 -19.2218 -19.2161 -19.1478 -19.1472 -12.7205  -8.1386
    -5.3248  -3.5545  -3.3927  -3.1735  -1.0683  -0.0519   0.5355   1.8725
     2.1820   2.9407   3.2875   4.1621

          k = 0.1638 0.0946 0.0000 ( 13587 PWs)   bands (ev):

   -67.6014 -67.5736 -34.5475 -34.1224 -33.9201 -33.8723 -33.7653 -33.7018
   -19.2747 -19.2647 -19.2554 -19.2501 -19.2479 -19.2420 -19.2360 -19.2297
   -19.2277 -19.2222 -19.2122 -19.2072 -19.1569 -19.1563 -12.3498  -7.5589
    -5.4855  -4.0406  -3.4760  -3.1167  -1.0151  -0.4030   1.1154   1.3149
     2.0893   2.8112   3.6259   4.7095

          k = 0.1639 0.1891 0.0000 ( 13562 PWs)   bands (ev):

   -67.5905 -67.5653 -34.5141 -34.1458 -34.0180 -33.9961 -33.8007 -33.7456
   -19.2711 -19.2638 -19.2580 -19.2525 -19.2466 -19.2398 -19.2390 -19.2295
   -19.2287 -19.2209 -19.2039 -19.1994 -19.1646 -19.1640 -12.0418  -7.0747
    -5.5911  -4.3185  -3.8598  -2.8087  -1.3729  -0.1439   0.7451   1.9306
     2.2317   2.7806   3.9335   5.1630

          k = 0.1639 0.2836 0.0000 ( 13531 PWs)   bands (ev):

   -67.5753 -67.5542 -34.4762 -34.2324 -34.1535 -34.0612 -33.8663 -33.8213
   -19.2657 -19.2636 -19.2606 -19.2561 -19.2464 -19.2412 -19.2390 -19.2303
   -19.2261 -19.2195 -19.1923 -19.1887 -19.1749 -19.1746 -11.6418  -6.4315
    -5.6965  -4.6360  -4.2268  -2.5307  -1.6963   0.0550   0.4283   2.2107
     3.0351   3.1971   4.4752   5.6852

          k = 0.1639 0.3781 0.0000 ( 13552 PWs)   bands (ev):

   -67.5596 -67.5436 -34.4713 -34.3581 -34.2348 -34.0876 -33.9503 -33.8915
   -19.2662 -19.2629 -19.2606 -19.2558 -19.2493 -19.2412 -19.2395 -19.2305
   -19.2223 -19.2186 -19.1858 -19.1847 -19.1804 -19.1779 -11.2743  -6.2163
    -5.4726  -4.8074  -4.3893  -2.6519  -1.6899  -0.1933   1.2038   2.1637
     3.6327   4.2059   4.8739   6.3153

          k = 0.1639 0.4726 0.0000 ( 13558 PWs)   bands (ev):

   -67.5473 -67.5366 -34.5161 -34.4483 -34.2328 -34.1229 -34.0086 -33.9404
   -19.2690 -19.2633 -19.2606 -19.2543 -19.2493 -19.2426 -19.2386 -19.2297
   -19.2209 -19.2175 -19.1934 -19.1910 -19.1719 -19.1703 -11.0307  -6.4583
    -4.9343  -4.8723  -4.4095  -3.0316  -1.4595   0.0189   1.9743   2.3052
     3.8214   4.5290   5.4176   6.3490

          k = 0.1639 0.5672 0.0000 ( 13574 PWs)   bands (ev):

   -67.5424 -67.5345 -34.5431 -34.4773 -34.2150 -34.1498 -34.0248 -33.9587
   -19.2702 -19.2633 -19.2598 -19.2567 -19.2473 -19.2433 -19.2378 -19.2294
   -19.2209 -19.2167 -19.1963 -19.1932 -19.1686 -19.1677 -10.9476  -6.5686
    -4.9033  -4.7326  -4.3142  -3.2822  -1.3199   0.2226   2.2133   2.4571
     4.0528   4.4417   5.5778   6.1135

          k = 0.1638-0.4726 0.0000 ( 13561 PWs)   bands (ev):

   -67.5474 -67.5366 -34.5154 -34.4477 -34.2327 -34.1233 -34.0091 -33.9403
   -19.2690 -19.2633 -19.2605 -19.2544 -19.2496 -19.2426 -19.2387 -19.2296
   -19.2207 -19.2174 -19.1935 -19.1910 -19.1719 -19.1703 -11.0314  -6.4572
    -4.9373  -4.8692  -4.4045  -3.0366  -1.4583   0.0195   1.9783   2.3018
     3.8237   4.5192   5.4189   6.3494

          k = 0.1638-0.3781 0.0000 ( 13552 PWs)   bands (ev):

   -67.5597 -67.5436 -34.4707 -34.3568 -34.2345 -34.0878 -33.9512 -33.8916
   -19.2661 -19.2628 -19.2606 -19.2561 -19.2494 -19.2411 -19.2399 -19.2303
   -19.2220 -19.2186 -19.1858 -19.1847 -19.1803 -19.1778 -11.2753  -6.2152
    -5.4752  -4.8031  -4.3846  -2.6567  -1.6878  -0.1953   1.2094   2.1586
     3.6310   4.1988   4.8692   6.3189

          k = 0.1638-0.2835 0.0000 ( 13529 PWs)   bands (ev):

   -67.5754 -67.5542 -34.4762 -34.2310 -34.1529 -34.0611 -33.8671 -33.8216
   -19.2659 -19.2635 -19.2606 -19.2561 -19.2462 -19.2414 -19.2394 -19.2299
   -19.2258 -19.2196 -19.1923 -19.1887 -19.1749 -19.1747 -11.6427  -6.4322
    -5.6994  -4.6309  -4.2221  -2.5302  -1.6961   0.0472   0.4342   2.2076
     3.0295   3.1951   4.4685   5.6927

          k = 0.1638-0.1890 0.0000 ( 13562 PWs)   bands (ev):

   -67.5906 -67.5653 -34.5143 -34.1452 -34.0170 -33.9957 -33.8013 -33.7458
   -19.2713 -19.2638 -19.2581 -19.2524 -19.2462 -19.2402 -19.2392 -19.2291
   -19.2283 -19.2212 -19.2038 -19.1994 -19.1646 -19.1641 -12.0425  -7.0757
    -5.5954  -4.3148  -3.8550  -2.8036  -1.3749  -0.1443   0.7389   1.9329
     2.2326   2.7713   3.9298   5.1647

          k = 0.1638-0.0945 0.0000 ( 13585 PWs)   bands (ev):

   -67.6015 -67.5736 -34.5476 -34.1223 -33.9193 -33.8721 -33.7656 -33.7019
   -19.2748 -19.2647 -19.2555 -19.2500 -19.2476 -19.2423 -19.2363 -19.2294
   -19.2273 -19.2224 -19.2122 -19.2072 -19.1569 -19.1564 -12.3502  -7.5595
    -5.4887  -4.0401  -3.4734  -3.1103  -1.0151  -0.4079   1.1212   1.3098
     2.0909   2.7983   3.6300   4.7097

          k = 0.1638 0.0000 0.0000 ( 13595 PWs)   bands (ev):

   -67.6054 -67.5766 -34.5601 -34.1191 -33.8617 -33.8383 -33.7403 -33.7019
   -19.2759 -19.2652 -19.2539 -19.2508 -19.2475 -19.2433 -19.2344 -19.2297
   -19.2270 -19.2228 -19.2152 -19.2101 -19.1541 -19.1536 -12.4650  -7.7338
    -5.4328  -3.8093  -3.6678  -2.9999  -0.7580  -0.6293   0.8643   1.6557
     1.7938   2.9961   3.5710   4.5909

          k = 0.2458 0.1418 0.0000 ( 13521 PWs)   bands (ev):

   -67.5841 -67.5605 -34.4976 -34.2007 -34.0737 -34.0468 -33.8234 -33.7427
   -19.2712 -19.2618 -19.2606 -19.2511 -19.2483 -19.2404 -19.2383 -19.2297
   -19.2286 -19.2196 -19.1989 -19.1949 -19.1689 -19.1676 -11.8756  -6.9340
    -5.6107  -4.4817  -3.5797  -3.1404  -1.6590   0.3153   1.1659   1.8829
     2.5213   2.6723   3.7458   5.3661

          k = 0.2458 0.2363 0.0000 ( 13538 PWs)   bands (ev):

   -67.5728 -67.5525 -34.4764 -34.2894 -34.1678 -34.0701 -33.8708 -33.7938
   -19.2693 -19.2625 -19.2599 -19.2544 -19.2484 -19.2409 -19.2384 -19.2305
   -19.2260 -19.2184 -19.1905 -19.1871 -19.1765 -19.1748 -11.5917  -6.6432
    -5.5396  -4.6500  -4.0186  -2.8296  -1.8187   0.5219   0.8158   2.1971
     2.8405   3.3986   4.0729   5.8361

          k = 0.2458 0.3309 0.0000 ( 13550 PWs)   bands (ev):

   -67.5595 -67.5436 -34.4716 -34.3587 -34.2344 -34.0877 -33.9510 -33.8913
   -19.2664 -19.2623 -19.2600 -19.2564 -19.2494 -19.2407 -19.2403 -19.2308
   -19.2223 -19.2184 -19.1859 -19.1846 -19.1803 -19.1778 -11.2735  -6.2102
    -5.4775  -4.8086  -4.3921  -2.6615  -1.6903  -0.1820   1.2089   2.1681
     3.6327   4.2035   4.8766   6.3104

          k = 0.2458 0.4254 0.0000 ( 13553 PWs)   bands (ev):

   -67.5472 -67.5366 -34.4780 -34.3935 -34.2549 -34.1210 -34.0396 -33.9897
   -19.2669 -19.2618 -19.2561 -19.2550 -19.2517 -19.2434 -19.2399 -19.2297
   -19.2203 -19.2200 -19.1938 -19.1930 -19.1720 -19.1704 -11.0093  -5.7745
    -5.6106  -4.7518  -4.5390  -2.8641  -1.2659  -0.6024   1.8951   2.4482
     3.6645   4.5665   5.2404   6.6262

          k = 0.2458 0.5199 0.0000 ( 13577 PWs)   bands (ev):

   -67.5392 -67.5335 -34.4691 -34.4043 -34.2573 -34.1890 -34.0719 -34.0471
   -19.2682 -19.2593 -19.2561 -19.2555 -19.2477 -19.2457 -19.2412 -19.2278
   -19.2221 -19.2202 -19.1989 -19.1977 -19.1670 -19.1662 -10.8619  -5.9462
    -5.1506  -4.7339  -4.6266  -3.1581  -0.9517  -0.4774   2.5542   2.7624
     3.4977   4.1642   5.1574   6.3154

          k = 0.2459 0.6144 0.0000 ( 13581 PWs)   bands (ev):

   -67.5392 -67.5335 -34.4684 -34.4037 -34.2574 -34.1897 -34.0731 -34.0461
   -19.2681 -19.2592 -19.2560 -19.2556 -19.2481 -19.2457 -19.2411 -19.2278
   -19.2221 -19.2200 -19.1990 -19.1977 -19.1670 -19.1662 -10.8624  -5.9450
    -5.1507  -4.7339  -4.6245  -3.1597  -0.9512  -0.4773   2.5572   2.7583
     3.5015   4.1564   5.1578   6.3142

          k = 0.2457-0.4253 0.0000 ( 13561 PWs)   bands (ev):

   -67.5473 -67.5366 -34.4768 -34.3917 -34.2555 -34.1216 -34.0406 -33.9894
   -19.2667 -19.2618 -19.2562 -19.2554 -19.2519 -19.2435 -19.2399 -19.2295
   -19.2203 -19.2198 -19.1939 -19.1930 -19.1720 -19.1704 -11.0105  -5.7725
    -5.6110  -4.7497  -4.5349  -2.8668  -1.2632  -0.6056   1.8986   2.4418
     3.6672   4.5532   5.2402   6.6229

          k = 0.2457-0.3308 0.0000 ( 13544 PWs)   bands (ev):

   -67.5596 -67.5436 -34.4709 -34.3571 -34.2344 -34.0878 -33.9516 -33.8916
   -19.2662 -19.2625 -19.2602 -19.2565 -19.2495 -19.2409 -19.2402 -19.2305
   -19.2221 -19.2184 -19.1858 -19.1846 -19.1803 -19.1778 -11.2749  -6.2122
    -5.4776  -4.8038  -4.3863  -2.6617  -1.6878  -0.1891   1.2121   2.1609
     3.6310   4.1974   4.8708   6.3159

          k = 0.2457-0.2363 0.0000 ( 13538 PWs)   bands (ev):

   -67.5730 -67.5525 -34.4763 -34.2883 -34.1672 -34.0700 -33.8712 -33.7939
   -19.2696 -19.2626 -19.2600 -19.2544 -19.2484 -19.2409 -19.2386 -19.2301
   -19.2258 -19.2185 -19.1905 -19.1870 -19.1765 -19.1749 -11.5929  -6.6455
    -5.5435  -4.6439  -4.0117  -2.8253  -1.8188   0.5112   0.8177   2.1914
     2.8341   3.3993   4.0709   5.8408

          k = 0.2457-0.1417 0.0000 ( 13521 PWs)   bands (ev):

   -67.5841 -67.5606 -34.4978 -34.2003 -34.0727 -34.0469 -33.8235 -33.7427
   -19.2715 -19.2619 -19.2605 -19.2511 -19.2480 -19.2405 -19.2385 -19.2293
   -19.2283 -19.2198 -19.1989 -19.1949 -19.1688 -19.1676 -11.8763  -6.9357
    -5.6155  -4.4773  -3.5750  -3.1332  -1.6597   0.3111   1.1573   1.8853
     2.5096   2.6753   3.7486   5.3677

          k = 0.2457-0.0472 0.0000 ( 13564 PWs)   bands (ev):

   -67.5905 -67.5653 -34.5141 -34.1464 -34.0173 -33.9973 -33.8000 -33.7455
   -19.2712 -19.2637 -19.2582 -19.2523 -19.2466 -19.2399 -19.2390 -19.2294
   -19.2286 -19.2210 -19.2039 -19.1994 -19.1645 -19.1641 -12.0415  -7.0751
    -5.5909  -4.3203  -3.8603  -2.8075  -1.3708  -0.1489   0.7460   1.9315
     2.2298   2.7835   3.9398   5.1607

          k = 0.2458 0.0473 0.0000 ( 13562 PWs)   bands (ev):

   -67.5905 -67.5653 -34.5140 -34.1465 -34.0182 -33.9968 -33.8001 -33.7455
   -19.2710 -19.2637 -19.2581 -19.2524 -19.2467 -19.2397 -19.2390 -19.2295
   -19.2288 -19.2209 -19.2039 -19.1995 -19.1646 -19.1640 -12.0413  -7.0745
    -5.5885  -4.3218  -3.8625  -2.8111  -1.3706  -0.1467   0.7493   1.9299
     2.2305   2.7872   3.9391   5.1605

          k = 0.3277 0.1891 0.0000 ( 13564 PWs)   bands (ev):

   -67.5661 -67.5480 -34.4860 -34.3812 -34.2171 -34.0775 -33.8794 -33.7847
   -19.2719 -19.2649 -19.2577 -19.2529 -19.2521 -19.2395 -19.2383 -19.2307
   -19.2247 -19.2166 -19.1854 -19.1825 -19.1803 -19.1775 -11.4503  -6.8509
    -5.3694  -4.7041  -3.6422  -3.2584  -1.9224   1.1302   1.4991   2.0898
     2.6793   3.7731   3.9052   6.0198

          k = 0.3277 0.2836 0.0000 ( 13564 PWs)   bands (ev):

   -67.5568 -67.5420 -34.5117 -34.4408 -34.2396 -34.0892 -33.9283 -33.8360
   -19.2714 -19.2653 -19.2588 -19.2539 -19.2513 -19.2400 -19.2387 -19.2308
   -19.2220 -19.2160 -19.1865 -19.1832 -19.1785 -19.1763 -11.2460  -6.7906
    -5.1725  -4.7739  -4.0259  -3.0343  -1.8210   0.8437   1.5753   2.0274
     3.6508   3.9441   4.7763   6.2784

          k = 0.3277 0.3781 0.0000 ( 13567 PWs)   bands (ev):

   -67.5471 -67.5366 -34.5172 -34.4499 -34.2309 -34.1233 -34.0100 -33.9401
   -19.2695 -19.2624 -19.2600 -19.2542 -19.2498 -19.2425 -19.2392 -19.2303
   -19.2209 -19.2172 -19.1935 -19.1908 -19.1718 -19.1703 -11.0287  -6.4549
    -4.9408  -4.8744  -4.4119  -3.0436  -1.4601   0.0338   1.9848   2.3152
     3.8231   4.5244   5.4188   6.3590

          k = 0.3277 0.4727 0.0000 ( 13579 PWs)   bands (ev):

   -67.5390 -67.5336 -34.4703 -34.4057 -34.2565 -34.1874 -34.0734 -34.0465
   -19.2685 -19.2590 -19.2558 -19.2547 -19.2483 -19.2457 -19.2415 -19.2281
   -19.2223 -19.2199 -19.1990 -19.1975 -19.1669 -19.1662 -10.8606  -5.9457
    -5.1547  -4.7389  -4.6230  -3.1624  -0.9551  -0.4693   2.5631   2.7672
     3.4966   4.1642   5.1559   6.3173

          k = 0.3278 0.5672 0.0000 ( 13629 PWs)   bands (ev):

   -67.5344 -67.5342 -34.3906 -34.3499 -34.3491 -34.2379 -34.0885 -34.0860
   -19.2681 -19.2569 -19.2569 -19.2480 -19.2479 -19.2474 -19.2469 -19.2248
   -19.2234 -19.2230 -19.2008 -19.2007 -19.1650 -19.1649 -10.7971  -5.4473
    -5.4435  -4.9214  -4.5672  -3.1889  -0.6444  -0.6390   2.9529   2.9544
     3.4906   3.4981   4.8824   6.6233

          k = 0.3278 0.6617 0.0000 ( 13579 PWs)   bands (ev):

   -67.5391 -67.5336 -34.4692 -34.4041 -34.2571 -34.1889 -34.0738 -34.0459
   -19.2683 -19.2590 -19.2559 -19.2553 -19.2484 -19.2457 -19.2412 -19.2279
   -19.2223 -19.2198 -19.1990 -19.1976 -19.1670 -19.1662 -10.8616  -5.9450
    -5.1529  -4.7364  -4.6229  -3.1617  -0.9531  -0.4730   2.5621   2.7607
     3.5008   4.1566   5.1571   6.3146

          k = 0.3276-0.3780 0.0000 ( 13567 PWs)   bands (ev):

   -67.5472 -67.5366 -34.5161 -34.4482 -34.2319 -34.1234 -34.0098 -33.9403
   -19.2692 -19.2629 -19.2602 -19.2544 -19.2499 -19.2426 -19.2390 -19.2299
   -19.2208 -19.2172 -19.1934 -19.1909 -19.1719 -19.1703 -11.0303  -6.4558
    -4.9408  -4.8703  -4.4063  -3.0426  -1.4584   0.0276   1.9838   2.3073
     3.8249   4.5167   5.4195   6.3543

          k = 0.3276-0.2835 0.0000 ( 13567 PWs)   bands (ev):

   -67.5570 -67.5421 -34.5109 -34.4395 -34.2404 -34.0887 -33.9284 -33.8360
   -19.2714 -19.2656 -19.2590 -19.2541 -19.2513 -19.2400 -19.2386 -19.2303
   -19.2219 -19.2160 -19.1864 -19.1833 -19.1785 -19.1763 -11.2475  -6.7928
    -5.1753  -4.7677  -4.0177  -3.0309  -1.8205   0.8338   1.5738   2.0190
     3.6469   3.9435   4.7752   6.2805

          k = 0.3276-0.1890 0.0000 ( 13566 PWs)   bands (ev):

   -67.5663 -67.5480 -34.4857 -34.3803 -34.2174 -34.0769 -33.8793 -33.7846
   -19.2721 -19.2651 -19.2579 -19.2529 -19.2520 -19.2393 -19.2383 -19.2302
   -19.2246 -19.2167 -19.1854 -19.1825 -19.1803 -19.1776 -11.4514  -6.8538
    -5.3731  -4.6984  -3.6362  -3.2506  -1.9229   1.1218   1.4905   2.0799
     2.6809   3.7743   3.9074   6.0219

          k = 0.3276-0.0945 0.0000 ( 13536 PWs)   bands (ev):

   -67.5729 -67.5525 -34.4765 -34.2898 -34.1681 -34.0700 -33.8701 -33.7936
   -19.2696 -19.2627 -19.2599 -19.2543 -19.2484 -19.2410 -19.2381 -19.2303
   -19.2260 -19.2185 -19.1905 -19.1871 -19.1764 -19.1749 -11.5916  -6.6461
    -5.5402  -4.6494  -4.0199  -2.8193  -1.8196   0.5178   0.8037   2.1945
     2.8482   3.4040   4.0723   5.8365

          k = 0.3277 0.0001 0.0000 ( 13533 PWs)   bands (ev):

   -67.5752 -67.5542 -34.4762 -34.2342 -34.1538 -34.0614 -33.8655 -33.8210
   -19.2654 -19.2637 -19.2608 -19.2558 -19.2465 -19.2412 -19.2389 -19.2304
   -19.2263 -19.2194 -19.1924 -19.1888 -19.1749 -19.1746 -11.6406  -6.4311
    -5.6926  -4.6427  -4.2320  -2.5322  -1.6967   0.0649   0.4202   2.2152
     3.0421   3.2008   4.4831   5.6753

          k = 0.3277 0.0946 0.0000 ( 13534 PWs)   bands (ev):

   -67.5728 -67.5525 -34.4765 -34.2902 -34.1682 -34.0702 -33.8703 -33.7936
   -19.2693 -19.2626 -19.2599 -19.2543 -19.2484 -19.2409 -19.2382 -19.2306
   -19.2261 -19.2184 -19.1905 -19.1871 -19.1765 -19.1748 -11.5910  -6.6435
    -5.5378  -4.6532  -4.0228  -2.8268  -1.8192   0.5255   0.8080   2.1991
     2.8484   3.4016   4.0734   5.8337

          k = 0.4096 0.2364 0.0000 ( 13582 PWs)   bands (ev):

   -67.5523 -67.5394 -34.5673 -34.5028 -34.2430 -34.0914 -33.9195 -33.8159
   -19.2742 -19.2669 -19.2602 -19.2547 -19.2507 -19.2402 -19.2367 -19.2308
   -19.2205 -19.2141 -19.1882 -19.1838 -19.1753 -19.1734 -11.1784  -7.0630
    -5.1841  -4.7860  -3.4700  -3.3818  -1.8343   1.5267   1.8228   2.1483
     3.1306   4.3181   5.1253   6.1814

          k = 0.4096 0.3309 0.0000 ( 13590 PWs)   bands (ev):

   -67.5469 -67.5366 -34.5852 -34.5184 -34.2298 -34.1055 -33.9598 -33.8605
   -19.2734 -19.2661 -19.2611 -19.2555 -19.2492 -19.2415 -19.2364 -19.2308
   -19.2198 -19.2143 -19.1919 -19.1874 -19.1715 -19.1703 -11.0686  -6.9757
    -5.0912  -4.7779  -3.7900  -3.2574  -1.6637   1.1992   1.6813   2.2755
     3.9689   4.4320   5.7513   6.2690

          k = 0.4097 0.4254 0.0000 ( 13584 PWs)   bands (ev):

   -67.5420 -67.5345 -34.5452 -34.4798 -34.2113 -34.1509 -34.0262 -33.9583
   -19.2708 -19.2622 -19.2596 -19.2565 -19.2471 -19.2434 -19.2385 -19.2302
   -19.2210 -19.2166 -19.1963 -19.1929 -19.1685 -19.1677 -10.9445  -6.5680
    -4.9052  -4.7419  -4.3191  -3.2893  -1.3215   0.2357   2.2230   2.4744
     4.0478   4.4505   5.5739   6.1205

          k = 0.4097 0.5199 0.0000 ( 13581 PWs)   bands (ev):

   -67.5389 -67.5336 -34.4711 -34.4067 -34.2555 -34.1873 -34.0727 -34.0469
   -19.2686 -19.2593 -19.2556 -19.2548 -19.2480 -19.2456 -19.2417 -19.2282
   -19.2222 -19.2200 -19.1990 -19.1975 -19.1669 -19.1662 -10.8599  -5.9475
    -5.1546  -4.7394  -4.6251  -3.1604  -0.9561  -0.4695   2.5590   2.7733
     3.4916   4.1734   5.1565   6.3189

          k = 0.4097 0.6145 0.0000 ( 13581 PWs)   bands (ev):

   -67.5390 -67.5336 -34.4707 -34.4057 -34.2561 -34.1880 -34.0719 -34.0474
   -19.2684 -19.2594 -19.2556 -19.2552 -19.2477 -19.2457 -19.2416 -19.2281
   -19.2221 -19.2201 -19.1989 -19.1976 -19.1669 -19.1662 -10.8604  -5.9479
    -5.1527  -4.7370  -4.6271  -3.1582  -0.9545  -0.4732   2.5550   2.7709
     3.4920   4.1737   5.1573   6.3163

          k = 0.4097 0.7090 0.0000 ( 13578 PWs)   bands (ev):

   -67.5422 -67.5345 -34.5444 -34.4784 -34.2131 -34.1503 -34.0256 -33.9586
   -19.2705 -19.2628 -19.2598 -19.2565 -19.2472 -19.2434 -19.2382 -19.2298
   -19.2209 -19.2166 -19.1962 -19.1931 -19.1685 -19.1677 -10.9458  -6.5688
    -4.9041  -4.7381  -4.3173  -3.2854  -1.3205   0.2295   2.2181   2.4667
     4.0498   4.4469   5.5758   6.1167

          k = 0.4095-0.3308 0.0000 ( 13594 PWs)   bands (ev):

   -67.5472 -67.5366 -34.5843 -34.5168 -34.2316 -34.1044 -33.9597 -33.8604
   -19.2733 -19.2665 -19.2613 -19.2555 -19.2494 -19.2414 -19.2361 -19.2303
   -19.2198 -19.2143 -19.1919 -19.1875 -19.1715 -19.1703 -11.0702  -6.9772
    -5.0921  -4.7729  -3.7823  -3.2542  -1.6636   1.1902   1.6759   2.2671
     3.9668   4.4323   5.7481   6.2691

          k = 0.4095-0.2362 0.0000 ( 13584 PWs)   bands (ev):

   -67.5525 -67.5395 -34.5666 -34.5014 -34.2444 -34.0904 -33.9193 -33.8157
   -19.2742 -19.2672 -19.2605 -19.2547 -19.2508 -19.2402 -19.2364 -19.2303
   -19.2206 -19.2141 -19.1882 -19.1839 -19.1753 -19.1734 -11.1798  -7.0653
    -5.1863  -4.7805  -3.4644  -3.3736  -1.8353   1.5212   1.8064   2.1409
     3.1341   4.3166   5.1248   6.1845

          k = 0.4096-0.1417 0.0000 ( 13565 PWs)   bands (ev):

   -67.5569 -67.5421 -34.5117 -34.4404 -34.2404 -34.0887 -33.9277 -33.8357
   -19.2715 -19.2657 -19.2594 -19.2537 -19.2511 -19.2402 -19.2381 -19.2304
   -19.2221 -19.2160 -19.1864 -19.1833 -19.1785 -19.1763 -11.2464  -6.7942
    -5.1733  -4.7709  -4.0280  -3.0193  -1.8231   0.8322   1.5650   2.0245
     3.6564   3.9443   4.7785   6.2850

          k = 0.4096-0.0472 0.0000 ( 13552 PWs)   bands (ev):

   -67.5594 -67.5436 -34.4722 -34.3599 -34.2344 -34.0877 -33.9499 -33.8912
   -19.2664 -19.2628 -19.2604 -19.2557 -19.2494 -19.2411 -19.2396 -19.2308
   -19.2225 -19.2185 -19.1858 -19.1846 -19.1803 -19.1779 -11.2725  -6.2147
    -5.4725  -4.8132  -4.3962  -2.6518  -1.6933  -0.1847   1.1990   2.1736
     3.6346   4.2135   4.8813   6.3080

          k = 0.4096 0.0473 0.0000 ( 13552 PWs)   bands (ev):

   -67.5594 -67.5436 -34.4723 -34.3603 -34.2341 -34.0879 -33.9503 -33.8910
   -19.2665 -19.2625 -19.2601 -19.2559 -19.2494 -19.2408 -19.2400 -19.2309
   -19.2225 -19.2184 -19.1858 -19.1846 -19.1803 -19.1779 -11.2721  -6.2116
    -5.4749  -4.8138  -4.3973  -2.6564  -1.6936  -0.1795   1.2013   2.1757
     3.6345   4.2125   4.8824   6.3061

          k = 0.4096 0.1419 0.0000 ( 13567 PWs)   bands (ev):

   -67.5568 -67.5420 -34.5121 -34.4414 -34.2394 -34.0893 -33.9279 -33.8358
   -19.2714 -19.2653 -19.2591 -19.2536 -19.2513 -19.2401 -19.2385 -19.2308
   -19.2221 -19.2160 -19.1865 -19.1832 -19.1785 -19.1763 -11.2454  -6.7914
    -5.1714  -4.7757  -4.0312  -3.0285  -1.8225   0.8427   1.5704   2.0307
     3.6560   3.9444   4.7784   6.2811

          k =-0.4915-0.2837 0.0000 ( 13596 PWs)   bands (ev):

   -67.5469 -67.5367 -34.6145 -34.5457 -34.2317 -34.0998 -33.9340 -33.8273
   -19.2752 -19.2671 -19.2623 -19.2554 -19.2497 -19.2411 -19.2351 -19.2309
   -19.2189 -19.2131 -19.1910 -19.1859 -19.1713 -19.1703 -11.0884  -7.1613
    -5.1780  -4.8117  -3.4321  -3.2967  -1.7712   1.4206   2.0894   2.3279
     3.1877   4.7944   5.7672   6.3295

          k =-0.4915-0.1891 0.0000 ( 13592 PWs)   bands (ev):

   -67.5469 -67.5367 -34.5854 -34.5186 -34.2297 -34.1056 -33.9597 -33.8604
   -19.2734 -19.2661 -19.2613 -19.2554 -19.2492 -19.2414 -19.2364 -19.2308
   -19.2198 -19.2143 -19.1919 -19.1874 -19.1715 -19.1703 -11.0683  -6.9760
    -5.0913  -4.7781  -3.7938  -3.2530  -1.6645   1.1984   1.6815   2.2748
     3.9700   4.4309   5.7519   6.2699

          k =-0.4915-0.0946 0.0000 ( 13569 PWs)   bands (ev):

   -67.5470 -67.5366 -34.5180 -34.4507 -34.2303 -34.1234 -34.0095 -33.9400
   -19.2696 -19.2625 -19.2603 -19.2539 -19.2496 -19.2425 -19.2391 -19.2304
   -19.2210 -19.2173 -19.1935 -19.1908 -19.1718 -19.1704 -11.0278  -6.4564
    -4.9376  -4.8780  -4.4174  -3.0382  -1.4620   0.0328   1.9795   2.3203
     3.8197   4.5357   5.4185   6.3593

          k =-0.4915-0.0001 0.0000 ( 13555 PWs)   bands (ev):

   -67.5470 -67.5366 -34.4793 -34.3956 -34.2533 -34.1209 -34.0390 -33.9896
   -19.2671 -19.2621 -19.2557 -19.2548 -19.2518 -19.2432 -19.2401 -19.2299
   -19.2203 -19.2202 -19.1938 -19.1929 -19.1720 -19.1704 -11.0076  -5.7778
    -5.6101  -4.7539  -4.5442  -2.8607  -1.2702  -0.5984   1.8899   2.4573
     3.6605   4.5820   5.2424   6.6309

          k =-0.4915 0.0944 0.0000 ( 13567 PWs)   bands (ev):

   -67.5471 -67.5366 -34.5176 -34.4497 -34.2314 -34.1231 -34.0089 -33.9402
   -19.2693 -19.2630 -19.2606 -19.2540 -19.2494 -19.2426 -19.2389 -19.2300
   -19.2210 -19.2174 -19.1934 -19.1909 -19.1718 -19.1703 -11.0286  -6.4584
    -4.9345  -4.8770  -4.4166  -3.0322  -1.4614   0.0260   1.9744   2.3158
     3.8191   4.5377   5.4180   6.3539

          k =-0.4915 0.1890 0.0000 ( 13592 PWs)   bands (ev):

   -67.5471 -67.5366 -34.5847 -34.5172 -34.2315 -34.1044 -33.9594 -33.8603
   -19.2733 -19.2665 -19.2615 -19.2554 -19.2493 -19.2414 -19.2360 -19.2303
   -19.2199 -19.2143 -19.1919 -19.1875 -19.1715 -19.1703 -11.0697  -6.9778
    -5.0924  -4.7732  -3.7900  -3.2454  -1.6651   1.1889   1.6761   2.2659
     3.9690   4.4306   5.7488   6.2700

          k =-0.4916-0.8508 0.0000 ( 13592 PWs)   bands (ev):

   -67.5471 -67.5366 -34.6137 -34.5442 -34.2337 -34.0984 -33.9338 -33.8271
   -19.2751 -19.2675 -19.2626 -19.2554 -19.2498 -19.2411 -19.2347 -19.2304
   -19.2190 -19.2131 -19.1910 -19.1860 -19.1714 -19.1702 -11.0900  -7.1631
    -5.1794  -4.8065  -3.4241  -3.2911  -1.7726   1.4150   2.0735   2.3188
     3.1916   4.7934   5.7632   6.3323

     the Fermi energy is     0.8237 ev

!    total energy              =   -1375.69598274 Ry
     estimated scf accuracy    <          8.7E-13 Ry
     smearing contrib. (-TS)   =      -0.00000373 Ry
     internal energy E=F+TS    =   -1375.69597902 Ry

     The total energy is F=E-TS. E is the sum of the following terms:
     one-electron contribution =  -11616.45936596 Ry
     hartree contribution      =    5838.34006927 Ry
     xc contribution           =    -140.30819304 Ry
     ewald contribution        =    4542.73151070 Ry

     convergence has been achieved in  19 iterations

     negative rho (up, down):  2.281E-03 0.000E+00

     Forces acting on atoms (cartesian axes, Ry/au):

     atom    1 type  2   force =    -0.00045473    0.00025798   -0.00000117
     atom    2 type  1   force =     0.00003129    0.00026241   -0.00036006
     atom    3 type  1   force =     0.00010623   -0.00033813    0.00035988
     atom    4 type  3   force =     0.00027013   -0.00055345   -0.00007492
     atom    5 type  3   force =     0.00004709    0.00037119    0.00007627

     Total force =     0.001122     Total SCF correction =     0.000009


     Computing stress (Cartesian axis) and pressure


     negative rho (up, down):  2.281E-03 0.000E+00
          total   stress  (Ry/bohr**3)                   (kbar)     P=       -1.22
  -0.00000920   0.00000014   0.00000076           -1.35        0.02        0.11
   0.00000014  -0.00000649  -0.00000380            0.02       -0.95       -0.56
   0.00000076  -0.00000380  -0.00000928            0.11       -0.56       -1.37


     Writing output data file /scratch/as3359/Ta2CH2-VCrelax/Ta.save/
 
     init_run     :     13.51s CPU      7.45s WALL (       1 calls)
     electrons    :    537.99s CPU    275.28s WALL (       1 calls)
     forces       :      4.10s CPU      2.11s WALL (       1 calls)
     stress       :     14.81s CPU      7.62s WALL (       1 calls)

     Called by init_run:
     wfcinit      :     10.21s CPU      5.24s WALL (       1 calls)
     potinit      :      0.78s CPU      0.40s WALL (       1 calls)
     hinit0       :      2.04s CPU      1.47s WALL (       1 calls)

     Called by electrons:
     c_bands      :    446.72s CPU    226.49s WALL (      19 calls)
     sum_band     :     81.29s CPU     42.54s WALL (      19 calls)
     v_of_rho     :      1.48s CPU      0.79s WALL (      20 calls)
     newd         :      8.34s CPU      5.40s WALL (      20 calls)
     mix_rho      :      0.51s CPU      0.27s WALL (      19 calls)

     Called by c_bands:
     init_us_2    :     10.69s CPU      5.37s WALL (    3034 calls)
     cegterg      :    414.39s CPU    210.10s WALL (    1406 calls)

     Called by *egterg:
     cdiaghg      :     16.84s CPU      8.62s WALL (    7383 calls)
     h_psi        :    329.76s CPU    167.52s WALL (    7457 calls)
     s_psi        :     13.75s CPU      6.91s WALL (    7457 calls)
     g_psi        :      1.64s CPU      0.82s WALL (    5977 calls)

     Called by h_psi:
     h_psi:calbec :     13.07s CPU      6.59s WALL (    7457 calls)
     vloc_psi     :    297.04s CPU    151.07s WALL (    7457 calls)
     add_vuspsi   :     16.82s CPU      8.44s WALL (    7457 calls)

     General routines
     calbec       :     17.89s CPU      9.02s WALL (    9233 calls)
     fft          :      0.97s CPU      0.50s WALL (     245 calls)
     ffts         :      0.05s CPU      0.03s WALL (      19 calls)
     fftw         :    309.56s CPU    157.46s WALL (  303800 calls)
 
     Parallel routines
 
     PWSCF        :   9m33.15s CPU   4m55.05s WALL

 
   This run was terminated on:  14:14:53   7Apr2022            

=------------------------------------------------------------------------------=
   JOB DONE.
=------------------------------------------------------------------------------=
