
     Program PWSCF v.6.8 starts on  7Apr2022 at 16:18:50 

     This program is part of the open-source Quantum ESPRESSO suite
     for quantum simulation of materials; please cite
         "P. Giannozzi et al., J. Phys.:Condens. Matter 21 395502 (2009);
         "P. Giannozzi et al., J. Phys.:Condens. Matter 29 465901 (2017);
         "P. Giannozzi et al., J. Chem. Phys. 152 154105 (2020);
          URL http://www.quantum-espresso.org", 
     in publications or presentations arising from this work. More details at
     http://www.quantum-espresso.org/quote

     Parallel version (MPI & OpenMP), running on       4 processor cores
     Number of MPI processes:                 2
     Threads/MPI process:                     2

     MPI processes distributed on     1 nodes
     R & G space division:  proc/nbgrp/npool/nimage =       2
     123585 MiB available memory on the printing compute node when the environment starts
 
     Reading input from Ta2CH2.scf.135.in

     Current dimensions of program PWSCF are:
     Max number of different atomic species (ntypx) = 10
     Max number of k-points (npk) =  40000
     Max angular momentum in pseudopotentials (lmaxx) =  4
     file Ta.pbesol-spfn-rrkjus_psl.1.0.0.UPF: wavefunction(s)  5S 5P renormalized

     Subspace diagonalization in iterative solution of the eigenvalue problem:
     a serial algorithm will be used

 
     Parallelization info
     --------------------
     sticks:   dense  smooth     PW     G-vecs:    dense   smooth      PW
     Min         594     594    180               162350   162350   26804
     Max         595     595    181               162353   162353   26809
     Sum        1189    1189    361               324703   324703   53613
 
     Using Slab Decomposition
 


     bravais-lattice index     =            0
     lattice parameter (alat)  =       5.5500  a.u.
     unit-cell volume          =    1533.2393 (a.u.)^3
     number of atoms/cell      =            5
     number of atomic types    =            3
     number of electrons       =        60.00
     number of Kohn-Sham states=           36
     kinetic-energy cutoff     =     135.0000  Ry
     charge density cutoff     =     540.0000  Ry
     scf convergence threshold =      1.0E-12
     mixing beta               =       0.7000
     number of iterations used =            8  plain     mixing
     Exchange-correlation= PBESOL
                           (   1   4  10   8   0   0   0)

     celldm(1)=   5.550000  celldm(2)=   0.000000  celldm(3)=   0.000000
     celldm(4)=   0.000000  celldm(5)=   0.000000  celldm(6)=   0.000000

     crystal axes: (cart. coord. in units of alat)
               a(1) = (   1.017295  -0.000177   0.000000 )  
               a(2) = (  -0.508801   0.881714   0.000000 )  
               a(3) = (   0.000000   0.000000  10.000000 )  

     reciprocal axes: (cart. coord. in units 2 pi/alat)
               b(1) = (  0.983098  0.567305  0.000000 )  
               b(2) = (  0.000198  1.134269  0.000000 )  
               b(3) = (  0.000000  0.000000  0.100000 )  


     PseudoPot. # 1 for Ta read from file:
     /shared/home/as3359/pseudo/Ta.pbesol-spfn-rrkjus_psl.1.0.0.UPF
     MD5 check sum: f099565ffaca9b150a52e9412a28e20b
     Pseudo is Ultrasoft + core correction, Zval = 27.0
     Generated using &quot;atomic&quot; code by A. Dal Corso  v.6.3
     Using radial grid of 1273 points,  8 beta functions with: 
                l(1) =   0
                l(2) =   0
                l(3) =   1
                l(4) =   1
                l(5) =   2
                l(6) =   2
                l(7) =   3
                l(8) =   3
     Q(r) pseudized with 0 coefficients 


     PseudoPot. # 2 for C  read from file:
     /shared/home/as3359/pseudo/C.pbesol-n-rrkjus_psl.1.0.0.UPF
     MD5 check sum: 05995be603a8a7c99da3dc4413f31573
     Pseudo is Ultrasoft + core correction, Zval =  4.0
     Generated using &quot;atomic&quot; code by A. Dal Corso  v.6.3MaX
     Using radial grid of 1073 points,  4 beta functions with: 
                l(1) =   0
                l(2) =   0
                l(3) =   1
                l(4) =   1
     Q(r) pseudized with 0 coefficients 


     PseudoPot. # 3 for H  read from file:
     /shared/home/as3359/pseudo/H.pbesol-rrkjus_psl.0.1.UPF
     MD5 check sum: 1dbb1a5c48b1283557b8117eb856a7ca
     Pseudo is Ultrasoft, Zval =  1.0
     Generated using "atomic" code by A. Dal Corso  v.5.0.2 svn rev. 9415
     Using radial grid of  929 points,  2 beta functions with: 
                l(1) =   0
                l(2) =   0
     Q(r) pseudized with 0 coefficients 


     atomic species   valence    mass     pseudopotential
        Ta            27.00   180.94788     Ta( 1.00)
        C              4.00    12.01070     C ( 1.00)
        H              1.00     1.00000     H ( 1.00)

     No symmetry found



   Cartesian axes

     site n.     atom                  positions (alat units)
         1           C   tau(   1) = (   0.0000000   0.0000000   0.0000000  )
         2           Ta  tau(   2) = (   0.5088008   0.2948413  -0.4364511  )
         3           Ta  tau(   3) = (  -0.0007447   0.5869407   0.4364532  )
         4           H   tau(   4) = (  -0.0017928  -0.0015314   0.8341930  )
         5           H   tau(   5) = (   0.0002769   0.0024412  -0.8341930  )

     number of k points=    74  Marzari-Vanderbilt smearing, width (Ry)=  0.0010
                       cart. coord. in units 2pi/alat
        k(    1) = (   0.0000000   0.0000000   0.0000000), wk =   0.0138889
        k(    2) = (   0.0000165   0.0945224   0.0000000), wk =   0.0277778
        k(    3) = (   0.0000329   0.1890448   0.0000000), wk =   0.0277778
        k(    4) = (   0.0000494   0.2835672   0.0000000), wk =   0.0277778
        k(    5) = (   0.0000659   0.3780896   0.0000000), wk =   0.0277778
        k(    6) = (   0.0000823   0.4726120   0.0000000), wk =   0.0277778
        k(    7) = (  -0.0000988  -0.5671343   0.0000000), wk =   0.0138889
        k(    8) = (   0.0819248   0.0472755   0.0000000), wk =   0.0277778
        k(    9) = (   0.0819413   0.1417978   0.0000000), wk =   0.0277778
        k(   10) = (   0.0819577   0.2363202   0.0000000), wk =   0.0277778
        k(   11) = (   0.0819742   0.3308426   0.0000000), wk =   0.0277778
        k(   12) = (   0.0819907   0.4253650   0.0000000), wk =   0.0277778
        k(   13) = (   0.0820071   0.5198874   0.0000000), wk =   0.0277778
        k(   14) = (   0.0818260  -0.5198589   0.0000000), wk =   0.0277778
        k(   15) = (   0.0818425  -0.4253365   0.0000000), wk =   0.0277778
        k(   16) = (   0.0818590  -0.3308141   0.0000000), wk =   0.0277778
        k(   17) = (   0.0818754  -0.2362917   0.0000000), wk =   0.0277778
        k(   18) = (   0.0818919  -0.1417693   0.0000000), wk =   0.0277778
        k(   19) = (   0.0819084  -0.0472469   0.0000000), wk =   0.0277778
        k(   20) = (   0.1638496   0.0945509   0.0000000), wk =   0.0277778
        k(   21) = (   0.1638661   0.1890733   0.0000000), wk =   0.0277778
        k(   22) = (   0.1638826   0.2835957   0.0000000), wk =   0.0277778
        k(   23) = (   0.1638990   0.3781181   0.0000000), wk =   0.0277778
        k(   24) = (   0.1639155   0.4726405   0.0000000), wk =   0.0277778
        k(   25) = (   0.1639319   0.5671629   0.0000000), wk =   0.0277778
        k(   26) = (   0.1637508  -0.4725834   0.0000000), wk =   0.0277778
        k(   27) = (   0.1637673  -0.3780610   0.0000000), wk =   0.0277778
        k(   28) = (   0.1637838  -0.2835386   0.0000000), wk =   0.0277778
        k(   29) = (   0.1638002  -0.1890163   0.0000000), wk =   0.0277778
        k(   30) = (   0.1638167  -0.0944939   0.0000000), wk =   0.0277778
        k(   31) = (   0.1638332   0.0000285   0.0000000), wk =   0.0277778
        k(   32) = (   0.2457744   0.1418264   0.0000000), wk =   0.0277778
        k(   33) = (   0.2457909   0.2363488   0.0000000), wk =   0.0277778
        k(   34) = (   0.2458074   0.3308711   0.0000000), wk =   0.0277778
        k(   35) = (   0.2458238   0.4253935   0.0000000), wk =   0.0277778
        k(   36) = (   0.2458403   0.5199159   0.0000000), wk =   0.0277778
        k(   37) = (   0.2458568   0.6144383   0.0000000), wk =   0.0277778
        k(   38) = (   0.2456757  -0.4253080   0.0000000), wk =   0.0277778
        k(   39) = (   0.2456921  -0.3307856   0.0000000), wk =   0.0277778
        k(   40) = (   0.2457086  -0.2362632   0.0000000), wk =   0.0277778
        k(   41) = (   0.2457251  -0.1417408   0.0000000), wk =   0.0277778
        k(   42) = (   0.2457415  -0.0472184   0.0000000), wk =   0.0277778
        k(   43) = (   0.2457580   0.0473040   0.0000000), wk =   0.0277778
        k(   44) = (   0.3276993   0.1891018   0.0000000), wk =   0.0277778
        k(   45) = (   0.3277157   0.2836242   0.0000000), wk =   0.0277778
        k(   46) = (   0.3277322   0.3781466   0.0000000), wk =   0.0277778
        k(   47) = (   0.3277486   0.4726690   0.0000000), wk =   0.0277778
        k(   48) = (   0.3277651   0.5671914   0.0000000), wk =   0.0277778
        k(   49) = (   0.3277816   0.6617138   0.0000000), wk =   0.0277778
        k(   50) = (   0.3276005  -0.3780325   0.0000000), wk =   0.0277778
        k(   51) = (   0.3276169  -0.2835101   0.0000000), wk =   0.0277778
        k(   52) = (   0.3276334  -0.1889877   0.0000000), wk =   0.0277778
        k(   53) = (   0.3276499  -0.0944653   0.0000000), wk =   0.0277778
        k(   54) = (   0.3276663   0.0000570   0.0000000), wk =   0.0277778
        k(   55) = (   0.3276828   0.0945794   0.0000000), wk =   0.0277778
        k(   56) = (   0.4096241   0.2363773   0.0000000), wk =   0.0277778
        k(   57) = (   0.4096405   0.3308997   0.0000000), wk =   0.0277778
        k(   58) = (   0.4096570   0.4254221   0.0000000), wk =   0.0277778
        k(   59) = (   0.4096735   0.5199445   0.0000000), wk =   0.0277778
        k(   60) = (   0.4096899   0.6144668   0.0000000), wk =   0.0277778
        k(   61) = (   0.4097064   0.7089892   0.0000000), wk =   0.0277778
        k(   62) = (   0.4095253  -0.3307571   0.0000000), wk =   0.0277778
        k(   63) = (   0.4095418  -0.2362347   0.0000000), wk =   0.0277778
        k(   64) = (   0.4095582  -0.1417123   0.0000000), wk =   0.0277778
        k(   65) = (   0.4095747  -0.0471899   0.0000000), wk =   0.0277778
        k(   66) = (   0.4095911   0.0473325   0.0000000), wk =   0.0277778
        k(   67) = (   0.4096076   0.1418549   0.0000000), wk =   0.0277778
        k(   68) = (  -0.4915489  -0.2836527   0.0000000), wk =   0.0138889
        k(   69) = (  -0.4915324  -0.1891303   0.0000000), wk =   0.0277778
        k(   70) = (  -0.4915160  -0.0946080   0.0000000), wk =   0.0277778
        k(   71) = (  -0.4914995  -0.0000856   0.0000000), wk =   0.0277778
        k(   72) = (  -0.4914830   0.0944368   0.0000000), wk =   0.0277778
        k(   73) = (  -0.4914666   0.1889592   0.0000000), wk =   0.0277778
        k(   74) = (  -0.4916477  -0.8507871   0.0000000), wk =   0.0138889

     Dense  grid:   324703 G-vectors     FFT dimensions: (  45,  45, 432)

     Estimated max dynamical RAM per process >       2.37 GB

     Estimated total dynamical RAM >       4.73 GB

     Initial potential from superposition of free atoms

     starting charge   59.99840, renormalised to   60.00000

     negative rho (up, down):  5.160E-05 0.000E+00
     Starting wfcs are   40 randomized atomic wfcs

     total cpu time spent up to now is       24.5 secs

     Self-consistent Calculation

     iteration #  1     ecut=   135.00 Ry     beta= 0.70
     Davidson diagonalization with overlap
     ethr =  1.00E-02,  avg # of iterations =  2.0

     negative rho (up, down):  6.365E-05 0.000E+00

     total cpu time spent up to now is       70.6 secs

     total energy              =   -1375.12180364 Ry
     estimated scf accuracy    <       1.04901463 Ry

     iteration #  2     ecut=   135.00 Ry     beta= 0.70
     Davidson diagonalization with overlap
     ethr =  1.75E-03,  avg # of iterations =  7.2

     negative rho (up, down):  4.821E-05 0.000E+00

     total cpu time spent up to now is      133.4 secs

     total energy              =   -1374.71491553 Ry
     estimated scf accuracy    <       5.42442129 Ry

     iteration #  3     ecut=   135.00 Ry     beta= 0.70
     Davidson diagonalization with overlap
     ethr =  1.75E-03,  avg # of iterations =  4.8

     negative rho (up, down):  6.359E-05 0.000E+00

     total cpu time spent up to now is      189.8 secs

     total energy              =   -1375.66780497 Ry
     estimated scf accuracy    <       0.22881267 Ry

     iteration #  4     ecut=   135.00 Ry     beta= 0.70
     Davidson diagonalization with overlap
     ethr =  3.81E-04,  avg # of iterations =  2.4

     negative rho (up, down):  1.082E-04 0.000E+00

     total cpu time spent up to now is      236.7 secs

     total energy              =   -1375.69734436 Ry
     estimated scf accuracy    <       0.02192875 Ry

     iteration #  5     ecut=   135.00 Ry     beta= 0.70
     Davidson diagonalization with overlap
     c_bands:  1 eigenvalues not converged
     c_bands:  1 eigenvalues not converged
     c_bands:  1 eigenvalues not converged
     c_bands:  1 eigenvalues not converged
     ethr =  3.65E-05,  avg # of iterations = 10.2

     negative rho (up, down):  1.180E-04 0.000E+00

     total cpu time spent up to now is      300.7 secs

     total energy              =   -1375.69665417 Ry
     estimated scf accuracy    <       0.02155413 Ry

     iteration #  6     ecut=   135.00 Ry     beta= 0.70
     Davidson diagonalization with overlap
     ethr =  3.59E-05,  avg # of iterations = 10.6

     negative rho (up, down):  1.357E-04 0.000E+00

     total cpu time spent up to now is      357.1 secs

     total energy              =   -1375.69648923 Ry
     estimated scf accuracy    <       0.07571364 Ry

     iteration #  7     ecut=   135.00 Ry     beta= 0.70
     Davidson diagonalization with overlap
     ethr =  3.59E-05,  avg # of iterations =  6.8

     negative rho (up, down):  1.513E-04 0.000E+00

     total cpu time spent up to now is      405.8 secs

     total energy              =   -1375.70079147 Ry
     estimated scf accuracy    <       0.00029608 Ry

     iteration #  8     ecut=   135.00 Ry     beta= 0.70
     Davidson diagonalization with overlap
     c_bands:  1 eigenvalues not converged
     c_bands:  1 eigenvalues not converged
     c_bands:  1 eigenvalues not converged
     c_bands:  1 eigenvalues not converged
     c_bands:  1 eigenvalues not converged
     c_bands:  1 eigenvalues not converged
     c_bands:  1 eigenvalues not converged
     ethr =  4.93E-07,  avg # of iterations = 11.3

     negative rho (up, down):  1.623E-04 0.000E+00

     total cpu time spent up to now is      473.0 secs

     total energy              =   -1375.70087225 Ry
     estimated scf accuracy    <       0.00003688 Ry

     iteration #  9     ecut=   135.00 Ry     beta= 0.70
     Davidson diagonalization with overlap
     ethr =  6.15E-08,  avg # of iterations =  2.8

     negative rho (up, down):  1.637E-04 0.000E+00

     total cpu time spent up to now is      518.0 secs

     total energy              =   -1375.70087678 Ry
     estimated scf accuracy    <       0.00000437 Ry

     iteration # 10     ecut=   135.00 Ry     beta= 0.70
     Davidson diagonalization with overlap
     ethr =  7.28E-09,  avg # of iterations =  2.1

     negative rho (up, down):  1.644E-04 0.000E+00

     total cpu time spent up to now is      566.2 secs

     total energy              =   -1375.70087729 Ry
     estimated scf accuracy    <       0.00000069 Ry

     iteration # 11     ecut=   135.00 Ry     beta= 0.70
     Davidson diagonalization with overlap
     ethr =  1.15E-09,  avg # of iterations =  2.3

     negative rho (up, down):  1.644E-04 0.000E+00

     total cpu time spent up to now is      616.3 secs

     total energy              =   -1375.70087741 Ry
     estimated scf accuracy    <       0.00000011 Ry

     iteration # 12     ecut=   135.00 Ry     beta= 0.70
     Davidson diagonalization with overlap
     ethr =  1.77E-10,  avg # of iterations =  3.0

     negative rho (up, down):  1.645E-04 0.000E+00

     total cpu time spent up to now is      661.9 secs

     total energy              =   -1375.70087743 Ry
     estimated scf accuracy    <       0.00000002 Ry

     iteration # 13     ecut=   135.00 Ry     beta= 0.70
     Davidson diagonalization with overlap
     ethr =  4.14E-11,  avg # of iterations =  2.0

     negative rho (up, down):  1.645E-04 0.000E+00

     total cpu time spent up to now is      706.5 secs

     total energy              =   -1375.70087743 Ry
     estimated scf accuracy    <          4.6E-09 Ry

     iteration # 14     ecut=   135.00 Ry     beta= 0.70
     Davidson diagonalization with overlap
     ethr =  7.65E-12,  avg # of iterations =  4.4

     negative rho (up, down):  1.645E-04 0.000E+00

     total cpu time spent up to now is      755.1 secs

     total energy              =   -1375.70087743 Ry
     estimated scf accuracy    <          4.2E-10 Ry

     iteration # 15     ecut=   135.00 Ry     beta= 0.70
     Davidson diagonalization with overlap
     ethr =  6.94E-13,  avg # of iterations =  2.6

     negative rho (up, down):  1.645E-04 0.000E+00

     total cpu time spent up to now is      800.3 secs

     total energy              =   -1375.70087743 Ry
     estimated scf accuracy    <          9.4E-11 Ry

     iteration # 16     ecut=   135.00 Ry     beta= 0.70
     Davidson diagonalization with overlap
     ethr =  1.57E-13,  avg # of iterations =  3.8

     negative rho (up, down):  1.645E-04 0.000E+00

     total cpu time spent up to now is      847.7 secs

     total energy              =   -1375.70087743 Ry
     estimated scf accuracy    <          2.4E-12 Ry

     iteration # 17     ecut=   135.00 Ry     beta= 0.70
     Davidson diagonalization with overlap
     ethr =  1.00E-13,  avg # of iterations =  1.1

     negative rho (up, down):  1.645E-04 0.000E+00

     total cpu time spent up to now is      887.3 secs

     total energy              =   -1375.70087743 Ry
     estimated scf accuracy    <          1.5E-12 Ry

     iteration # 18     ecut=   135.00 Ry     beta= 0.70
     Davidson diagonalization with overlap
     ethr =  1.00E-13,  avg # of iterations =  1.0

     negative rho (up, down):  1.645E-04 0.000E+00

     total cpu time spent up to now is      926.6 secs

     End of self-consistent calculation

          k = 0.0000 0.0000 0.0000 ( 40729 PWs)   bands (ev):

   -67.6111 -67.5795 -34.5971 -34.1137 -33.6990 -33.6976 -33.6589 -33.6587
   -19.2565 -19.2425 -19.2233 -19.2228 -19.2226 -19.2225 -19.2015 -19.2015
   -19.2003 -19.1996 -19.1991 -19.1929 -19.1190 -19.1182 -12.8531  -8.3509
    -5.2550  -3.4728  -3.2164  -3.2016  -1.2332   0.3194   0.3393   2.4915
     2.5033   2.9053   2.9381   3.4869

          k = 0.0000 0.0945 0.0000 ( 40698 PWs)   bands (ev):

   -67.6066 -67.5760 -34.5823 -34.1126 -33.7579 -33.7161 -33.7157 -33.6682
   -19.2548 -19.2418 -19.2244 -19.2229 -19.2227 -19.2213 -19.2036 -19.2017
   -19.2004 -19.1995 -19.1956 -19.1897 -19.1224 -19.1217 -12.7138  -8.1323
    -5.3200  -3.5510  -3.3888  -3.1605  -1.0616  -0.0554   0.5497   1.8789
     2.1876   2.9300   3.3020   4.1839

          k = 0.0000 0.1890 0.0000 ( 40671 PWs)   bands (ev):

   -67.5942 -67.5663 -34.5421 -34.1164 -33.9135 -33.8666 -33.7605 -33.6964
   -19.2507 -19.2402 -19.2284 -19.2231 -19.2223 -19.2175 -19.2088 -19.2023
   -19.2018 -19.1979 -19.1860 -19.1807 -19.1315 -19.1310 -12.3438  -7.5535
    -5.4872  -4.0334  -3.4651  -3.0961  -1.0091  -0.4086   1.1333   1.3098
     2.0980   2.7901   3.6419   4.9453

          k = 0.0000 0.2836 0.0000 ( 40678 PWs)   bands (ev):

   -67.5769 -67.5533 -34.4924 -34.1941 -34.0667 -34.0415 -33.8181 -33.7371
   -19.2474 -19.2373 -19.2335 -19.2242 -19.2221 -19.2138 -19.2133 -19.2043
   -19.2013 -19.1951 -19.1726 -19.1684 -19.1435 -19.1423 -11.8705  -6.9306
    -5.6164  -4.4655  -3.5645  -3.1179  -1.6552   0.3114   1.1534   1.8931
     2.5017   2.6843   3.7584   5.5302

          k = 0.0001 0.3781 0.0000 ( 40646 PWs)   bands (ev):

   -67.5591 -67.5407 -34.4798 -34.3742 -34.2120 -34.0709 -33.8738 -33.7789
   -19.2479 -19.2380 -19.2329 -19.2261 -19.2254 -19.2137 -19.2121 -19.2050
   -19.1987 -19.1916 -19.1590 -19.1560 -19.1549 -19.1522 -11.4463  -6.8501
    -5.3720  -4.6850  -3.6246  -3.2346  -1.9184   1.1164   1.4875   2.0735
     2.6880   3.7809   3.9156   6.0520

          k = 0.0001 0.4726 0.0000 ( 40562 PWs)   bands (ev):

   -67.5454 -67.5321 -34.5601 -34.4951 -34.2404 -34.0837 -33.9136 -33.8099
   -19.2497 -19.2403 -19.2337 -19.2279 -19.2259 -19.2135 -19.2110 -19.2050
   -19.1953 -19.1888 -19.1628 -19.1585 -19.1487 -19.1469 -11.1753  -7.0605
    -5.1832  -4.7672  -3.4533  -3.3573  -1.8316   1.5217   1.7912   2.1381
     3.1448   4.3193   5.1291   6.1964

          k =-0.0001-0.5671 0.0000 ( 40544 PWs)   bands (ev):

   -67.5401 -67.5293 -34.6072 -34.5377 -34.2303 -34.0912 -33.9280 -33.8213
   -19.2505 -19.2408 -19.2355 -19.2287 -19.2253 -19.2143 -19.2093 -19.2052
   -19.1939 -19.1876 -19.1656 -19.1606 -19.1448 -19.1436 -11.0858  -7.1576
    -5.1754  -4.7933  -3.4074  -3.2809  -1.7694   1.4152   2.0585   2.3148
     3.2029   4.7971   5.7627   6.3431

          k = 0.0819 0.0473 0.0000 ( 40726 PWs)   bands (ev):

   -67.6066 -67.5760 -34.5822 -34.1126 -33.7591 -33.7157 -33.7151 -33.6683
   -19.2548 -19.2417 -19.2245 -19.2230 -19.2228 -19.2211 -19.2035 -19.2018
   -19.2010 -19.1989 -19.1956 -19.1897 -19.1224 -19.1217 -12.7136  -8.1320
    -5.3180  -3.5471  -3.3854  -3.1739  -1.0630  -0.0391   0.5333   1.8787
     2.1865   2.9621   3.2864   4.1704

          k = 0.0819 0.1418 0.0000 ( 40719 PWs)   bands (ev):

   -67.5981 -67.5693 -34.5546 -34.1133 -33.8555 -33.8329 -33.7356 -33.6965
   -19.2517 -19.2407 -19.2266 -19.2248 -19.2214 -19.2186 -19.2069 -19.2024
   -19.2017 -19.1982 -19.1890 -19.1836 -19.1286 -19.1282 -12.4586  -7.7277
    -5.4297  -3.8037  -3.6601  -2.9880  -0.7505  -0.6295   0.8723   1.6533
     1.8059   2.9995   3.5720   4.8309

          k = 0.0820 0.2363 0.0000 ( 40690 PWs)   bands (ev):

   -67.5832 -67.5580 -34.5087 -34.1399 -34.0114 -33.9914 -33.7952 -33.7402
   -19.2471 -19.2392 -19.2309 -19.2260 -19.2206 -19.2148 -19.2120 -19.2037
   -19.2019 -19.1963 -19.1775 -19.1729 -19.1392 -19.1387 -12.0357  -7.0694
    -5.5910  -4.3092  -3.8492  -2.7949  -1.3677  -0.1432   0.7435   1.9403
     2.2364   2.7778   3.9443   5.3347

          k = 0.0820 0.3308 0.0000 ( 40671 PWs)   bands (ev):

   -67.5657 -67.5452 -34.4709 -34.2832 -34.1621 -34.0642 -33.8650 -33.7882
   -19.2454 -19.2356 -19.2353 -19.2277 -19.2216 -19.2151 -19.2122 -19.2050
   -19.1998 -19.1936 -19.1641 -19.1606 -19.1511 -19.1496 -11.5864  -6.6418
    -5.5397  -4.6354  -4.0063  -2.8076  -1.8144   0.5099   0.8128   2.1932
     2.8456   3.4095   4.0768   5.9394

          k = 0.0820 0.4254 0.0000 ( 40600 PWs)   bands (ev):

   -67.5498 -67.5347 -34.5051 -34.4339 -34.2357 -34.0824 -33.9222 -33.8303
   -19.2469 -19.2388 -19.2329 -19.2279 -19.2250 -19.2141 -19.2123 -19.2052
   -19.1966 -19.1908 -19.1610 -19.1580 -19.1521 -19.1497 -11.2418  -6.7896
    -5.1710  -4.7568  -4.0131  -3.0092  -1.8173   0.8260   1.5703   2.0189
     3.6579   3.9489   4.7818   6.2965

          k = 0.0820 0.5199 0.0000 ( 40521 PWs)   bands (ev):

   -67.5400 -67.5293 -34.5780 -34.5106 -34.2278 -34.0975 -33.9537 -33.8547
   -19.2485 -19.2400 -19.2344 -19.2287 -19.2247 -19.2147 -19.2106 -19.2051
   -19.1947 -19.1889 -19.1665 -19.1622 -19.1450 -19.1436 -11.0655  -6.9721
    -5.0879  -4.7602  -3.7749  -3.2366  -1.6600   1.1842   1.6764   2.2608
     3.9727   4.4363   5.7496   6.2784

          k = 0.0818-0.5199 0.0000 ( 40513 PWs)   bands (ev):

   -67.5401 -67.5293 -34.5779 -34.5105 -34.2278 -34.0976 -33.9538 -33.8548
   -19.2485 -19.2400 -19.2343 -19.2287 -19.2247 -19.2147 -19.2107 -19.2050
   -19.1946 -19.1889 -19.1665 -19.1622 -19.1450 -19.1436 -11.0657  -6.9718
    -5.0878  -4.7601  -3.7710  -3.2410  -1.6594   1.1847   1.6764   2.2613
     3.9716   4.4369   5.7494   6.2760

          k = 0.0818-0.4253 0.0000 ( 40602 PWs)   bands (ev):

   -67.5498 -67.5347 -34.5048 -34.4336 -34.2356 -34.0825 -33.9226 -33.8304
   -19.2469 -19.2388 -19.2327 -19.2280 -19.2252 -19.2139 -19.2127 -19.2051
   -19.1965 -19.1908 -19.1610 -19.1580 -19.1521 -19.1497 -11.2423  -6.7890
    -5.1719  -4.7555  -4.0081  -3.0149  -1.8162   0.8266   1.5742   2.0168
     3.6534   3.9483   4.7806   6.2946

          k = 0.0819-0.3308 0.0000 ( 40669 PWs)   bands (ev):

   -67.5657 -67.5452 -34.4708 -34.2825 -34.1616 -34.0643 -33.8655 -33.7884
   -19.2454 -19.2356 -19.2353 -19.2277 -19.2216 -19.2152 -19.2125 -19.2049
   -19.1996 -19.1936 -19.1641 -19.1606 -19.1511 -19.1496 -11.5870  -6.6415
    -5.5412  -4.6330  -4.0024  -2.8107  -1.8141   0.5070   0.8189   2.1921
     2.8393   3.4076   4.0759   5.9417

          k = 0.0819-0.2363 0.0000 ( 40691 PWs)   bands (ev):

   -67.5833 -67.5580 -34.5088 -34.1395 -34.0113 -33.9905 -33.7959 -33.7404
   -19.2471 -19.2392 -19.2309 -19.2260 -19.2205 -19.2151 -19.2120 -19.2035
   -19.2018 -19.1965 -19.1775 -19.1729 -19.1392 -19.1387 -12.0361  -7.0697
    -5.5928  -4.3069  -3.8467  -2.7935  -1.3696  -0.1414   0.7406   1.9410
     2.2379   2.7721   3.9399   5.3395

          k = 0.0819-0.1418 0.0000 ( 40719 PWs)   bands (ev):

   -67.5981 -67.5693 -34.5547 -34.1132 -33.8546 -33.8326 -33.7362 -33.6967
   -19.2518 -19.2407 -19.2266 -19.2246 -19.2212 -19.2189 -19.2070 -19.2022
   -19.2014 -19.1986 -19.1890 -19.1835 -19.1286 -19.1282 -12.4589  -7.7281
    -5.4316  -3.8041  -3.6582  -2.9831  -0.7491  -0.6342   0.8748   1.6478
     1.8100   2.9963   3.5658   4.8394

          k = 0.0819-0.0472 0.0000 ( 40714 PWs)   bands (ev):

   -67.6066 -67.5760 -34.5822 -34.1126 -33.7585 -33.7158 -33.7154 -33.6684
   -19.2548 -19.2418 -19.2245 -19.2229 -19.2228 -19.2212 -19.2036 -19.2017
   -19.2007 -19.1992 -19.1956 -19.1897 -19.1224 -19.1217 -12.7137  -8.1322
    -5.3188  -3.5488  -3.3870  -3.1679  -1.0624  -0.0465   0.5408   1.8787
     2.1872   2.9482   3.2926   4.1765

          k = 0.1638 0.0946 0.0000 ( 40660 PWs)   bands (ev):

   -67.5941 -67.5662 -34.5418 -34.1167 -33.9147 -33.8670 -33.7600 -33.6965
   -19.2504 -19.2402 -19.2285 -19.2230 -19.2229 -19.2171 -19.2086 -19.2030
   -19.2020 -19.1974 -19.1860 -19.1808 -19.1315 -19.1309 -12.3431  -7.5525
    -5.4796  -4.0348  -3.4704  -3.1111  -1.0095  -0.3972   1.1206   1.3213
     2.0945   2.8196   3.6310   4.9366

          k = 0.1639 0.1891 0.0000 ( 40692 PWs)   bands (ev):

   -67.5832 -67.5579 -34.5085 -34.1402 -34.0126 -33.9907 -33.7954 -33.7403
   -19.2468 -19.2393 -19.2310 -19.2260 -19.2208 -19.2146 -19.2119 -19.2040
   -19.2021 -19.1961 -19.1776 -19.1729 -19.1392 -19.1386 -12.0351  -7.0684
    -5.5852  -4.3126  -3.8541  -2.8030  -1.3672  -0.1382   0.7508   1.9368
     2.2378   2.7864   3.9419   5.3299

          k = 0.1639 0.2836 0.0000 ( 40673 PWs)   bands (ev):

   -67.5680 -67.5469 -34.4706 -34.2270 -34.1481 -34.0556 -33.8609 -33.8160
   -19.2413 -19.2390 -19.2335 -19.2295 -19.2201 -19.2150 -19.2132 -19.2051
   -19.2000 -19.1946 -19.1660 -19.1623 -19.1495 -19.1492 -11.6352  -6.4253
    -5.6905  -4.6300  -4.2210  -2.5251  -1.6906   0.0605   0.4339   2.2173
     3.0405   3.2026   4.4845   5.7319

          k = 0.1639 0.3781 0.0000 ( 40610 PWs)   bands (ev):

   -67.5522 -67.5363 -34.4658 -34.3527 -34.2293 -34.0820 -33.9450 -33.8861
   -19.2414 -19.2359 -19.2350 -19.2301 -19.2224 -19.2155 -19.2134 -19.2055
   -19.1967 -19.1935 -19.1604 -19.1593 -19.1539 -19.1513 -11.2678  -6.2102
    -5.4665  -4.8015  -4.3834  -2.6462  -1.6841  -0.1877   1.2093   2.1695
     3.6380   4.2116   4.8800   6.3393

          k = 0.1639 0.4726 0.0000 ( 40567 PWs)   bands (ev):

   -67.5400 -67.5293 -34.5107 -34.4429 -34.2272 -34.1174 -34.0032 -33.9350
   -19.2438 -19.2370 -19.2338 -19.2274 -19.2245 -19.2159 -19.2134 -19.2048
   -19.1956 -19.1921 -19.1681 -19.1656 -19.1453 -19.1437 -11.0243  -6.4521
    -4.9282  -4.8663  -4.4036  -3.0258  -1.4536   0.0246   1.9796   2.3106
     3.8266   4.5344   5.4229   6.3569

          k = 0.1639 0.5672 0.0000 ( 40532 PWs)   bands (ev):

   -67.5351 -67.5271 -34.5377 -34.4719 -34.2094 -34.1442 -34.0194 -33.9533
   -19.2448 -19.2373 -19.2325 -19.2298 -19.2227 -19.2165 -19.2128 -19.2046
   -19.1957 -19.1913 -19.1709 -19.1678 -19.1419 -19.1410 -10.9412  -6.5623
    -4.8974  -4.7265  -4.3083  -3.2764  -1.3140   0.2283   2.2187   2.4622
     4.0581   4.4470   5.5833   6.1199

          k = 0.1638-0.4726 0.0000 ( 40562 PWs)   bands (ev):

   -67.5400 -67.5293 -34.5100 -34.4423 -34.2272 -34.1178 -34.0037 -33.9350
   -19.2437 -19.2370 -19.2335 -19.2276 -19.2247 -19.2159 -19.2136 -19.2047
   -19.1956 -19.1920 -19.1681 -19.1656 -19.1453 -19.1437 -11.0250  -6.4510
    -4.9312  -4.8632  -4.3987  -3.0308  -1.4525   0.0252   1.9837   2.3072
     3.8290   4.5246   5.4242   6.3574

          k = 0.1638-0.3781 0.0000 ( 40604 PWs)   bands (ev):

   -67.5523 -67.5363 -34.4652 -34.3515 -34.2291 -34.0822 -33.9459 -33.8863
   -19.2413 -19.2359 -19.2348 -19.2304 -19.2225 -19.2155 -19.2139 -19.2054
   -19.1965 -19.1935 -19.1605 -19.1593 -19.1539 -19.1513 -11.2688  -6.2091
    -5.4691  -4.7972  -4.3787  -2.6509  -1.6820  -0.1897   1.2149   2.1645
     3.6362   4.2046   4.8753   6.3429

          k = 0.1638-0.2835 0.0000 ( 40677 PWs)   bands (ev):

   -67.5681 -67.5469 -34.4706 -34.2255 -34.1475 -34.0555 -33.8618 -33.8163
   -19.2415 -19.2389 -19.2334 -19.2295 -19.2199 -19.2152 -19.2136 -19.2049
   -19.1997 -19.1947 -19.1660 -19.1623 -19.1495 -19.1493 -11.6361  -6.4260
    -5.6935  -4.6249  -4.2163  -2.5245  -1.6904   0.0527   0.4399   2.2142
     3.0349   3.2005   4.4777   5.7408

          k = 0.1638-0.1890 0.0000 ( 40697 PWs)   bands (ev):

   -67.5832 -67.5580 -34.5086 -34.1397 -34.0116 -33.9904 -33.7960 -33.7405
   -19.2470 -19.2392 -19.2310 -19.2259 -19.2206 -19.2150 -19.2120 -19.2036
   -19.2018 -19.1964 -19.1775 -19.1729 -19.1392 -19.1387 -12.0358  -7.0693
    -5.5895  -4.3088  -3.8493  -2.7980  -1.3692  -0.1385   0.7446   1.9391
     2.2386   2.7770   3.9381   5.3370

          k = 0.1638-0.0945 0.0000 ( 40666 PWs)   bands (ev):

   -67.5941 -67.5662 -34.5419 -34.1166 -33.9140 -33.8668 -33.7603 -33.6965
   -19.2505 -19.2402 -19.2285 -19.2230 -19.2226 -19.2173 -19.2087 -19.2026
   -19.2019 -19.1977 -19.1860 -19.1807 -19.1315 -19.1309 -12.3434  -7.5531
    -5.4827  -4.0343  -3.4679  -3.1046  -1.0095  -0.4021   1.1264   1.3162
     2.0961   2.8067   3.6351   4.9405

          k = 0.1638 0.0000 0.0000 ( 40711 PWs)   bands (ev):

   -67.5980 -67.5693 -34.5545 -34.1135 -33.8564 -33.8330 -33.7350 -33.6966
   -19.2516 -19.2407 -19.2267 -19.2248 -19.2214 -19.2185 -19.2069 -19.2026
   -19.2018 -19.1980 -19.1891 -19.1836 -19.1286 -19.1281 -12.4583  -7.7274
    -5.4269  -3.8034  -3.6622  -2.9943  -0.7522  -0.6238   0.8695   1.6613
     1.8005   3.0026   3.5799   4.8194

          k = 0.2458 0.1418 0.0000 ( 40676 PWs)   bands (ev):

   -67.5767 -67.5532 -34.4920 -34.1953 -34.0683 -34.0413 -33.8181 -33.7374
   -19.2468 -19.2373 -19.2337 -19.2239 -19.2227 -19.2138 -19.2129 -19.2049
   -19.2016 -19.1948 -19.1726 -19.1685 -19.1435 -19.1422 -11.8689  -6.9278
    -5.6047  -4.4757  -3.5741  -3.1347  -1.6533   0.3210   1.1721   1.8881
     2.5282   2.6774   3.7509   5.5219

          k = 0.2458 0.2363 0.0000 ( 40679 PWs)   bands (ev):

   -67.5655 -67.5452 -34.4708 -34.2840 -34.1624 -34.0645 -33.8655 -33.7885
   -19.2449 -19.2360 -19.2350 -19.2276 -19.2219 -19.2151 -19.2122 -19.2055
   -19.1999 -19.1934 -19.1641 -19.1606 -19.1511 -19.1494 -11.5851  -6.6370
    -5.5335  -4.6440  -4.0129  -2.8240  -1.8130   0.5276   0.8215   2.2034
     2.8459   3.4038   4.0788   5.9298

          k = 0.2458 0.3309 0.0000 ( 40596 PWs)   bands (ev):

   -67.5521 -67.5363 -34.4661 -34.3534 -34.2289 -34.0821 -33.9457 -33.8860
   -19.2415 -19.2357 -19.2345 -19.2305 -19.2225 -19.2153 -19.2138 -19.2058
   -19.1967 -19.1933 -19.1605 -19.1591 -19.1539 -19.1513 -11.2670  -6.2041
    -5.4714  -4.8027  -4.3863  -2.6558  -1.6845  -0.1763   1.2143   2.1739
     3.6380   4.2092   4.8827   6.3341

          k = 0.2458 0.4254 0.0000 ( 40582 PWs)   bands (ev):

   -67.5398 -67.5293 -34.4725 -34.3881 -34.2494 -34.1155 -34.0342 -33.9843
   -19.2411 -19.2348 -19.2309 -19.2300 -19.2249 -19.2164 -19.2149 -19.2048
   -19.1952 -19.1946 -19.1685 -19.1676 -19.1454 -19.1438 -11.0029  -5.7682
    -5.6046  -4.7459  -4.5330  -2.8583  -1.2600  -0.5967   1.9003   2.4537
     3.6698   4.5719   5.2454   6.6388

          k = 0.2458 0.5199 0.0000 ( 40508 PWs)   bands (ev):

   -67.5318 -67.5262 -34.4637 -34.3989 -34.2519 -34.1835 -34.0664 -34.0416
   -19.2420 -19.2322 -19.2308 -19.2285 -19.2231 -19.2186 -19.2162 -19.2029
   -19.1969 -19.1948 -19.1736 -19.1724 -19.1403 -19.1395 -10.8555  -5.9399
    -5.1445  -4.7279  -4.6207  -3.1525  -0.9459  -0.4717   2.5594   2.7676
     3.5031   4.1696   5.1625   6.3213

          k = 0.2459 0.6144 0.0000 ( 40504 PWs)   bands (ev):

   -67.5319 -67.5262 -34.4630 -34.3983 -34.2519 -34.1843 -34.0676 -34.0407
   -19.2419 -19.2320 -19.2308 -19.2287 -19.2234 -19.2187 -19.2162 -19.2028
   -19.1970 -19.1947 -19.1736 -19.1724 -19.1403 -19.1395 -10.8560  -5.9387
    -5.1446  -4.7279  -4.6186  -3.1541  -0.9454  -0.4716   2.5623   2.7635
     3.5069   4.1617   5.1630   6.3202

          k = 0.2457-0.4253 0.0000 ( 40576 PWs)   bands (ev):

   -67.5400 -67.5293 -34.4714 -34.3864 -34.2500 -34.1160 -34.0352 -33.9840
   -19.2407 -19.2346 -19.2310 -19.2304 -19.2250 -19.2166 -19.2149 -19.2046
   -19.1952 -19.1945 -19.1685 -19.1677 -19.1454 -19.1437 -11.0041  -5.7662
    -5.6050  -4.7439  -4.5289  -2.8611  -1.2573  -0.5999   1.9039   2.4474
     3.6725   4.5586   5.2452   6.6356

          k = 0.2457-0.3308 0.0000 ( 40604 PWs)   bands (ev):

   -67.5523 -67.5363 -34.4654 -34.3517 -34.2290 -34.0822 -33.9463 -33.8863
   -19.2412 -19.2358 -19.2346 -19.2306 -19.2225 -19.2154 -19.2141 -19.2055
   -19.1965 -19.1934 -19.1605 -19.1592 -19.1539 -19.1513 -11.2684  -6.2061
    -5.4715  -4.7978  -4.3804  -2.6560  -1.6820  -0.1835   1.2176   2.1668
     3.6363   4.2032   4.8769   6.3397

          k = 0.2457-0.2363 0.0000 ( 40681 PWs)   bands (ev):

   -67.5656 -67.5452 -34.4707 -34.2829 -34.1618 -34.0644 -33.8658 -33.7886
   -19.2451 -19.2358 -19.2352 -19.2276 -19.2218 -19.2153 -19.2125 -19.2051
   -19.1997 -19.1935 -19.1641 -19.1606 -19.1511 -19.1495 -11.5863  -6.6393
    -5.5375  -4.6379  -4.0060  -2.8196  -1.8131   0.5169   0.8234   2.1977
     2.8395   3.4044   4.0768   5.9365

          k = 0.2457-0.1417 0.0000 ( 40676 PWs)   bands (ev):

   -67.5768 -67.5532 -34.4921 -34.1948 -34.0673 -34.0414 -33.8182 -33.7373
   -19.2470 -19.2373 -19.2337 -19.2241 -19.2224 -19.2139 -19.2131 -19.2046
   -19.2014 -19.1949 -19.1726 -19.1684 -19.1435 -19.1422 -11.8696  -6.9295
    -5.6095  -4.4713  -3.5695  -3.1275  -1.6540   0.3168   1.1636   1.8905
     2.5165   2.6804   3.7537   5.5257

          k = 0.2457-0.0472 0.0000 ( 40690 PWs)   bands (ev):

   -67.5831 -67.5579 -34.5084 -34.1408 -34.0119 -33.9919 -33.7947 -33.7401
   -19.2468 -19.2392 -19.2311 -19.2260 -19.2207 -19.2146 -19.2120 -19.2040
   -19.2020 -19.1961 -19.1776 -19.1730 -19.1391 -19.1387 -12.0349  -7.0687
    -5.5850  -4.3144  -3.8546  -2.8018  -1.3651  -0.1431   0.7516   1.9378
     2.2359   2.7893   3.9482   5.3256

          k = 0.2458 0.0473 0.0000 ( 40702 PWs)   bands (ev):

   -67.5831 -67.5579 -34.5084 -34.1409 -34.0128 -33.9914 -33.7948 -33.7401
   -19.2467 -19.2392 -19.2311 -19.2260 -19.2208 -19.2145 -19.2119 -19.2041
   -19.2021 -19.1960 -19.1776 -19.1730 -19.1392 -19.1386 -12.0346  -7.0681
    -5.5826  -4.3158  -3.8568  -2.8054  -1.3649  -0.1410   0.7549   1.9361
     2.2366   2.7930   3.9475   5.3233

          k = 0.3277 0.1891 0.0000 ( 40644 PWs)   bands (ev):

   -67.5588 -67.5406 -34.4804 -34.3758 -34.2117 -34.0718 -33.8741 -33.7794
   -19.2475 -19.2380 -19.2325 -19.2260 -19.2257 -19.2141 -19.2119 -19.2058
   -19.1988 -19.1915 -19.1590 -19.1560 -19.1549 -19.1520 -11.4438  -6.8447
    -5.3634  -4.6980  -3.6365  -3.2527  -1.9166   1.1359   1.5052   2.0956
     2.6845   3.7781   3.9102   6.0441

          k = 0.3277 0.2836 0.0000 ( 40606 PWs)   bands (ev):

   -67.5495 -67.5347 -34.5062 -34.4354 -34.2341 -34.0836 -33.9230 -33.8306
   -19.2469 -19.2386 -19.2322 -19.2279 -19.2254 -19.2140 -19.2128 -19.2059
   -19.1966 -19.1907 -19.1610 -19.1577 -19.1521 -19.1497 -11.2396  -6.7844
    -5.1665  -4.7678  -4.0202  -3.0285  -1.8151   0.8495   1.5808   2.0329
     3.6563   3.9493   4.7814   6.2858

          k = 0.3277 0.3781 0.0000 ( 40560 PWs)   bands (ev):

   -67.5397 -67.5293 -34.5118 -34.4445 -34.2253 -34.1178 -34.0046 -33.9347
   -19.2442 -19.2363 -19.2333 -19.2273 -19.2250 -19.2157 -19.2140 -19.2054
   -19.1957 -19.1919 -19.1681 -19.1653 -19.1452 -19.1437 -11.0223  -6.4487
    -4.9347  -4.8685  -4.4061  -3.0378  -1.4543   0.0395   1.9902   2.3206
     3.8284   4.5299   5.4241   6.3672

          k = 0.3277 0.4727 0.0000 ( 40510 PWs)   bands (ev):

   -67.5316 -67.5263 -34.4649 -34.4003 -34.2511 -34.1820 -34.0680 -34.0410
   -19.2424 -19.2320 -19.2300 -19.2284 -19.2237 -19.2185 -19.2165 -19.2031
   -19.1971 -19.1946 -19.1736 -19.1722 -19.1402 -19.1395 -10.8543  -5.9395
    -5.1486  -4.7328  -4.6171  -3.1567  -0.9493  -0.4636   2.5682   2.7725
     3.5020   4.1695   5.1611   6.3233

          k = 0.3278 0.5672 0.0000 ( 40480 PWs)   bands (ev):

   -67.5270 -67.5268 -34.3852 -34.3445 -34.3437 -34.2325 -34.0830 -34.0804
   -19.2417 -19.2299 -19.2299 -19.2234 -19.2230 -19.2214 -19.2203 -19.1998
   -19.1981 -19.1978 -19.1754 -19.1753 -19.1382 -19.1382 -10.7907  -5.4410
    -5.4373  -4.9154  -4.5614  -3.1832  -0.6386  -0.6333   2.9579   2.9595
     3.4961   3.5036   4.8875   6.6785

          k = 0.3278 0.6617 0.0000 ( 40501 PWs)   bands (ev):

   -67.5317 -67.5262 -34.4638 -34.3987 -34.2517 -34.1834 -34.0683 -34.0405
   -19.2421 -19.2319 -19.2304 -19.2286 -19.2237 -19.2187 -19.2163 -19.2029
   -19.1971 -19.1946 -19.1736 -19.1723 -19.1403 -19.1395 -10.8553  -5.9387
    -5.1468  -4.7304  -4.6170  -3.1561  -0.9473  -0.4673   2.5672   2.7660
     3.5062   4.1620   5.1623   6.3206

          k = 0.3276-0.3780 0.0000 ( 40558 PWs)   bands (ev):

   -67.5399 -67.5293 -34.5107 -34.4428 -34.2263 -34.1179 -34.0044 -33.9350
   -19.2438 -19.2367 -19.2332 -19.2276 -19.2250 -19.2159 -19.2139 -19.2050
   -19.1956 -19.1918 -19.1681 -19.1655 -19.1453 -19.1437 -11.0239  -6.4495
    -4.9347  -4.8644  -4.4004  -3.0368  -1.4526   0.0332   1.9891   2.3126
     3.8301   4.5221   5.4248   6.3624

          k = 0.3276-0.2835 0.0000 ( 40600 PWs)   bands (ev):

   -67.5497 -67.5347 -34.5054 -34.4341 -34.2349 -34.0831 -33.9231 -33.8307
   -19.2467 -19.2388 -19.2324 -19.2279 -19.2254 -19.2139 -19.2130 -19.2055
   -19.1965 -19.1907 -19.1610 -19.1578 -19.1521 -19.1497 -11.2410  -6.7866
    -5.1693  -4.7617  -4.0120  -3.0252  -1.8146   0.8396   1.5793   2.0246
     3.6524   3.9487   4.7803   6.2878

          k = 0.3276-0.1890 0.0000 ( 40652 PWs)   bands (ev):

   -67.5589 -67.5407 -34.4801 -34.3749 -34.2119 -34.0713 -33.8740 -33.7793
   -19.2476 -19.2381 -19.2327 -19.2260 -19.2256 -19.2140 -19.2120 -19.2054
   -19.1987 -19.1915 -19.1590 -19.1560 -19.1549 -19.1521 -11.4449  -6.8477
    -5.3670  -4.6924  -3.6306  -3.2449  -1.9170   1.1275   1.4965   2.0858
     2.6860   3.7794   3.9123   6.0470

          k = 0.3276-0.0945 0.0000 ( 40683 PWs)   bands (ev):

   -67.5655 -67.5452 -34.4709 -34.2844 -34.1627 -34.0644 -33.8647 -33.7882
   -19.2451 -19.2358 -19.2352 -19.2277 -19.2216 -19.2152 -19.2121 -19.2054
   -19.1999 -19.1935 -19.1641 -19.1606 -19.1511 -19.1495 -11.5850  -6.6399
    -5.5341  -4.6434  -4.0142  -2.8136  -1.8138   0.5234   0.8094   2.2008
     2.8537   3.4092   4.0782   5.9312

          k = 0.3277 0.0001 0.0000 ( 40685 PWs)   bands (ev):

   -67.5679 -67.5468 -34.4706 -34.2288 -34.1484 -34.0558 -33.8602 -33.8157
   -19.2411 -19.2391 -19.2337 -19.2294 -19.2201 -19.2149 -19.2130 -19.2053
   -19.2002 -19.1945 -19.1660 -19.1623 -19.1495 -19.1492 -11.6340  -6.4248
    -5.6866  -4.6368  -4.2262  -2.5266  -1.6909   0.0704   0.4258   2.2219
     3.0474   3.2063   4.4925   5.7203

          k = 0.3277 0.0946 0.0000 ( 40675 PWs)   bands (ev):

   -67.5654 -67.5451 -34.4709 -34.2848 -34.1628 -34.0646 -33.8649 -33.7883
   -19.2449 -19.2360 -19.2350 -19.2277 -19.2217 -19.2151 -19.2121 -19.2056
   -19.2000 -19.1934 -19.1641 -19.1606 -19.1511 -19.1494 -11.5844  -6.6374
    -5.5317  -4.6472  -4.0171  -2.8211  -1.8134   0.5311   0.8137   2.2055
     2.8539   3.4067   4.0793   5.9269

          k = 0.4096 0.2364 0.0000 ( 40568 PWs)   bands (ev):

   -67.5449 -67.5321 -34.5619 -34.4974 -34.2374 -34.0858 -33.9142 -33.8105
   -19.2496 -19.2401 -19.2332 -19.2276 -19.2261 -19.2134 -19.2116 -19.2059
   -19.1953 -19.1887 -19.1627 -19.1582 -19.1487 -19.1469 -11.1720  -7.0568
    -5.1782  -4.7799  -3.4642  -3.3760  -1.8284   1.5322   1.8288   2.1538
     3.1357   4.3231   5.1301   6.1879

          k = 0.4096 0.3309 0.0000 ( 40523 PWs)   bands (ev):

   -67.5396 -67.5293 -34.5798 -34.5130 -34.2242 -34.0999 -33.9545 -33.8552
   -19.2487 -19.2395 -19.2340 -19.2285 -19.2247 -19.2146 -19.2114 -19.2059
   -19.1946 -19.1888 -19.1664 -19.1618 -19.1449 -19.1436 -11.0622  -6.9694
    -5.0853  -4.7718  -3.7841  -3.2516  -1.6578   1.2050   1.6867   2.2807
     3.9743   4.4371   5.7566   6.2766

          k = 0.4097 0.4254 0.0000 ( 40511 PWs)   bands (ev):

   -67.5346 -67.5272 -34.5398 -34.4744 -34.2057 -34.1454 -34.0208 -33.9530
   -19.2453 -19.2364 -19.2325 -19.2295 -19.2226 -19.2164 -19.2135 -19.2052
   -19.1958 -19.1912 -19.1709 -19.1675 -19.1419 -19.1410 -10.9381  -6.5617
    -4.8993  -4.7358  -4.3132  -3.2836  -1.3157   0.2414   2.2284   2.4795
     4.0531   4.4558   5.5793   6.1269

          k = 0.4097 0.5199 0.0000 ( 40508 PWs)   bands (ev):

   -67.5315 -67.5263 -34.4657 -34.4013 -34.2501 -34.1818 -34.0673 -34.0415
   -19.2425 -19.2323 -19.2300 -19.2283 -19.2234 -19.2184 -19.2167 -19.2032
   -19.1970 -19.1948 -19.1736 -19.1721 -19.1402 -19.1395 -10.8535  -5.9412
    -5.1485  -4.7334  -4.6192  -3.1547  -0.9503  -0.4638   2.5641   2.7785
     3.4970   4.1788   5.1617   6.3248

          k = 0.4097 0.6145 0.0000 ( 40510 PWs)   bands (ev):

   -67.5316 -67.5263 -34.4653 -34.4003 -34.2506 -34.1825 -34.0664 -34.0419
   -19.2423 -19.2324 -19.2304 -19.2283 -19.2231 -19.2185 -19.2165 -19.2031
   -19.1970 -19.1948 -19.1736 -19.1723 -19.1402 -19.1395 -10.8541  -5.9417
    -5.1466  -4.7310  -4.6212  -3.1525  -0.9487  -0.4675   2.5601   2.7761
     3.4974   4.1791   5.1624   6.3231

          k = 0.4097 0.7090 0.0000 ( 40525 PWs)   bands (ev):

   -67.5348 -67.5272 -34.5390 -34.4729 -34.2076 -34.1448 -34.0202 -33.9532
   -19.2450 -19.2369 -19.2325 -19.2296 -19.2227 -19.2165 -19.2132 -19.2049
   -19.1958 -19.1912 -19.1708 -19.1676 -19.1419 -19.1410 -10.9394  -6.5625
    -4.8982  -4.7319  -4.3114  -3.2797  -1.3147   0.2352   2.2235   2.4718
     4.0551   4.4522   5.5813   6.1231

          k = 0.4095-0.3308 0.0000 ( 40519 PWs)   bands (ev):

   -67.5398 -67.5293 -34.5789 -34.5114 -34.2260 -34.0987 -33.9543 -33.8551
   -19.2485 -19.2399 -19.2341 -19.2286 -19.2247 -19.2147 -19.2111 -19.2055
   -19.1946 -19.1888 -19.1664 -19.1620 -19.1450 -19.1436 -11.0638  -6.9709
    -5.0863  -4.7668  -3.7765  -3.2483  -1.6577   1.1960   1.6814   2.2723
     3.9722   4.4374   5.7533   6.2753

          k = 0.4095-0.2362 0.0000 ( 40570 PWs)   bands (ev):

   -67.5451 -67.5321 -34.5612 -34.4960 -34.2389 -34.0848 -33.9140 -33.8103
   -19.2495 -19.2403 -19.2335 -19.2278 -19.2260 -19.2135 -19.2114 -19.2055
   -19.1953 -19.1887 -19.1627 -19.1583 -19.1487 -19.1469 -11.1734  -7.0590
    -5.1804  -4.7745  -3.4587  -3.3678  -1.8294   1.5268   1.8124   2.1463
     3.1392   4.3216   5.1297   6.1910

          k = 0.4096-0.1417 0.0000 ( 40604 PWs)   bands (ev):

   -67.5496 -67.5347 -34.5063 -34.4350 -34.2349 -34.0831 -33.9223 -33.8304
   -19.2468 -19.2388 -19.2328 -19.2278 -19.2250 -19.2142 -19.2124 -19.2056
   -19.1967 -19.1907 -19.1610 -19.1578 -19.1520 -19.1497 -11.2399  -6.7881
    -5.1673  -4.7648  -4.0223  -3.0136  -1.8172   0.8379   1.5705   2.0301
     3.6620   3.9495   4.7836   6.2924

          k = 0.4096-0.0472 0.0000 ( 40600 PWs)   bands (ev):

   -67.5521 -67.5363 -34.4666 -34.3545 -34.2289 -34.0822 -33.9446 -33.8858
   -19.2415 -19.2360 -19.2349 -19.2301 -19.2224 -19.2155 -19.2133 -19.2058
   -19.1969 -19.1934 -19.1604 -19.1592 -19.1539 -19.1514 -11.2660  -6.2086
    -5.4664  -4.8073  -4.3903  -2.6461  -1.6875  -0.1791   1.2044   2.1794
     3.6398   4.2192   4.8874   6.3318

          k = 0.4096 0.0473 0.0000 ( 40598 PWs)   bands (ev):

   -67.5520 -67.5362 -34.4667 -34.3549 -34.2286 -34.0823 -33.9449 -33.8857
   -19.2416 -19.2358 -19.2346 -19.2303 -19.2224 -19.2153 -19.2135 -19.2059
   -19.1969 -19.1934 -19.1604 -19.1591 -19.1539 -19.1514 -11.2656  -6.2054
    -5.4688  -4.8079  -4.3915  -2.6507  -1.6878  -0.1739   1.2068   2.1815
     3.6398   4.2182   4.8885   6.3298

          k = 0.4096 0.1419 0.0000 ( 40610 PWs)   bands (ev):

   -67.5494 -67.5347 -34.5066 -34.4360 -34.2339 -34.0837 -33.9226 -33.8305
   -19.2469 -19.2386 -19.2325 -19.2278 -19.2252 -19.2140 -19.2126 -19.2059
   -19.1967 -19.1907 -19.1610 -19.1577 -19.1520 -19.1498 -11.2389  -6.7852
    -5.1654  -4.7696  -4.0255  -3.0227  -1.8166   0.8485   1.5759   2.0363
     3.6615   3.9496   4.7835   6.2884

          k =-0.4915-0.2837 0.0000 ( 40516 PWs)   bands (ev):

   -67.5395 -67.5293 -34.6091 -34.5403 -34.2262 -34.0941 -33.9287 -33.8220
   -19.2506 -19.2405 -19.2351 -19.2284 -19.2252 -19.2143 -19.2100 -19.2060
   -19.1938 -19.1876 -19.1655 -19.1602 -19.1448 -19.1436 -11.0820  -7.1550
    -5.1722  -4.8057  -3.4263  -3.2908  -1.7653   1.4261   2.0954   2.3333
     3.1929   4.7993   5.7719   6.3352

          k =-0.4915-0.1891 0.0000 ( 40517 PWs)   bands (ev):

   -67.5396 -67.5293 -34.5800 -34.5132 -34.2241 -34.0999 -33.9544 -33.8551
   -19.2487 -19.2395 -19.2341 -19.2283 -19.2247 -19.2146 -19.2113 -19.2059
   -19.1946 -19.1888 -19.1664 -19.1618 -19.1449 -19.1437 -11.0619  -6.9698
    -5.0854  -4.7720  -3.7880  -3.2472  -1.6586   1.2042   1.6870   2.2800
     3.9754   4.4360   5.7571   6.2755

          k =-0.4915-0.0946 0.0000 ( 40566 PWs)   bands (ev):

   -67.5396 -67.5293 -34.5126 -34.4453 -34.2247 -34.1179 -34.0041 -33.9346
   -19.2443 -19.2363 -19.2336 -19.2270 -19.2248 -19.2157 -19.2139 -19.2054
   -19.1957 -19.1920 -19.1681 -19.1653 -19.1452 -19.1437 -11.0214  -6.4502
    -4.9315  -4.8721  -4.4115  -3.0325  -1.4561   0.0385   1.9849   2.3257
     3.8250   4.5412   5.4239   6.3674

          k =-0.4915-0.0001 0.0000 ( 40584 PWs)   bands (ev):

   -67.5397 -67.5293 -34.4739 -34.3902 -34.2478 -34.1154 -34.0336 -33.9842
   -19.2413 -19.2350 -19.2305 -19.2299 -19.2248 -19.2161 -19.2151 -19.2050
   -19.1951 -19.1949 -19.1685 -19.1676 -19.1454 -19.1438 -11.0012  -5.7715
    -5.6040  -4.7480  -4.5382  -2.8550  -1.2643  -0.5928   1.8952   2.4628
     3.6658   4.5874   5.2475   6.6436

          k =-0.4915 0.0944 0.0000 ( 40572 PWs)   bands (ev):

   -67.5397 -67.5293 -34.5122 -34.4443 -34.2258 -34.1175 -34.0035 -33.9348
   -19.2440 -19.2367 -19.2339 -19.2271 -19.2246 -19.2159 -19.2136 -19.2051
   -19.1958 -19.1920 -19.1680 -19.1655 -19.1452 -19.1437 -11.0222  -6.4521
    -4.9284  -4.8711  -4.4107  -3.0265  -1.4556   0.0316   1.9797   2.3212
     3.8243   4.5432   5.4233   6.3621

          k =-0.4915 0.1890 0.0000 ( 40521 PWs)   bands (ev):

   -67.5398 -67.5293 -34.5793 -34.5118 -34.2259 -34.0988 -33.9541 -33.8550
   -19.2485 -19.2398 -19.2343 -19.2285 -19.2246 -19.2147 -19.2110 -19.2055
   -19.1947 -19.1888 -19.1664 -19.1620 -19.1449 -19.1436 -11.0633  -6.9716
    -5.0865  -4.7671  -3.7841  -3.2396  -1.6592   1.1947   1.6816   2.2711
     3.9744   4.4357   5.7541   6.2756

          k =-0.4916-0.8508 0.0000 ( 40540 PWs)   bands (ev):

   -67.5398 -67.5293 -34.6083 -34.5388 -34.2282 -34.0927 -33.9284 -33.8217
   -19.2505 -19.2407 -19.2353 -19.2286 -19.2252 -19.2144 -19.2097 -19.2056
   -19.1938 -19.1876 -19.1655 -19.1604 -19.1448 -19.1436 -11.0836  -7.1568
    -5.1736  -4.8004  -3.4184  -3.2852  -1.7667   1.4205   2.0795   2.3241
     3.1968   4.7983   5.7679   6.3381

     the Fermi energy is     0.8294 ev

!    total energy              =   -1375.70087743 Ry
     estimated scf accuracy    <          7.7E-13 Ry
     smearing contrib. (-TS)   =      -0.00000369 Ry
     internal energy E=F+TS    =   -1375.70087374 Ry

     The total energy is F=E-TS. E is the sum of the following terms:
     one-electron contribution =  -11616.53238648 Ry
     hartree contribution      =    5838.41306167 Ry
     xc contribution           =    -140.31305966 Ry
     ewald contribution        =    4542.73151073 Ry

     convergence has been achieved in  18 iterations

     negative rho (up, down):  1.645E-04 0.000E+00

     Forces acting on atoms (cartesian axes, Ry/au):

     atom    1 type  2   force =    -0.00045444    0.00025787   -0.00000119
     atom    2 type  1   force =     0.00003894    0.00027332   -0.00019020
     atom    3 type  1   force =     0.00009886   -0.00034903    0.00019017
     atom    4 type  3   force =     0.00026926   -0.00055425   -0.00005786
     atom    5 type  3   force =     0.00004737    0.00037209    0.00005908

     Total force =     0.001039     Total SCF correction =     0.000008


     Computing stress (Cartesian axis) and pressure


     negative rho (up, down):  1.645E-04 0.000E+00
          total   stress  (Ry/bohr**3)                   (kbar)     P=        0.05
  -0.00000045   0.00000012   0.00000076           -0.07        0.02        0.11
   0.00000012   0.00000233  -0.00000378            0.02        0.34       -0.56
   0.00000076  -0.00000378  -0.00000095            0.11       -0.56       -0.14


     Writing output data file /scratch/as3359/Ta2CH2-VCrelax/Ta.save/
 
     init_run     :     44.37s CPU     24.27s WALL (       1 calls)
     electrons    :   1772.88s CPU    902.14s WALL (       1 calls)
     forces       :     12.57s CPU      6.48s WALL (       1 calls)
     stress       :     56.93s CPU     29.15s WALL (       1 calls)

     Called by init_run:
     wfcinit      :     35.56s CPU     18.37s WALL (       1 calls)
     potinit      :      2.46s CPU      1.25s WALL (       1 calls)
     hinit0       :      4.77s CPU      3.59s WALL (       1 calls)

     Called by electrons:
     c_bands      :   1456.28s CPU    735.66s WALL (      18 calls)
     sum_band     :    285.50s CPU    147.53s WALL (      18 calls)
     v_of_rho     :      5.03s CPU      2.76s WALL (      19 calls)
     newd         :     25.44s CPU     15.85s WALL (      19 calls)
     mix_rho      :      1.87s CPU      1.05s WALL (      18 calls)

     Called by c_bands:
     init_us_2    :     31.55s CPU     15.80s WALL (    2886 calls)
     cegterg      :   1364.07s CPU    689.16s WALL (    1332 calls)

     Called by *egterg:
     cdiaghg      :     16.36s CPU      8.36s WALL (    7273 calls)
     h_psi        :   1135.29s CPU    574.53s WALL (    7347 calls)
     s_psi        :     50.20s CPU     25.13s WALL (    7347 calls)
     g_psi        :      5.79s CPU      2.90s WALL (    5941 calls)

     Called by h_psi:
     h_psi:calbec :     40.40s CPU     20.25s WALL (    7347 calls)
     vloc_psi     :   1031.95s CPU    522.61s WALL (    7347 calls)
     add_vuspsi   :     54.78s CPU     27.42s WALL (    7347 calls)

     General routines
     calbec       :     55.93s CPU     28.04s WALL (    9049 calls)
     fft          :      2.46s CPU      1.26s WALL (     234 calls)
     ffts         :      0.17s CPU      0.09s WALL (      18 calls)
     fftw         :   1066.34s CPU    540.48s WALL (  288644 calls)
 
     Parallel routines
 
     PWSCF        :  31m32.01s CPU  16m 6.80s WALL

 
   This run was terminated on:  16:34:57   7Apr2022            

=------------------------------------------------------------------------------=
   JOB DONE.
=------------------------------------------------------------------------------=
