
     Program PWSCF v.6.8 starts on  7Apr2022 at 16:50:12 

     This program is part of the open-source Quantum ESPRESSO suite
     for quantum simulation of materials; please cite
         "P. Giannozzi et al., J. Phys.:Condens. Matter 21 395502 (2009);
         "P. Giannozzi et al., J. Phys.:Condens. Matter 29 465901 (2017);
         "P. Giannozzi et al., J. Chem. Phys. 152 154105 (2020);
          URL http://www.quantum-espresso.org", 
     in publications or presentations arising from this work. More details at
     http://www.quantum-espresso.org/quote

     Parallel version (MPI & OpenMP), running on       4 processor cores
     Number of MPI processes:                 2
     Threads/MPI process:                     2

     MPI processes distributed on     1 nodes
     R & G space division:  proc/nbgrp/npool/nimage =       2
     123391 MiB available memory on the printing compute node when the environment starts
 
     Reading input from Ta2CH2.scf.145.in

     Current dimensions of program PWSCF are:
     Max number of different atomic species (ntypx) = 10
     Max number of k-points (npk) =  40000
     Max angular momentum in pseudopotentials (lmaxx) =  4
     file Ta.pbesol-spfn-rrkjus_psl.1.0.0.UPF: wavefunction(s)  5S 5P renormalized

     Subspace diagonalization in iterative solution of the eigenvalue problem:
     a serial algorithm will be used

 
     Parallelization info
     --------------------
     sticks:   dense  smooth     PW     G-vecs:    dense   smooth      PW
     Min         642     642    189               181012   181012   29485
     Max         643     643    190               181021   181021   29498
     Sum        1285    1285    379               362033   362033   58983
 
     Using Slab Decomposition
 


     bravais-lattice index     =            0
     lattice parameter (alat)  =       5.5500  a.u.
     unit-cell volume          =    1533.2393 (a.u.)^3
     number of atoms/cell      =            5
     number of atomic types    =            3
     number of electrons       =        60.00
     number of Kohn-Sham states=           36
     kinetic-energy cutoff     =     145.0000  Ry
     charge density cutoff     =     580.0000  Ry
     scf convergence threshold =      1.0E-12
     mixing beta               =       0.7000
     number of iterations used =            8  plain     mixing
     Exchange-correlation= PBESOL
                           (   1   4  10   8   0   0   0)

     celldm(1)=   5.550000  celldm(2)=   0.000000  celldm(3)=   0.000000
     celldm(4)=   0.000000  celldm(5)=   0.000000  celldm(6)=   0.000000

     crystal axes: (cart. coord. in units of alat)
               a(1) = (   1.017295  -0.000177   0.000000 )  
               a(2) = (  -0.508801   0.881714   0.000000 )  
               a(3) = (   0.000000   0.000000  10.000000 )  

     reciprocal axes: (cart. coord. in units 2 pi/alat)
               b(1) = (  0.983098  0.567305  0.000000 )  
               b(2) = (  0.000198  1.134269  0.000000 )  
               b(3) = (  0.000000  0.000000  0.100000 )  


     PseudoPot. # 1 for Ta read from file:
     /shared/home/as3359/pseudo/Ta.pbesol-spfn-rrkjus_psl.1.0.0.UPF
     MD5 check sum: f099565ffaca9b150a52e9412a28e20b
     Pseudo is Ultrasoft + core correction, Zval = 27.0
     Generated using &quot;atomic&quot; code by A. Dal Corso  v.6.3
     Using radial grid of 1273 points,  8 beta functions with: 
                l(1) =   0
                l(2) =   0
                l(3) =   1
                l(4) =   1
                l(5) =   2
                l(6) =   2
                l(7) =   3
                l(8) =   3
     Q(r) pseudized with 0 coefficients 


     PseudoPot. # 2 for C  read from file:
     /shared/home/as3359/pseudo/C.pbesol-n-rrkjus_psl.1.0.0.UPF
     MD5 check sum: 05995be603a8a7c99da3dc4413f31573
     Pseudo is Ultrasoft + core correction, Zval =  4.0
     Generated using &quot;atomic&quot; code by A. Dal Corso  v.6.3MaX
     Using radial grid of 1073 points,  4 beta functions with: 
                l(1) =   0
                l(2) =   0
                l(3) =   1
                l(4) =   1
     Q(r) pseudized with 0 coefficients 


     PseudoPot. # 3 for H  read from file:
     /shared/home/as3359/pseudo/H.pbesol-rrkjus_psl.0.1.UPF
     MD5 check sum: 1dbb1a5c48b1283557b8117eb856a7ca
     Pseudo is Ultrasoft, Zval =  1.0
     Generated using "atomic" code by A. Dal Corso  v.5.0.2 svn rev. 9415
     Using radial grid of  929 points,  2 beta functions with: 
                l(1) =   0
                l(2) =   0
     Q(r) pseudized with 0 coefficients 


     atomic species   valence    mass     pseudopotential
        Ta            27.00   180.94788     Ta( 1.00)
        C              4.00    12.01070     C ( 1.00)
        H              1.00     1.00000     H ( 1.00)

     No symmetry found



   Cartesian axes

     site n.     atom                  positions (alat units)
         1           C   tau(   1) = (   0.0000000   0.0000000   0.0000000  )
         2           Ta  tau(   2) = (   0.5088008   0.2948413  -0.4364511  )
         3           Ta  tau(   3) = (  -0.0007447   0.5869407   0.4364532  )
         4           H   tau(   4) = (  -0.0017928  -0.0015314   0.8341930  )
         5           H   tau(   5) = (   0.0002769   0.0024412  -0.8341930  )

     number of k points=    74  Marzari-Vanderbilt smearing, width (Ry)=  0.0010
                       cart. coord. in units 2pi/alat
        k(    1) = (   0.0000000   0.0000000   0.0000000), wk =   0.0138889
        k(    2) = (   0.0000165   0.0945224   0.0000000), wk =   0.0277778
        k(    3) = (   0.0000329   0.1890448   0.0000000), wk =   0.0277778
        k(    4) = (   0.0000494   0.2835672   0.0000000), wk =   0.0277778
        k(    5) = (   0.0000659   0.3780896   0.0000000), wk =   0.0277778
        k(    6) = (   0.0000823   0.4726120   0.0000000), wk =   0.0277778
        k(    7) = (  -0.0000988  -0.5671343   0.0000000), wk =   0.0138889
        k(    8) = (   0.0819248   0.0472755   0.0000000), wk =   0.0277778
        k(    9) = (   0.0819413   0.1417978   0.0000000), wk =   0.0277778
        k(   10) = (   0.0819577   0.2363202   0.0000000), wk =   0.0277778
        k(   11) = (   0.0819742   0.3308426   0.0000000), wk =   0.0277778
        k(   12) = (   0.0819907   0.4253650   0.0000000), wk =   0.0277778
        k(   13) = (   0.0820071   0.5198874   0.0000000), wk =   0.0277778
        k(   14) = (   0.0818260  -0.5198589   0.0000000), wk =   0.0277778
        k(   15) = (   0.0818425  -0.4253365   0.0000000), wk =   0.0277778
        k(   16) = (   0.0818590  -0.3308141   0.0000000), wk =   0.0277778
        k(   17) = (   0.0818754  -0.2362917   0.0000000), wk =   0.0277778
        k(   18) = (   0.0818919  -0.1417693   0.0000000), wk =   0.0277778
        k(   19) = (   0.0819084  -0.0472469   0.0000000), wk =   0.0277778
        k(   20) = (   0.1638496   0.0945509   0.0000000), wk =   0.0277778
        k(   21) = (   0.1638661   0.1890733   0.0000000), wk =   0.0277778
        k(   22) = (   0.1638826   0.2835957   0.0000000), wk =   0.0277778
        k(   23) = (   0.1638990   0.3781181   0.0000000), wk =   0.0277778
        k(   24) = (   0.1639155   0.4726405   0.0000000), wk =   0.0277778
        k(   25) = (   0.1639319   0.5671629   0.0000000), wk =   0.0277778
        k(   26) = (   0.1637508  -0.4725834   0.0000000), wk =   0.0277778
        k(   27) = (   0.1637673  -0.3780610   0.0000000), wk =   0.0277778
        k(   28) = (   0.1637838  -0.2835386   0.0000000), wk =   0.0277778
        k(   29) = (   0.1638002  -0.1890163   0.0000000), wk =   0.0277778
        k(   30) = (   0.1638167  -0.0944939   0.0000000), wk =   0.0277778
        k(   31) = (   0.1638332   0.0000285   0.0000000), wk =   0.0277778
        k(   32) = (   0.2457744   0.1418264   0.0000000), wk =   0.0277778
        k(   33) = (   0.2457909   0.2363488   0.0000000), wk =   0.0277778
        k(   34) = (   0.2458074   0.3308711   0.0000000), wk =   0.0277778
        k(   35) = (   0.2458238   0.4253935   0.0000000), wk =   0.0277778
        k(   36) = (   0.2458403   0.5199159   0.0000000), wk =   0.0277778
        k(   37) = (   0.2458568   0.6144383   0.0000000), wk =   0.0277778
        k(   38) = (   0.2456757  -0.4253080   0.0000000), wk =   0.0277778
        k(   39) = (   0.2456921  -0.3307856   0.0000000), wk =   0.0277778
        k(   40) = (   0.2457086  -0.2362632   0.0000000), wk =   0.0277778
        k(   41) = (   0.2457251  -0.1417408   0.0000000), wk =   0.0277778
        k(   42) = (   0.2457415  -0.0472184   0.0000000), wk =   0.0277778
        k(   43) = (   0.2457580   0.0473040   0.0000000), wk =   0.0277778
        k(   44) = (   0.3276993   0.1891018   0.0000000), wk =   0.0277778
        k(   45) = (   0.3277157   0.2836242   0.0000000), wk =   0.0277778
        k(   46) = (   0.3277322   0.3781466   0.0000000), wk =   0.0277778
        k(   47) = (   0.3277486   0.4726690   0.0000000), wk =   0.0277778
        k(   48) = (   0.3277651   0.5671914   0.0000000), wk =   0.0277778
        k(   49) = (   0.3277816   0.6617138   0.0000000), wk =   0.0277778
        k(   50) = (   0.3276005  -0.3780325   0.0000000), wk =   0.0277778
        k(   51) = (   0.3276169  -0.2835101   0.0000000), wk =   0.0277778
        k(   52) = (   0.3276334  -0.1889877   0.0000000), wk =   0.0277778
        k(   53) = (   0.3276499  -0.0944653   0.0000000), wk =   0.0277778
        k(   54) = (   0.3276663   0.0000570   0.0000000), wk =   0.0277778
        k(   55) = (   0.3276828   0.0945794   0.0000000), wk =   0.0277778
        k(   56) = (   0.4096241   0.2363773   0.0000000), wk =   0.0277778
        k(   57) = (   0.4096405   0.3308997   0.0000000), wk =   0.0277778
        k(   58) = (   0.4096570   0.4254221   0.0000000), wk =   0.0277778
        k(   59) = (   0.4096735   0.5199445   0.0000000), wk =   0.0277778
        k(   60) = (   0.4096899   0.6144668   0.0000000), wk =   0.0277778
        k(   61) = (   0.4097064   0.7089892   0.0000000), wk =   0.0277778
        k(   62) = (   0.4095253  -0.3307571   0.0000000), wk =   0.0277778
        k(   63) = (   0.4095418  -0.2362347   0.0000000), wk =   0.0277778
        k(   64) = (   0.4095582  -0.1417123   0.0000000), wk =   0.0277778
        k(   65) = (   0.4095747  -0.0471899   0.0000000), wk =   0.0277778
        k(   66) = (   0.4095911   0.0473325   0.0000000), wk =   0.0277778
        k(   67) = (   0.4096076   0.1418549   0.0000000), wk =   0.0277778
        k(   68) = (  -0.4915489  -0.2836527   0.0000000), wk =   0.0138889
        k(   69) = (  -0.4915324  -0.1891303   0.0000000), wk =   0.0277778
        k(   70) = (  -0.4915160  -0.0946080   0.0000000), wk =   0.0277778
        k(   71) = (  -0.4914995  -0.0000856   0.0000000), wk =   0.0277778
        k(   72) = (  -0.4914830   0.0944368   0.0000000), wk =   0.0277778
        k(   73) = (  -0.4914666   0.1889592   0.0000000), wk =   0.0277778
        k(   74) = (  -0.4916477  -0.8507871   0.0000000), wk =   0.0138889

     Dense  grid:   362033 G-vectors     FFT dimensions: (  45,  45, 432)

     Estimated max dynamical RAM per process >       2.63 GB

     Estimated total dynamical RAM >       5.26 GB

     Initial potential from superposition of free atoms

     starting charge   59.99840, renormalised to   60.00000

     negative rho (up, down):  7.503E-05 0.000E+00
     Starting wfcs are   40 randomized atomic wfcs

     total cpu time spent up to now is       25.9 secs

     Self-consistent Calculation

     iteration #  1     ecut=   145.00 Ry     beta= 0.70
     Davidson diagonalization with overlap
     ethr =  1.00E-02,  avg # of iterations =  2.0

     total cpu time spent up to now is       73.9 secs

     total energy              =   -1375.12197075 Ry
     estimated scf accuracy    <       1.04894825 Ry

     iteration #  2     ecut=   145.00 Ry     beta= 0.70
     Davidson diagonalization with overlap
     c_bands:  1 eigenvalues not converged
     ethr =  1.75E-03,  avg # of iterations =  7.4

     negative rho (up, down):  4.651E-07 0.000E+00

     total cpu time spent up to now is      139.5 secs

     total energy              =   -1374.71570491 Ry
     estimated scf accuracy    <       5.42078008 Ry

     iteration #  3     ecut=   145.00 Ry     beta= 0.70
     Davidson diagonalization with overlap
     ethr =  1.75E-03,  avg # of iterations =  4.7

     negative rho (up, down):  2.800E-06 0.000E+00

     total cpu time spent up to now is      198.2 secs

     total energy              =   -1375.66784754 Ry
     estimated scf accuracy    <       0.22904042 Ry

     iteration #  4     ecut=   145.00 Ry     beta= 0.70
     Davidson diagonalization with overlap
     ethr =  3.82E-04,  avg # of iterations =  2.4

     negative rho (up, down):  4.033E-06 0.000E+00

     total cpu time spent up to now is      246.8 secs

     total energy              =   -1375.69668415 Ry
     estimated scf accuracy    <       0.02391920 Ry

     iteration #  5     ecut=   145.00 Ry     beta= 0.70
     Davidson diagonalization with overlap
     ethr =  3.99E-05,  avg # of iterations = 12.0

     negative rho (up, down):  5.567E-06 0.000E+00

     total cpu time spent up to now is      318.0 secs

     total energy              =   -1375.68687644 Ry
     estimated scf accuracy    <       0.21064358 Ry

     iteration #  6     ecut=   145.00 Ry     beta= 0.70
     Davidson diagonalization with overlap
     ethr =  3.99E-05,  avg # of iterations = 12.1

     negative rho (up, down):  1.550E-05 0.000E+00

     total cpu time spent up to now is      380.7 secs

     total energy              =   -1375.70000885 Ry
     estimated scf accuracy    <       0.01104254 Ry

     iteration #  7     ecut=   145.00 Ry     beta= 0.70
     Davidson diagonalization with overlap
     ethr =  1.84E-05,  avg # of iterations =  3.3

     negative rho (up, down):  1.944E-05 0.000E+00

     total cpu time spent up to now is      426.6 secs

     total energy              =   -1375.70098668 Ry
     estimated scf accuracy    <       0.00023833 Ry

     iteration #  8     ecut=   145.00 Ry     beta= 0.70
     Davidson diagonalization with overlap
     ethr =  3.97E-07,  avg # of iterations = 10.1

     negative rho (up, down):  2.418E-05 0.000E+00

     total cpu time spent up to now is      493.5 secs

     total energy              =   -1375.70105189 Ry
     estimated scf accuracy    <       0.00001638 Ry

     iteration #  9     ecut=   145.00 Ry     beta= 0.70
     Davidson diagonalization with overlap
     ethr =  2.73E-08,  avg # of iterations =  2.7

     negative rho (up, down):  2.455E-05 0.000E+00

     total cpu time spent up to now is      541.6 secs

     total energy              =   -1375.70105422 Ry
     estimated scf accuracy    <       0.00000535 Ry

     iteration # 10     ecut=   145.00 Ry     beta= 0.70
     Davidson diagonalization with overlap
     ethr =  8.92E-09,  avg # of iterations =  2.0

     negative rho (up, down):  2.471E-05 0.000E+00

     total cpu time spent up to now is      588.1 secs

     total energy              =   -1375.70105475 Ry
     estimated scf accuracy    <       0.00000048 Ry

     iteration # 11     ecut=   145.00 Ry     beta= 0.70
     Davidson diagonalization with overlap
     ethr =  8.08E-10,  avg # of iterations =  3.4

     negative rho (up, down):  2.471E-05 0.000E+00

     total cpu time spent up to now is      637.3 secs

     total energy              =   -1375.70105486 Ry
     estimated scf accuracy    <       0.00000006 Ry

     iteration # 12     ecut=   145.00 Ry     beta= 0.70
     Davidson diagonalization with overlap
     ethr =  9.87E-11,  avg # of iterations =  2.7

     negative rho (up, down):  2.472E-05 0.000E+00

     total cpu time spent up to now is      690.3 secs

     total energy              =   -1375.70105486 Ry
     estimated scf accuracy    <       0.00000003 Ry

     iteration # 13     ecut=   145.00 Ry     beta= 0.70
     Davidson diagonalization with overlap
     ethr =  4.34E-11,  avg # of iterations =  2.0

     negative rho (up, down):  2.474E-05 0.000E+00

     total cpu time spent up to now is      736.9 secs

     total energy              =   -1375.70105486 Ry
     estimated scf accuracy    <          3.9E-09 Ry

     iteration # 14     ecut=   145.00 Ry     beta= 0.70
     Davidson diagonalization with overlap
     ethr =  6.57E-12,  avg # of iterations =  3.4

     negative rho (up, down):  2.474E-05 0.000E+00

     total cpu time spent up to now is      791.5 secs

     total energy              =   -1375.70105486 Ry
     estimated scf accuracy    <          3.7E-10 Ry

     iteration # 15     ecut=   145.00 Ry     beta= 0.70
     Davidson diagonalization with overlap
     ethr =  6.22E-13,  avg # of iterations =  2.0

     negative rho (up, down):  2.474E-05 0.000E+00

     total cpu time spent up to now is      837.7 secs

     total energy              =   -1375.70105486 Ry
     estimated scf accuracy    <          1.9E-10 Ry

     iteration # 16     ecut=   145.00 Ry     beta= 0.70
     Davidson diagonalization with overlap
     ethr =  3.22E-13,  avg # of iterations =  2.0

     negative rho (up, down):  2.474E-05 0.000E+00

     total cpu time spent up to now is      882.0 secs

     total energy              =   -1375.70105486 Ry
     estimated scf accuracy    <          1.2E-10 Ry

     iteration # 17     ecut=   145.00 Ry     beta= 0.70
     Davidson diagonalization with overlap
     ethr =  2.07E-13,  avg # of iterations =  1.4

     negative rho (up, down):  2.474E-05 0.000E+00

     total cpu time spent up to now is      924.3 secs

     total energy              =   -1375.70105486 Ry
     estimated scf accuracy    <          5.6E-12 Ry

     iteration # 18     ecut=   145.00 Ry     beta= 0.70
     Davidson diagonalization with overlap
     ethr =  1.00E-13,  avg # of iterations =  1.5

     negative rho (up, down):  2.474E-05 0.000E+00

     total cpu time spent up to now is      966.6 secs

     total energy              =   -1375.70105487 Ry
     estimated scf accuracy    <          1.2E-12 Ry

     iteration # 19     ecut=   145.00 Ry     beta= 0.70
     Davidson diagonalization with overlap
     ethr =  1.00E-13,  avg # of iterations =  1.0

     negative rho (up, down):  2.474E-05 0.000E+00

     total cpu time spent up to now is     1007.5 secs

     End of self-consistent calculation

          k = 0.0000 0.0000 0.0000 ( 45141 PWs)   bands (ev):

   -67.6111 -67.5796 -34.5973 -34.1139 -33.6992 -33.6978 -33.6591 -33.6588
   -19.2565 -19.2424 -19.2233 -19.2228 -19.2226 -19.2225 -19.2015 -19.2014
   -19.2002 -19.1996 -19.1991 -19.1929 -19.1190 -19.1182 -12.8532  -8.3510
    -5.2550  -3.4728  -3.2165  -3.2016  -1.2333   0.3193   0.3393   2.4915
     2.5033   2.9052   2.9380   3.4868

          k = 0.0000 0.0945 0.0000 ( 45163 PWs)   bands (ev):

   -67.6066 -67.5760 -34.5824 -34.1127 -33.7581 -33.7163 -33.7158 -33.6684
   -19.2548 -19.2418 -19.2244 -19.2229 -19.2226 -19.2213 -19.2036 -19.2016
   -19.2004 -19.1995 -19.1956 -19.1896 -19.1224 -19.1217 -12.7138  -8.1323
    -5.3200  -3.5510  -3.3889  -3.1606  -1.0616  -0.0554   0.5496   1.8788
     2.1875   2.9299   3.3020   4.1837

          k = 0.0000 0.1890 0.0000 ( 45131 PWs)   bands (ev):

   -67.5942 -67.5663 -34.5422 -34.1165 -33.9137 -33.8667 -33.7607 -33.6965
   -19.2506 -19.2402 -19.2283 -19.2231 -19.2223 -19.2175 -19.2087 -19.2023
   -19.2018 -19.1979 -19.1859 -19.1807 -19.1314 -19.1309 -12.3439  -7.5536
    -5.4873  -4.0335  -3.4652  -3.0962  -1.0092  -0.4087   1.1333   1.3097
     2.0979   2.7900   3.6418   4.9430

          k = 0.0000 0.2836 0.0000 ( 45175 PWs)   bands (ev):

   -67.5770 -67.5533 -34.4925 -34.1942 -34.0669 -34.0417 -33.8183 -33.7373
   -19.2474 -19.2372 -19.2335 -19.2242 -19.2221 -19.2138 -19.2133 -19.2042
   -19.2013 -19.1951 -19.1726 -19.1684 -19.1435 -19.1423 -11.8705  -6.9307
    -5.6164  -4.4655  -3.5646  -3.1180  -1.6553   0.3113   1.1533   1.8930
     2.5016   2.6842   3.7584   5.5284

          k = 0.0001 0.3781 0.0000 ( 45215 PWs)   bands (ev):

   -67.5591 -67.5407 -34.4800 -34.3744 -34.2122 -34.0710 -33.8739 -33.7791
   -19.2478 -19.2380 -19.2329 -19.2261 -19.2254 -19.2137 -19.2121 -19.2050
   -19.1987 -19.1916 -19.1590 -19.1560 -19.1549 -19.1522 -11.4463  -6.8502
    -5.3720  -4.6851  -3.6247  -3.2346  -1.9185   1.1163   1.4875   2.0735
     2.6879   3.7808   3.9155   6.0520

          k = 0.0001 0.4726 0.0000 ( 45283 PWs)   bands (ev):

   -67.5454 -67.5322 -34.5603 -34.4953 -34.2405 -34.0839 -33.9138 -33.8101
   -19.2496 -19.2403 -19.2337 -19.2279 -19.2259 -19.2135 -19.2109 -19.2050
   -19.1953 -19.1888 -19.1628 -19.1585 -19.1487 -19.1468 -11.1754  -7.0606
    -5.1833  -4.7672  -3.4534  -3.3574  -1.8317   1.5216   1.7912   2.1380
     3.1448   4.3193   5.1291   6.1964

          k =-0.0001-0.5671 0.0000 ( 45276 PWs)   bands (ev):

   -67.5401 -67.5293 -34.6073 -34.5379 -34.2304 -34.0914 -33.9282 -33.8215
   -19.2505 -19.2408 -19.2354 -19.2287 -19.2252 -19.2143 -19.2092 -19.2051
   -19.1938 -19.1876 -19.1656 -19.1606 -19.1448 -19.1436 -11.0858  -7.1577
    -5.1754  -4.7934  -3.4075  -3.2810  -1.7695   1.4151   2.0585   2.3147
     3.2028   4.7970   5.7626   6.3426

          k = 0.0819 0.0473 0.0000 ( 45159 PWs)   bands (ev):

   -67.6066 -67.5760 -34.5823 -34.1128 -33.7593 -33.7159 -33.7152 -33.6685
   -19.2547 -19.2417 -19.2245 -19.2230 -19.2227 -19.2211 -19.2035 -19.2017
   -19.2010 -19.1989 -19.1956 -19.1897 -19.1224 -19.1217 -12.7136  -8.1321
    -5.3180  -3.5472  -3.3855  -3.1739  -1.0630  -0.0392   0.5333   1.8787
     2.1864   2.9620   3.2864   4.1702

          k = 0.0819 0.1418 0.0000 ( 45133 PWs)   bands (ev):

   -67.5981 -67.5694 -34.5547 -34.1134 -33.8557 -33.8330 -33.7358 -33.6967
   -19.2517 -19.2407 -19.2266 -19.2248 -19.2214 -19.2186 -19.2068 -19.2024
   -19.2017 -19.1982 -19.1890 -19.1835 -19.1286 -19.1281 -12.4586  -7.7277
    -5.4297  -3.8038  -3.6601  -2.9880  -0.7505  -0.6296   0.8723   1.6532
     1.8058   2.9994   3.5719   4.8304

          k = 0.0820 0.2363 0.0000 ( 45167 PWs)   bands (ev):

   -67.5833 -67.5580 -34.5088 -34.1401 -34.0116 -33.9915 -33.7954 -33.7403
   -19.2471 -19.2391 -19.2309 -19.2260 -19.2206 -19.2148 -19.2119 -19.2037
   -19.2019 -19.1963 -19.1775 -19.1729 -19.1391 -19.1387 -12.0357  -7.0694
    -5.5910  -4.3093  -3.8493  -2.7950  -1.3678  -0.1433   0.7435   1.9403
     2.2363   2.7778   3.9442   5.3331

          k = 0.0820 0.3308 0.0000 ( 45192 PWs)   bands (ev):

   -67.5657 -67.5453 -34.4710 -34.2833 -34.1623 -34.0644 -33.8651 -33.7884
   -19.2454 -19.2356 -19.2353 -19.2277 -19.2216 -19.2151 -19.2122 -19.2050
   -19.1997 -19.1936 -19.1641 -19.1606 -19.1511 -19.1495 -11.5865  -6.6418
    -5.5398  -4.6355  -4.0064  -2.8076  -1.8144   0.5099   0.8127   2.1932
     2.8455   3.4094   4.0767   5.9383

          k = 0.0820 0.4254 0.0000 ( 45229 PWs)   bands (ev):

   -67.5499 -67.5348 -34.5053 -34.4341 -34.2358 -34.0826 -33.9224 -33.8304
   -19.2469 -19.2388 -19.2329 -19.2279 -19.2250 -19.2141 -19.2123 -19.2051
   -19.1966 -19.1908 -19.1610 -19.1580 -19.1520 -19.1497 -11.2419  -6.7897
    -5.1711  -4.7569  -4.0131  -3.0092  -1.8174   0.8259   1.5702   2.0189
     3.6578   3.9488   4.7817   6.2965

          k = 0.0820 0.5199 0.0000 ( 45256 PWs)   bands (ev):

   -67.5401 -67.5293 -34.5782 -34.5108 -34.2280 -34.0977 -33.9539 -33.8549
   -19.2485 -19.2400 -19.2344 -19.2286 -19.2247 -19.2147 -19.2106 -19.2050
   -19.1946 -19.1889 -19.1665 -19.1622 -19.1450 -19.1436 -11.0655  -6.9721
    -5.0879  -4.7603  -3.7749  -3.2366  -1.6601   1.1841   1.6764   2.2607
     3.9726   4.4362   5.7495   6.2766

          k = 0.0818-0.5199 0.0000 ( 45254 PWs)   bands (ev):

   -67.5401 -67.5293 -34.5780 -34.5106 -34.2280 -34.0977 -33.9540 -33.8549
   -19.2485 -19.2400 -19.2342 -19.2287 -19.2247 -19.2146 -19.2107 -19.2050
   -19.1946 -19.1889 -19.1665 -19.1622 -19.1450 -19.1436 -11.0657  -6.9719
    -5.0878  -4.7601  -3.7711  -3.2411  -1.6594   1.1847   1.6763   2.2613
     3.9716   4.4369   5.7493   6.2763

          k = 0.0818-0.4253 0.0000 ( 45235 PWs)   bands (ev):

   -67.5499 -67.5348 -34.5049 -34.4337 -34.2357 -34.0827 -33.9228 -33.8305
   -19.2469 -19.2388 -19.2327 -19.2279 -19.2252 -19.2138 -19.2127 -19.2051
   -19.1965 -19.1908 -19.1610 -19.1580 -19.1520 -19.1497 -11.2424  -6.7890
    -5.1720  -4.7555  -4.0081  -3.0150  -1.8163   0.8266   1.5741   2.0167
     3.6534   3.9483   4.7805   6.2947

          k = 0.0819-0.3308 0.0000 ( 45194 PWs)   bands (ev):

   -67.5658 -67.5453 -34.4710 -34.2826 -34.1618 -34.0644 -33.8657 -33.7886
   -19.2454 -19.2355 -19.2353 -19.2276 -19.2216 -19.2152 -19.2125 -19.2049
   -19.1996 -19.1936 -19.1641 -19.1606 -19.1511 -19.1495 -11.5870  -6.6415
    -5.5413  -4.6331  -4.0024  -2.8107  -1.8142   0.5070   0.8188   2.1921
     2.8392   3.4076   4.0758   5.9406

          k = 0.0819-0.2363 0.0000 ( 45173 PWs)   bands (ev):

   -67.5833 -67.5580 -34.5089 -34.1396 -34.0115 -33.9907 -33.7961 -33.7405
   -19.2471 -19.2391 -19.2309 -19.2259 -19.2205 -19.2151 -19.2120 -19.2035
   -19.2018 -19.1965 -19.1775 -19.1729 -19.1391 -19.1387 -12.0362  -7.0698
    -5.5929  -4.3069  -3.8467  -2.7935  -1.3696  -0.1415   0.7406   1.9409
     2.2379   2.7721   3.9398   5.3378

          k = 0.0819-0.1418 0.0000 ( 45137 PWs)   bands (ev):

   -67.5982 -67.5694 -34.5548 -34.1133 -33.8548 -33.8328 -33.7364 -33.6968
   -19.2517 -19.2407 -19.2266 -19.2246 -19.2212 -19.2189 -19.2069 -19.2022
   -19.2014 -19.1985 -19.1890 -19.1835 -19.1286 -19.1281 -12.4589  -7.7281
    -5.4317  -3.8042  -3.6582  -2.9832  -0.7492  -0.6343   0.8748   1.6477
     1.8099   2.9962   3.5657   4.8386

          k = 0.0819-0.0472 0.0000 ( 45159 PWs)   bands (ev):

   -67.6066 -67.5760 -34.5824 -34.1128 -33.7587 -33.7160 -33.7156 -33.6685
   -19.2548 -19.2417 -19.2245 -19.2229 -19.2227 -19.2212 -19.2036 -19.2016
   -19.2007 -19.1992 -19.1956 -19.1897 -19.1224 -19.1217 -12.7137  -8.1322
    -5.3188  -3.5489  -3.3870  -3.1680  -1.0625  -0.0465   0.5407   1.8787
     2.1871   2.9481   3.2925   4.1764

          k = 0.1638 0.0946 0.0000 ( 45141 PWs)   bands (ev):

   -67.5941 -67.5663 -34.5420 -34.1169 -33.9149 -33.8672 -33.7601 -33.6967
   -19.2504 -19.2402 -19.2285 -19.2229 -19.2228 -19.2171 -19.2085 -19.2030
   -19.2020 -19.1974 -19.1860 -19.1808 -19.1314 -19.1309 -12.3431  -7.5526
    -5.4797  -4.0348  -3.4704  -3.1111  -1.0096  -0.3973   1.1206   1.3212
     2.0944   2.8195   3.6309   4.9345

          k = 0.1639 0.1891 0.0000 ( 45163 PWs)   bands (ev):

   -67.5832 -67.5580 -34.5086 -34.1404 -34.0128 -33.9909 -33.7956 -33.7405
   -19.2468 -19.2393 -19.2309 -19.2260 -19.2208 -19.2146 -19.2118 -19.2040
   -19.2020 -19.1961 -19.1775 -19.1729 -19.1392 -19.1386 -12.0352  -7.0684
    -5.5853  -4.3126  -3.8542  -2.8031  -1.3673  -0.1382   0.7507   1.9367
     2.2377   2.7863   3.9418   5.3283

          k = 0.1639 0.2836 0.0000 ( 45175 PWs)   bands (ev):

   -67.5680 -67.5469 -34.4708 -34.2272 -34.1483 -34.0558 -33.8611 -33.8161
   -19.2413 -19.2390 -19.2335 -19.2294 -19.2200 -19.2150 -19.2131 -19.2051
   -19.1999 -19.1946 -19.1660 -19.1623 -19.1495 -19.1492 -11.6352  -6.4253
    -5.6906  -4.6301  -4.2211  -2.5251  -1.6907   0.0605   0.4338   2.2173
     3.0404   3.2026   4.4844   5.7314

          k = 0.1639 0.3781 0.0000 ( 45225 PWs)   bands (ev):

   -67.5523 -67.5363 -34.4660 -34.3529 -34.2295 -34.0822 -33.9451 -33.8863
   -19.2414 -19.2359 -19.2350 -19.2301 -19.2224 -19.2155 -19.2134 -19.2055
   -19.1966 -19.1934 -19.1604 -19.1593 -19.1539 -19.1513 -11.2678  -6.2102
    -5.4666  -4.8015  -4.3835  -2.6462  -1.6842  -0.1877   1.2092   2.1695
     3.6379   4.2116   4.8799   6.3391

          k = 0.1639 0.4726 0.0000 ( 45229 PWs)   bands (ev):

   -67.5400 -67.5293 -34.5108 -34.4431 -34.2274 -34.1175 -34.0033 -33.9352
   -19.2437 -19.2370 -19.2338 -19.2274 -19.2245 -19.2159 -19.2134 -19.2048
   -19.1956 -19.1920 -19.1681 -19.1656 -19.1452 -19.1437 -11.0243  -6.4521
    -4.9282  -4.8664  -4.4036  -3.0259  -1.4537   0.0245   1.9795   2.3105
     3.8266   4.5344   5.4229   6.3568

          k = 0.1639 0.5672 0.0000 ( 45196 PWs)   bands (ev):

   -67.5351 -67.5272 -34.5379 -34.4721 -34.2096 -34.1444 -34.0195 -33.9535
   -19.2447 -19.2373 -19.2325 -19.2298 -19.2227 -19.2165 -19.2128 -19.2045
   -19.1957 -19.1913 -19.1709 -19.1678 -19.1419 -19.1410 -10.9413  -6.5624
    -4.8974  -4.7266  -4.3083  -3.2765  -1.3141   0.2282   2.2186   2.4622
     4.0580   4.4469   5.5832   6.1198

          k = 0.1638-0.4726 0.0000 ( 45239 PWs)   bands (ev):

   -67.5401 -67.5293 -34.5101 -34.4424 -34.2273 -34.1179 -34.0039 -33.9352
   -19.2436 -19.2370 -19.2335 -19.2276 -19.2247 -19.2159 -19.2136 -19.2047
   -19.1955 -19.1920 -19.1681 -19.1656 -19.1452 -19.1437 -11.0250  -6.4510
    -4.9313  -4.8633  -4.3987  -3.0309  -1.4525   0.0251   1.9836   2.3071
     3.8289   4.5246   5.4242   6.3574

          k = 0.1638-0.3781 0.0000 ( 45217 PWs)   bands (ev):

   -67.5524 -67.5363 -34.4654 -34.3516 -34.2292 -34.0824 -33.9460 -33.8864
   -19.2413 -19.2359 -19.2348 -19.2304 -19.2225 -19.2155 -19.2138 -19.2053
   -19.1964 -19.1935 -19.1604 -19.1593 -19.1539 -19.1513 -11.2689  -6.2091
    -5.4691  -4.7972  -4.3787  -2.6510  -1.6820  -0.1897   1.2148   2.1644
     3.6362   4.2045   4.8752   6.3428

          k = 0.1638-0.2835 0.0000 ( 45177 PWs)   bands (ev):

   -67.5681 -67.5469 -34.4708 -34.2257 -34.1477 -34.0557 -33.8619 -33.8164
   -19.2414 -19.2389 -19.2334 -19.2295 -19.2199 -19.2152 -19.2136 -19.2048
   -19.1997 -19.1947 -19.1660 -19.1622 -19.1495 -19.1492 -11.6362  -6.4260
    -5.6935  -4.6249  -4.2163  -2.5245  -1.6905   0.0527   0.4398   2.2141
     3.0348   3.2005   4.4776   5.7403

          k = 0.1638-0.1890 0.0000 ( 45169 PWs)   bands (ev):

   -67.5833 -67.5580 -34.5088 -34.1398 -34.0118 -33.9905 -33.7962 -33.7407
   -19.2469 -19.2392 -19.2309 -19.2259 -19.2206 -19.2150 -19.2120 -19.2036
   -19.2018 -19.1963 -19.1775 -19.1729 -19.1392 -19.1387 -12.0359  -7.0694
    -5.5895  -4.3089  -3.8494  -2.7980  -1.3693  -0.1386   0.7445   1.9390
     2.2386   2.7770   3.9380   5.3353

          k = 0.1638-0.0945 0.0000 ( 45134 PWs)   bands (ev):

   -67.5942 -67.5663 -34.5421 -34.1168 -33.9141 -33.8670 -33.7604 -33.6967
   -19.2505 -19.2402 -19.2285 -19.2229 -19.2226 -19.2173 -19.2087 -19.2026
   -19.2018 -19.1977 -19.1860 -19.1807 -19.1314 -19.1309 -12.3435  -7.5532
    -5.4828  -4.0343  -3.4679  -3.1047  -1.0096  -0.4022   1.1264   1.3161
     2.0960   2.8066   3.6350   4.9384

          k = 0.1638 0.0000 0.0000 ( 45119 PWs)   bands (ev):

   -67.5981 -67.5694 -34.5546 -34.1136 -33.8566 -33.8331 -33.7351 -33.6967
   -19.2516 -19.2406 -19.2267 -19.2248 -19.2214 -19.2185 -19.2069 -19.2026
   -19.2018 -19.1980 -19.1890 -19.1836 -19.1286 -19.1281 -12.4583  -7.7274
    -5.4269  -3.8035  -3.6623  -2.9943  -0.7522  -0.6239   0.8695   1.6612
     1.8005   3.0026   3.5797   4.8190

          k = 0.2458 0.1418 0.0000 ( 45175 PWs)   bands (ev):

   -67.5768 -67.5532 -34.4921 -34.1955 -34.0685 -34.0415 -33.8182 -33.7375
   -19.2468 -19.2373 -19.2337 -19.2239 -19.2227 -19.2138 -19.2128 -19.2049
   -19.2016 -19.1947 -19.1726 -19.1684 -19.1435 -19.1421 -11.8690  -6.9278
    -5.6048  -4.4757  -3.5742  -3.1348  -1.6534   0.3210   1.1721   1.8880
     2.5281   2.6773   3.7508   5.5201

          k = 0.2458 0.2363 0.0000 ( 45192 PWs)   bands (ev):

   -67.5655 -67.5452 -34.4710 -34.2841 -34.1626 -34.0647 -33.8657 -33.7887
   -19.2449 -19.2360 -19.2350 -19.2276 -19.2218 -19.2151 -19.2122 -19.2055
   -19.1999 -19.1934 -19.1641 -19.1606 -19.1511 -19.1494 -11.5852  -6.6371
    -5.5336  -4.6441  -4.0130  -2.8240  -1.8130   0.5275   0.8215   2.2034
     2.8459   3.4037   4.0787   5.9288

          k = 0.2458 0.3309 0.0000 ( 45211 PWs)   bands (ev):

   -67.5522 -67.5363 -34.4662 -34.3535 -34.2291 -34.0823 -33.9459 -33.8862
   -19.2415 -19.2357 -19.2345 -19.2305 -19.2225 -19.2152 -19.2138 -19.2058
   -19.1967 -19.1933 -19.1605 -19.1591 -19.1539 -19.1513 -11.2670  -6.2041
    -5.4714  -4.8027  -4.3863  -2.6558  -1.6845  -0.1764   1.2143   2.1739
     3.6379   4.2092   4.8826   6.3340

          k = 0.2458 0.4254 0.0000 ( 45218 PWs)   bands (ev):

   -67.5399 -67.5293 -34.4727 -34.3883 -34.2495 -34.1156 -34.0344 -33.9845
   -19.2410 -19.2348 -19.2309 -19.2300 -19.2248 -19.2164 -19.2149 -19.2048
   -19.1952 -19.1946 -19.1685 -19.1676 -19.1454 -19.1437 -11.0029  -5.7682
    -5.6046  -4.7459  -4.5331  -2.8584  -1.2601  -0.5968   1.9002   2.4536
     3.6697   4.5718   5.2454   6.6388

          k = 0.2458 0.5199 0.0000 ( 45216 PWs)   bands (ev):

   -67.5319 -67.5262 -34.4639 -34.3991 -34.2520 -34.1837 -34.0666 -34.0418
   -19.2420 -19.2322 -19.2308 -19.2285 -19.2231 -19.2186 -19.2162 -19.2028
   -19.1969 -19.1948 -19.1736 -19.1723 -19.1402 -19.1395 -10.8556  -5.9400
    -5.1446  -4.7279  -4.6207  -3.1525  -0.9459  -0.4718   2.5593   2.7676
     3.5031   4.1695   5.1625   6.3215

          k = 0.2459 0.6144 0.0000 ( 45220 PWs)   bands (ev):

   -67.5319 -67.5262 -34.4632 -34.3985 -34.2521 -34.1844 -34.0678 -34.0408
   -19.2419 -19.2320 -19.2308 -19.2286 -19.2234 -19.2187 -19.2162 -19.2028
   -19.1969 -19.1947 -19.1736 -19.1723 -19.1403 -19.1395 -10.8561  -5.9387
    -5.1446  -4.7279  -4.6186  -3.1541  -0.9455  -0.4717   2.5622   2.7634
     3.5069   4.1617   5.1629   6.3203

          k = 0.2457-0.4253 0.0000 ( 45215 PWs)   bands (ev):

   -67.5400 -67.5293 -34.4715 -34.3865 -34.2501 -34.1162 -34.0354 -33.9842
   -19.2407 -19.2346 -19.2309 -19.2304 -19.2249 -19.2166 -19.2149 -19.2046
   -19.1952 -19.1944 -19.1685 -19.1677 -19.1454 -19.1437 -11.0042  -5.7663
    -5.6050  -4.7439  -4.5290  -2.8611  -1.2574  -0.6000   1.9038   2.4473
     3.6725   4.5586   5.2452   6.6356

          k = 0.2457-0.3308 0.0000 ( 45217 PWs)   bands (ev):

   -67.5523 -67.5363 -34.4655 -34.3518 -34.2291 -34.0824 -33.9464 -33.8864
   -19.2412 -19.2358 -19.2346 -19.2306 -19.2225 -19.2153 -19.2140 -19.2055
   -19.1965 -19.1933 -19.1605 -19.1592 -19.1539 -19.1513 -11.2684  -6.2061
    -5.4716  -4.7979  -4.3804  -2.6560  -1.6821  -0.1836   1.2175   2.1667
     3.6362   4.2031   4.8768   6.3395

          k = 0.2457-0.2363 0.0000 ( 45200 PWs)   bands (ev):

   -67.5657 -67.5452 -34.4709 -34.2830 -34.1620 -34.0645 -33.8660 -33.7888
   -19.2450 -19.2357 -19.2352 -19.2276 -19.2217 -19.2152 -19.2125 -19.2051
   -19.1997 -19.1935 -19.1641 -19.1606 -19.1511 -19.1494 -11.5863  -6.6394
    -5.5375  -4.6379  -4.0060  -2.8197  -1.8131   0.5168   0.8233   2.1976
     2.8395   3.4044   4.0767   5.9354

          k = 0.2457-0.1417 0.0000 ( 45181 PWs)   bands (ev):

   -67.5768 -67.5533 -34.4923 -34.1950 -34.0675 -34.0416 -33.8183 -33.7375
   -19.2470 -19.2373 -19.2336 -19.2240 -19.2223 -19.2139 -19.2131 -19.2046
   -19.2014 -19.1949 -19.1726 -19.1684 -19.1435 -19.1422 -11.8697  -6.9295
    -5.6096  -4.4713  -3.5695  -3.1276  -1.6541   0.3168   1.1635   1.8904
     2.5164   2.6804   3.7536   5.5239

          k = 0.2457-0.0472 0.0000 ( 45157 PWs)   bands (ev):

   -67.5832 -67.5580 -34.5086 -34.1410 -34.0121 -33.9921 -33.7949 -33.7403
   -19.2468 -19.2392 -19.2311 -19.2260 -19.2207 -19.2146 -19.2119 -19.2039
   -19.2020 -19.1961 -19.1775 -19.1730 -19.1391 -19.1387 -12.0349  -7.0688
    -5.5850  -4.3144  -3.8547  -2.8019  -1.3652  -0.1432   0.7516   1.9377
     2.2358   2.7893   3.9481   5.3240

          k = 0.2458 0.0473 0.0000 ( 45163 PWs)   bands (ev):

   -67.5832 -67.5580 -34.5085 -34.1411 -34.0130 -33.9916 -33.7950 -33.7403
   -19.2467 -19.2392 -19.2311 -19.2260 -19.2208 -19.2145 -19.2119 -19.2041
   -19.2021 -19.1960 -19.1776 -19.1730 -19.1391 -19.1386 -12.0347  -7.0682
    -5.5827  -4.3158  -3.8569  -2.8055  -1.3650  -0.1410   0.7549   1.9361
     2.2365   2.7929   3.9474   5.3218

          k = 0.3277 0.1891 0.0000 ( 45221 PWs)   bands (ev):

   -67.5588 -67.5407 -34.4806 -34.3759 -34.2118 -34.0720 -33.8742 -33.7796
   -19.2475 -19.2380 -19.2325 -19.2260 -19.2257 -19.2141 -19.2119 -19.2058
   -19.1988 -19.1914 -19.1590 -19.1560 -19.1549 -19.1519 -11.4438  -6.8448
    -5.3634  -4.6981  -3.6366  -3.2527  -1.9166   1.1359   1.5051   2.0956
     2.6844   3.7780   3.9101   6.0439

          k = 0.3277 0.2836 0.0000 ( 45226 PWs)   bands (ev):

   -67.5495 -67.5347 -34.5064 -34.4356 -34.2342 -34.0838 -33.9232 -33.8308
   -19.2468 -19.2386 -19.2322 -19.2278 -19.2254 -19.2140 -19.2128 -19.2058
   -19.1966 -19.1907 -19.1610 -19.1577 -19.1520 -19.1497 -11.2396  -6.7845
    -5.1665  -4.7679  -4.0202  -3.0286  -1.8151   0.8494   1.5808   2.0329
     3.6563   3.9492   4.7813   6.2855

          k = 0.3277 0.3781 0.0000 ( 45231 PWs)   bands (ev):

   -67.5397 -67.5293 -34.5120 -34.4446 -34.2255 -34.1179 -34.0047 -33.9349
   -19.2442 -19.2363 -19.2332 -19.2273 -19.2250 -19.2157 -19.2140 -19.2053
   -19.1957 -19.1919 -19.1681 -19.1653 -19.1452 -19.1437 -11.0224  -6.4488
    -4.9347  -4.8685  -4.4061  -3.0379  -1.4543   0.0395   1.9901   2.3205
     3.8283   4.5298   5.4240   6.3670

          k = 0.3277 0.4727 0.0000 ( 45226 PWs)   bands (ev):

   -67.5317 -67.5263 -34.4651 -34.4005 -34.2512 -34.1821 -34.0681 -34.0412
   -19.2424 -19.2320 -19.2300 -19.2284 -19.2237 -19.2185 -19.2165 -19.2031
   -19.1971 -19.1946 -19.1736 -19.1721 -19.1402 -19.1395 -10.8543  -5.9395
    -5.1487  -4.7328  -4.6172  -3.1568  -0.9494  -0.4636   2.5681   2.7724
     3.5020   4.1695   5.1610   6.3234

          k = 0.3278 0.5672 0.0000 ( 45245 PWs)   bands (ev):

   -67.5271 -67.5268 -34.3854 -34.3447 -34.3438 -34.2327 -34.0831 -34.0806
   -19.2417 -19.2299 -19.2299 -19.2233 -19.2230 -19.2214 -19.2203 -19.1997
   -19.1981 -19.1978 -19.1754 -19.1753 -19.1382 -19.1382 -10.7908  -5.4411
    -5.4373  -4.9154  -4.5614  -3.1833  -0.6387  -0.6333   2.9579   2.9594
     3.4960   3.5036   4.8875   6.6778

          k = 0.3278 0.6617 0.0000 ( 45222 PWs)   bands (ev):

   -67.5318 -67.5263 -34.4639 -34.3989 -34.2518 -34.1836 -34.0685 -34.0406
   -19.2420 -19.2319 -19.2304 -19.2286 -19.2237 -19.2186 -19.2163 -19.2029
   -19.1971 -19.1945 -19.1736 -19.1723 -19.1402 -19.1395 -10.8553  -5.9388
    -5.1468  -4.7304  -4.6170  -3.1561  -0.9474  -0.4673   2.5671   2.7659
     3.5062   4.1619   5.1623   6.3207

          k = 0.3276-0.3780 0.0000 ( 45233 PWs)   bands (ev):

   -67.5399 -67.5293 -34.5109 -34.4430 -34.2265 -34.1180 -34.0046 -33.9351
   -19.2438 -19.2367 -19.2332 -19.2276 -19.2249 -19.2158 -19.2139 -19.2050
   -19.1956 -19.1918 -19.1681 -19.1654 -19.1452 -19.1437 -11.0239  -6.4496
    -4.9347  -4.8644  -4.4004  -3.0369  -1.4526   0.0332   1.9891   2.3126
     3.8301   4.5220   5.4248   6.3622

          k = 0.3276-0.2835 0.0000 ( 45234 PWs)   bands (ev):

   -67.5497 -67.5348 -34.5056 -34.4342 -34.2350 -34.0832 -33.9232 -33.8308
   -19.2467 -19.2387 -19.2324 -19.2279 -19.2254 -19.2139 -19.2130 -19.2055
   -19.1965 -19.1907 -19.1610 -19.1578 -19.1520 -19.1497 -11.2411  -6.7867
    -5.1694  -4.7617  -4.0120  -3.0252  -1.8146   0.8395   1.5793   2.0245
     3.6523   3.9486   4.7802   6.2878

          k = 0.3276-0.1890 0.0000 ( 45215 PWs)   bands (ev):

   -67.5590 -67.5407 -34.4803 -34.3751 -34.2121 -34.0715 -33.8742 -33.7794
   -19.2476 -19.2380 -19.2327 -19.2260 -19.2255 -19.2140 -19.2120 -19.2054
   -19.1987 -19.1915 -19.1590 -19.1560 -19.1548 -19.1521 -11.4450  -6.8477
    -5.3670  -4.6924  -3.6307  -3.2450  -1.9171   1.1274   1.4965   2.0857
     2.6859   3.7793   3.9123   6.0468

          k = 0.3276-0.0945 0.0000 ( 45189 PWs)   bands (ev):

   -67.5656 -67.5452 -34.4710 -34.2846 -34.1629 -34.0645 -33.8649 -33.7884
   -19.2451 -19.2358 -19.2352 -19.2277 -19.2216 -19.2152 -19.2121 -19.2053
   -19.1999 -19.1935 -19.1641 -19.1606 -19.1510 -19.1494 -11.5851  -6.6400
    -5.5342  -4.6435  -4.0142  -2.8136  -1.8139   0.5234   0.8094   2.2008
     2.8536   3.4091   4.0781   5.9302

          k = 0.3277 0.0001 0.0000 ( 45167 PWs)   bands (ev):

   -67.5679 -67.5469 -34.4707 -34.2290 -34.1486 -34.0560 -33.8604 -33.8159
   -19.2410 -19.2391 -19.2337 -19.2294 -19.2201 -19.2149 -19.2129 -19.2053
   -19.2001 -19.1945 -19.1660 -19.1623 -19.1495 -19.1492 -11.6340  -6.4249
    -5.6867  -4.6368  -4.2263  -2.5266  -1.6910   0.0704   0.4257   2.2218
     3.0473   3.2063   4.4924   5.7199

          k = 0.3277 0.0946 0.0000 ( 45187 PWs)   bands (ev):

   -67.5655 -67.5452 -34.4710 -34.2850 -34.1630 -34.0648 -33.8651 -33.7885
   -19.2449 -19.2360 -19.2350 -19.2277 -19.2217 -19.2151 -19.2121 -19.2056
   -19.2000 -19.1934 -19.1641 -19.1606 -19.1511 -19.1494 -11.5845  -6.6374
    -5.5318  -4.6472  -4.0172  -2.8211  -1.8135   0.5311   0.8136   2.2054
     2.8538   3.4067   4.0792   5.9259

          k = 0.4096 0.2364 0.0000 ( 45278 PWs)   bands (ev):

   -67.5450 -67.5321 -34.5621 -34.4976 -34.2376 -34.0859 -33.9143 -33.8107
   -19.2496 -19.2401 -19.2332 -19.2276 -19.2261 -19.2134 -19.2116 -19.2058
   -19.1952 -19.1887 -19.1627 -19.1581 -19.1487 -19.1469 -11.1720  -7.0568
    -5.1782  -4.7800  -3.4642  -3.3761  -1.8284   1.5322   1.8287   2.1537
     3.1356   4.3231   5.1300   6.1879

          k = 0.4096 0.3309 0.0000 ( 45254 PWs)   bands (ev):

   -67.5396 -67.5293 -34.5799 -34.5131 -34.2244 -34.1000 -33.9547 -33.8553
   -19.2487 -19.2395 -19.2339 -19.2284 -19.2247 -19.2146 -19.2113 -19.2058
   -19.1946 -19.1888 -19.1664 -19.1618 -19.1449 -19.1436 -11.0622  -6.9694
    -5.0853  -4.7719  -3.7842  -3.2516  -1.6578   1.2050   1.6867   2.2807
     3.9743   4.4370   5.7565   6.2748

          k = 0.4097 0.4254 0.0000 ( 45208 PWs)   bands (ev):

   -67.5347 -67.5272 -34.5399 -34.4746 -34.2059 -34.1455 -34.0209 -33.9531
   -19.2453 -19.2364 -19.2325 -19.2295 -19.2226 -19.2164 -19.2134 -19.2052
   -19.1958 -19.1912 -19.1709 -19.1675 -19.1419 -19.1410 -10.9382  -6.5618
    -4.8993  -4.7359  -4.3132  -3.2837  -1.3157   0.2414   2.2283   2.4794
     4.0531   4.4557   5.5793   6.1268

          k = 0.4097 0.5199 0.0000 ( 45222 PWs)   bands (ev):

   -67.5316 -67.5263 -34.4659 -34.4014 -34.2502 -34.1820 -34.0674 -34.0417
   -19.2425 -19.2322 -19.2300 -19.2283 -19.2234 -19.2184 -19.2167 -19.2032
   -19.1970 -19.1947 -19.1736 -19.1721 -19.1402 -19.1395 -10.8536  -5.9412
    -5.1485  -4.7334  -4.6192  -3.1548  -0.9503  -0.4638   2.5640   2.7785
     3.4969   4.1787   5.1616   6.3248

          k = 0.4097 0.6145 0.0000 ( 45218 PWs)   bands (ev):

   -67.5317 -67.5263 -34.4655 -34.4005 -34.2508 -34.1827 -34.0666 -34.0421
   -19.2423 -19.2323 -19.2303 -19.2283 -19.2231 -19.2185 -19.2165 -19.2031
   -19.1969 -19.1948 -19.1735 -19.1722 -19.1402 -19.1395 -10.8541  -5.9417
    -5.1466  -4.7310  -4.6212  -3.1526  -0.9487  -0.4676   2.5601   2.7761
     3.4974   4.1790   5.1624   6.3231

          k = 0.4097 0.7090 0.0000 ( 45204 PWs)   bands (ev):

   -67.5349 -67.5272 -34.5391 -34.4731 -34.2077 -34.1450 -34.0203 -33.9534
   -19.2449 -19.2369 -19.2325 -19.2296 -19.2226 -19.2165 -19.2132 -19.2049
   -19.1958 -19.1912 -19.1708 -19.1676 -19.1419 -19.1410 -10.9395  -6.5625
    -4.8982  -4.7320  -4.3115  -3.2797  -1.3147   0.2352   2.2234   2.4718
     4.0550   4.4521   5.5812   6.1230

          k = 0.4095-0.3308 0.0000 ( 45252 PWs)   bands (ev):

   -67.5398 -67.5293 -34.5791 -34.5116 -34.2262 -34.0989 -33.9545 -33.8552
   -19.2485 -19.2398 -19.2341 -19.2286 -19.2247 -19.2147 -19.2111 -19.2054
   -19.1946 -19.1888 -19.1664 -19.1620 -19.1449 -19.1436 -11.0638  -6.9709
    -5.0863  -4.7668  -3.7766  -3.2484  -1.6577   1.1959   1.6814   2.2722
     3.9722   4.4373   5.7532   6.2748

          k = 0.4095-0.2362 0.0000 ( 45281 PWs)   bands (ev):

   -67.5452 -67.5322 -34.5614 -34.4962 -34.2390 -34.0849 -33.9141 -33.8105
   -19.2495 -19.2403 -19.2335 -19.2278 -19.2260 -19.2135 -19.2113 -19.2054
   -19.1953 -19.1887 -19.1627 -19.1583 -19.1487 -19.1468 -11.1735  -7.0591
    -5.1804  -4.7745  -3.4587  -3.3678  -1.8294   1.5267   1.8123   2.1463
     3.1392   4.3216   5.1296   6.1911

          k = 0.4096-0.1417 0.0000 ( 45226 PWs)   bands (ev):

   -67.5496 -67.5348 -34.5064 -34.4352 -34.2350 -34.0832 -33.9225 -33.8306
   -19.2468 -19.2388 -19.2328 -19.2278 -19.2250 -19.2141 -19.2124 -19.2055
   -19.1967 -19.1907 -19.1610 -19.1578 -19.1520 -19.1497 -11.2399  -6.7881
    -5.1674  -4.7649  -4.0223  -3.0136  -1.8173   0.8379   1.5705   2.0300
     3.6619   3.9495   4.7835   6.2925

          k = 0.4096-0.0472 0.0000 ( 45223 PWs)   bands (ev):

   -67.5521 -67.5363 -34.4668 -34.3547 -34.2291 -34.0823 -33.9448 -33.8860
   -19.2415 -19.2360 -19.2349 -19.2300 -19.2223 -19.2155 -19.2133 -19.2058
   -19.1969 -19.1934 -19.1604 -19.1592 -19.1539 -19.1513 -11.2660  -6.2086
    -5.4664  -4.8073  -4.3904  -2.6462  -1.6876  -0.1791   1.2043   2.1794
     3.6398   4.2192   4.8873   6.3317

          k = 0.4096 0.0473 0.0000 ( 45219 PWs)   bands (ev):

   -67.5521 -67.5363 -34.4669 -34.3551 -34.2288 -34.0824 -33.9451 -33.8859
   -19.2416 -19.2358 -19.2346 -19.2303 -19.2224 -19.2153 -19.2135 -19.2059
   -19.1969 -19.1933 -19.1604 -19.1591 -19.1539 -19.1513 -11.2657  -6.2055
    -5.4688  -4.8079  -4.3915  -2.6507  -1.6879  -0.1739   1.2067   2.1815
     3.6397   4.2182   4.8884   6.3297

          k = 0.4096 0.1419 0.0000 ( 45226 PWs)   bands (ev):

   -67.5495 -67.5347 -34.5068 -34.4361 -34.2341 -34.0839 -33.9228 -33.8307
   -19.2469 -19.2386 -19.2325 -19.2278 -19.2251 -19.2140 -19.2126 -19.2059
   -19.1966 -19.1907 -19.1610 -19.1577 -19.1520 -19.1497 -11.2389  -6.7853
    -5.1654  -4.7696  -4.0255  -3.0228  -1.8166   0.8484   1.5758   2.0363
     3.6614   3.9495   4.7834   6.2883

          k =-0.4915-0.2837 0.0000 ( 45268 PWs)   bands (ev):

   -67.5396 -67.5293 -34.6092 -34.5405 -34.2263 -34.0943 -33.9288 -33.8221
   -19.2506 -19.2404 -19.2351 -19.2284 -19.2252 -19.2143 -19.2100 -19.2060
   -19.1938 -19.1875 -19.1655 -19.1602 -19.1448 -19.1436 -11.0821  -7.1551
    -5.1722  -4.8057  -3.4264  -3.2908  -1.7654   1.4261   2.0953   2.3332
     3.1928   4.7992   5.7718   6.3352

          k =-0.4915-0.1891 0.0000 ( 45256 PWs)   bands (ev):

   -67.5396 -67.5293 -34.5801 -34.5133 -34.2243 -34.1001 -33.9545 -33.8553
   -19.2487 -19.2395 -19.2341 -19.2283 -19.2247 -19.2146 -19.2113 -19.2058
   -19.1946 -19.1888 -19.1664 -19.1618 -19.1449 -19.1436 -11.0619  -6.9698
    -5.0855  -4.7721  -3.7880  -3.2473  -1.6587   1.2042   1.6869   2.2800
     3.9754   4.4360   5.7571   6.2757

          k =-0.4915-0.0946 0.0000 ( 45231 PWs)   bands (ev):

   -67.5397 -67.5293 -34.5127 -34.4455 -34.2249 -34.1180 -34.0043 -33.9348
   -19.2443 -19.2363 -19.2336 -19.2270 -19.2248 -19.2156 -19.2139 -19.2054
   -19.1957 -19.1920 -19.1681 -19.1653 -19.1452 -19.1437 -11.0214  -6.4503
    -4.9315  -4.8721  -4.4115  -3.0325  -1.4562   0.0385   1.9848   2.3257
     3.8249   4.5411   5.4238   6.3673

          k =-0.4915-0.0001 0.0000 ( 45221 PWs)   bands (ev):

   -67.5397 -67.5293 -34.4740 -34.3904 -34.2480 -34.1155 -34.0338 -33.9844
   -19.2413 -19.2350 -19.2305 -19.2299 -19.2248 -19.2161 -19.2150 -19.2049
   -19.1951 -19.1948 -19.1685 -19.1676 -19.1454 -19.1437 -11.0012  -5.7715
    -5.6041  -4.7481  -4.5382  -2.8550  -1.2644  -0.5928   1.8951   2.4628
     3.6658   4.5874   5.2474   6.6438

          k =-0.4915 0.0944 0.0000 ( 45225 PWs)   bands (ev):

   -67.5398 -67.5293 -34.5123 -34.4445 -34.2260 -34.1177 -34.0036 -33.9350
   -19.2439 -19.2367 -19.2339 -19.2270 -19.2246 -19.2159 -19.2136 -19.2051
   -19.1957 -19.1920 -19.1680 -19.1654 -19.1452 -19.1437 -11.0222  -6.4522
    -4.9285  -4.8711  -4.4108  -3.0266  -1.4556   0.0316   1.9797   2.3211
     3.8243   4.5431   5.4233   6.3619

          k =-0.4915 0.1890 0.0000 ( 45254 PWs)   bands (ev):

   -67.5398 -67.5293 -34.5795 -34.5119 -34.2260 -34.0989 -33.9543 -33.8552
   -19.2485 -19.2398 -19.2343 -19.2284 -19.2246 -19.2147 -19.2110 -19.2055
   -19.1947 -19.1888 -19.1664 -19.1620 -19.1449 -19.1436 -11.0633  -6.9716
    -5.0866  -4.7672  -3.7842  -3.2396  -1.6592   1.1946   1.6816   2.2710
     3.9743   4.4356   5.7540   6.2758

          k =-0.4916-0.8508 0.0000 ( 45276 PWs)   bands (ev):

   -67.5398 -67.5293 -34.6085 -34.5390 -34.2283 -34.0929 -33.9286 -33.8219
   -19.2504 -19.2407 -19.2353 -19.2285 -19.2252 -19.2144 -19.2097 -19.2056
   -19.1938 -19.1875 -19.1655 -19.1604 -19.1448 -19.1436 -11.0837  -7.1569
    -5.1736  -4.8005  -3.4184  -3.2853  -1.7667   1.4204   2.0794   2.3241
     3.1967   4.7982   5.7678   6.3380

     the Fermi energy is     0.8293 ev

!    total energy              =   -1375.70105486 Ry
     estimated scf accuracy    <          2.8E-13 Ry
     smearing contrib. (-TS)   =      -0.00000368 Ry
     internal energy E=F+TS    =   -1375.70105118 Ry

     The total energy is F=E-TS. E is the sum of the following terms:
     one-electron contribution =  -11616.53259202 Ry
     hartree contribution      =    5838.41306026 Ry
     xc contribution           =    -140.31303015 Ry
     ewald contribution        =    4542.73151073 Ry

     convergence has been achieved in  19 iterations

     negative rho (up, down):  2.474E-05 0.000E+00

     Forces acting on atoms (cartesian axes, Ry/au):

     atom    1 type  2   force =    -0.00045445    0.00025784   -0.00000130
     atom    2 type  1   force =     0.00003906    0.00027331   -0.00018614
     atom    3 type  1   force =     0.00009878   -0.00034899    0.00018637
     atom    4 type  3   force =     0.00026929   -0.00055414   -0.00005792
     atom    5 type  3   force =     0.00004732    0.00037198    0.00005899

     Total force =     0.001038     Total SCF correction =     0.000005


     Computing stress (Cartesian axis) and pressure


     negative rho (up, down):  2.474E-05 0.000E+00
          total   stress  (Ry/bohr**3)                   (kbar)     P=        0.09
  -0.00000017   0.00000012   0.00000076           -0.02        0.02        0.11
   0.00000012   0.00000260  -0.00000378            0.02        0.38       -0.56
   0.00000076  -0.00000378  -0.00000065            0.11       -0.56       -0.10


     Writing output data file /scratch/as3359/Ta2CH2-VCrelax/Ta.save/
 
     init_run     :     46.80s CPU     25.68s WALL (       1 calls)
     electrons    :   1928.43s CPU    981.68s WALL (       1 calls)
     forces       :     13.90s CPU      7.17s WALL (       1 calls)
     stress       :     65.81s CPU     33.67s WALL (       1 calls)

     Called by init_run:
     wfcinit      :     37.17s CPU     19.20s WALL (       1 calls)
     potinit      :      2.69s CPU      1.36s WALL (       1 calls)
     hinit0       :      5.23s CPU      3.95s WALL (       1 calls)

     Called by electrons:
     c_bands      :   1579.28s CPU    797.69s WALL (      19 calls)
     sum_band     :    312.92s CPU    161.88s WALL (      19 calls)
     v_of_rho     :      5.63s CPU      3.08s WALL (      20 calls)
     newd         :     29.71s CPU     18.59s WALL (      20 calls)
     mix_rho      :      2.27s CPU      1.27s WALL (      19 calls)

     Called by c_bands:
     init_us_2    :     37.11s CPU     18.58s WALL (    3034 calls)
     cegterg      :   1470.10s CPU    742.66s WALL (    1406 calls)

     Called by *egterg:
     cdiaghg      :     16.54s CPU      8.46s WALL (    7193 calls)
     h_psi        :   1202.72s CPU    608.69s WALL (    7267 calls)
     s_psi        :     58.07s CPU     29.07s WALL (    7267 calls)
     g_psi        :      6.70s CPU      3.36s WALL (    5787 calls)

     Called by h_psi:
     h_psi:calbec :     45.77s CPU     22.93s WALL (    7267 calls)
     vloc_psi     :   1084.45s CPU    549.27s WALL (    7267 calls)
     add_vuspsi   :     62.75s CPU     31.41s WALL (    7267 calls)

     General routines
     calbec       :     63.20s CPU     31.67s WALL (    9043 calls)
     fft          :      5.45s CPU      2.79s WALL (     245 calls)
     ffts         :      0.20s CPU      0.10s WALL (      19 calls)
     fftw         :   1131.07s CPU    573.29s WALL (  301470 calls)
 
     Parallel routines
 
     PWSCF        :  34m21.17s CPU  17m33.79s WALL

 
   This run was terminated on:  17: 7:45   7Apr2022            

=------------------------------------------------------------------------------=
   JOB DONE.
=------------------------------------------------------------------------------=
