
     Program PWSCF v.6.8 starts on  7Apr2022 at 14:32:31 

     This program is part of the open-source Quantum ESPRESSO suite
     for quantum simulation of materials; please cite
         "P. Giannozzi et al., J. Phys.:Condens. Matter 21 395502 (2009);
         "P. Giannozzi et al., J. Phys.:Condens. Matter 29 465901 (2017);
         "P. Giannozzi et al., J. Chem. Phys. 152 154105 (2020);
          URL http://www.quantum-espresso.org", 
     in publications or presentations arising from this work. More details at
     http://www.quantum-espresso.org/quote

     Parallel version (MPI & OpenMP), running on       4 processor cores
     Number of MPI processes:                 2
     Threads/MPI process:                     2

     MPI processes distributed on     1 nodes
     R & G space division:  proc/nbgrp/npool/nimage =       2
     124435 MiB available memory on the printing compute node when the environment starts
 
     Reading input from Ta2CH2.scf.85.in

     Current dimensions of program PWSCF are:
     Max number of different atomic species (ntypx) = 10
     Max number of k-points (npk) =  40000
     Max angular momentum in pseudopotentials (lmaxx) =  4
     file Ta.pbesol-spfn-rrkjus_psl.1.0.0.UPF: wavefunction(s)  5S 5P renormalized

     Subspace diagonalization in iterative solution of the eigenvalue problem:
     a serial algorithm will be used

 
     Parallelization info
     --------------------
     sticks:   dense  smooth     PW     G-vecs:    dense   smooth      PW
     Min         372     372    120                81232    81232   14294
     Max         373     373    121                81277    81277   14309
     Sum         745     745    241               162509   162509   28603
 
     Using Slab Decomposition
 


     bravais-lattice index     =            0
     lattice parameter (alat)  =       5.5500  a.u.
     unit-cell volume          =    1533.2393 (a.u.)^3
     number of atoms/cell      =            5
     number of atomic types    =            3
     number of electrons       =        60.00
     number of Kohn-Sham states=           36
     kinetic-energy cutoff     =      85.0000  Ry
     charge density cutoff     =     340.0000  Ry
     scf convergence threshold =      1.0E-12
     mixing beta               =       0.7000
     number of iterations used =            8  plain     mixing
     Exchange-correlation= PBESOL
                           (   1   4  10   8   0   0   0)

     celldm(1)=   5.550000  celldm(2)=   0.000000  celldm(3)=   0.000000
     celldm(4)=   0.000000  celldm(5)=   0.000000  celldm(6)=   0.000000

     crystal axes: (cart. coord. in units of alat)
               a(1) = (   1.017295  -0.000177   0.000000 )  
               a(2) = (  -0.508801   0.881714   0.000000 )  
               a(3) = (   0.000000   0.000000  10.000000 )  

     reciprocal axes: (cart. coord. in units 2 pi/alat)
               b(1) = (  0.983098  0.567305  0.000000 )  
               b(2) = (  0.000198  1.134269  0.000000 )  
               b(3) = (  0.000000  0.000000  0.100000 )  


     PseudoPot. # 1 for Ta read from file:
     /shared/home/as3359/pseudo/Ta.pbesol-spfn-rrkjus_psl.1.0.0.UPF
     MD5 check sum: f099565ffaca9b150a52e9412a28e20b
     Pseudo is Ultrasoft + core correction, Zval = 27.0
     Generated using &quot;atomic&quot; code by A. Dal Corso  v.6.3
     Using radial grid of 1273 points,  8 beta functions with: 
                l(1) =   0
                l(2) =   0
                l(3) =   1
                l(4) =   1
                l(5) =   2
                l(6) =   2
                l(7) =   3
                l(8) =   3
     Q(r) pseudized with 0 coefficients 


     PseudoPot. # 2 for C  read from file:
     /shared/home/as3359/pseudo/C.pbesol-n-rrkjus_psl.1.0.0.UPF
     MD5 check sum: 05995be603a8a7c99da3dc4413f31573
     Pseudo is Ultrasoft + core correction, Zval =  4.0
     Generated using &quot;atomic&quot; code by A. Dal Corso  v.6.3MaX
     Using radial grid of 1073 points,  4 beta functions with: 
                l(1) =   0
                l(2) =   0
                l(3) =   1
                l(4) =   1
     Q(r) pseudized with 0 coefficients 


     PseudoPot. # 3 for H  read from file:
     /shared/home/as3359/pseudo/H.pbesol-rrkjus_psl.0.1.UPF
     MD5 check sum: 1dbb1a5c48b1283557b8117eb856a7ca
     Pseudo is Ultrasoft, Zval =  1.0
     Generated using "atomic" code by A. Dal Corso  v.5.0.2 svn rev. 9415
     Using radial grid of  929 points,  2 beta functions with: 
                l(1) =   0
                l(2) =   0
     Q(r) pseudized with 0 coefficients 


     atomic species   valence    mass     pseudopotential
        Ta            27.00   180.94788     Ta( 1.00)
        C              4.00    12.01070     C ( 1.00)
        H              1.00     1.00000     H ( 1.00)

     No symmetry found



   Cartesian axes

     site n.     atom                  positions (alat units)
         1           C   tau(   1) = (   0.0000000   0.0000000   0.0000000  )
         2           Ta  tau(   2) = (   0.5088008   0.2948413  -0.4364511  )
         3           Ta  tau(   3) = (  -0.0007447   0.5869407   0.4364532  )
         4           H   tau(   4) = (  -0.0017928  -0.0015314   0.8341930  )
         5           H   tau(   5) = (   0.0002769   0.0024412  -0.8341930  )

     number of k points=    74  Marzari-Vanderbilt smearing, width (Ry)=  0.0010
                       cart. coord. in units 2pi/alat
        k(    1) = (   0.0000000   0.0000000   0.0000000), wk =   0.0138889
        k(    2) = (   0.0000165   0.0945224   0.0000000), wk =   0.0277778
        k(    3) = (   0.0000329   0.1890448   0.0000000), wk =   0.0277778
        k(    4) = (   0.0000494   0.2835672   0.0000000), wk =   0.0277778
        k(    5) = (   0.0000659   0.3780896   0.0000000), wk =   0.0277778
        k(    6) = (   0.0000823   0.4726120   0.0000000), wk =   0.0277778
        k(    7) = (  -0.0000988  -0.5671343   0.0000000), wk =   0.0138889
        k(    8) = (   0.0819248   0.0472755   0.0000000), wk =   0.0277778
        k(    9) = (   0.0819413   0.1417978   0.0000000), wk =   0.0277778
        k(   10) = (   0.0819577   0.2363202   0.0000000), wk =   0.0277778
        k(   11) = (   0.0819742   0.3308426   0.0000000), wk =   0.0277778
        k(   12) = (   0.0819907   0.4253650   0.0000000), wk =   0.0277778
        k(   13) = (   0.0820071   0.5198874   0.0000000), wk =   0.0277778
        k(   14) = (   0.0818260  -0.5198589   0.0000000), wk =   0.0277778
        k(   15) = (   0.0818425  -0.4253365   0.0000000), wk =   0.0277778
        k(   16) = (   0.0818590  -0.3308141   0.0000000), wk =   0.0277778
        k(   17) = (   0.0818754  -0.2362917   0.0000000), wk =   0.0277778
        k(   18) = (   0.0818919  -0.1417693   0.0000000), wk =   0.0277778
        k(   19) = (   0.0819084  -0.0472469   0.0000000), wk =   0.0277778
        k(   20) = (   0.1638496   0.0945509   0.0000000), wk =   0.0277778
        k(   21) = (   0.1638661   0.1890733   0.0000000), wk =   0.0277778
        k(   22) = (   0.1638826   0.2835957   0.0000000), wk =   0.0277778
        k(   23) = (   0.1638990   0.3781181   0.0000000), wk =   0.0277778
        k(   24) = (   0.1639155   0.4726405   0.0000000), wk =   0.0277778
        k(   25) = (   0.1639319   0.5671629   0.0000000), wk =   0.0277778
        k(   26) = (   0.1637508  -0.4725834   0.0000000), wk =   0.0277778
        k(   27) = (   0.1637673  -0.3780610   0.0000000), wk =   0.0277778
        k(   28) = (   0.1637838  -0.2835386   0.0000000), wk =   0.0277778
        k(   29) = (   0.1638002  -0.1890163   0.0000000), wk =   0.0277778
        k(   30) = (   0.1638167  -0.0944939   0.0000000), wk =   0.0277778
        k(   31) = (   0.1638332   0.0000285   0.0000000), wk =   0.0277778
        k(   32) = (   0.2457744   0.1418264   0.0000000), wk =   0.0277778
        k(   33) = (   0.2457909   0.2363488   0.0000000), wk =   0.0277778
        k(   34) = (   0.2458074   0.3308711   0.0000000), wk =   0.0277778
        k(   35) = (   0.2458238   0.4253935   0.0000000), wk =   0.0277778
        k(   36) = (   0.2458403   0.5199159   0.0000000), wk =   0.0277778
        k(   37) = (   0.2458568   0.6144383   0.0000000), wk =   0.0277778
        k(   38) = (   0.2456757  -0.4253080   0.0000000), wk =   0.0277778
        k(   39) = (   0.2456921  -0.3307856   0.0000000), wk =   0.0277778
        k(   40) = (   0.2457086  -0.2362632   0.0000000), wk =   0.0277778
        k(   41) = (   0.2457251  -0.1417408   0.0000000), wk =   0.0277778
        k(   42) = (   0.2457415  -0.0472184   0.0000000), wk =   0.0277778
        k(   43) = (   0.2457580   0.0473040   0.0000000), wk =   0.0277778
        k(   44) = (   0.3276993   0.1891018   0.0000000), wk =   0.0277778
        k(   45) = (   0.3277157   0.2836242   0.0000000), wk =   0.0277778
        k(   46) = (   0.3277322   0.3781466   0.0000000), wk =   0.0277778
        k(   47) = (   0.3277486   0.4726690   0.0000000), wk =   0.0277778
        k(   48) = (   0.3277651   0.5671914   0.0000000), wk =   0.0277778
        k(   49) = (   0.3277816   0.6617138   0.0000000), wk =   0.0277778
        k(   50) = (   0.3276005  -0.3780325   0.0000000), wk =   0.0277778
        k(   51) = (   0.3276169  -0.2835101   0.0000000), wk =   0.0277778
        k(   52) = (   0.3276334  -0.1889877   0.0000000), wk =   0.0277778
        k(   53) = (   0.3276499  -0.0944653   0.0000000), wk =   0.0277778
        k(   54) = (   0.3276663   0.0000570   0.0000000), wk =   0.0277778
        k(   55) = (   0.3276828   0.0945794   0.0000000), wk =   0.0277778
        k(   56) = (   0.4096241   0.2363773   0.0000000), wk =   0.0277778
        k(   57) = (   0.4096405   0.3308997   0.0000000), wk =   0.0277778
        k(   58) = (   0.4096570   0.4254221   0.0000000), wk =   0.0277778
        k(   59) = (   0.4096735   0.5199445   0.0000000), wk =   0.0277778
        k(   60) = (   0.4096899   0.6144668   0.0000000), wk =   0.0277778
        k(   61) = (   0.4097064   0.7089892   0.0000000), wk =   0.0277778
        k(   62) = (   0.4095253  -0.3307571   0.0000000), wk =   0.0277778
        k(   63) = (   0.4095418  -0.2362347   0.0000000), wk =   0.0277778
        k(   64) = (   0.4095582  -0.1417123   0.0000000), wk =   0.0277778
        k(   65) = (   0.4095747  -0.0471899   0.0000000), wk =   0.0277778
        k(   66) = (   0.4095911   0.0473325   0.0000000), wk =   0.0277778
        k(   67) = (   0.4096076   0.1418549   0.0000000), wk =   0.0277778
        k(   68) = (  -0.4915489  -0.2836527   0.0000000), wk =   0.0138889
        k(   69) = (  -0.4915324  -0.1891303   0.0000000), wk =   0.0277778
        k(   70) = (  -0.4915160  -0.0946080   0.0000000), wk =   0.0277778
        k(   71) = (  -0.4914995  -0.0000856   0.0000000), wk =   0.0277778
        k(   72) = (  -0.4914830   0.0944368   0.0000000), wk =   0.0277778
        k(   73) = (  -0.4914666   0.1889592   0.0000000), wk =   0.0277778
        k(   74) = (  -0.4916477  -0.8507871   0.0000000), wk =   0.0138889

     Dense  grid:   162509 G-vectors     FFT dimensions: (  36,  36, 360)

     Estimated max dynamical RAM per process >       1.19 GB

     Estimated total dynamical RAM >       2.38 GB

     Check: negative core charge=   -0.000002

     Initial potential from superposition of free atoms

     starting charge   59.99840, renormalised to   60.00000

     negative rho (up, down):  1.445E-03 0.000E+00
     Starting wfcs are   40 randomized atomic wfcs

     total cpu time spent up to now is       11.4 secs

     Self-consistent Calculation

     iteration #  1     ecut=    85.00 Ry     beta= 0.70
     Davidson diagonalization with overlap
     ethr =  1.00E-02,  avg # of iterations =  2.0

     negative rho (up, down):  9.962E-04 0.000E+00

     total cpu time spent up to now is       31.9 secs

     total energy              =   -1375.11924490 Ry
     estimated scf accuracy    <       1.05021952 Ry

     iteration #  2     ecut=    85.00 Ry     beta= 0.70
     Davidson diagonalization with overlap
     ethr =  1.75E-03,  avg # of iterations =  7.9

     negative rho (up, down):  1.108E-04 0.000E+00

     total cpu time spent up to now is       60.7 secs

     total energy              =   -1374.69287630 Ry
     estimated scf accuracy    <       5.51986780 Ry

     iteration #  3     ecut=    85.00 Ry     beta= 0.70
     Davidson diagonalization with overlap
     ethr =  1.75E-03,  avg # of iterations =  4.9

     negative rho (up, down):  1.913E-04 0.000E+00

     total cpu time spent up to now is       86.2 secs

     total energy              =   -1375.66508554 Ry
     estimated scf accuracy    <       0.23781489 Ry

     iteration #  4     ecut=    85.00 Ry     beta= 0.70
     Davidson diagonalization with overlap
     ethr =  3.96E-04,  avg # of iterations =  2.4

     negative rho (up, down):  3.295E-04 0.000E+00

     total cpu time spent up to now is      107.0 secs

     total energy              =   -1375.69348677 Ry
     estimated scf accuracy    <       0.02771330 Ry

     iteration #  5     ecut=    85.00 Ry     beta= 0.70
     Davidson diagonalization with overlap
     ethr =  4.62E-05,  avg # of iterations = 10.6

     negative rho (up, down):  4.198E-04 0.000E+00

     total cpu time spent up to now is      135.8 secs

     total energy              =   -1375.67910868 Ry
     estimated scf accuracy    <       0.32527129 Ry

     iteration #  6     ecut=    85.00 Ry     beta= 0.70
     Davidson diagonalization with overlap
     ethr =  4.62E-05,  avg # of iterations = 11.1

     negative rho (up, down):  6.773E-04 0.000E+00

     total cpu time spent up to now is      162.6 secs

     total energy              =   -1375.69774473 Ry
     estimated scf accuracy    <       0.00751761 Ry

     iteration #  7     ecut=    85.00 Ry     beta= 0.70
     Davidson diagonalization with overlap
     c_bands:  1 eigenvalues not converged
     c_bands:  1 eigenvalues not converged
     c_bands:  1 eigenvalues not converged
     ethr =  1.25E-05,  avg # of iterations =  6.3

     negative rho (up, down):  9.188E-04 0.000E+00

     total cpu time spent up to now is      187.0 secs

     total energy              =   -1375.69859919 Ry
     estimated scf accuracy    <       0.00023472 Ry

     iteration #  8     ecut=    85.00 Ry     beta= 0.70
     Davidson diagonalization with overlap
     c_bands:  1 eigenvalues not converged
     ethr =  3.91E-07,  avg # of iterations =  8.3

     negative rho (up, down):  1.038E-03 0.000E+00

     total cpu time spent up to now is      214.3 secs

     total energy              =   -1375.69865055 Ry
     estimated scf accuracy    <       0.00002111 Ry

     iteration #  9     ecut=    85.00 Ry     beta= 0.70
     Davidson diagonalization with overlap
     c_bands:  1 eigenvalues not converged
     c_bands:  1 eigenvalues not converged
     ethr =  3.52E-08,  avg # of iterations =  3.4

     negative rho (up, down):  1.049E-03 0.000E+00

     total cpu time spent up to now is      235.2 secs

     total energy              =   -1375.69865411 Ry
     estimated scf accuracy    <       0.00000646 Ry

     iteration # 10     ecut=    85.00 Ry     beta= 0.70
     Davidson diagonalization with overlap
     ethr =  1.08E-08,  avg # of iterations =  2.0

     negative rho (up, down):  1.053E-03 0.000E+00

     total cpu time spent up to now is      255.4 secs

     total energy              =   -1375.69865469 Ry
     estimated scf accuracy    <       0.00000073 Ry

     iteration # 11     ecut=    85.00 Ry     beta= 0.70
     Davidson diagonalization with overlap
     ethr =  1.22E-09,  avg # of iterations =  2.8

     negative rho (up, down):  1.052E-03 0.000E+00

     total cpu time spent up to now is      278.2 secs

     total energy              =   -1375.69865483 Ry
     estimated scf accuracy    <       0.00000010 Ry

     iteration # 12     ecut=    85.00 Ry     beta= 0.70
     Davidson diagonalization with overlap
     ethr =  1.63E-10,  avg # of iterations =  2.7

     negative rho (up, down):  1.052E-03 0.000E+00

     total cpu time spent up to now is      300.8 secs

     total energy              =   -1375.69865485 Ry
     estimated scf accuracy    <       0.00000004 Ry

     iteration # 13     ecut=    85.00 Ry     beta= 0.70
     Davidson diagonalization with overlap
     ethr =  6.06E-11,  avg # of iterations =  2.0

     negative rho (up, down):  1.052E-03 0.000E+00

     total cpu time spent up to now is      320.6 secs

     total energy              =   -1375.69865485 Ry
     estimated scf accuracy    <          7.5E-09 Ry

     iteration # 14     ecut=    85.00 Ry     beta= 0.70
     Davidson diagonalization with overlap
     ethr =  1.24E-11,  avg # of iterations =  4.2

     negative rho (up, down):  1.052E-03 0.000E+00

     total cpu time spent up to now is      342.2 secs

     total energy              =   -1375.69865485 Ry
     estimated scf accuracy    <          3.8E-10 Ry

     iteration # 15     ecut=    85.00 Ry     beta= 0.70
     Davidson diagonalization with overlap
     ethr =  6.41E-13,  avg # of iterations =  2.6

     negative rho (up, down):  1.052E-03 0.000E+00

     total cpu time spent up to now is      362.6 secs

     total energy              =   -1375.69865485 Ry
     estimated scf accuracy    <          4.0E-10 Ry

     iteration # 16     ecut=    85.00 Ry     beta= 0.70
     Davidson diagonalization with overlap
     ethr =  6.41E-13,  avg # of iterations =  1.6

     negative rho (up, down):  1.052E-03 0.000E+00

     total cpu time spent up to now is      380.8 secs

     total energy              =   -1375.69865485 Ry
     estimated scf accuracy    <          1.6E-10 Ry

     iteration # 17     ecut=    85.00 Ry     beta= 0.70
     Davidson diagonalization with overlap
     ethr =  2.60E-13,  avg # of iterations =  2.1

     negative rho (up, down):  1.052E-03 0.000E+00

     total cpu time spent up to now is      400.0 secs

     total energy              =   -1375.69865485 Ry
     estimated scf accuracy    <          3.2E-12 Ry

     iteration # 18     ecut=    85.00 Ry     beta= 0.70
     Davidson diagonalization with overlap
     ethr =  1.00E-13,  avg # of iterations =  1.8

     negative rho (up, down):  1.052E-03 0.000E+00

     total cpu time spent up to now is      418.6 secs

     total energy              =   -1375.69865485 Ry
     estimated scf accuracy    <          2.8E-12 Ry

     iteration # 19     ecut=    85.00 Ry     beta= 0.70
     Davidson diagonalization with overlap
     ethr =  1.00E-13,  avg # of iterations =  1.0

     negative rho (up, down):  1.052E-03 0.000E+00

     total cpu time spent up to now is      436.2 secs

     End of self-consistent calculation

          k = 0.0000 0.0000 0.0000 ( 20329 PWs)   bands (ev):

   -67.6143 -67.5827 -34.5992 -34.1158 -33.7010 -33.6996 -33.6609 -33.6606
   -19.2626 -19.2486 -19.2295 -19.2290 -19.2289 -19.2288 -19.2079 -19.2078
   -19.2064 -19.2058 -19.2053 -19.1991 -19.1253 -19.1245 -12.8560  -8.3538
    -5.2575  -3.4753  -3.2191  -3.2043  -1.2360   0.3168   0.3368   2.4890
     2.5008   2.9028   2.9356   3.4815

          k = 0.0000 0.0945 0.0000 ( 20345 PWs)   bands (ev):

   -67.6098 -67.5792 -34.5843 -34.1146 -33.7599 -33.7181 -33.7177 -33.6702
   -19.2609 -19.2479 -19.2307 -19.2292 -19.2288 -19.2275 -19.2100 -19.2080
   -19.2066 -19.2057 -19.2019 -19.1959 -19.1287 -19.1280 -12.7166  -8.1351
    -5.3225  -3.5536  -3.3914  -3.1632  -1.0643  -0.0580   0.5471   1.8759
     2.1851   2.9263   3.2995   4.1780

          k = 0.0000 0.1890 0.0000 ( 20351 PWs)   bands (ev):

   -67.5974 -67.5695 -34.5441 -34.1184 -33.9155 -33.8686 -33.7625 -33.6984
   -19.2568 -19.2463 -19.2347 -19.2294 -19.2285 -19.2237 -19.2151 -19.2085
   -19.2081 -19.2041 -19.1922 -19.1870 -19.1377 -19.1372 -12.3466  -7.5564
    -5.4898  -4.0361  -3.4677  -3.0988  -1.0118  -0.4114   1.1308   1.3068
     2.0954   2.7861   3.6394   4.8286

          k = 0.0000 0.2836 0.0000 ( 20268 PWs)   bands (ev):

   -67.5801 -67.5565 -34.4944 -34.1961 -34.0687 -34.0435 -33.8201 -33.7391
   -19.2535 -19.2434 -19.2398 -19.2305 -19.2283 -19.2201 -19.2195 -19.2104
   -19.2076 -19.2013 -19.1789 -19.1747 -19.1498 -19.1485 -11.8732  -6.9334
    -5.6190  -4.4682  -3.5671  -3.1206  -1.6579   0.3087   1.1505   1.8905
     2.4984   2.6817   3.7559   5.4479

          k = 0.0001 0.3781 0.0000 ( 20254 PWs)   bands (ev):

   -67.5623 -67.5439 -34.4818 -34.3762 -34.2140 -34.0729 -33.8757 -33.7809
   -19.2540 -19.2443 -19.2391 -19.2324 -19.2317 -19.2199 -19.2184 -19.2112
   -19.2049 -19.1978 -19.1653 -19.1622 -19.1611 -19.1584 -11.4490  -6.8529
    -5.3747  -4.6878  -3.6272  -3.2373  -1.9211   1.1137   1.4848   2.0708
     2.6854   3.7784   3.9131   6.0397

          k = 0.0001 0.4726 0.0000 ( 20288 PWs)   bands (ev):

   -67.5486 -67.5353 -34.5621 -34.4971 -34.2424 -34.0857 -33.9156 -33.8119
   -19.2558 -19.2466 -19.2400 -19.2342 -19.2321 -19.2198 -19.2171 -19.2112
   -19.2015 -19.1950 -19.1690 -19.1648 -19.1550 -19.1531 -11.1780  -7.0633
    -5.1859  -4.7699  -3.4559  -3.3600  -1.8343   1.5191   1.7885   2.1355
     3.1423   4.3168   5.1267   6.1933

          k =-0.0001-0.5671 0.0000 ( 20322 PWs)   bands (ev):

   -67.5433 -67.5325 -34.6092 -34.5397 -34.2323 -34.0933 -33.9300 -33.8233
   -19.2567 -19.2471 -19.2418 -19.2350 -19.2314 -19.2206 -19.2154 -19.2113
   -19.2000 -19.1939 -19.1718 -19.1668 -19.1511 -19.1499 -11.0884  -7.1604
    -5.1780  -4.7960  -3.4101  -3.2836  -1.7721   1.4126   2.0558   2.3123
     3.2003   4.7946   5.7603   6.3398

          k = 0.0819 0.0473 0.0000 ( 20337 PWs)   bands (ev):

   -67.6098 -67.5791 -34.5842 -34.1147 -33.7611 -33.7177 -33.7170 -33.6703
   -19.2609 -19.2479 -19.2308 -19.2292 -19.2290 -19.2272 -19.2099 -19.2081
   -19.2072 -19.2051 -19.2019 -19.1959 -19.1287 -19.1280 -12.7164  -8.1349
    -5.3205  -3.5497  -3.3881  -3.1765  -1.0657  -0.0417   0.5307   1.8757
     2.1839   2.9585   3.2839   4.1647

          k = 0.0819 0.1418 0.0000 ( 20338 PWs)   bands (ev):

   -67.6013 -67.5725 -34.5566 -34.1154 -33.8575 -33.8349 -33.7376 -33.6985
   -19.2578 -19.2468 -19.2329 -19.2310 -19.2277 -19.2248 -19.2132 -19.2087
   -19.2080 -19.2044 -19.1953 -19.1898 -19.1349 -19.1344 -12.4614  -7.7305
    -5.4323  -3.8064  -3.6627  -2.9906  -0.7532  -0.6322   0.8697   1.6506
     1.8026   2.9963   3.5678   4.7412

          k = 0.0820 0.2363 0.0000 ( 20293 PWs)   bands (ev):

   -67.5864 -67.5612 -34.5107 -34.1420 -34.0134 -33.9933 -33.7972 -33.7421
   -19.2532 -19.2453 -19.2372 -19.2323 -19.2268 -19.2210 -19.2183 -19.2098
   -19.2082 -19.2025 -19.1838 -19.1792 -19.1454 -19.1450 -12.0384  -7.0722
    -5.5936  -4.3119  -3.8519  -2.7976  -1.3704  -0.1459   0.7408   1.9373
     2.2334   2.7750   3.9403   5.2535

          k = 0.0820 0.3308 0.0000 ( 20269 PWs)   bands (ev):

   -67.5689 -67.5484 -34.4729 -34.2851 -34.1641 -34.0663 -33.8669 -33.7902
   -19.2515 -19.2419 -19.2414 -19.2340 -19.2279 -19.2214 -19.2184 -19.2112
   -19.2060 -19.1998 -19.1704 -19.1669 -19.1573 -19.1558 -11.5891  -6.6445
    -5.5424  -4.6381  -4.0090  -2.8102  -1.8171   0.5073   0.8101   2.1903
     2.8429   3.4069   4.0739   5.8910

          k = 0.0820 0.4254 0.0000 ( 20263 PWs)   bands (ev):

   -67.5530 -67.5379 -34.5071 -34.4359 -34.2377 -34.0845 -33.9242 -33.8322
   -19.2531 -19.2451 -19.2392 -19.2341 -19.2313 -19.2203 -19.2185 -19.2113
   -19.2028 -19.1970 -19.1673 -19.1642 -19.1583 -19.1560 -11.2445  -6.7924
    -5.1737  -4.7596  -4.0157  -3.0118  -1.8200   0.8233   1.5677   2.0163
     3.6552   3.9464   4.7792   6.2928

          k = 0.0820 0.5199 0.0000 ( 20286 PWs)   bands (ev):

   -67.5433 -67.5325 -34.5801 -34.5126 -34.2298 -34.0996 -33.9557 -33.8567
   -19.2547 -19.2463 -19.2407 -19.2349 -19.2308 -19.2210 -19.2168 -19.2112
   -19.2008 -19.1951 -19.1727 -19.1684 -19.1512 -19.1499 -11.0681  -6.9749
    -5.0905  -4.7630  -3.7775  -3.2392  -1.6627   1.1815   1.6739   2.2583
     3.9701   4.4338   5.7470   6.2732

          k = 0.0818-0.5199 0.0000 ( 20290 PWs)   bands (ev):

   -67.5433 -67.5325 -34.5799 -34.5125 -34.2298 -34.0996 -33.9558 -33.8567
   -19.2546 -19.2463 -19.2406 -19.2350 -19.2309 -19.2210 -19.2169 -19.2112
   -19.2008 -19.1951 -19.1727 -19.1684 -19.1512 -19.1499 -11.0683  -6.9746
    -5.0904  -4.7628  -3.7737  -3.2437  -1.6620   1.1820   1.6739   2.2589
     3.9690   4.4344   5.7467   6.2733

          k = 0.0818-0.4253 0.0000 ( 20257 PWs)   bands (ev):

   -67.5531 -67.5379 -34.5067 -34.4355 -34.2376 -34.0846 -33.9245 -33.8323
   -19.2530 -19.2451 -19.2390 -19.2342 -19.2314 -19.2201 -19.2189 -19.2113
   -19.2027 -19.1970 -19.1673 -19.1642 -19.1583 -19.1560 -11.2450  -6.7918
    -5.1746  -4.7582  -4.0107  -3.0176  -1.8189   0.8240   1.5716   2.0142
     3.6508   3.9458   4.7780   6.2910

          k = 0.0819-0.3308 0.0000 ( 20265 PWs)   bands (ev):

   -67.5689 -67.5484 -34.4728 -34.2844 -34.1636 -34.0663 -33.8675 -33.7904
   -19.2515 -19.2418 -19.2414 -19.2339 -19.2279 -19.2214 -19.2188 -19.2111
   -19.2059 -19.1998 -19.1704 -19.1668 -19.1573 -19.1558 -11.5897  -6.6442
    -5.5439  -4.6357  -4.0050  -2.8133  -1.8168   0.5043   0.8162   2.1891
     2.8366   3.4051   4.0730   5.8931

          k = 0.0819-0.2363 0.0000 ( 20293 PWs)   bands (ev):

   -67.5865 -67.5612 -34.5108 -34.1415 -34.0133 -33.9925 -33.7979 -33.7423
   -19.2533 -19.2453 -19.2372 -19.2322 -19.2267 -19.2213 -19.2184 -19.2096
   -19.2081 -19.2027 -19.1838 -19.1791 -19.1454 -19.1450 -12.0389  -7.0725
    -5.5954  -4.3096  -3.8493  -2.7961  -1.3722  -0.1441   0.7379   1.9380
     2.2350   2.7693   3.9359   5.2566

          k = 0.0819-0.1418 0.0000 ( 20343 PWs)   bands (ev):

   -67.6013 -67.5725 -34.5567 -34.1152 -33.8566 -33.8346 -33.7382 -33.6986
   -19.2579 -19.2468 -19.2329 -19.2309 -19.2275 -19.2251 -19.2133 -19.2085
   -19.2077 -19.2047 -19.1953 -19.1898 -19.1349 -19.1344 -12.4617  -7.7309
    -5.4342  -3.8068  -3.6608  -2.9858  -0.7519  -0.6369   0.8722   1.6451
     1.8068   2.9931   3.5616   4.7363

          k = 0.0819-0.0472 0.0000 ( 20343 PWs)   bands (ev):

   -67.6098 -67.5792 -34.5842 -34.1147 -33.7605 -33.7178 -33.7174 -33.6703
   -19.2609 -19.2479 -19.2308 -19.2291 -19.2290 -19.2274 -19.2100 -19.2080
   -19.2069 -19.2054 -19.2019 -19.1959 -19.1287 -19.1280 -12.7165  -8.1350
    -5.3213  -3.5514  -3.3896  -3.1706  -1.0652  -0.0491   0.5382   1.8757
     2.1846   2.9446   3.2901   4.1708

          k = 0.1638 0.0946 0.0000 ( 20341 PWs)   bands (ev):

   -67.5973 -67.5694 -34.5438 -34.1188 -33.9167 -33.8690 -33.7619 -33.6985
   -19.2565 -19.2463 -19.2348 -19.2292 -19.2291 -19.2233 -19.2149 -19.2091
   -19.2084 -19.2036 -19.1922 -19.1870 -19.1377 -19.1372 -12.3459  -7.5553
    -5.4822  -4.0374  -3.4729  -3.1138  -1.0122  -0.3999   1.1180   1.3183
     2.0919   2.8156   3.6285   4.8258

          k = 0.1639 0.1891 0.0000 ( 20289 PWs)   bands (ev):

   -67.5864 -67.5611 -34.5105 -34.1422 -34.0146 -33.9927 -33.7974 -33.7423
   -19.2529 -19.2454 -19.2373 -19.2322 -19.2271 -19.2208 -19.2182 -19.2102
   -19.2084 -19.2023 -19.1838 -19.1792 -19.1454 -19.1449 -12.0379  -7.0711
    -5.5879  -4.3153  -3.8567  -2.8057  -1.3699  -0.1409   0.7481   1.9338
     2.2348   2.7836   3.9378   5.2517

          k = 0.1639 0.2836 0.0000 ( 20282 PWs)   bands (ev):

   -67.5712 -67.5501 -34.4726 -34.2290 -34.1501 -34.0577 -33.8629 -33.8180
   -19.2474 -19.2452 -19.2398 -19.2357 -19.2263 -19.2212 -19.2194 -19.2113
   -19.2062 -19.2008 -19.1722 -19.1686 -19.1557 -19.1555 -11.6379  -6.4280
    -5.6932  -4.6327  -4.2237  -2.5277  -1.6933   0.0579   0.4312   2.2142
     3.0379   3.1999   4.4801   5.7099

          k = 0.1639 0.3781 0.0000 ( 20261 PWs)   bands (ev):

   -67.5555 -67.5395 -34.4678 -34.3547 -34.2313 -34.0841 -33.9469 -33.8881
   -19.2476 -19.2422 -19.2412 -19.2363 -19.2287 -19.2217 -19.2197 -19.2117
   -19.2029 -19.1997 -19.1666 -19.1655 -19.1602 -19.1576 -11.2705  -6.2129
    -5.4693  -4.8041  -4.3861  -2.6488  -1.6868  -0.1903   1.2067   2.1668
     3.6354   4.2088   4.8770   6.3277

          k = 0.1639 0.4726 0.0000 ( 20279 PWs)   bands (ev):

   -67.5432 -67.5325 -34.5127 -34.4449 -34.2292 -34.1194 -34.0052 -33.9370
   -19.2499 -19.2432 -19.2401 -19.2337 -19.2307 -19.2222 -19.2196 -19.2109
   -19.2018 -19.1983 -19.1743 -19.1718 -19.1515 -19.1500 -11.0269  -6.4548
    -4.9309  -4.8690  -4.4063  -3.0285  -1.4563   0.0219   1.9771   2.3080
     3.8241   4.5318   5.4204   6.3532

          k = 0.1639 0.5672 0.0000 ( 20322 PWs)   bands (ev):

   -67.5383 -67.5303 -34.5398 -34.4739 -34.2114 -34.1463 -34.0214 -33.9553
   -19.2509 -19.2435 -19.2388 -19.2361 -19.2289 -19.2228 -19.2190 -19.2107
   -19.2019 -19.1975 -19.1771 -19.1740 -19.1482 -19.1473 -10.9439  -6.5651
    -4.9000  -4.7293  -4.3110  -3.2791  -1.3167   0.2256   2.2162   2.4598
     4.0555   4.4444   5.5807   6.1167

          k = 0.1638-0.4726 0.0000 ( 20269 PWs)   bands (ev):

   -67.5432 -67.5325 -34.5120 -34.4443 -34.2292 -34.1198 -34.0057 -33.9370
   -19.2498 -19.2432 -19.2398 -19.2339 -19.2309 -19.2222 -19.2198 -19.2109
   -19.2018 -19.1982 -19.1743 -19.1718 -19.1515 -19.1500 -11.0276  -6.4537
    -4.9339  -4.8659  -4.4014  -3.0335  -1.4552   0.0225   1.9811   2.3047
     3.8264   4.5220   5.4216   6.3537

          k = 0.1638-0.3781 0.0000 ( 20259 PWs)   bands (ev):

   -67.5555 -67.5395 -34.4672 -34.3535 -34.2311 -34.0842 -33.9478 -33.8882
   -19.2474 -19.2421 -19.2410 -19.2366 -19.2288 -19.2217 -19.2201 -19.2115
   -19.2027 -19.1997 -19.1667 -19.1655 -19.1602 -19.1576 -11.2715  -6.2118
    -5.4718  -4.7998  -4.3814  -2.6536  -1.6847  -0.1923   1.2123   2.1617
     3.6337   4.2018   4.8724   6.3314

          k = 0.1638-0.2835 0.0000 ( 20282 PWs)   bands (ev):

   -67.5713 -67.5501 -34.4726 -34.2275 -34.1495 -34.0576 -33.8637 -33.8182
   -19.2476 -19.2450 -19.2397 -19.2358 -19.2261 -19.2215 -19.2198 -19.2110
   -19.2059 -19.2009 -19.1722 -19.1685 -19.1558 -19.1555 -11.6389  -6.4287
    -5.6962  -4.6275  -4.2190  -2.5271  -1.6931   0.0501   0.4372   2.2111
     3.0322   3.1978   4.4733   5.7182

          k = 0.1638-0.1890 0.0000 ( 20287 PWs)   bands (ev):

   -67.5864 -67.5612 -34.5107 -34.1417 -34.0136 -33.9924 -33.7980 -33.7425
   -19.2531 -19.2454 -19.2373 -19.2322 -19.2268 -19.2212 -19.2184 -19.2098
   -19.2081 -19.2025 -19.1838 -19.1791 -19.1454 -19.1449 -12.0386  -7.0721
    -5.5921  -4.3115  -3.8520  -2.8006  -1.3719  -0.1412   0.7419   1.9361
     2.2357   2.7742   3.9341   5.2557

          k = 0.1638-0.0945 0.0000 ( 20349 PWs)   bands (ev):

   -67.5973 -67.5695 -34.5440 -34.1187 -33.9160 -33.8688 -33.7622 -33.6985
   -19.2566 -19.2463 -19.2348 -19.2293 -19.2288 -19.2235 -19.2151 -19.2088
   -19.2082 -19.2039 -19.1922 -19.1870 -19.1377 -19.1372 -12.3462  -7.5559
    -5.4853  -4.0370  -3.4704  -3.1073  -1.0122  -0.4048   1.1239   1.3132
     2.0935   2.8027   3.6326   4.8270

          k = 0.1638 0.0000 0.0000 ( 20351 PWs)   bands (ev):

   -67.6013 -67.5725 -34.5565 -34.1156 -33.8584 -33.8350 -33.7370 -33.6985
   -19.2577 -19.2468 -19.2330 -19.2310 -19.2277 -19.2247 -19.2132 -19.2088
   -19.2081 -19.2042 -19.1953 -19.1899 -19.1349 -19.1344 -12.4611  -7.7302
    -5.4295  -3.8061  -3.6648  -2.9969  -0.7549  -0.6265   0.8670   1.6586
     1.7973   2.9994   3.5755   4.7381

          k = 0.2458 0.1418 0.0000 ( 20270 PWs)   bands (ev):

   -67.5799 -67.5564 -34.4940 -34.1973 -34.0703 -34.0433 -33.8200 -33.7393
   -19.2529 -19.2435 -19.2400 -19.2302 -19.2289 -19.2201 -19.2191 -19.2111
   -19.2079 -19.2009 -19.1789 -19.1747 -19.1498 -19.1484 -11.8717  -6.9305
    -5.6074  -4.4784  -3.5767  -3.1374  -1.6560   0.3183   1.1692   1.8856
     2.5249   2.6748   3.7484   5.4423

          k = 0.2458 0.2363 0.0000 ( 20271 PWs)   bands (ev):

   -67.5687 -67.5484 -34.4728 -34.2859 -34.1644 -34.0666 -33.8674 -33.7905
   -19.2510 -19.2422 -19.2412 -19.2339 -19.2281 -19.2213 -19.2185 -19.2117
   -19.2061 -19.1996 -19.1704 -19.1669 -19.1573 -19.1556 -11.5879  -6.6398
    -5.5362  -4.6467  -4.0155  -2.8266  -1.8156   0.5249   0.8188   2.2005
     2.8433   3.4012   4.0759   5.8834

          k = 0.2458 0.3309 0.0000 ( 20263 PWs)   bands (ev):

   -67.5553 -67.5395 -34.4681 -34.3553 -34.2309 -34.0842 -33.9477 -33.8880
   -19.2477 -19.2419 -19.2407 -19.2367 -19.2288 -19.2214 -19.2201 -19.2120
   -19.2029 -19.1995 -19.1667 -19.1653 -19.1602 -19.1576 -11.2697  -6.2068
    -5.4741  -4.8053  -4.3890  -2.6584  -1.6872  -0.1790   1.2117   2.1712
     3.6354   4.2064   4.8797   6.3227

          k = 0.2458 0.4254 0.0000 ( 20298 PWs)   bands (ev):

   -67.5431 -67.5325 -34.4745 -34.3901 -34.2514 -34.1175 -34.0362 -33.9863
   -19.2473 -19.2411 -19.2370 -19.2362 -19.2312 -19.2227 -19.2211 -19.2109
   -19.2014 -19.2008 -19.1747 -19.1738 -19.1517 -19.1500 -11.0055  -5.7710
    -5.6073  -4.7485  -4.5358  -2.8610  -1.2627  -0.5994   1.8978   2.4511
     3.6672   4.5693   5.2430   6.6331

          k = 0.2458 0.5199 0.0000 ( 20297 PWs)   bands (ev):

   -67.5350 -67.5294 -34.4658 -34.4009 -34.2539 -34.1855 -34.0684 -34.0437
   -19.2483 -19.2385 -19.2370 -19.2348 -19.2293 -19.2250 -19.2224 -19.2090
   -19.2031 -19.2010 -19.1798 -19.1786 -19.1466 -19.1458 -10.8581  -5.9427
    -5.1472  -4.7306  -4.6233  -3.1551  -0.9486  -0.4744   2.5569   2.7652
     3.5005   4.1670   5.1600   6.3181

          k = 0.2459 0.6144 0.0000 ( 20297 PWs)   bands (ev):

   -67.5351 -67.5294 -34.4650 -34.4003 -34.2539 -34.1863 -34.0696 -34.0427
   -19.2481 -19.2383 -19.2370 -19.2349 -19.2296 -19.2250 -19.2223 -19.2090
   -19.2031 -19.2009 -19.1798 -19.1786 -19.1466 -19.1458 -10.8586  -5.9415
    -5.1473  -4.7306  -4.6212  -3.1567  -0.9481  -0.4743   2.5598   2.7610
     3.5044   4.1592   5.1605   6.3171

          k = 0.2457-0.4253 0.0000 ( 20294 PWs)   bands (ev):

   -67.5432 -67.5325 -34.4734 -34.3883 -34.2520 -34.1181 -34.0372 -33.9860
   -19.2469 -19.2409 -19.2371 -19.2366 -19.2313 -19.2229 -19.2211 -19.2107
   -19.2014 -19.2007 -19.1747 -19.1739 -19.1517 -19.1500 -11.0068  -5.7690
    -5.6077  -4.7465  -4.5317  -2.8637  -1.2601  -0.6026   1.9013   2.4448
     3.6700   4.5561   5.2428   6.6297

          k = 0.2457-0.3308 0.0000 ( 20261 PWs)   bands (ev):

   -67.5555 -67.5395 -34.4674 -34.3537 -34.2310 -34.0843 -33.9482 -33.8882
   -19.2474 -19.2421 -19.2408 -19.2368 -19.2288 -19.2216 -19.2203 -19.2117
   -19.2027 -19.1996 -19.1667 -19.1654 -19.1602 -19.1576 -11.2711  -6.2088
    -5.4742  -4.8005  -4.3831  -2.6586  -1.6847  -0.1862   1.2149   2.1640
     3.6337   4.2004   4.8740   6.3283

          k = 0.2457-0.2363 0.0000 ( 20271 PWs)   bands (ev):

   -67.5688 -67.5484 -34.4728 -34.2848 -34.1638 -34.0664 -33.8678 -33.7906
   -19.2512 -19.2420 -19.2414 -19.2339 -19.2280 -19.2215 -19.2188 -19.2113
   -19.2059 -19.1997 -19.1704 -19.1668 -19.1573 -19.1557 -11.5890  -6.6421
    -5.5402  -4.6405  -4.0086  -2.8222  -1.8157   0.5142   0.8207   2.1947
     2.8369   3.4019   4.0739   5.8890

          k = 0.2457-0.1417 0.0000 ( 20272 PWs)   bands (ev):

   -67.5800 -67.5564 -34.4942 -34.1968 -34.0693 -34.0435 -33.8201 -33.7393
   -19.2532 -19.2434 -19.2399 -19.2304 -19.2286 -19.2202 -19.2193 -19.2107
   -19.2077 -19.2011 -19.1789 -19.1747 -19.1497 -19.1485 -11.8724  -6.9322
    -5.6122  -4.4740  -3.5720  -3.1302  -1.6567   0.3141   1.1607   1.8879
     2.5133   2.6779   3.7512   5.4448

          k = 0.2457-0.0472 0.0000 ( 20291 PWs)   bands (ev):

   -67.5863 -67.5611 -34.5104 -34.1429 -34.0139 -33.9939 -33.7967 -33.7421
   -19.2529 -19.2453 -19.2374 -19.2323 -19.2270 -19.2208 -19.2183 -19.2101
   -19.2083 -19.2023 -19.1838 -19.1792 -19.1454 -19.1449 -12.0376  -7.0715
    -5.5876  -4.3171  -3.8572  -2.8044  -1.3678  -0.1458   0.7489   1.9348
     2.2329   2.7865   3.9441   5.2482

          k = 0.2458 0.0473 0.0000 ( 20297 PWs)   bands (ev):

   -67.5863 -67.5611 -34.5104 -34.1429 -34.0148 -33.9934 -33.7967 -33.7421
   -19.2528 -19.2454 -19.2374 -19.2323 -19.2271 -19.2207 -19.2182 -19.2103
   -19.2084 -19.2022 -19.1838 -19.1792 -19.1454 -19.1449 -12.0374  -7.0709
    -5.5852  -4.3185  -3.8595  -2.8081  -1.3676  -0.1437   0.7522   1.9331
     2.2336   2.7902   3.9434   5.2473

          k = 0.3277 0.1891 0.0000 ( 20264 PWs)   bands (ev):

   -67.5620 -67.5438 -34.4824 -34.3777 -34.2137 -34.0739 -33.8760 -33.7814
   -19.2536 -19.2443 -19.2387 -19.2322 -19.2320 -19.2203 -19.2181 -19.2120
   -19.2050 -19.1977 -19.1653 -19.1623 -19.1611 -19.1582 -11.4465  -6.8475
    -5.3661  -4.7007  -3.6391  -3.2553  -1.9193   1.1333   1.5024   2.0929
     2.6819   3.7756   3.9077   6.0327

          k = 0.3277 0.2836 0.0000 ( 20261 PWs)   bands (ev):

   -67.5527 -67.5379 -34.5082 -34.4374 -34.2361 -34.0856 -33.9250 -33.8326
   -19.2530 -19.2448 -19.2385 -19.2341 -19.2317 -19.2202 -19.2191 -19.2120
   -19.2028 -19.1969 -19.1672 -19.1639 -19.1583 -19.1560 -11.2422  -6.7872
    -5.1692  -4.7705  -4.0228  -3.0312  -1.8178   0.8468   1.5782   2.0303
     3.6537   3.9468   4.7788   6.2820

          k = 0.3277 0.3781 0.0000 ( 20279 PWs)   bands (ev):

   -67.5429 -67.5325 -34.5138 -34.4464 -34.2273 -34.1198 -34.0065 -33.9367
   -19.2504 -19.2425 -19.2395 -19.2336 -19.2312 -19.2220 -19.2202 -19.2115
   -19.2019 -19.1981 -19.1743 -19.1716 -19.1515 -19.1500 -11.0250  -6.4515
    -4.9374  -4.8711  -4.4088  -3.0404  -1.4570   0.0369   1.9877   2.3180
     3.8258   4.5273   5.4215   6.3634

          k = 0.3277 0.4727 0.0000 ( 20306 PWs)   bands (ev):

   -67.5348 -67.5295 -34.4669 -34.4023 -34.2531 -34.1840 -34.0700 -34.0430
   -19.2486 -19.2383 -19.2362 -19.2347 -19.2298 -19.2248 -19.2227 -19.2093
   -19.2033 -19.2008 -19.1798 -19.1784 -19.1465 -19.1458 -10.8569  -5.9422
    -5.1514  -4.7355  -4.6198  -3.1593  -0.9520  -0.4662   2.5657   2.7700
     3.4994   4.1669   5.1586   6.3202

          k = 0.3278 0.5672 0.0000 ( 20332 PWs)   bands (ev):

   -67.5303 -67.5300 -34.3872 -34.3465 -34.3457 -34.2345 -34.0850 -34.0825
   -19.2480 -19.2362 -19.2362 -19.2295 -19.2291 -19.2276 -19.2267 -19.2059
   -19.2043 -19.2040 -19.1816 -19.1815 -19.1445 -19.1445 -10.7934  -5.4438
    -5.4400  -4.9181  -4.5640  -3.1859  -0.6413  -0.6360   2.9555   2.9570
     3.4935   3.5010   4.8851   6.6754

          k = 0.3278 0.6617 0.0000 ( 20298 PWs)   bands (ev):

   -67.5350 -67.5294 -34.4658 -34.4007 -34.2537 -34.1854 -34.0703 -34.0425
   -19.2483 -19.2382 -19.2366 -19.2349 -19.2299 -19.2250 -19.2225 -19.2091
   -19.2033 -19.2008 -19.1798 -19.1785 -19.1466 -19.1458 -10.8579  -5.9415
    -5.1495  -4.7331  -4.6197  -3.1587  -0.9500  -0.4699   2.5647   2.7635
     3.5036   4.1594   5.1598   6.3175

          k = 0.3276-0.3780 0.0000 ( 20277 PWs)   bands (ev):

   -67.5431 -67.5325 -34.5127 -34.4448 -34.2284 -34.1199 -34.0064 -33.9369
   -19.2500 -19.2429 -19.2395 -19.2338 -19.2311 -19.2222 -19.2201 -19.2112
   -19.2018 -19.1980 -19.1743 -19.1717 -19.1515 -19.1500 -11.0265  -6.4523
    -4.9374  -4.8670  -4.4031  -3.0395  -1.4553   0.0306   1.9866   2.3101
     3.8276   4.5195   5.4222   6.3585

          k = 0.3276-0.2835 0.0000 ( 20257 PWs)   bands (ev):

   -67.5529 -67.5379 -34.5074 -34.4360 -34.2369 -34.0851 -33.9250 -33.8326
   -19.2529 -19.2450 -19.2386 -19.2341 -19.2316 -19.2201 -19.2192 -19.2116
   -19.2027 -19.1969 -19.1672 -19.1641 -19.1583 -19.1560 -11.2437  -6.7894
    -5.1720  -4.7644  -4.0146  -3.0278  -1.8173   0.8369   1.5767   2.0219
     3.6497   3.9461   4.7777   6.2842

          k = 0.3276-0.1890 0.0000 ( 20260 PWs)   bands (ev):

   -67.5621 -67.5439 -34.4821 -34.3769 -34.2139 -34.0734 -33.8760 -33.7812
   -19.2537 -19.2443 -19.2389 -19.2323 -19.2318 -19.2202 -19.2183 -19.2116
   -19.2050 -19.1977 -19.1653 -19.1622 -19.1611 -19.1583 -11.4476  -6.8504
    -5.3697  -4.6951  -3.6332  -3.2476  -1.9197   1.1248   1.4937   2.0830
     2.6835   3.7769   3.9098   6.0352

          k = 0.3276-0.0945 0.0000 ( 20273 PWs)   bands (ev):

   -67.5687 -67.5484 -34.4729 -34.2864 -34.1647 -34.0664 -33.8667 -33.7902
   -19.2512 -19.2421 -19.2414 -19.2340 -19.2279 -19.2214 -19.2183 -19.2115
   -19.2062 -19.1997 -19.1704 -19.1669 -19.1573 -19.1557 -11.5877  -6.6427
    -5.5368  -4.6461  -4.0168  -2.8162  -1.8165   0.5208   0.8067   2.1979
     2.8510   3.4066   4.0753   5.8842

          k = 0.3277 0.0001 0.0000 ( 20280 PWs)   bands (ev):

   -67.5711 -67.5500 -34.4726 -34.2308 -34.1504 -34.0579 -33.8621 -33.8177
   -19.2472 -19.2452 -19.2400 -19.2356 -19.2264 -19.2212 -19.2192 -19.2115
   -19.2064 -19.2007 -19.1722 -19.1686 -19.1557 -19.1554 -11.6367  -6.4276
    -5.6893  -4.6394  -4.2289  -2.5292  -1.6936   0.0678   0.4231   2.2187
     3.0448   3.2036   4.4880   5.6991

          k = 0.3277 0.0946 0.0000 ( 20269 PWs)   bands (ev):

   -67.5686 -67.5483 -34.4729 -34.2868 -34.1648 -34.0666 -33.8669 -33.7903
   -19.2511 -19.2422 -19.2412 -19.2340 -19.2280 -19.2213 -19.2183 -19.2118
   -19.2063 -19.1996 -19.1704 -19.1669 -19.1573 -19.1556 -11.5872  -6.6401
    -5.5344  -4.6499  -4.0198  -2.8237  -1.8161   0.5285   0.8110   2.2025
     2.8512   3.4042   4.0764   5.8807

          k = 0.4096 0.2364 0.0000 ( 20296 PWs)   bands (ev):

   -67.5482 -67.5353 -34.5639 -34.4994 -34.2394 -34.0878 -33.9161 -33.8125
   -19.2558 -19.2464 -19.2395 -19.2339 -19.2323 -19.2197 -19.2178 -19.2120
   -19.2014 -19.1949 -19.1690 -19.1644 -19.1550 -19.1532 -11.1746  -7.0596
    -5.1809  -4.7827  -3.4668  -3.3787  -1.8311   1.5297   1.8260   2.1512
     3.1332   4.3206   5.1277   6.1848

          k = 0.4096 0.3309 0.0000 ( 20292 PWs)   bands (ev):

   -67.5428 -67.5325 -34.5818 -34.5150 -34.2263 -34.1019 -33.9565 -33.8571
   -19.2549 -19.2458 -19.2403 -19.2347 -19.2309 -19.2209 -19.2175 -19.2120
   -19.2008 -19.1950 -19.1726 -19.1681 -19.1512 -19.1499 -11.0648  -6.9722
    -5.0879  -4.7746  -3.7868  -3.2542  -1.6605   1.2023   1.6842   2.2782
     3.9717   4.4346   5.7539   6.2719

          k = 0.4097 0.4254 0.0000 ( 20324 PWs)   bands (ev):

   -67.5379 -67.5304 -34.5418 -34.4764 -34.2078 -34.1474 -34.0228 -33.9550
   -19.2515 -19.2426 -19.2388 -19.2358 -19.2288 -19.2227 -19.2196 -19.2114
   -19.2020 -19.1974 -19.1771 -19.1737 -19.1482 -19.1473 -10.9408  -6.5645
    -4.9019  -4.7386  -4.3159  -3.2862  -1.3183   0.2388   2.2259   2.4770
     4.0506   4.4532   5.5767   6.1237

          k = 0.4097 0.5199 0.0000 ( 20298 PWs)   bands (ev):

   -67.5347 -67.5295 -34.4677 -34.4032 -34.2520 -34.1838 -34.0693 -34.0435
   -19.2487 -19.2386 -19.2361 -19.2346 -19.2295 -19.2247 -19.2228 -19.2094
   -19.2032 -19.2009 -19.1798 -19.1783 -19.1465 -19.1458 -10.8562  -5.9440
    -5.1512  -4.7361  -4.6218  -3.1574  -0.9530  -0.4664   2.5616   2.7761
     3.4944   4.1762   5.1592   6.3216

          k = 0.4097 0.6145 0.0000 ( 20295 PWs)   bands (ev):

   -67.5348 -67.5295 -34.4673 -34.4023 -34.2526 -34.1845 -34.0685 -34.0440
   -19.2485 -19.2387 -19.2365 -19.2346 -19.2293 -19.2248 -19.2227 -19.2092
   -19.2031 -19.2010 -19.1797 -19.1785 -19.1465 -19.1458 -10.8567  -5.9444
    -5.1493  -4.7337  -4.6238  -3.1552  -0.9514  -0.4702   2.5577   2.7737
     3.4948   4.1765   5.1599   6.3200

          k = 0.4097 0.7090 0.0000 ( 20320 PWs)   bands (ev):

   -67.5381 -67.5304 -34.5410 -34.4749 -34.2096 -34.1468 -34.0221 -33.9552
   -19.2512 -19.2431 -19.2388 -19.2359 -19.2288 -19.2228 -19.2194 -19.2111
   -19.2020 -19.1974 -19.1770 -19.1739 -19.1482 -19.1473 -10.9421  -6.5653
    -4.9009  -4.7347  -4.3141  -3.2823  -1.3174   0.2325   2.2210   2.4694
     4.0525   4.4497   5.5787   6.1199

          k = 0.4095-0.3308 0.0000 ( 20290 PWs)   bands (ev):

   -67.5430 -67.5325 -34.5809 -34.5134 -34.2281 -34.1008 -33.9563 -33.8570
   -19.2546 -19.2461 -19.2404 -19.2349 -19.2309 -19.2210 -19.2173 -19.2116
   -19.2008 -19.1950 -19.1726 -19.1682 -19.1512 -19.1499 -11.0664  -6.9737
    -5.0889  -4.7695  -3.7792  -3.2510  -1.6604   1.1933   1.6789   2.2698
     3.9696   4.4349   5.7507   6.2720

          k = 0.4095-0.2362 0.0000 ( 20294 PWs)   bands (ev):

   -67.5484 -67.5353 -34.5632 -34.4980 -34.2409 -34.0868 -33.9159 -33.8123
   -19.2557 -19.2466 -19.2398 -19.2341 -19.2321 -19.2198 -19.2175 -19.2116
   -19.2015 -19.1949 -19.1690 -19.1646 -19.1550 -19.1531 -11.1761  -7.0618
    -5.1830  -4.7772  -3.4613  -3.3705  -1.8320   1.5242   1.8096   2.1438
     3.1367   4.3191   5.1272   6.1879

          k = 0.4096-0.1417 0.0000 ( 20265 PWs)   bands (ev):

   -67.5528 -67.5379 -34.5082 -34.4370 -34.2369 -34.0851 -33.9243 -33.8324
   -19.2529 -19.2451 -19.2391 -19.2340 -19.2313 -19.2204 -19.2186 -19.2117
   -19.2029 -19.1970 -19.1672 -19.1641 -19.1583 -19.1560 -11.2426  -6.7908
    -5.1700  -4.7675  -4.0250  -3.0162  -1.8199   0.8352   1.5679   2.0274
     3.6593   3.9470   4.7810   6.2888

          k = 0.4096-0.0472 0.0000 ( 20266 PWs)   bands (ev):

   -67.5553 -67.5395 -34.4686 -34.3565 -34.2309 -34.0842 -33.9465 -33.8878
   -19.2476 -19.2423 -19.2411 -19.2363 -19.2287 -19.2217 -19.2196 -19.2120
   -19.2031 -19.1996 -19.1666 -19.1654 -19.1602 -19.1576 -11.2687  -6.2113
    -5.4691  -4.8099  -4.3930  -2.6487  -1.6902  -0.1817   1.2018   2.1767
     3.6373   4.2164   4.8844   6.3204

          k = 0.4096 0.0473 0.0000 ( 20263 PWs)   bands (ev):

   -67.5552 -67.5395 -34.4687 -34.3569 -34.2306 -34.0843 -33.9469 -33.8877
   -19.2478 -19.2421 -19.2408 -19.2365 -19.2287 -19.2215 -19.2198 -19.2121
   -19.2031 -19.1995 -19.1667 -19.1653 -19.1602 -19.1576 -11.2683  -6.2082
    -5.4715  -4.8105  -4.3942  -2.6533  -1.6905  -0.1765   1.2042   2.1788
     3.6372   4.2155   4.8856   6.3184

          k = 0.4096 0.1419 0.0000 ( 20265 PWs)   bands (ev):

   -67.5527 -67.5379 -34.5086 -34.4379 -34.2359 -34.0857 -33.9246 -33.8325
   -19.2530 -19.2449 -19.2387 -19.2340 -19.2314 -19.2202 -19.2189 -19.2121
   -19.2029 -19.1969 -19.1672 -19.1639 -19.1583 -19.1560 -11.2416  -6.7880
    -5.1681  -4.7723  -4.0281  -3.0254  -1.8193   0.8458   1.5733   2.0337
     3.6588   3.9470   4.7809   6.2847

          k =-0.4915-0.2837 0.0000 ( 20314 PWs)   bands (ev):

   -67.5428 -67.5325 -34.6111 -34.5423 -34.2282 -34.0962 -33.9306 -33.8239
   -19.2568 -19.2467 -19.2414 -19.2347 -19.2314 -19.2206 -19.2162 -19.2122
   -19.2000 -19.1938 -19.1717 -19.1665 -19.1511 -19.1499 -11.0847  -7.1578
    -5.1748  -4.8084  -3.4290  -3.2934  -1.7680   1.4236   2.0926   2.3308
     3.1903   4.7968   5.7695   6.3325

          k =-0.4915-0.1891 0.0000 ( 20290 PWs)   bands (ev):

   -67.5428 -67.5325 -34.5820 -34.5152 -34.2261 -34.1020 -33.9563 -33.8571
   -19.2549 -19.2458 -19.2404 -19.2346 -19.2308 -19.2209 -19.2175 -19.2120
   -19.2008 -19.1950 -19.1726 -19.1681 -19.1512 -19.1499 -11.0645  -6.9726
    -5.0881  -4.7748  -3.7906  -3.2498  -1.6613   1.2015   1.6844   2.2776
     3.9728   4.4335   5.7545   6.2728

          k =-0.4915-0.0946 0.0000 ( 20279 PWs)   bands (ev):

   -67.5428 -67.5325 -34.5146 -34.4473 -34.2268 -34.1199 -34.0061 -33.9366
   -19.2505 -19.2425 -19.2399 -19.2333 -19.2310 -19.2219 -19.2201 -19.2116
   -19.2019 -19.1982 -19.1743 -19.1715 -19.1515 -19.1500 -11.0240  -6.4530
    -4.9342  -4.8747  -4.4142  -3.0351  -1.4588   0.0359   1.9823   2.3232
     3.8224   4.5385   5.4213   6.3635

          k =-0.4915-0.0001 0.0000 ( 20304 PWs)   bands (ev):

   -67.5429 -67.5325 -34.4759 -34.3922 -34.2498 -34.1174 -34.0356 -33.9862
   -19.2475 -19.2413 -19.2366 -19.2361 -19.2311 -19.2225 -19.2212 -19.2111
   -19.2013 -19.2011 -19.1747 -19.1738 -19.1517 -19.1501 -11.0039  -5.7743
    -5.6067  -4.7507  -4.5409  -2.8576  -1.2671  -0.5954   1.8926   2.4602
     3.6633   4.5848   5.2450   6.6377

          k =-0.4915 0.0944 0.0000 ( 20281 PWs)   bands (ev):

   -67.5430 -67.5325 -34.5142 -34.4463 -34.2278 -34.1196 -34.0055 -33.9368
   -19.2501 -19.2429 -19.2401 -19.2333 -19.2308 -19.2221 -19.2198 -19.2113
   -19.2019 -19.1982 -19.1742 -19.1717 -19.1515 -19.1500 -11.0248  -6.4549
    -4.9311  -4.8738  -4.4134  -3.0291  -1.4583   0.0290   1.9772   2.3186
     3.8218   4.5406   5.4207   6.3582

          k =-0.4915 0.1890 0.0000 ( 20289 PWs)   bands (ev):

   -67.5430 -67.5325 -34.5813 -34.5138 -34.2279 -34.1008 -33.9560 -33.8570
   -19.2547 -19.2461 -19.2406 -19.2347 -19.2308 -19.2210 -19.2172 -19.2116
   -19.2009 -19.1950 -19.1726 -19.1682 -19.1512 -19.1499 -11.0659  -6.9744
    -5.0892  -4.7699  -3.7868  -3.2422  -1.6619   1.1920   1.6791   2.2686
     3.9718   4.4332   5.7515   6.2729

          k =-0.4916-0.8508 0.0000 ( 20322 PWs)   bands (ev):

   -67.5430 -67.5325 -34.6103 -34.5408 -34.2302 -34.0948 -33.9304 -33.8237
   -19.2566 -19.2470 -19.2416 -19.2348 -19.2313 -19.2207 -19.2159 -19.2118
   -19.2000 -19.1938 -19.1717 -19.1666 -19.1511 -19.1499 -11.0863  -7.1596
    -5.1762  -4.8032  -3.4211  -3.2878  -1.7693   1.4179   2.0767   2.3216
     3.1942   4.7958   5.7655   6.3353

     the Fermi energy is     0.8267 ev

!    total energy              =   -1375.69865485 Ry
     estimated scf accuracy    <          5.8E-13 Ry
     smearing contrib. (-TS)   =      -0.00000366 Ry
     internal energy E=F+TS    =   -1375.69865119 Ry

     The total energy is F=E-TS. E is the sum of the following terms:
     one-electron contribution =  -11616.51013655 Ry
     hartree contribution      =    5838.39206960 Ry
     xc contribution           =    -140.31209497 Ry
     ewald contribution        =    4542.73151073 Ry

     convergence has been achieved in  19 iterations

     negative rho (up, down):  1.052E-03 0.000E+00

     Forces acting on atoms (cartesian axes, Ry/au):

     atom    1 type  2   force =    -0.00045411    0.00025775   -0.00000146
     atom    2 type  1   force =     0.00003645    0.00026957   -0.00024200
     atom    3 type  1   force =     0.00010096   -0.00034519    0.00024285
     atom    4 type  3   force =     0.00026951   -0.00055352   -0.00007413
     atom    5 type  3   force =     0.00004719    0.00037139    0.00007474

     Total force =     0.001060     Total SCF correction =     0.000008


     Computing stress (Cartesian axis) and pressure


     negative rho (up, down):  1.052E-03 0.000E+00
          total   stress  (Ry/bohr**3)                   (kbar)     P=       -0.47
  -0.00000397   0.00000012   0.00000077           -0.58        0.02        0.11
   0.00000012  -0.00000120  -0.00000377            0.02       -0.18       -0.55
   0.00000077  -0.00000377  -0.00000449            0.11       -0.55       -0.66


     Writing output data file /scratch/as3359/Ta2CH2-VCrelax/Ta.save/
 
     init_run     :     20.44s CPU     11.21s WALL (       1 calls)
     electrons    :    830.31s CPU    424.79s WALL (       1 calls)
     forces       :      6.26s CPU      3.23s WALL (       1 calls)
     stress       :     22.43s CPU     11.55s WALL (       1 calls)

     Called by init_run:
     wfcinit      :     15.76s CPU      8.09s WALL (       1 calls)
     potinit      :      1.20s CPU      0.61s WALL (       1 calls)
     hinit0       :      2.72s CPU      1.99s WALL (       1 calls)

     Called by electrons:
     c_bands      :    685.13s CPU    347.50s WALL (      19 calls)
     sum_band     :    129.14s CPU     67.45s WALL (      19 calls)
     v_of_rho     :      2.71s CPU      1.51s WALL (      20 calls)
     newd         :     12.99s CPU      8.16s WALL (      20 calls)
     mix_rho      :      0.89s CPU      0.49s WALL (      19 calls)

     Called by c_bands:
     init_us_2    :     16.46s CPU      8.25s WALL (    3034 calls)
     cegterg      :    636.88s CPU    323.14s WALL (    1406 calls)

     Called by *egterg:
     cdiaghg      :     17.18s CPU      8.78s WALL (    7318 calls)
     h_psi        :    514.39s CPU    261.55s WALL (    7392 calls)
     s_psi        :     22.87s CPU     11.46s WALL (    7392 calls)
     g_psi        :      2.78s CPU      1.40s WALL (    5912 calls)

     Called by h_psi:
     h_psi:calbec :     20.42s CPU     10.25s WALL (    7392 calls)
     vloc_psi     :    462.37s CPU    235.43s WALL (    7392 calls)
     add_vuspsi   :     27.37s CPU     13.71s WALL (    7392 calls)

     General routines
     calbec       :     27.88s CPU     14.00s WALL (    9168 calls)
     fft          :      2.35s CPU      1.21s WALL (     245 calls)
     ffts         :      0.08s CPU      0.04s WALL (      19 calls)
     fftw         :    466.85s CPU    237.88s WALL (  303996 calls)
 
     Parallel routines
 
     PWSCF        :  14m42.64s CPU   7m33.80s WALL

 
   This run was terminated on:  14:40: 5   7Apr2022            

=------------------------------------------------------------------------------=
   JOB DONE.
=------------------------------------------------------------------------------=
