
     Program PWSCF v.6.8 starts on  7Apr2022 at 17: 7:46 

     This program is part of the open-source Quantum ESPRESSO suite
     for quantum simulation of materials; please cite
         "P. Giannozzi et al., J. Phys.:Condens. Matter 21 395502 (2009);
         "P. Giannozzi et al., J. Phys.:Condens. Matter 29 465901 (2017);
         "P. Giannozzi et al., J. Chem. Phys. 152 154105 (2020);
          URL http://www.quantum-espresso.org", 
     in publications or presentations arising from this work. More details at
     http://www.quantum-espresso.org/quote

     Parallel version (MPI & OpenMP), running on       4 processor cores
     Number of MPI processes:                 2
     Threads/MPI process:                     2

     MPI processes distributed on     1 nodes
     R & G space division:  proc/nbgrp/npool/nimage =       2
     123298 MiB available memory on the printing compute node when the environment starts
 
     Reading input from Ta2CH2.scf.150.in

     Current dimensions of program PWSCF are:
     Max number of different atomic species (ntypx) = 10
     Max number of k-points (npk) =  40000
     Max angular momentum in pseudopotentials (lmaxx) =  4
     file Ta.pbesol-spfn-rrkjus_psl.1.0.0.UPF: wavefunction(s)  5S 5P renormalized

     Subspace diagonalization in iterative solution of the eigenvalue problem:
     a serial algorithm will be used

 
     Parallelization info
     --------------------
     sticks:   dense  smooth     PW     G-vecs:    dense   smooth      PW
     Min         654     654    191               189956   189956   30732
     Max         655     655    194               189957   189957   30733
     Sum        1309    1309    385               379913   379913   61465
 
     Using Slab Decomposition
 


     bravais-lattice index     =            0
     lattice parameter (alat)  =       5.5500  a.u.
     unit-cell volume          =    1533.2393 (a.u.)^3
     number of atoms/cell      =            5
     number of atomic types    =            3
     number of electrons       =        60.00
     number of Kohn-Sham states=           36
     kinetic-energy cutoff     =     150.0000  Ry
     charge density cutoff     =     600.0000  Ry
     scf convergence threshold =      1.0E-12
     mixing beta               =       0.7000
     number of iterations used =            8  plain     mixing
     Exchange-correlation= PBESOL
                           (   1   4  10   8   0   0   0)

     celldm(1)=   5.550000  celldm(2)=   0.000000  celldm(3)=   0.000000
     celldm(4)=   0.000000  celldm(5)=   0.000000  celldm(6)=   0.000000

     crystal axes: (cart. coord. in units of alat)
               a(1) = (   1.017295  -0.000177   0.000000 )  
               a(2) = (  -0.508801   0.881714   0.000000 )  
               a(3) = (   0.000000   0.000000  10.000000 )  

     reciprocal axes: (cart. coord. in units 2 pi/alat)
               b(1) = (  0.983098  0.567305  0.000000 )  
               b(2) = (  0.000198  1.134269  0.000000 )  
               b(3) = (  0.000000  0.000000  0.100000 )  


     PseudoPot. # 1 for Ta read from file:
     /shared/home/as3359/pseudo/Ta.pbesol-spfn-rrkjus_psl.1.0.0.UPF
     MD5 check sum: f099565ffaca9b150a52e9412a28e20b
     Pseudo is Ultrasoft + core correction, Zval = 27.0
     Generated using &quot;atomic&quot; code by A. Dal Corso  v.6.3
     Using radial grid of 1273 points,  8 beta functions with: 
                l(1) =   0
                l(2) =   0
                l(3) =   1
                l(4) =   1
                l(5) =   2
                l(6) =   2
                l(7) =   3
                l(8) =   3
     Q(r) pseudized with 0 coefficients 


     PseudoPot. # 2 for C  read from file:
     /shared/home/as3359/pseudo/C.pbesol-n-rrkjus_psl.1.0.0.UPF
     MD5 check sum: 05995be603a8a7c99da3dc4413f31573
     Pseudo is Ultrasoft + core correction, Zval =  4.0
     Generated using &quot;atomic&quot; code by A. Dal Corso  v.6.3MaX
     Using radial grid of 1073 points,  4 beta functions with: 
                l(1) =   0
                l(2) =   0
                l(3) =   1
                l(4) =   1
     Q(r) pseudized with 0 coefficients 


     PseudoPot. # 3 for H  read from file:
     /shared/home/as3359/pseudo/H.pbesol-rrkjus_psl.0.1.UPF
     MD5 check sum: 1dbb1a5c48b1283557b8117eb856a7ca
     Pseudo is Ultrasoft, Zval =  1.0
     Generated using "atomic" code by A. Dal Corso  v.5.0.2 svn rev. 9415
     Using radial grid of  929 points,  2 beta functions with: 
                l(1) =   0
                l(2) =   0
     Q(r) pseudized with 0 coefficients 


     atomic species   valence    mass     pseudopotential
        Ta            27.00   180.94788     Ta( 1.00)
        C              4.00    12.01070     C ( 1.00)
        H              1.00     1.00000     H ( 1.00)

     No symmetry found



   Cartesian axes

     site n.     atom                  positions (alat units)
         1           C   tau(   1) = (   0.0000000   0.0000000   0.0000000  )
         2           Ta  tau(   2) = (   0.5088008   0.2948413  -0.4364511  )
         3           Ta  tau(   3) = (  -0.0007447   0.5869407   0.4364532  )
         4           H   tau(   4) = (  -0.0017928  -0.0015314   0.8341930  )
         5           H   tau(   5) = (   0.0002769   0.0024412  -0.8341930  )

     number of k points=    74  Marzari-Vanderbilt smearing, width (Ry)=  0.0010
                       cart. coord. in units 2pi/alat
        k(    1) = (   0.0000000   0.0000000   0.0000000), wk =   0.0138889
        k(    2) = (   0.0000165   0.0945224   0.0000000), wk =   0.0277778
        k(    3) = (   0.0000329   0.1890448   0.0000000), wk =   0.0277778
        k(    4) = (   0.0000494   0.2835672   0.0000000), wk =   0.0277778
        k(    5) = (   0.0000659   0.3780896   0.0000000), wk =   0.0277778
        k(    6) = (   0.0000823   0.4726120   0.0000000), wk =   0.0277778
        k(    7) = (  -0.0000988  -0.5671343   0.0000000), wk =   0.0138889
        k(    8) = (   0.0819248   0.0472755   0.0000000), wk =   0.0277778
        k(    9) = (   0.0819413   0.1417978   0.0000000), wk =   0.0277778
        k(   10) = (   0.0819577   0.2363202   0.0000000), wk =   0.0277778
        k(   11) = (   0.0819742   0.3308426   0.0000000), wk =   0.0277778
        k(   12) = (   0.0819907   0.4253650   0.0000000), wk =   0.0277778
        k(   13) = (   0.0820071   0.5198874   0.0000000), wk =   0.0277778
        k(   14) = (   0.0818260  -0.5198589   0.0000000), wk =   0.0277778
        k(   15) = (   0.0818425  -0.4253365   0.0000000), wk =   0.0277778
        k(   16) = (   0.0818590  -0.3308141   0.0000000), wk =   0.0277778
        k(   17) = (   0.0818754  -0.2362917   0.0000000), wk =   0.0277778
        k(   18) = (   0.0818919  -0.1417693   0.0000000), wk =   0.0277778
        k(   19) = (   0.0819084  -0.0472469   0.0000000), wk =   0.0277778
        k(   20) = (   0.1638496   0.0945509   0.0000000), wk =   0.0277778
        k(   21) = (   0.1638661   0.1890733   0.0000000), wk =   0.0277778
        k(   22) = (   0.1638826   0.2835957   0.0000000), wk =   0.0277778
        k(   23) = (   0.1638990   0.3781181   0.0000000), wk =   0.0277778
        k(   24) = (   0.1639155   0.4726405   0.0000000), wk =   0.0277778
        k(   25) = (   0.1639319   0.5671629   0.0000000), wk =   0.0277778
        k(   26) = (   0.1637508  -0.4725834   0.0000000), wk =   0.0277778
        k(   27) = (   0.1637673  -0.3780610   0.0000000), wk =   0.0277778
        k(   28) = (   0.1637838  -0.2835386   0.0000000), wk =   0.0277778
        k(   29) = (   0.1638002  -0.1890163   0.0000000), wk =   0.0277778
        k(   30) = (   0.1638167  -0.0944939   0.0000000), wk =   0.0277778
        k(   31) = (   0.1638332   0.0000285   0.0000000), wk =   0.0277778
        k(   32) = (   0.2457744   0.1418264   0.0000000), wk =   0.0277778
        k(   33) = (   0.2457909   0.2363488   0.0000000), wk =   0.0277778
        k(   34) = (   0.2458074   0.3308711   0.0000000), wk =   0.0277778
        k(   35) = (   0.2458238   0.4253935   0.0000000), wk =   0.0277778
        k(   36) = (   0.2458403   0.5199159   0.0000000), wk =   0.0277778
        k(   37) = (   0.2458568   0.6144383   0.0000000), wk =   0.0277778
        k(   38) = (   0.2456757  -0.4253080   0.0000000), wk =   0.0277778
        k(   39) = (   0.2456921  -0.3307856   0.0000000), wk =   0.0277778
        k(   40) = (   0.2457086  -0.2362632   0.0000000), wk =   0.0277778
        k(   41) = (   0.2457251  -0.1417408   0.0000000), wk =   0.0277778
        k(   42) = (   0.2457415  -0.0472184   0.0000000), wk =   0.0277778
        k(   43) = (   0.2457580   0.0473040   0.0000000), wk =   0.0277778
        k(   44) = (   0.3276993   0.1891018   0.0000000), wk =   0.0277778
        k(   45) = (   0.3277157   0.2836242   0.0000000), wk =   0.0277778
        k(   46) = (   0.3277322   0.3781466   0.0000000), wk =   0.0277778
        k(   47) = (   0.3277486   0.4726690   0.0000000), wk =   0.0277778
        k(   48) = (   0.3277651   0.5671914   0.0000000), wk =   0.0277778
        k(   49) = (   0.3277816   0.6617138   0.0000000), wk =   0.0277778
        k(   50) = (   0.3276005  -0.3780325   0.0000000), wk =   0.0277778
        k(   51) = (   0.3276169  -0.2835101   0.0000000), wk =   0.0277778
        k(   52) = (   0.3276334  -0.1889877   0.0000000), wk =   0.0277778
        k(   53) = (   0.3276499  -0.0944653   0.0000000), wk =   0.0277778
        k(   54) = (   0.3276663   0.0000570   0.0000000), wk =   0.0277778
        k(   55) = (   0.3276828   0.0945794   0.0000000), wk =   0.0277778
        k(   56) = (   0.4096241   0.2363773   0.0000000), wk =   0.0277778
        k(   57) = (   0.4096405   0.3308997   0.0000000), wk =   0.0277778
        k(   58) = (   0.4096570   0.4254221   0.0000000), wk =   0.0277778
        k(   59) = (   0.4096735   0.5199445   0.0000000), wk =   0.0277778
        k(   60) = (   0.4096899   0.6144668   0.0000000), wk =   0.0277778
        k(   61) = (   0.4097064   0.7089892   0.0000000), wk =   0.0277778
        k(   62) = (   0.4095253  -0.3307571   0.0000000), wk =   0.0277778
        k(   63) = (   0.4095418  -0.2362347   0.0000000), wk =   0.0277778
        k(   64) = (   0.4095582  -0.1417123   0.0000000), wk =   0.0277778
        k(   65) = (   0.4095747  -0.0471899   0.0000000), wk =   0.0277778
        k(   66) = (   0.4095911   0.0473325   0.0000000), wk =   0.0277778
        k(   67) = (   0.4096076   0.1418549   0.0000000), wk =   0.0277778
        k(   68) = (  -0.4915489  -0.2836527   0.0000000), wk =   0.0138889
        k(   69) = (  -0.4915324  -0.1891303   0.0000000), wk =   0.0277778
        k(   70) = (  -0.4915160  -0.0946080   0.0000000), wk =   0.0277778
        k(   71) = (  -0.4914995  -0.0000856   0.0000000), wk =   0.0277778
        k(   72) = (  -0.4914830   0.0944368   0.0000000), wk =   0.0277778
        k(   73) = (  -0.4914666   0.1889592   0.0000000), wk =   0.0277778
        k(   74) = (  -0.4916477  -0.8507871   0.0000000), wk =   0.0138889

     Dense  grid:   379913 G-vectors     FFT dimensions: (  45,  45, 450)

     Estimated max dynamical RAM per process >       2.76 GB

     Estimated total dynamical RAM >       5.53 GB

     Initial potential from superposition of free atoms

     starting charge   59.99840, renormalised to   60.00000

     negative rho (up, down):  8.603E-05 0.000E+00
     Starting wfcs are   40 randomized atomic wfcs

     total cpu time spent up to now is       27.5 secs

     Self-consistent Calculation

     iteration #  1     ecut=   150.00 Ry     beta= 0.70
     Davidson diagonalization with overlap
     ethr =  1.00E-02,  avg # of iterations =  2.0

     negative rho (up, down):  1.568E-05 0.000E+00

     total cpu time spent up to now is       77.7 secs

     total energy              =   -1375.12226076 Ry
     estimated scf accuracy    <       1.04861225 Ry

     iteration #  2     ecut=   150.00 Ry     beta= 0.70
     Davidson diagonalization with overlap
     ethr =  1.75E-03,  avg # of iterations =  7.1

     negative rho (up, down):  2.227E-05 0.000E+00

     total cpu time spent up to now is      145.5 secs

     total energy              =   -1374.71566483 Ry
     estimated scf accuracy    <       5.42017216 Ry

     iteration #  3     ecut=   150.00 Ry     beta= 0.70
     Davidson diagonalization with overlap
     ethr =  1.75E-03,  avg # of iterations =  4.8

     negative rho (up, down):  3.716E-05 0.000E+00

     total cpu time spent up to now is      206.3 secs

     total energy              =   -1375.66789071 Ry
     estimated scf accuracy    <       0.22888955 Ry

     iteration #  4     ecut=   150.00 Ry     beta= 0.70
     Davidson diagonalization with overlap
     ethr =  3.81E-04,  avg # of iterations =  2.4

     negative rho (up, down):  5.210E-05 0.000E+00

     total cpu time spent up to now is      257.0 secs

     total energy              =   -1375.69664838 Ry
     estimated scf accuracy    <       0.02418511 Ry

     iteration #  5     ecut=   150.00 Ry     beta= 0.70
     Davidson diagonalization with overlap
     c_bands:  1 eigenvalues not converged
     ethr =  4.03E-05,  avg # of iterations = 11.6

     negative rho (up, down):  5.841E-05 0.000E+00

     total cpu time spent up to now is      329.9 secs

     total energy              =   -1375.68612240 Ry
     estimated scf accuracy    <       0.22826211 Ry

     iteration #  6     ecut=   150.00 Ry     beta= 0.70
     Davidson diagonalization with overlap
     ethr =  4.03E-05,  avg # of iterations = 11.9

     negative rho (up, down):  7.887E-05 0.000E+00

     total cpu time spent up to now is      395.1 secs

     total energy              =   -1375.70010447 Ry
     estimated scf accuracy    <       0.01026039 Ry

     iteration #  7     ecut=   150.00 Ry     beta= 0.70
     Davidson diagonalization with overlap
     ethr =  1.71E-05,  avg # of iterations =  3.7

     negative rho (up, down):  8.913E-05 0.000E+00

     total cpu time spent up to now is      443.7 secs

     total energy              =   -1375.70105344 Ry
     estimated scf accuracy    <       0.00023249 Ry

     iteration #  8     ecut=   150.00 Ry     beta= 0.70
     Davidson diagonalization with overlap
     ethr =  3.87E-07,  avg # of iterations = 10.0

     negative rho (up, down):  9.821E-05 0.000E+00

     total cpu time spent up to now is      513.1 secs

     total energy              =   -1375.70111638 Ry
     estimated scf accuracy    <       0.00001548 Ry

     iteration #  9     ecut=   150.00 Ry     beta= 0.70
     Davidson diagonalization with overlap
     ethr =  2.58E-08,  avg # of iterations =  2.9

     negative rho (up, down):  9.897E-05 0.000E+00

     total cpu time spent up to now is      563.5 secs

     total energy              =   -1375.70111856 Ry
     estimated scf accuracy    <       0.00000524 Ry

     iteration # 10     ecut=   150.00 Ry     beta= 0.70
     Davidson diagonalization with overlap
     ethr =  8.73E-09,  avg # of iterations =  2.0

     negative rho (up, down):  9.927E-05 0.000E+00

     total cpu time spent up to now is      611.9 secs

     total energy              =   -1375.70111909 Ry
     estimated scf accuracy    <       0.00000045 Ry

     iteration # 11     ecut=   150.00 Ry     beta= 0.70
     Davidson diagonalization with overlap
     ethr =  7.55E-10,  avg # of iterations =  4.0

     negative rho (up, down):  9.928E-05 0.000E+00

     total cpu time spent up to now is      664.2 secs

     total energy              =   -1375.70111919 Ry
     estimated scf accuracy    <       0.00000006 Ry

     iteration # 12     ecut=   150.00 Ry     beta= 0.70
     Davidson diagonalization with overlap
     ethr =  1.00E-10,  avg # of iterations =  2.5

     negative rho (up, down):  9.929E-05 0.000E+00

     total cpu time spent up to now is      718.8 secs

     total energy              =   -1375.70111919 Ry
     estimated scf accuracy    <       0.00000002 Ry

     iteration # 13     ecut=   150.00 Ry     beta= 0.70
     Davidson diagonalization with overlap
     ethr =  4.02E-11,  avg # of iterations =  2.2

     negative rho (up, down):  9.931E-05 0.000E+00

     total cpu time spent up to now is      767.5 secs

     total energy              =   -1375.70111920 Ry
     estimated scf accuracy    <          3.6E-09 Ry

     iteration # 14     ecut=   150.00 Ry     beta= 0.70
     Davidson diagonalization with overlap
     ethr =  5.95E-12,  avg # of iterations =  3.3

     negative rho (up, down):  9.932E-05 0.000E+00

     total cpu time spent up to now is      823.9 secs

     total energy              =   -1375.70111920 Ry
     estimated scf accuracy    <          3.0E-10 Ry

     iteration # 15     ecut=   150.00 Ry     beta= 0.70
     Davidson diagonalization with overlap
     ethr =  5.07E-13,  avg # of iterations =  2.1

     negative rho (up, down):  9.932E-05 0.000E+00

     total cpu time spent up to now is      872.1 secs

     total energy              =   -1375.70111920 Ry
     estimated scf accuracy    <          2.0E-10 Ry

     iteration # 16     ecut=   150.00 Ry     beta= 0.70
     Davidson diagonalization with overlap
     ethr =  3.33E-13,  avg # of iterations =  1.8

     negative rho (up, down):  9.932E-05 0.000E+00

     total cpu time spent up to now is      917.7 secs

     total energy              =   -1375.70111920 Ry
     estimated scf accuracy    <          1.3E-10 Ry

     iteration # 17     ecut=   150.00 Ry     beta= 0.70
     Davidson diagonalization with overlap
     ethr =  2.10E-13,  avg # of iterations =  1.3

     negative rho (up, down):  9.932E-05 0.000E+00

     total cpu time spent up to now is      961.6 secs

     total energy              =   -1375.70111920 Ry
     estimated scf accuracy    <          4.9E-12 Ry

     iteration # 18     ecut=   150.00 Ry     beta= 0.70
     Davidson diagonalization with overlap
     ethr =  1.00E-13,  avg # of iterations =  1.5

     negative rho (up, down):  9.932E-05 0.000E+00

     total cpu time spent up to now is     1005.7 secs

     End of self-consistent calculation

          k = 0.0000 0.0000 0.0000 ( 47073 PWs)   bands (ev):

   -67.6112 -67.5796 -34.5973 -34.1139 -33.6992 -33.6978 -33.6592 -33.6589
   -19.2565 -19.2425 -19.2234 -19.2229 -19.2227 -19.2226 -19.2016 -19.2015
   -19.2003 -19.1997 -19.1991 -19.1930 -19.1190 -19.1183 -12.8532  -8.3510
    -5.2550  -3.4728  -3.2165  -3.2017  -1.2333   0.3193   0.3393   2.4914
     2.5032   2.9052   2.9380   3.4867

          k = 0.0000 0.0945 0.0000 ( 47305 PWs)   bands (ev):

   -67.6066 -67.5760 -34.5825 -34.1128 -33.7581 -33.7163 -33.7159 -33.6684
   -19.2549 -19.2418 -19.2245 -19.2230 -19.2227 -19.2214 -19.2037 -19.2017
   -19.2004 -19.1996 -19.1957 -19.1897 -19.1225 -19.1218 -12.7138  -8.1323
    -5.3200  -3.5511  -3.3889  -3.1606  -1.0617  -0.0555   0.5496   1.8788
     2.1875   2.9299   3.3019   4.1837

          k = 0.0000 0.1890 0.0000 ( 47475 PWs)   bands (ev):

   -67.5942 -67.5663 -34.5423 -34.1166 -33.9138 -33.8668 -33.7607 -33.6966
   -19.2507 -19.2403 -19.2284 -19.2232 -19.2224 -19.2175 -19.2088 -19.2024
   -19.2019 -19.1980 -19.1860 -19.1808 -19.1315 -19.1310 -12.3439  -7.5536
    -5.4873  -4.0335  -3.4652  -3.0962  -1.0092  -0.4087   1.1333   1.3097
     2.0979   2.7900   3.6418   4.9412

          k = 0.0000 0.2836 0.0000 ( 47551 PWs)   bands (ev):

   -67.5770 -67.5533 -34.4926 -34.1943 -34.0669 -34.0417 -33.8184 -33.7373
   -19.2475 -19.2373 -19.2336 -19.2243 -19.2221 -19.2139 -19.2134 -19.2043
   -19.2014 -19.1952 -19.1727 -19.1685 -19.1436 -19.1424 -11.8706  -6.9307
    -5.6165  -4.4655  -3.5646  -3.1180  -1.6553   0.3113   1.1533   1.8930
     2.5016   2.6842   3.7583   5.5269

          k = 0.0001 0.3781 0.0000 ( 47559 PWs)   bands (ev):

   -67.5592 -67.5408 -34.4800 -34.3744 -34.2123 -34.0711 -33.8740 -33.7792
   -19.2479 -19.2381 -19.2330 -19.2262 -19.2255 -19.2137 -19.2122 -19.2051
   -19.1987 -19.1917 -19.1591 -19.1560 -19.1550 -19.1523 -11.4464  -6.8502
    -5.3720  -4.6851  -3.6247  -3.2346  -1.9185   1.1163   1.4875   2.0735
     2.6879   3.7808   3.9155   6.0516

          k = 0.0001 0.4726 0.0000 ( 47581 PWs)   bands (ev):

   -67.5455 -67.5322 -34.5603 -34.4954 -34.2406 -34.0839 -33.9138 -33.8102
   -19.2497 -19.2404 -19.2338 -19.2280 -19.2260 -19.2136 -19.2110 -19.2051
   -19.1953 -19.1888 -19.1629 -19.1586 -19.1488 -19.1469 -11.1754  -7.0606
    -5.1833  -4.7672  -3.4534  -3.3574  -1.8317   1.5216   1.7912   2.1380
     3.1447   4.3193   5.1290   6.1964

          k =-0.0001-0.5671 0.0000 ( 47628 PWs)   bands (ev):

   -67.5401 -67.5293 -34.6074 -34.5380 -34.2305 -34.0915 -33.9282 -33.8215
   -19.2506 -19.2409 -19.2355 -19.2288 -19.2253 -19.2144 -19.2093 -19.2052
   -19.1939 -19.1877 -19.1656 -19.1607 -19.1449 -19.1437 -11.0859  -7.1577
    -5.1754  -4.7934  -3.4075  -3.2810  -1.7695   1.4151   2.0585   2.3147
     3.2028   4.7970   5.7626   6.3425

          k = 0.0819 0.0473 0.0000 ( 47307 PWs)   bands (ev):

   -67.6066 -67.5760 -34.5824 -34.1129 -33.7593 -33.7160 -33.7153 -33.6686
   -19.2548 -19.2418 -19.2246 -19.2231 -19.2228 -19.2211 -19.2036 -19.2018
   -19.2011 -19.1990 -19.1957 -19.1898 -19.1225 -19.1218 -12.7136  -8.1321
    -5.3180  -3.5472  -3.3855  -3.1739  -1.0631  -0.0392   0.5332   1.8786
     2.1864   2.9620   3.2863   4.1702

          k = 0.0819 0.1418 0.0000 ( 47423 PWs)   bands (ev):

   -67.5981 -67.5694 -34.5548 -34.1135 -33.8557 -33.8331 -33.7358 -33.6967
   -19.2518 -19.2408 -19.2266 -19.2249 -19.2215 -19.2187 -19.2069 -19.2025
   -19.2018 -19.1983 -19.1891 -19.1836 -19.1287 -19.1282 -12.4586  -7.7277
    -5.4298  -3.8038  -3.6602  -2.9881  -0.7505  -0.6296   0.8722   1.6532
     1.8058   2.9994   3.5719   4.8297

          k = 0.0820 0.2363 0.0000 ( 47525 PWs)   bands (ev):

   -67.5833 -67.5580 -34.5089 -34.1402 -34.0117 -33.9916 -33.7955 -33.7404
   -19.2472 -19.2392 -19.2310 -19.2261 -19.2207 -19.2149 -19.2120 -19.2037
   -19.2020 -19.1964 -19.1776 -19.1730 -19.1392 -19.1388 -12.0357  -7.0694
    -5.5910  -4.3093  -3.8493  -2.7950  -1.3678  -0.1433   0.7434   1.9402
     2.2363   2.7778   3.9442   5.3317

          k = 0.0820 0.3308 0.0000 ( 47577 PWs)   bands (ev):

   -67.5657 -67.5453 -34.4711 -34.2834 -34.1624 -34.0645 -33.8652 -33.7885
   -19.2455 -19.2357 -19.2354 -19.2278 -19.2217 -19.2152 -19.2123 -19.2051
   -19.1998 -19.1937 -19.1642 -19.1607 -19.1511 -19.1496 -11.5865  -6.6418
    -5.5398  -4.6355  -4.0064  -2.8076  -1.8144   0.5099   0.8127   2.1931
     2.8455   3.4094   4.0767   5.9375

          k = 0.0820 0.4254 0.0000 ( 47607 PWs)   bands (ev):

   -67.5499 -67.5348 -34.5054 -34.4342 -34.2359 -34.0827 -33.9225 -33.8305
   -19.2470 -19.2389 -19.2330 -19.2280 -19.2251 -19.2141 -19.2123 -19.2052
   -19.1966 -19.1909 -19.1611 -19.1581 -19.1521 -19.1498 -11.2419  -6.7897
    -5.1711  -4.7569  -4.0131  -3.0093  -1.8174   0.8259   1.5702   2.0188
     3.6578   3.9488   4.7817   6.2964

          k = 0.0820 0.5199 0.0000 ( 47631 PWs)   bands (ev):

   -67.5401 -67.5293 -34.5783 -34.5109 -34.2280 -34.0978 -33.9540 -33.8550
   -19.2486 -19.2401 -19.2344 -19.2287 -19.2248 -19.2147 -19.2107 -19.2051
   -19.1947 -19.1890 -19.1665 -19.1623 -19.1450 -19.1437 -11.0655  -6.9722
    -5.0880  -4.7603  -3.7749  -3.2367  -1.6601   1.1841   1.6763   2.2607
     3.9726   4.4362   5.7495   6.2763

          k = 0.0818-0.5199 0.0000 ( 47637 PWs)   bands (ev):

   -67.5401 -67.5293 -34.5781 -34.5107 -34.2281 -34.0978 -33.9541 -33.8550
   -19.2486 -19.2401 -19.2343 -19.2288 -19.2248 -19.2147 -19.2107 -19.2051
   -19.1947 -19.1890 -19.1665 -19.1623 -19.1450 -19.1437 -11.0657  -6.9719
    -5.0879  -4.7602  -3.7711  -3.2411  -1.6594   1.1846   1.6763   2.2613
     3.9715   4.4368   5.7493   6.2764

          k = 0.0818-0.4253 0.0000 ( 47620 PWs)   bands (ev):

   -67.5499 -67.5348 -34.5050 -34.4338 -34.2358 -34.0828 -33.9228 -33.8306
   -19.2470 -19.2389 -19.2328 -19.2280 -19.2252 -19.2139 -19.2128 -19.2052
   -19.1965 -19.1909 -19.1611 -19.1581 -19.1521 -19.1498 -11.2424  -6.7891
    -5.1720  -4.7555  -4.0081  -3.0150  -1.8163   0.8266   1.5741   2.0167
     3.6534   3.9483   4.7805   6.2946

          k = 0.0819-0.3308 0.0000 ( 47578 PWs)   bands (ev):

   -67.5658 -67.5453 -34.4710 -34.2827 -34.1618 -34.0645 -33.8658 -33.7886
   -19.2454 -19.2356 -19.2354 -19.2277 -19.2217 -19.2152 -19.2126 -19.2050
   -19.1997 -19.1937 -19.1642 -19.1606 -19.1512 -19.1496 -11.5870  -6.6416
    -5.5413  -4.6331  -4.0025  -2.8108  -1.8142   0.5069   0.8188   2.1920
     2.8392   3.4075   4.0758   5.9398

          k = 0.0819-0.2363 0.0000 ( 47521 PWs)   bands (ev):

   -67.5833 -67.5580 -34.5090 -34.1397 -34.0116 -33.9907 -33.7961 -33.7406
   -19.2472 -19.2392 -19.2309 -19.2260 -19.2205 -19.2152 -19.2121 -19.2035
   -19.2018 -19.1965 -19.1776 -19.1729 -19.1392 -19.1388 -12.0362  -7.0698
    -5.5929  -4.3069  -3.8468  -2.7936  -1.3697  -0.1415   0.7405   1.9409
     2.2379   2.7721   3.9397   5.3365

          k = 0.0819-0.1418 0.0000 ( 47419 PWs)   bands (ev):

   -67.5982 -67.5694 -34.5549 -34.1134 -33.8549 -33.8328 -33.7365 -33.6969
   -19.2518 -19.2408 -19.2267 -19.2247 -19.2213 -19.2190 -19.2070 -19.2023
   -19.2015 -19.1986 -19.1891 -19.1836 -19.1287 -19.1282 -12.4589  -7.7281
    -5.4317  -3.8042  -3.6583  -2.9832  -0.7492  -0.6343   0.8747   1.6477
     1.8099   2.9962   3.5657   4.8381

          k = 0.0819-0.0472 0.0000 ( 47299 PWs)   bands (ev):

   -67.6066 -67.5760 -34.5824 -34.1128 -33.7587 -33.7161 -33.7156 -33.6686
   -19.2548 -19.2418 -19.2246 -19.2230 -19.2228 -19.2213 -19.2037 -19.2017
   -19.2008 -19.1993 -19.1957 -19.1897 -19.1225 -19.1218 -12.7137  -8.1322
    -5.3188  -3.5489  -3.3871  -3.1680  -1.0625  -0.0465   0.5407   1.8786
     2.1871   2.9481   3.2925   4.1763

          k = 0.1638 0.0946 0.0000 ( 47479 PWs)   bands (ev):

   -67.5941 -67.5663 -34.5420 -34.1170 -33.9150 -33.8672 -33.7602 -33.6967
   -19.2505 -19.2402 -19.2286 -19.2230 -19.2229 -19.2172 -19.2086 -19.2030
   -19.2021 -19.1975 -19.1860 -19.1809 -19.1315 -19.1310 -12.3431  -7.5526
    -5.4797  -4.0348  -3.4704  -3.1111  -1.0096  -0.3973   1.1205   1.3212
     2.0944   2.8195   3.6309   4.9328

          k = 0.1639 0.1891 0.0000 ( 47509 PWs)   bands (ev):

   -67.5832 -67.5580 -34.5087 -34.1405 -34.0128 -33.9910 -33.7956 -33.7405
   -19.2468 -19.2393 -19.2310 -19.2260 -19.2209 -19.2147 -19.2119 -19.2040
   -19.2021 -19.1962 -19.1776 -19.1730 -19.1393 -19.1387 -12.0352  -7.0684
    -5.5853  -4.3126  -3.8542  -2.8031  -1.3673  -0.1382   0.7507   1.9367
     2.2377   2.7863   3.9417   5.3271

          k = 0.1639 0.2836 0.0000 ( 47561 PWs)   bands (ev):

   -67.5680 -67.5469 -34.4708 -34.2272 -34.1483 -34.0559 -33.8612 -33.8162
   -19.2414 -19.2391 -19.2335 -19.2295 -19.2201 -19.2151 -19.2132 -19.2052
   -19.2000 -19.1947 -19.1661 -19.1624 -19.1496 -19.1493 -11.6353  -6.4253
    -5.6906  -4.6301  -4.2211  -2.5251  -1.6907   0.0605   0.4338   2.2173
     3.0404   3.2026   4.4844   5.7311

          k = 0.1639 0.3781 0.0000 ( 47597 PWs)   bands (ev):

   -67.5523 -67.5363 -34.4660 -34.3530 -34.2295 -34.0823 -33.9452 -33.8864
   -19.2415 -19.2360 -19.2351 -19.2302 -19.2225 -19.2156 -19.2135 -19.2056
   -19.1967 -19.1935 -19.1605 -19.1594 -19.1540 -19.1514 -11.2679  -6.2102
    -5.4666  -4.8015  -4.3835  -2.6463  -1.6842  -0.1878   1.2092   2.1694
     3.6379   4.2115   4.8799   6.3389

          k = 0.1639 0.4726 0.0000 ( 47632 PWs)   bands (ev):

   -67.5400 -67.5293 -34.5109 -34.4431 -34.2274 -34.1176 -34.0034 -33.9353
   -19.2438 -19.2371 -19.2339 -19.2275 -19.2246 -19.2160 -19.2135 -19.2049
   -19.1957 -19.1921 -19.1681 -19.1657 -19.1453 -19.1438 -11.0244  -6.4521
    -4.9283  -4.8664  -4.4037  -3.0259  -1.4537   0.0245   1.9795   2.3105
     3.8265   4.5343   5.4229   6.3567

          k = 0.1639 0.5672 0.0000 ( 47645 PWs)   bands (ev):

   -67.5351 -67.5272 -34.5380 -34.4722 -34.2096 -34.1445 -34.0196 -33.9535
   -19.2448 -19.2374 -19.2326 -19.2299 -19.2228 -19.2166 -19.2129 -19.2046
   -19.1958 -19.1914 -19.1710 -19.1679 -19.1420 -19.1411 -10.9413  -6.5624
    -4.8975  -4.7266  -4.3084  -3.2765  -1.3141   0.2282   2.2186   2.4621
     4.0580   4.4469   5.5832   6.1197

          k = 0.1638-0.4726 0.0000 ( 47628 PWs)   bands (ev):

   -67.5401 -67.5293 -34.5102 -34.4425 -34.2274 -34.1180 -34.0039 -33.9352
   -19.2437 -19.2371 -19.2336 -19.2277 -19.2248 -19.2160 -19.2137 -19.2048
   -19.1956 -19.1921 -19.1682 -19.1657 -19.1453 -19.1438 -11.0251  -6.4510
    -4.9313  -4.8633  -4.3987  -3.0309  -1.4525   0.0251   1.9836   2.3071
     3.8289   4.5246   5.4241   6.3573

          k = 0.1638-0.3781 0.0000 ( 47597 PWs)   bands (ev):

   -67.5524 -67.5364 -34.4655 -34.3517 -34.2293 -34.0825 -33.9461 -33.8865
   -19.2414 -19.2360 -19.2349 -19.2305 -19.2225 -19.2155 -19.2139 -19.2054
   -19.1965 -19.1935 -19.1605 -19.1593 -19.1540 -19.1514 -11.2689  -6.2091
    -5.4691  -4.7973  -4.3788  -2.6510  -1.6820  -0.1898   1.2148   2.1644
     3.6361   4.2045   4.8752   6.3426

          k = 0.1638-0.2835 0.0000 ( 47555 PWs)   bands (ev):

   -67.5681 -67.5470 -34.4708 -34.2258 -34.1478 -34.0558 -33.8620 -33.8165
   -19.2415 -19.2390 -19.2335 -19.2296 -19.2199 -19.2153 -19.2136 -19.2049
   -19.1997 -19.1948 -19.1660 -19.1623 -19.1496 -19.1493 -11.6362  -6.4260
    -5.6936  -4.6249  -4.2164  -2.5246  -1.6905   0.0527   0.4398   2.2141
     3.0348   3.2005   4.4776   5.7399

          k = 0.1638-0.1890 0.0000 ( 47513 PWs)   bands (ev):

   -67.5833 -67.5580 -34.5089 -34.1399 -34.0118 -33.9906 -33.7962 -33.7407
   -19.2470 -19.2393 -19.2310 -19.2260 -19.2207 -19.2151 -19.2121 -19.2037
   -19.2019 -19.1964 -19.1776 -19.1730 -19.1392 -19.1387 -12.0359  -7.0694
    -5.5895  -4.3089  -3.8494  -2.7980  -1.3693  -0.1386   0.7445   1.9390
     2.2385   2.7770   3.9380   5.3340

          k = 0.1638-0.0945 0.0000 ( 47473 PWs)   bands (ev):

   -67.5942 -67.5663 -34.5421 -34.1169 -33.9142 -33.8670 -33.7605 -33.6968
   -19.2506 -19.2402 -19.2286 -19.2230 -19.2227 -19.2174 -19.2088 -19.2027
   -19.2019 -19.1977 -19.1860 -19.1808 -19.1315 -19.1310 -12.3435  -7.5532
    -5.4828  -4.0343  -3.4679  -3.1047  -1.0096  -0.4022   1.1264   1.3161
     2.0960   2.8066   3.6350   4.9366

          k = 0.1638 0.0000 0.0000 ( 47417 PWs)   bands (ev):

   -67.5981 -67.5694 -34.5547 -34.1137 -33.8566 -33.8332 -33.7352 -33.6968
   -19.2517 -19.2407 -19.2268 -19.2249 -19.2215 -19.2186 -19.2070 -19.2027
   -19.2018 -19.1981 -19.1891 -19.1837 -19.1287 -19.1282 -12.4583  -7.7275
    -5.4270  -3.8035  -3.6623  -2.9943  -0.7523  -0.6239   0.8695   1.6612
     1.8004   3.0025   3.5797   4.8187

          k = 0.2458 0.1418 0.0000 ( 47563 PWs)   bands (ev):

   -67.5768 -67.5533 -34.4922 -34.1955 -34.0686 -34.0415 -33.8183 -33.7376
   -19.2469 -19.2374 -19.2337 -19.2240 -19.2228 -19.2139 -19.2129 -19.2050
   -19.2017 -19.1948 -19.1727 -19.1685 -19.1436 -19.1422 -11.8690  -6.9278
    -5.6048  -4.4758  -3.5742  -3.1348  -1.6534   0.3210   1.1721   1.8880
     2.5281   2.6773   3.7508   5.5187

          k = 0.2458 0.2363 0.0000 ( 47564 PWs)   bands (ev):

   -67.5655 -67.5452 -34.4710 -34.2842 -34.1627 -34.0648 -33.8657 -33.7887
   -19.2450 -19.2361 -19.2350 -19.2277 -19.2219 -19.2152 -19.2123 -19.2056
   -19.2000 -19.1935 -19.1642 -19.1607 -19.1512 -19.1495 -11.5852  -6.6371
    -5.5336  -4.6441  -4.0130  -2.8240  -1.8130   0.5275   0.8215   2.2034
     2.8458   3.4037   4.0787   5.9280

          k = 0.2458 0.3309 0.0000 ( 47593 PWs)   bands (ev):

   -67.5522 -67.5363 -34.4663 -34.3536 -34.2291 -34.0824 -33.9459 -33.8862
   -19.2416 -19.2358 -19.2346 -19.2306 -19.2226 -19.2153 -19.2139 -19.2059
   -19.1968 -19.1934 -19.1606 -19.1592 -19.1540 -19.1514 -11.2671  -6.2041
    -5.4714  -4.8028  -4.3863  -2.6558  -1.6846  -0.1764   1.2142   2.1738
     3.6379   4.2091   4.8826   6.3338

          k = 0.2458 0.4254 0.0000 ( 47577 PWs)   bands (ev):

   -67.5399 -67.5293 -34.4728 -34.3884 -34.2496 -34.1157 -34.0345 -33.9846
   -19.2411 -19.2349 -19.2310 -19.2301 -19.2249 -19.2165 -19.2150 -19.2048
   -19.1952 -19.1947 -19.1686 -19.1677 -19.1455 -19.1438 -11.0030  -5.7683
    -5.6047  -4.7460  -4.5331  -2.8584  -1.2601  -0.5968   1.9002   2.4536
     3.6697   4.5718   5.2453   6.6387

          k = 0.2458 0.5199 0.0000 ( 47586 PWs)   bands (ev):

   -67.5319 -67.5262 -34.4640 -34.3992 -34.2521 -34.1838 -34.0667 -34.0419
   -19.2421 -19.2323 -19.2309 -19.2286 -19.2232 -19.2187 -19.2163 -19.2029
   -19.1970 -19.1949 -19.1736 -19.1724 -19.1403 -19.1396 -10.8556  -5.9400
    -5.1446  -4.7279  -4.6207  -3.1526  -0.9459  -0.4718   2.5593   2.7676
     3.5030   4.1695   5.1624   6.3214

          k = 0.2459 0.6144 0.0000 ( 47595 PWs)   bands (ev):

   -67.5319 -67.5262 -34.4632 -34.3985 -34.2521 -34.1845 -34.0679 -34.0409
   -19.2420 -19.2321 -19.2309 -19.2287 -19.2235 -19.2188 -19.2162 -19.2029
   -19.1970 -19.1948 -19.1737 -19.1724 -19.1403 -19.1396 -10.8561  -5.9388
    -5.1446  -4.7279  -4.6186  -3.1542  -0.9455  -0.4717   2.5622   2.7634
     3.5069   4.1617   5.1629   6.3202

          k = 0.2457-0.4253 0.0000 ( 47585 PWs)   bands (ev):

   -67.5400 -67.5293 -34.4716 -34.3866 -34.2502 -34.1163 -34.0355 -33.9843
   -19.2408 -19.2347 -19.2310 -19.2305 -19.2250 -19.2167 -19.2150 -19.2046
   -19.1953 -19.1945 -19.1686 -19.1677 -19.1455 -19.1438 -11.0042  -5.7663
    -5.6050  -4.7439  -4.5290  -2.8611  -1.2574  -0.6000   1.9038   2.4473
     3.6725   4.5586   5.2451   6.6354

          k = 0.2457-0.3308 0.0000 ( 47595 PWs)   bands (ev):

   -67.5523 -67.5364 -34.4656 -34.3519 -34.2292 -34.0825 -33.9465 -33.8865
   -19.2413 -19.2359 -19.2347 -19.2306 -19.2226 -19.2154 -19.2141 -19.2056
   -19.1966 -19.1934 -19.1605 -19.1593 -19.1540 -19.1514 -11.2685  -6.2061
    -5.4716  -4.7979  -4.3805  -2.6560  -1.6821  -0.1836   1.2175   2.1667
     3.6362   4.2031   4.8768   6.3395

          k = 0.2457-0.2363 0.0000 ( 47568 PWs)   bands (ev):

   -67.5657 -67.5453 -34.4710 -34.2831 -34.1620 -34.0646 -33.8661 -33.7889
   -19.2451 -19.2358 -19.2353 -19.2276 -19.2218 -19.2153 -19.2126 -19.2052
   -19.1997 -19.1936 -19.1642 -19.1606 -19.1512 -19.1495 -11.5864  -6.6394
    -5.5375  -4.6379  -4.0061  -2.8197  -1.8131   0.5168   0.8233   2.1976
     2.8394   3.4043   4.0767   5.9346

          k = 0.2457-0.1417 0.0000 ( 47557 PWs)   bands (ev):

   -67.5769 -67.5533 -34.4924 -34.1951 -34.0676 -34.0417 -33.8184 -33.7376
   -19.2471 -19.2374 -19.2337 -19.2241 -19.2224 -19.2140 -19.2132 -19.2046
   -19.2015 -19.1950 -19.1727 -19.1685 -19.1436 -19.1423 -11.8697  -6.9295
    -5.6096  -4.4713  -3.5695  -3.1276  -1.6541   0.3167   1.1635   1.8904
     2.5164   2.6803   3.7536   5.5224

          k = 0.2457-0.0472 0.0000 ( 47529 PWs)   bands (ev):

   -67.5832 -67.5580 -34.5086 -34.1411 -34.0121 -33.9922 -33.7950 -33.7404
   -19.2469 -19.2392 -19.2311 -19.2261 -19.2208 -19.2147 -19.2120 -19.2040
   -19.2021 -19.1962 -19.1776 -19.1730 -19.1392 -19.1387 -12.0349  -7.0688
    -5.5850  -4.3144  -3.8547  -2.8019  -1.3652  -0.1432   0.7515   1.9377
     2.2358   2.7892   3.9480   5.3228

          k = 0.2458 0.0473 0.0000 ( 47511 PWs)   bands (ev):

   -67.5832 -67.5580 -34.5086 -34.1411 -34.0130 -33.9917 -33.7950 -33.7404
   -19.2468 -19.2393 -19.2311 -19.2261 -19.2209 -19.2146 -19.2119 -19.2042
   -19.2022 -19.1961 -19.1776 -19.1731 -19.1392 -19.1387 -12.0347  -7.0682
    -5.5827  -4.3159  -3.8569  -2.8055  -1.3650  -0.1411   0.7548   1.9360
     2.2365   2.7929   3.9473   5.3206

          k = 0.3277 0.1891 0.0000 ( 47543 PWs)   bands (ev):

   -67.5588 -67.5407 -34.4807 -34.3760 -34.2119 -34.0721 -33.8743 -33.7796
   -19.2476 -19.2381 -19.2326 -19.2260 -19.2258 -19.2141 -19.2119 -19.2059
   -19.1989 -19.1915 -19.1591 -19.1561 -19.1550 -19.1520 -11.4439  -6.8448
    -5.3635  -4.6981  -3.6366  -3.2527  -1.9167   1.1359   1.5051   2.0956
     2.6844   3.7780   3.9101   6.0436

          k = 0.3277 0.2836 0.0000 ( 47610 PWs)   bands (ev):

   -67.5496 -67.5348 -34.5064 -34.4357 -34.2343 -34.0838 -33.9232 -33.8309
   -19.2469 -19.2387 -19.2323 -19.2279 -19.2255 -19.2141 -19.2129 -19.2059
   -19.1966 -19.1907 -19.1611 -19.1578 -19.1521 -19.1498 -11.2396  -6.7845
    -5.1666  -4.7679  -4.0202  -3.0286  -1.8151   0.8494   1.5808   2.0329
     3.6563   3.9492   4.7813   6.2855

          k = 0.3277 0.3781 0.0000 ( 47634 PWs)   bands (ev):

   -67.5398 -67.5293 -34.5120 -34.4447 -34.2256 -34.1180 -34.0048 -33.9350
   -19.2443 -19.2363 -19.2333 -19.2274 -19.2251 -19.2158 -19.2141 -19.2054
   -19.1957 -19.1919 -19.1682 -19.1654 -19.1453 -19.1438 -11.0224  -6.4488
    -4.9348  -4.8685  -4.4061  -3.0379  -1.4543   0.0394   1.9901   2.3205
     3.8283   4.5298   5.4240   6.3670

          k = 0.3277 0.4727 0.0000 ( 47603 PWs)   bands (ev):

   -67.5317 -67.5263 -34.4652 -34.4006 -34.2513 -34.1822 -34.0682 -34.0412
   -19.2425 -19.2321 -19.2301 -19.2285 -19.2238 -19.2186 -19.2166 -19.2032
   -19.1972 -19.1947 -19.1737 -19.1722 -19.1403 -19.1396 -10.8543  -5.9395
    -5.1487  -4.7329  -4.6172  -3.1568  -0.9494  -0.4636   2.5681   2.7724
     3.5019   4.1694   5.1610   6.3233

          k = 0.3278 0.5672 0.0000 ( 47643 PWs)   bands (ev):

   -67.5271 -67.5269 -34.3855 -34.3447 -34.3439 -34.2328 -34.0832 -34.0807
   -19.2418 -19.2300 -19.2300 -19.2234 -19.2230 -19.2215 -19.2204 -19.1998
   -19.1982 -19.1979 -19.1754 -19.1754 -19.1383 -19.1383 -10.7908  -5.4411
    -5.4373  -4.9154  -4.5614  -3.1833  -0.6387  -0.6334   2.9579   2.9594
     3.4960   3.5035   4.8874   6.6774

          k = 0.3278 0.6617 0.0000 ( 47601 PWs)   bands (ev):

   -67.5318 -67.5263 -34.4640 -34.3990 -34.2519 -34.1837 -34.0685 -34.0407
   -19.2421 -19.2320 -19.2305 -19.2287 -19.2238 -19.2187 -19.2164 -19.2030
   -19.1972 -19.1946 -19.1737 -19.1723 -19.1403 -19.1396 -10.8554  -5.9388
    -5.1468  -4.7304  -4.6171  -3.1562  -0.9474  -0.4673   2.5671   2.7659
     3.5062   4.1619   5.1622   6.3207

          k = 0.3276-0.3780 0.0000 ( 47628 PWs)   bands (ev):

   -67.5399 -67.5293 -34.5109 -34.4430 -34.2266 -34.1181 -34.0047 -33.9352
   -19.2439 -19.2368 -19.2333 -19.2276 -19.2250 -19.2159 -19.2140 -19.2051
   -19.1957 -19.1919 -19.1681 -19.1655 -19.1453 -19.1437 -11.0240  -6.4496
    -4.9348  -4.8644  -4.4005  -3.0369  -1.4526   0.0332   1.9890   2.3126
     3.8300   4.5220   5.4247   6.3622

          k = 0.3276-0.2835 0.0000 ( 47618 PWs)   bands (ev):

   -67.5497 -67.5348 -34.5057 -34.4343 -34.2351 -34.0833 -33.9233 -33.8309
   -19.2468 -19.2388 -19.2325 -19.2280 -19.2255 -19.2140 -19.2131 -19.2055
   -19.1966 -19.1907 -19.1611 -19.1579 -19.1521 -19.1498 -11.2411  -6.7867
    -5.1694  -4.7617  -4.0121  -3.0252  -1.8147   0.8395   1.5793   2.0245
     3.6523   3.9486   4.7802   6.2878

          k = 0.3276-0.1890 0.0000 ( 47551 PWs)   bands (ev):

   -67.5590 -67.5407 -34.4804 -34.3751 -34.2122 -34.0715 -33.8742 -33.7795
   -19.2477 -19.2381 -19.2328 -19.2261 -19.2256 -19.2140 -19.2121 -19.2055
   -19.1988 -19.1916 -19.1591 -19.1561 -19.1549 -19.1521 -11.4450  -6.8477
    -5.3671  -4.6925  -3.6307  -3.2450  -1.9171   1.1274   1.4964   2.0857
     2.6859   3.7793   3.9122   6.0465

          k = 0.3276-0.0945 0.0000 ( 47570 PWs)   bands (ev):

   -67.5656 -67.5452 -34.4711 -34.2846 -34.1629 -34.0646 -33.8650 -33.7885
   -19.2452 -19.2359 -19.2353 -19.2278 -19.2217 -19.2152 -19.2122 -19.2054
   -19.2000 -19.1936 -19.1642 -19.1607 -19.1511 -19.1495 -11.5851  -6.6400
    -5.5342  -4.6435  -4.0143  -2.8137  -1.8139   0.5234   0.8094   2.2008
     2.8536   3.4091   4.0781   5.9294

          k = 0.3277 0.0001 0.0000 ( 47559 PWs)   bands (ev):

   -67.5679 -67.5469 -34.4708 -34.2290 -34.1486 -34.0561 -33.8604 -33.8159
   -19.2411 -19.2392 -19.2338 -19.2294 -19.2202 -19.2150 -19.2130 -19.2053
   -19.2002 -19.1946 -19.1661 -19.1624 -19.1495 -19.1493 -11.6341  -6.4249
    -5.6867  -4.6368  -4.2263  -2.5266  -1.6910   0.0703   0.4257   2.2218
     3.0473   3.2063   4.4923   5.7195

          k = 0.3277 0.0946 0.0000 ( 47568 PWs)   bands (ev):

   -67.5655 -67.5452 -34.4711 -34.2850 -34.1630 -34.0648 -33.8652 -33.7885
   -19.2450 -19.2360 -19.2351 -19.2278 -19.2218 -19.2152 -19.2122 -19.2056
   -19.2001 -19.1935 -19.1642 -19.1607 -19.1511 -19.1495 -11.5845  -6.6374
    -5.5318  -4.6472  -4.0172  -2.8212  -1.8135   0.5311   0.8136   2.2054
     2.8538   3.4066   4.0791   5.9251

          k = 0.4096 0.2364 0.0000 ( 47581 PWs)   bands (ev):

   -67.5450 -67.5321 -34.5621 -34.4977 -34.2376 -34.0860 -33.9144 -33.8108
   -19.2497 -19.2402 -19.2333 -19.2277 -19.2262 -19.2135 -19.2117 -19.2059
   -19.1953 -19.1887 -19.1628 -19.1582 -19.1488 -19.1469 -11.1720  -7.0568
    -5.1783  -4.7800  -3.4643  -3.3761  -1.8285   1.5322   1.8287   2.1537
     3.1356   4.3230   5.1300   6.1878

          k = 0.4096 0.3309 0.0000 ( 47635 PWs)   bands (ev):

   -67.5396 -67.5294 -34.5800 -34.5132 -34.2245 -34.1001 -33.9548 -33.8554
   -19.2488 -19.2396 -19.2340 -19.2285 -19.2248 -19.2147 -19.2114 -19.2059
   -19.1947 -19.1889 -19.1665 -19.1619 -19.1450 -19.1437 -11.0622  -6.9695
    -5.0853  -4.7719  -3.7842  -3.2517  -1.6579   1.2049   1.6867   2.2806
     3.9743   4.4370   5.7565   6.2749

          k = 0.4097 0.4254 0.0000 ( 47631 PWs)   bands (ev):

   -67.5347 -67.5273 -34.5400 -34.4747 -34.2060 -34.1456 -34.0210 -33.9532
   -19.2454 -19.2365 -19.2325 -19.2296 -19.2227 -19.2165 -19.2135 -19.2053
   -19.1958 -19.1913 -19.1709 -19.1675 -19.1419 -19.1411 -10.9382  -6.5618
    -4.8994  -4.7359  -4.3133  -3.2837  -1.3157   0.2413   2.2283   2.4794
     4.0530   4.4557   5.5793   6.1268

          k = 0.4097 0.5199 0.0000 ( 47591 PWs)   bands (ev):

   -67.5316 -67.5264 -34.4660 -34.4015 -34.2503 -34.1821 -34.0675 -34.0417
   -19.2425 -19.2323 -19.2300 -19.2284 -19.2235 -19.2185 -19.2167 -19.2033
   -19.1971 -19.1948 -19.1737 -19.1722 -19.1403 -19.1396 -10.8536  -5.9412
    -5.1486  -4.7335  -4.6193  -3.1548  -0.9504  -0.4639   2.5640   2.7785
     3.4969   4.1787   5.1616   6.3248

          k = 0.4097 0.6145 0.0000 ( 47591 PWs)   bands (ev):

   -67.5317 -67.5263 -34.4656 -34.4005 -34.2508 -34.1828 -34.0667 -34.0422
   -19.2423 -19.2324 -19.2304 -19.2284 -19.2232 -19.2186 -19.2166 -19.2031
   -19.1970 -19.1949 -19.1736 -19.1723 -19.1403 -19.1396 -10.8542  -5.9417
    -5.1466  -4.7310  -4.6212  -3.1526  -0.9488  -0.4676   2.5600   2.7761
     3.4973   4.1790   5.1624   6.3231

          k = 0.4097 0.7090 0.0000 ( 47629 PWs)   bands (ev):

   -67.5349 -67.5272 -34.5392 -34.4732 -34.2078 -34.1450 -34.0204 -33.9535
   -19.2450 -19.2370 -19.2326 -19.2297 -19.2227 -19.2166 -19.2133 -19.2050
   -19.1958 -19.1912 -19.1709 -19.1677 -19.1420 -19.1410 -10.9395  -6.5625
    -4.8983  -4.7320  -4.3115  -3.2797  -1.3147   0.2351   2.2234   2.4718
     4.0550   4.4521   5.5812   6.1230

          k = 0.4095-0.3308 0.0000 ( 47631 PWs)   bands (ev):

   -67.5399 -67.5293 -34.5792 -34.5117 -34.2263 -34.0990 -33.9546 -33.8553
   -19.2486 -19.2399 -19.2341 -19.2287 -19.2248 -19.2148 -19.2112 -19.2055
   -19.1947 -19.1888 -19.1665 -19.1621 -19.1450 -19.1437 -11.0639  -6.9710
    -5.0863  -4.7668  -3.7766  -3.2484  -1.6578   1.1959   1.6813   2.2722
     3.9721   4.4373   5.7532   6.2750

          k = 0.4095-0.2362 0.0000 ( 47583 PWs)   bands (ev):

   -67.5452 -67.5322 -34.5614 -34.4963 -34.2391 -34.0850 -33.9142 -33.8106
   -19.2496 -19.2404 -19.2336 -19.2279 -19.2261 -19.2136 -19.2114 -19.2055
   -19.1953 -19.1887 -19.1628 -19.1584 -19.1488 -19.1469 -11.1735  -7.0591
    -5.1805  -4.7745  -3.4587  -3.3679  -1.8294   1.5267   1.8123   2.1462
     3.1392   4.3215   5.1296   6.1909

          k = 0.4096-0.1417 0.0000 ( 47613 PWs)   bands (ev):

   -67.5496 -67.5348 -34.5065 -34.4352 -34.2351 -34.0833 -33.9226 -33.8307
   -19.2469 -19.2389 -19.2329 -19.2279 -19.2251 -19.2142 -19.2124 -19.2056
   -19.1967 -19.1908 -19.1610 -19.1579 -19.1521 -19.1498 -11.2400  -6.7881
    -5.1674  -4.7649  -4.0224  -3.0137  -1.8173   0.8378   1.5705   2.0300
     3.6619   3.9494   4.7835   6.2923

          k = 0.4096-0.0472 0.0000 ( 47595 PWs)   bands (ev):

   -67.5521 -67.5363 -34.4669 -34.3548 -34.2291 -34.0824 -33.9448 -33.8861
   -19.2415 -19.2361 -19.2350 -19.2301 -19.2224 -19.2155 -19.2134 -19.2059
   -19.1969 -19.1935 -19.1605 -19.1593 -19.1540 -19.1514 -11.2660  -6.2086
    -5.4664  -4.8074  -4.3904  -2.6462  -1.6876  -0.1791   1.2043   2.1794
     3.6398   4.2191   4.8873   6.3316

          k = 0.4096 0.0473 0.0000 ( 47596 PWs)   bands (ev):

   -67.5521 -67.5363 -34.4670 -34.3552 -34.2289 -34.0825 -33.9452 -33.8859
   -19.2417 -19.2359 -19.2347 -19.2303 -19.2225 -19.2154 -19.2136 -19.2060
   -19.1970 -19.1934 -19.1605 -19.1592 -19.1540 -19.1514 -11.2657  -6.2055
    -5.4689  -4.8079  -4.3915  -2.6507  -1.6879  -0.1739   1.2067   2.1814
     3.6397   4.2182   4.8884   6.3295

          k = 0.4096 0.1419 0.0000 ( 47611 PWs)   bands (ev):

   -67.5495 -67.5348 -34.5069 -34.4362 -34.2342 -34.0839 -33.9229 -33.8307
   -19.2470 -19.2387 -19.2325 -19.2279 -19.2252 -19.2141 -19.2127 -19.2059
   -19.1967 -19.1908 -19.1611 -19.1578 -19.1521 -19.1498 -11.2390  -6.7853
    -5.1655  -4.7697  -4.0256  -3.0228  -1.8167   0.8484   1.5758   2.0363
     3.6614   3.9495   4.7834   6.2882

          k =-0.4915-0.2837 0.0000 ( 47616 PWs)   bands (ev):

   -67.5396 -67.5294 -34.6093 -34.5406 -34.2264 -34.0944 -33.9289 -33.8222
   -19.2507 -19.2405 -19.2352 -19.2285 -19.2253 -19.2144 -19.2101 -19.2061
   -19.1938 -19.1876 -19.1656 -19.1603 -19.1448 -19.1437 -11.0821  -7.1551
    -5.1722  -4.8058  -3.4264  -3.2909  -1.7654   1.4261   2.0953   2.3332
     3.1928   4.7992   5.7718   6.3352

          k =-0.4915-0.1891 0.0000 ( 47639 PWs)   bands (ev):

   -67.5396 -67.5294 -34.5802 -34.5134 -34.2243 -34.1002 -33.9546 -33.8554
   -19.2488 -19.2396 -19.2342 -19.2284 -19.2248 -19.2147 -19.2114 -19.2059
   -19.1947 -19.1889 -19.1665 -19.1619 -19.1450 -19.1437 -11.0620  -6.9698
    -5.0855  -4.7721  -3.7880  -3.2473  -1.6587   1.2042   1.6869   2.2800
     3.9754   4.4359   5.7570   6.2767

          k =-0.4915-0.0946 0.0000 ( 47626 PWs)   bands (ev):

   -67.5397 -67.5293 -34.5128 -34.4456 -34.2250 -34.1181 -34.0044 -33.9349
   -19.2443 -19.2364 -19.2337 -19.2271 -19.2249 -19.2157 -19.2140 -19.2055
   -19.1958 -19.1920 -19.1681 -19.1654 -19.1453 -19.1438 -11.0214  -6.4503
    -4.9315  -4.8721  -4.4116  -3.0326  -1.4562   0.0384   1.9848   2.3257
     3.8249   4.5411   5.4238   6.3672

          k =-0.4915-0.0001 0.0000 ( 47591 PWs)   bands (ev):

   -67.5398 -67.5293 -34.4741 -34.3905 -34.2481 -34.1156 -34.0339 -33.9845
   -19.2414 -19.2351 -19.2305 -19.2300 -19.2248 -19.2162 -19.2151 -19.2050
   -19.1952 -19.1949 -19.1685 -19.1677 -19.1454 -19.1438 -11.0013  -5.7716
    -5.6041  -4.7481  -4.5382  -2.8550  -1.2644  -0.5929   1.8951   2.4628
     3.6658   4.5873   5.2474   6.6436

          k =-0.4915 0.0944 0.0000 ( 47634 PWs)   bands (ev):

   -67.5398 -67.5293 -34.5124 -34.4445 -34.2261 -34.1178 -34.0037 -33.9351
   -19.2440 -19.2368 -19.2339 -19.2271 -19.2247 -19.2159 -19.2137 -19.2052
   -19.1958 -19.1921 -19.1681 -19.1655 -19.1453 -19.1438 -11.0223  -6.4522
    -4.9285  -4.8712  -4.4108  -3.0266  -1.4557   0.0316   1.9796   2.3211
     3.8243   4.5431   5.4232   6.3618

          k =-0.4915 0.1890 0.0000 ( 47637 PWs)   bands (ev):

   -67.5398 -67.5294 -34.5795 -34.5120 -34.2261 -34.0990 -33.9543 -33.8552
   -19.2486 -19.2399 -19.2344 -19.2285 -19.2247 -19.2148 -19.2110 -19.2056
   -19.1947 -19.1889 -19.1665 -19.1621 -19.1450 -19.1437 -11.0634  -6.9716
    -5.0866  -4.7672  -3.7842  -3.2396  -1.6593   1.1946   1.6816   2.2710
     3.9743   4.4356   5.7540   6.2759

          k =-0.4916-0.8508 0.0000 ( 47636 PWs)   bands (ev):

   -67.5398 -67.5294 -34.6086 -34.5391 -34.2284 -34.0930 -33.9287 -33.8220
   -19.2505 -19.2408 -19.2354 -19.2286 -19.2253 -19.2144 -19.2098 -19.2057
   -19.1939 -19.1876 -19.1656 -19.1605 -19.1449 -19.1437 -11.0837  -7.1569
    -5.1736  -4.8005  -3.4185  -3.2853  -1.7667   1.4204   2.0794   2.3240
     3.1967   4.7982   5.7678   6.3379

     the Fermi energy is     0.8293 ev

!    total energy              =   -1375.70111920 Ry
     estimated scf accuracy    <          9.9E-13 Ry
     smearing contrib. (-TS)   =      -0.00000368 Ry
     internal energy E=F+TS    =   -1375.70111551 Ry

     The total energy is F=E-TS. E is the sum of the following terms:
     one-electron contribution =  -11616.53247990 Ry
     hartree contribution      =    5838.41285043 Ry
     xc contribution           =    -140.31299676 Ry
     ewald contribution        =    4542.73151073 Ry

     convergence has been achieved in  18 iterations

     negative rho (up, down):  9.932E-05 0.000E+00

     Forces acting on atoms (cartesian axes, Ry/au):

     atom    1 type  2   force =    -0.00045437    0.00025785   -0.00000150
     atom    2 type  1   force =     0.00003889    0.00027333   -0.00018691
     atom    3 type  1   force =     0.00009884   -0.00034904    0.00018771
     atom    4 type  3   force =     0.00026931   -0.00055414   -0.00005850
     atom    5 type  3   force =     0.00004733    0.00037200    0.00005920

     Total force =     0.001038     Total SCF correction =     0.000011


     Computing stress (Cartesian axis) and pressure


     negative rho (up, down):  9.932E-05 0.000E+00
          total   stress  (Ry/bohr**3)                   (kbar)     P=        0.11
   0.00000000   0.00000012   0.00000076            0.00        0.02        0.11
   0.00000012   0.00000278  -0.00000378            0.02        0.41       -0.56
   0.00000076  -0.00000378  -0.00000050            0.11       -0.56       -0.07


     Writing output data file /scratch/as3359/Ta2CH2-VCrelax/Ta.save/
 
     init_run     :     49.32s CPU     27.05s WALL (       1 calls)
     electrons    :   1922.97s CPU    978.25s WALL (       1 calls)
     forces       :     14.73s CPU      7.58s WALL (       1 calls)
     stress       :     69.49s CPU     35.61s WALL (       1 calls)

     Called by init_run:
     wfcinit      :     39.32s CPU     20.30s WALL (       1 calls)
     potinit      :      2.81s CPU      1.43s WALL (       1 calls)
     hinit0       :      5.41s CPU      4.09s WALL (       1 calls)

     Called by electrons:
     c_bands      :   1579.46s CPU    797.34s WALL (      18 calls)
     sum_band     :    307.51s CPU    158.94s WALL (      18 calls)
     v_of_rho     :      5.47s CPU      3.01s WALL (      19 calls)
     newd         :     29.76s CPU     18.63s WALL (      19 calls)
     mix_rho      :      2.21s CPU      1.22s WALL (      18 calls)

     Called by c_bands:
     init_us_2    :     36.65s CPU     18.35s WALL (    2886 calls)
     cegterg      :   1475.68s CPU    745.06s WALL (    1332 calls)

     Called by *egterg:
     cdiaghg      :     16.24s CPU      8.30s WALL (    7019 calls)
     h_psi        :   1204.04s CPU    608.97s WALL (    7093 calls)
     s_psi        :     59.37s CPU     29.73s WALL (    7093 calls)
     g_psi        :      5.60s CPU      2.81s WALL (    5687 calls)

     Called by h_psi:
     h_psi:calbec :     46.53s CPU     23.32s WALL (    7093 calls)
     vloc_psi     :   1084.60s CPU    548.95s WALL (    7093 calls)
     add_vuspsi   :     63.60s CPU     31.85s WALL (    7093 calls)

     General routines
     calbec       :     65.40s CPU     32.80s WALL (    8795 calls)
     fft          :      2.75s CPU      1.41s WALL (     234 calls)
     ffts         :      0.20s CPU      0.10s WALL (      18 calls)
     fftw         :   1128.63s CPU    571.64s WALL (  288028 calls)
 
     Parallel routines
 
     PWSCF        :  34m22.54s CPU  17m34.10s WALL

 
   This run was terminated on:  17:25:20   7Apr2022            

=------------------------------------------------------------------------------=
   JOB DONE.
=------------------------------------------------------------------------------=
