
     Program PWSCF v.6.8 starts on  7Apr2022 at 22: 2:12 

     This program is part of the open-source Quantum ESPRESSO suite
     for quantum simulation of materials; please cite
         "P. Giannozzi et al., J. Phys.:Condens. Matter 21 395502 (2009);
         "P. Giannozzi et al., J. Phys.:Condens. Matter 29 465901 (2017);
         "P. Giannozzi et al., J. Chem. Phys. 152 154105 (2020);
          URL http://www.quantum-espresso.org", 
     in publications or presentations arising from this work. More details at
     http://www.quantum-espresso.org/quote

     Parallel version (MPI & OpenMP), running on       4 processor cores
     Number of MPI processes:                 2
     Threads/MPI process:                     2

     MPI processes distributed on     1 nodes
     R & G space division:  proc/nbgrp/npool/nimage =       2
     121148 MiB available memory on the printing compute node when the environment starts
 
     Reading input from Ta2CH2.scf.260.in

     Current dimensions of program PWSCF are:
     Max number of different atomic species (ntypx) = 10
     Max number of k-points (npk) =  40000
     Max angular momentum in pseudopotentials (lmaxx) =  4
     file Ta.pbesol-spfn-rrkjus_psl.1.0.0.UPF: wavefunction(s)  5S 5P renormalized

     Subspace diagonalization in iterative solution of the eigenvalue problem:
     a serial algorithm will be used

 
     Parallelization info
     --------------------
     sticks:   dense  smooth     PW     G-vecs:    dense   smooth      PW
     Min        1137    1137    324               433953   433953   66310
     Max        1138    1138    325               433982   433982   66351
     Sum        2275    2275    649               867935   867935  132661
 
     Using Slab Decomposition
 


     bravais-lattice index     =            0
     lattice parameter (alat)  =       5.5500  a.u.
     unit-cell volume          =    1533.2393 (a.u.)^3
     number of atoms/cell      =            5
     number of atomic types    =            3
     number of electrons       =        60.00
     number of Kohn-Sham states=           36
     kinetic-energy cutoff     =     260.0000  Ry
     charge density cutoff     =    1040.0000  Ry
     scf convergence threshold =      1.0E-12
     mixing beta               =       0.7000
     number of iterations used =            8  plain     mixing
     Exchange-correlation= PBESOL
                           (   1   4  10   8   0   0   0)

     celldm(1)=   5.550000  celldm(2)=   0.000000  celldm(3)=   0.000000
     celldm(4)=   0.000000  celldm(5)=   0.000000  celldm(6)=   0.000000

     crystal axes: (cart. coord. in units of alat)
               a(1) = (   1.017295  -0.000177   0.000000 )  
               a(2) = (  -0.508801   0.881714   0.000000 )  
               a(3) = (   0.000000   0.000000  10.000000 )  

     reciprocal axes: (cart. coord. in units 2 pi/alat)
               b(1) = (  0.983098  0.567305  0.000000 )  
               b(2) = (  0.000198  1.134269  0.000000 )  
               b(3) = (  0.000000  0.000000  0.100000 )  


     PseudoPot. # 1 for Ta read from file:
     /shared/home/as3359/pseudo/Ta.pbesol-spfn-rrkjus_psl.1.0.0.UPF
     MD5 check sum: f099565ffaca9b150a52e9412a28e20b
     Pseudo is Ultrasoft + core correction, Zval = 27.0
     Generated using &quot;atomic&quot; code by A. Dal Corso  v.6.3
     Using radial grid of 1273 points,  8 beta functions with: 
                l(1) =   0
                l(2) =   0
                l(3) =   1
                l(4) =   1
                l(5) =   2
                l(6) =   2
                l(7) =   3
                l(8) =   3
     Q(r) pseudized with 0 coefficients 


     PseudoPot. # 2 for C  read from file:
     /shared/home/as3359/pseudo/C.pbesol-n-rrkjus_psl.1.0.0.UPF
     MD5 check sum: 05995be603a8a7c99da3dc4413f31573
     Pseudo is Ultrasoft + core correction, Zval =  4.0
     Generated using &quot;atomic&quot; code by A. Dal Corso  v.6.3MaX
     Using radial grid of 1073 points,  4 beta functions with: 
                l(1) =   0
                l(2) =   0
                l(3) =   1
                l(4) =   1
     Q(r) pseudized with 0 coefficients 


     PseudoPot. # 3 for H  read from file:
     /shared/home/as3359/pseudo/H.pbesol-rrkjus_psl.0.1.UPF
     MD5 check sum: 1dbb1a5c48b1283557b8117eb856a7ca
     Pseudo is Ultrasoft, Zval =  1.0
     Generated using "atomic" code by A. Dal Corso  v.5.0.2 svn rev. 9415
     Using radial grid of  929 points,  2 beta functions with: 
                l(1) =   0
                l(2) =   0
     Q(r) pseudized with 0 coefficients 


     atomic species   valence    mass     pseudopotential
        Ta            27.00   180.94788     Ta( 1.00)
        C              4.00    12.01070     C ( 1.00)
        H              1.00     1.00000     H ( 1.00)

     No symmetry found



   Cartesian axes

     site n.     atom                  positions (alat units)
         1           C   tau(   1) = (   0.0000000   0.0000000   0.0000000  )
         2           Ta  tau(   2) = (   0.5088008   0.2948413  -0.4364511  )
         3           Ta  tau(   3) = (  -0.0007447   0.5869407   0.4364532  )
         4           H   tau(   4) = (  -0.0017928  -0.0015314   0.8341930  )
         5           H   tau(   5) = (   0.0002769   0.0024412  -0.8341930  )

     number of k points=    74  Marzari-Vanderbilt smearing, width (Ry)=  0.0010
                       cart. coord. in units 2pi/alat
        k(    1) = (   0.0000000   0.0000000   0.0000000), wk =   0.0138889
        k(    2) = (   0.0000165   0.0945224   0.0000000), wk =   0.0277778
        k(    3) = (   0.0000329   0.1890448   0.0000000), wk =   0.0277778
        k(    4) = (   0.0000494   0.2835672   0.0000000), wk =   0.0277778
        k(    5) = (   0.0000659   0.3780896   0.0000000), wk =   0.0277778
        k(    6) = (   0.0000823   0.4726120   0.0000000), wk =   0.0277778
        k(    7) = (  -0.0000988  -0.5671343   0.0000000), wk =   0.0138889
        k(    8) = (   0.0819248   0.0472755   0.0000000), wk =   0.0277778
        k(    9) = (   0.0819413   0.1417978   0.0000000), wk =   0.0277778
        k(   10) = (   0.0819577   0.2363202   0.0000000), wk =   0.0277778
        k(   11) = (   0.0819742   0.3308426   0.0000000), wk =   0.0277778
        k(   12) = (   0.0819907   0.4253650   0.0000000), wk =   0.0277778
        k(   13) = (   0.0820071   0.5198874   0.0000000), wk =   0.0277778
        k(   14) = (   0.0818260  -0.5198589   0.0000000), wk =   0.0277778
        k(   15) = (   0.0818425  -0.4253365   0.0000000), wk =   0.0277778
        k(   16) = (   0.0818590  -0.3308141   0.0000000), wk =   0.0277778
        k(   17) = (   0.0818754  -0.2362917   0.0000000), wk =   0.0277778
        k(   18) = (   0.0818919  -0.1417693   0.0000000), wk =   0.0277778
        k(   19) = (   0.0819084  -0.0472469   0.0000000), wk =   0.0277778
        k(   20) = (   0.1638496   0.0945509   0.0000000), wk =   0.0277778
        k(   21) = (   0.1638661   0.1890733   0.0000000), wk =   0.0277778
        k(   22) = (   0.1638826   0.2835957   0.0000000), wk =   0.0277778
        k(   23) = (   0.1638990   0.3781181   0.0000000), wk =   0.0277778
        k(   24) = (   0.1639155   0.4726405   0.0000000), wk =   0.0277778
        k(   25) = (   0.1639319   0.5671629   0.0000000), wk =   0.0277778
        k(   26) = (   0.1637508  -0.4725834   0.0000000), wk =   0.0277778
        k(   27) = (   0.1637673  -0.3780610   0.0000000), wk =   0.0277778
        k(   28) = (   0.1637838  -0.2835386   0.0000000), wk =   0.0277778
        k(   29) = (   0.1638002  -0.1890163   0.0000000), wk =   0.0277778
        k(   30) = (   0.1638167  -0.0944939   0.0000000), wk =   0.0277778
        k(   31) = (   0.1638332   0.0000285   0.0000000), wk =   0.0277778
        k(   32) = (   0.2457744   0.1418264   0.0000000), wk =   0.0277778
        k(   33) = (   0.2457909   0.2363488   0.0000000), wk =   0.0277778
        k(   34) = (   0.2458074   0.3308711   0.0000000), wk =   0.0277778
        k(   35) = (   0.2458238   0.4253935   0.0000000), wk =   0.0277778
        k(   36) = (   0.2458403   0.5199159   0.0000000), wk =   0.0277778
        k(   37) = (   0.2458568   0.6144383   0.0000000), wk =   0.0277778
        k(   38) = (   0.2456757  -0.4253080   0.0000000), wk =   0.0277778
        k(   39) = (   0.2456921  -0.3307856   0.0000000), wk =   0.0277778
        k(   40) = (   0.2457086  -0.2362632   0.0000000), wk =   0.0277778
        k(   41) = (   0.2457251  -0.1417408   0.0000000), wk =   0.0277778
        k(   42) = (   0.2457415  -0.0472184   0.0000000), wk =   0.0277778
        k(   43) = (   0.2457580   0.0473040   0.0000000), wk =   0.0277778
        k(   44) = (   0.3276993   0.1891018   0.0000000), wk =   0.0277778
        k(   45) = (   0.3277157   0.2836242   0.0000000), wk =   0.0277778
        k(   46) = (   0.3277322   0.3781466   0.0000000), wk =   0.0277778
        k(   47) = (   0.3277486   0.4726690   0.0000000), wk =   0.0277778
        k(   48) = (   0.3277651   0.5671914   0.0000000), wk =   0.0277778
        k(   49) = (   0.3277816   0.6617138   0.0000000), wk =   0.0277778
        k(   50) = (   0.3276005  -0.3780325   0.0000000), wk =   0.0277778
        k(   51) = (   0.3276169  -0.2835101   0.0000000), wk =   0.0277778
        k(   52) = (   0.3276334  -0.1889877   0.0000000), wk =   0.0277778
        k(   53) = (   0.3276499  -0.0944653   0.0000000), wk =   0.0277778
        k(   54) = (   0.3276663   0.0000570   0.0000000), wk =   0.0277778
        k(   55) = (   0.3276828   0.0945794   0.0000000), wk =   0.0277778
        k(   56) = (   0.4096241   0.2363773   0.0000000), wk =   0.0277778
        k(   57) = (   0.4096405   0.3308997   0.0000000), wk =   0.0277778
        k(   58) = (   0.4096570   0.4254221   0.0000000), wk =   0.0277778
        k(   59) = (   0.4096735   0.5199445   0.0000000), wk =   0.0277778
        k(   60) = (   0.4096899   0.6144668   0.0000000), wk =   0.0277778
        k(   61) = (   0.4097064   0.7089892   0.0000000), wk =   0.0277778
        k(   62) = (   0.4095253  -0.3307571   0.0000000), wk =   0.0277778
        k(   63) = (   0.4095418  -0.2362347   0.0000000), wk =   0.0277778
        k(   64) = (   0.4095582  -0.1417123   0.0000000), wk =   0.0277778
        k(   65) = (   0.4095747  -0.0471899   0.0000000), wk =   0.0277778
        k(   66) = (   0.4095911   0.0473325   0.0000000), wk =   0.0277778
        k(   67) = (   0.4096076   0.1418549   0.0000000), wk =   0.0277778
        k(   68) = (  -0.4915489  -0.2836527   0.0000000), wk =   0.0138889
        k(   69) = (  -0.4915324  -0.1891303   0.0000000), wk =   0.0277778
        k(   70) = (  -0.4915160  -0.0946080   0.0000000), wk =   0.0277778
        k(   71) = (  -0.4914995  -0.0000856   0.0000000), wk =   0.0277778
        k(   72) = (  -0.4914830   0.0944368   0.0000000), wk =   0.0277778
        k(   73) = (  -0.4914666   0.1889592   0.0000000), wk =   0.0277778
        k(   74) = (  -0.4916477  -0.8507871   0.0000000), wk =   0.0138889

     Dense  grid:   867935 G-vectors     FFT dimensions: (  60,  60, 576)

     Estimated max dynamical RAM per process >       6.30 GB

     Estimated total dynamical RAM >      12.60 GB

     Initial potential from superposition of free atoms

     starting charge   59.99840, renormalised to   60.00000

     negative rho (up, down):  2.179E-04 0.000E+00
     Starting wfcs are   40 randomized atomic wfcs

     total cpu time spent up to now is       66.5 secs

     Self-consistent Calculation

     iteration #  1     ecut=   260.00 Ry     beta= 0.70
     Davidson diagonalization with overlap
     ethr =  1.00E-02,  avg # of iterations =  2.0

     negative rho (up, down):  1.569E-05 0.000E+00

     total cpu time spent up to now is      199.1 secs

     total energy              =   -1375.12274925 Ry
     estimated scf accuracy    <       1.04833721 Ry

     iteration #  2     ecut=   260.00 Ry     beta= 0.70
     Davidson diagonalization with overlap
     ethr =  1.75E-03,  avg # of iterations =  7.3

     negative rho (up, down):  4.532E-06 0.000E+00

     total cpu time spent up to now is      376.1 secs

     total energy              =   -1374.71763446 Ry
     estimated scf accuracy    <       5.41067807 Ry

     iteration #  3     ecut=   260.00 Ry     beta= 0.70
     Davidson diagonalization with overlap
     ethr =  1.75E-03,  avg # of iterations =  4.7

     negative rho (up, down):  2.476E-06 0.000E+00

     total cpu time spent up to now is      537.1 secs

     total energy              =   -1375.66844781 Ry
     estimated scf accuracy    <       0.22909956 Ry

     iteration #  4     ecut=   260.00 Ry     beta= 0.70
     Davidson diagonalization with overlap
     ethr =  3.82E-04,  avg # of iterations =  2.4

     negative rho (up, down):  4.274E-06 0.000E+00

     total cpu time spent up to now is      671.0 secs

     total energy              =   -1375.69728287 Ry
     estimated scf accuracy    <       0.02355079 Ry

     iteration #  5     ecut=   260.00 Ry     beta= 0.70
     Davidson diagonalization with overlap
     c_bands:  1 eigenvalues not converged
     ethr =  3.93E-05,  avg # of iterations = 12.5

     negative rho (up, down):  5.311E-06 0.000E+00

     total cpu time spent up to now is      871.2 secs

     total energy              =   -1375.68853678 Ry
     estimated scf accuracy    <       0.18458308 Ry

     iteration #  6     ecut=   260.00 Ry     beta= 0.70
     Davidson diagonalization with overlap
     ethr =  3.93E-05,  avg # of iterations = 11.4

     negative rho (up, down):  9.432E-06 0.000E+00

     total cpu time spent up to now is     1045.8 secs

     total energy              =   -1375.70039004 Ry
     estimated scf accuracy    <       0.01255460 Ry

     iteration #  7     ecut=   260.00 Ry     beta= 0.70
     Davidson diagonalization with overlap
     ethr =  2.09E-05,  avg # of iterations =  3.2

     negative rho (up, down):  1.330E-05 0.000E+00

     total cpu time spent up to now is     1180.3 secs

     total energy              =   -1375.70143490 Ry
     estimated scf accuracy    <       0.00024762 Ry

     iteration #  8     ecut=   260.00 Ry     beta= 0.70
     Davidson diagonalization with overlap
     ethr =  4.13E-07,  avg # of iterations = 10.2

     negative rho (up, down):  1.716E-05 0.000E+00

     total cpu time spent up to now is     1369.6 secs

     total energy              =   -1375.70150252 Ry
     estimated scf accuracy    <       0.00001774 Ry

     iteration #  9     ecut=   260.00 Ry     beta= 0.70
     Davidson diagonalization with overlap
     ethr =  2.96E-08,  avg # of iterations =  2.6

     negative rho (up, down):  1.747E-05 0.000E+00

     total cpu time spent up to now is     1508.8 secs

     total energy              =   -1375.70150523 Ry
     estimated scf accuracy    <       0.00000565 Ry

     iteration # 10     ecut=   260.00 Ry     beta= 0.70
     Davidson diagonalization with overlap
     ethr =  9.42E-09,  avg # of iterations =  2.0

     negative rho (up, down):  1.757E-05 0.000E+00

     total cpu time spent up to now is     1642.7 secs

     total energy              =   -1375.70150573 Ry
     estimated scf accuracy    <       0.00000071 Ry

     iteration # 11     ecut=   260.00 Ry     beta= 0.70
     Davidson diagonalization with overlap
     ethr =  1.19E-09,  avg # of iterations =  2.8

     negative rho (up, down):  1.757E-05 0.000E+00

     total cpu time spent up to now is     1798.8 secs

     total energy              =   -1375.70150586 Ry
     estimated scf accuracy    <       0.00000009 Ry

     iteration # 12     ecut=   260.00 Ry     beta= 0.70
     Davidson diagonalization with overlap
     ethr =  1.45E-10,  avg # of iterations =  2.6

     negative rho (up, down):  1.759E-05 0.000E+00

     total cpu time spent up to now is     1946.7 secs

     total energy              =   -1375.70150587 Ry
     estimated scf accuracy    <       0.00000003 Ry

     iteration # 13     ecut=   260.00 Ry     beta= 0.70
     Davidson diagonalization with overlap
     ethr =  4.59E-11,  avg # of iterations =  2.0

     negative rho (up, down):  1.760E-05 0.000E+00

     total cpu time spent up to now is     2079.4 secs

     total energy              =   -1375.70150587 Ry
     estimated scf accuracy    <          3.6E-09 Ry

     iteration # 14     ecut=   260.00 Ry     beta= 0.70
     Davidson diagonalization with overlap
     ethr =  5.93E-12,  avg # of iterations =  3.2

     negative rho (up, down):  1.760E-05 0.000E+00

     total cpu time spent up to now is     2219.7 secs

     total energy              =   -1375.70150587 Ry
     estimated scf accuracy    <          3.3E-10 Ry

     iteration # 15     ecut=   260.00 Ry     beta= 0.70
     Davidson diagonalization with overlap
     ethr =  5.57E-13,  avg # of iterations =  2.1

     negative rho (up, down):  1.760E-05 0.000E+00

     total cpu time spent up to now is     2368.3 secs

     total energy              =   -1375.70150587 Ry
     estimated scf accuracy    <          1.5E-10 Ry

     iteration # 16     ecut=   260.00 Ry     beta= 0.70
     Davidson diagonalization with overlap
     ethr =  2.43E-13,  avg # of iterations =  2.0

     negative rho (up, down):  1.760E-05 0.000E+00

     total cpu time spent up to now is     2495.1 secs

     total energy              =   -1375.70150587 Ry
     estimated scf accuracy    <          9.9E-11 Ry

     iteration # 17     ecut=   260.00 Ry     beta= 0.70
     Davidson diagonalization with overlap
     ethr =  1.65E-13,  avg # of iterations =  1.2

     negative rho (up, down):  1.760E-05 0.000E+00

     total cpu time spent up to now is     2614.7 secs

     total energy              =   -1375.70150587 Ry
     estimated scf accuracy    <          5.5E-12 Ry

     iteration # 18     ecut=   260.00 Ry     beta= 0.70
     Davidson diagonalization with overlap
     ethr =  1.00E-13,  avg # of iterations =  1.4

     negative rho (up, down):  1.760E-05 0.000E+00

     total cpu time spent up to now is     2734.2 secs

     total energy              =   -1375.70150587 Ry
     estimated scf accuracy    <          1.4E-12 Ry

     iteration # 19     ecut=   260.00 Ry     beta= 0.70
     Davidson diagonalization with overlap
     ethr =  1.00E-13,  avg # of iterations =  1.0

     negative rho (up, down):  1.760E-05 0.000E+00

     total cpu time spent up to now is     2851.1 secs

     End of self-consistent calculation

          k = 0.0000 0.0000 0.0000 (108787 PWs)   bands (ev):

   -67.6111 -67.5796 -34.5973 -34.1139 -33.6992 -33.6978 -33.6591 -33.6589
   -19.2562 -19.2422 -19.2230 -19.2226 -19.2223 -19.2222 -19.2012 -19.2012
   -19.2000 -19.1993 -19.1988 -19.1926 -19.1187 -19.1179 -12.8530  -8.3508
    -5.2549  -3.4727  -3.2163  -3.2015  -1.2331   0.3195   0.3395   2.4916
     2.5034   2.9054   2.9382   3.4872

          k = 0.0000 0.0945 0.0000 (108697 PWs)   bands (ev):

   -67.6066 -67.5760 -34.5825 -34.1128 -33.7581 -33.7163 -33.7159 -33.6684
   -19.2545 -19.2415 -19.2241 -19.2227 -19.2224 -19.2210 -19.2034 -19.2014
   -19.2001 -19.1992 -19.1953 -19.1894 -19.1221 -19.1214 -12.7136  -8.1321
    -5.3199  -3.5509  -3.3887  -3.1604  -1.0615  -0.0553   0.5498   1.8790
     2.1877   2.9302   3.3021   4.1842

          k = 0.0000 0.1890 0.0000 (108697 PWs)   bands (ev):

   -67.5942 -67.5663 -34.5423 -34.1166 -33.9138 -33.8668 -33.7607 -33.6966
   -19.2504 -19.2399 -19.2281 -19.2228 -19.2221 -19.2172 -19.2085 -19.2020
   -19.2015 -19.1976 -19.1857 -19.1804 -19.1312 -19.1307 -12.3437  -7.5534
    -5.4871  -4.0333  -3.4650  -3.0960  -1.0090  -0.4085   1.1335   1.3099
     2.0981   2.7903   3.6420   4.9565

          k = 0.0000 0.2836 0.0000 (108659 PWs)   bands (ev):

   -67.5770 -67.5533 -34.4926 -34.1943 -34.0669 -34.0417 -33.8184 -33.7373
   -19.2471 -19.2370 -19.2332 -19.2239 -19.2218 -19.2136 -19.2130 -19.2040
   -19.2010 -19.1948 -19.1723 -19.1681 -19.1432 -19.1420 -11.8703  -6.9305
    -5.6163  -4.4653  -3.5644  -3.1178  -1.6551   0.3115   1.1535   1.8932
     2.5018   2.6844   3.7585   5.5391

          k = 0.0001 0.3781 0.0000 (108559 PWs)   bands (ev):

   -67.5592 -67.5407 -34.4800 -34.3744 -34.2122 -34.0711 -33.8740 -33.7792
   -19.2476 -19.2377 -19.2326 -19.2258 -19.2251 -19.2134 -19.2119 -19.2048
   -19.1984 -19.1914 -19.1587 -19.1557 -19.1546 -19.1519 -11.4461  -6.8500
    -5.3719  -4.6849  -3.6245  -3.2344  -1.9183   1.1165   1.4877   2.0737
     2.6881   3.7810   3.9157   6.0528

          k = 0.0001 0.4726 0.0000 (108487 PWs)   bands (ev):

   -67.5454 -67.5322 -34.5603 -34.4953 -34.2406 -34.0839 -33.9138 -33.8101
   -19.2494 -19.2401 -19.2334 -19.2276 -19.2256 -19.2132 -19.2107 -19.2047
   -19.1950 -19.1885 -19.1625 -19.1582 -19.1485 -19.1466 -11.1752  -7.0604
    -5.1831  -4.7670  -3.4532  -3.3572  -1.8315   1.5218   1.7914   2.1382
     3.1449   4.3195   5.1292   6.1966

          k =-0.0001-0.5671 0.0000 (108376 PWs)   bands (ev):

   -67.5401 -67.5293 -34.6074 -34.5379 -34.2305 -34.0914 -33.9282 -33.8215
   -19.2502 -19.2405 -19.2352 -19.2284 -19.2250 -19.2140 -19.2090 -19.2049
   -19.1936 -19.1874 -19.1653 -19.1603 -19.1445 -19.1433 -11.0856  -7.1575
    -5.1753  -4.7932  -3.4073  -3.2808  -1.7693   1.4153   2.0587   2.3149
     3.2030   4.7972   5.7628   6.3428

          k = 0.0819 0.0473 0.0000 (108710 PWs)   bands (ev):

   -67.6066 -67.5760 -34.5824 -34.1128 -33.7593 -33.7160 -33.7153 -33.6685
   -19.2545 -19.2415 -19.2242 -19.2227 -19.2225 -19.2208 -19.2032 -19.2015
   -19.2007 -19.1986 -19.1954 -19.1894 -19.1221 -19.1214 -12.7134  -8.1319
    -5.3179  -3.5470  -3.3853  -3.1737  -1.0628  -0.0390   0.5334   1.8789
     2.1866   2.9623   3.2865   4.1707

          k = 0.0819 0.1418 0.0000 (108675 PWs)   bands (ev):

   -67.5981 -67.5694 -34.5548 -34.1135 -33.8557 -33.8331 -33.7358 -33.6967
   -19.2514 -19.2404 -19.2263 -19.2245 -19.2211 -19.2184 -19.2066 -19.2021
   -19.2014 -19.1979 -19.1887 -19.1833 -19.1283 -19.1279 -12.4584  -7.7275
    -5.4296  -3.8036  -3.6600  -2.9879  -0.7503  -0.6294   0.8724   1.6534
     1.8060   2.9996   3.5723   4.8330

          k = 0.0820 0.2363 0.0000 (108637 PWs)   bands (ev):

   -67.5833 -67.5580 -34.5089 -34.1402 -34.0116 -33.9916 -33.7955 -33.7404
   -19.2468 -19.2389 -19.2306 -19.2257 -19.2203 -19.2145 -19.2117 -19.2034
   -19.2016 -19.1960 -19.1773 -19.1726 -19.1389 -19.1384 -12.0355  -7.0692
    -5.5908  -4.3091  -3.8491  -2.7948  -1.3676  -0.1431   0.7436   1.9405
     2.2365   2.7780   3.9445   5.3424

          k = 0.0820 0.3308 0.0000 (108639 PWs)   bands (ev):

   -67.5657 -67.5453 -34.4711 -34.2834 -34.1623 -34.0644 -33.8652 -33.7884
   -19.2451 -19.2353 -19.2350 -19.2274 -19.2213 -19.2149 -19.2119 -19.2048
   -19.1995 -19.1933 -19.1638 -19.1603 -19.1508 -19.1493 -11.5863  -6.6416
    -5.5396  -4.6353  -4.0062  -2.8074  -1.8142   0.5101   0.8129   2.1934
     2.8457   3.4096   4.0769   5.9440

          k = 0.0820 0.4254 0.0000 (108560 PWs)   bands (ev):

   -67.5499 -67.5348 -34.5053 -34.4342 -34.2359 -34.0826 -33.9225 -33.8305
   -19.2466 -19.2385 -19.2326 -19.2276 -19.2247 -19.2138 -19.2120 -19.2049
   -19.1963 -19.1905 -19.1608 -19.1577 -19.1518 -19.1494 -11.2417  -6.7895
    -5.1709  -4.7567  -4.0129  -3.0091  -1.8172   0.8261   1.5704   2.0190
     3.6580   3.9490   4.7819   6.2967

          k = 0.0820 0.5199 0.0000 (108438 PWs)   bands (ev):

   -67.5401 -67.5293 -34.5782 -34.5108 -34.2280 -34.0977 -33.9540 -33.8549
   -19.2482 -19.2397 -19.2341 -19.2284 -19.2244 -19.2144 -19.2103 -19.2048
   -19.1944 -19.1886 -19.1662 -19.1619 -19.1447 -19.1434 -11.0653  -6.9720
    -5.0878  -4.7601  -3.7747  -3.2365  -1.6599   1.1843   1.6765   2.2609
     3.9728   4.4364   5.7497   6.2773

          k = 0.0818-0.5199 0.0000 (108424 PWs)   bands (ev):

   -67.5401 -67.5293 -34.5781 -34.5107 -34.2280 -34.0978 -33.9541 -33.8550
   -19.2482 -19.2397 -19.2340 -19.2284 -19.2244 -19.2144 -19.2104 -19.2047
   -19.1943 -19.1886 -19.1662 -19.1619 -19.1447 -19.1433 -11.0655  -6.9717
    -5.0877  -4.7600  -3.7709  -3.2409  -1.6592   1.1848   1.6765   2.2614
     3.9717   4.4370   5.7495   6.2766

          k = 0.0818-0.4253 0.0000 (108564 PWs)   bands (ev):

   -67.5499 -67.5348 -34.5050 -34.4338 -34.2358 -34.0827 -33.9228 -33.8306
   -19.2466 -19.2385 -19.2324 -19.2277 -19.2249 -19.2136 -19.2124 -19.2048
   -19.1962 -19.1905 -19.1608 -19.1577 -19.1518 -19.1494 -11.2422  -6.7889
    -5.1718  -4.7553  -4.0079  -3.0148  -1.8161   0.8268   1.5743   2.0169
     3.6536   3.9485   4.7807   6.2949

          k = 0.0819-0.3308 0.0000 (108641 PWs)   bands (ev):

   -67.5658 -67.5453 -34.4710 -34.2827 -34.1618 -34.0645 -33.8657 -33.7886
   -19.2451 -19.2353 -19.2350 -19.2274 -19.2213 -19.2149 -19.2122 -19.2046
   -19.1993 -19.1934 -19.1638 -19.1603 -19.1508 -19.1493 -11.5868  -6.6413
    -5.5411  -4.6329  -4.0023  -2.8106  -1.8140   0.5071   0.8190   2.1922
     2.8394   3.4077   4.0760   5.9464

          k = 0.0819-0.2363 0.0000 (108631 PWs)   bands (ev):

   -67.5833 -67.5580 -34.5089 -34.1397 -34.0115 -33.9907 -33.7961 -33.7406
   -19.2469 -19.2389 -19.2306 -19.2257 -19.2202 -19.2148 -19.2118 -19.2032
   -19.2015 -19.1962 -19.1773 -19.1726 -19.1389 -19.1384 -12.0360  -7.0696
    -5.5927  -4.3067  -3.8466  -2.7934  -1.3695  -0.1413   0.7407   1.9411
     2.2381   2.7723   3.9401   5.3474

          k = 0.0819-0.1418 0.0000 (108689 PWs)   bands (ev):

   -67.5982 -67.5694 -34.5549 -34.1134 -33.8548 -33.8328 -33.7364 -33.6969
   -19.2515 -19.2404 -19.2263 -19.2244 -19.2210 -19.2186 -19.2067 -19.2019
   -19.2012 -19.1983 -19.1887 -19.1832 -19.1283 -19.1279 -12.4587  -7.7279
    -5.4315  -3.8040  -3.6581  -2.9830  -0.7490  -0.6341   0.8749   1.6479
     1.8102   2.9964   3.5661   4.8418

          k = 0.0819-0.0472 0.0000 (108706 PWs)   bands (ev):

   -67.6066 -67.5760 -34.5824 -34.1128 -33.7587 -33.7160 -33.7156 -33.6686
   -19.2545 -19.2415 -19.2242 -19.2226 -19.2225 -19.2209 -19.2033 -19.2014
   -19.2004 -19.1989 -19.1954 -19.1894 -19.1221 -19.1214 -12.7135  -8.1320
    -5.3187  -3.5487  -3.3869  -3.1678  -1.0623  -0.0463   0.5409   1.8789
     2.1873   2.9484   3.2927   4.1769

          k = 0.1638 0.0946 0.0000 (108703 PWs)   bands (ev):

   -67.5941 -67.5663 -34.5420 -34.1169 -33.9149 -33.8672 -33.7602 -33.6967
   -19.2501 -19.2399 -19.2282 -19.2227 -19.2226 -19.2168 -19.2083 -19.2027
   -19.2017 -19.1971 -19.1857 -19.1805 -19.1312 -19.1306 -12.3429  -7.5524
    -5.4795  -4.0346  -3.4703  -3.1109  -1.0094  -0.3971   1.1207   1.3214
     2.0946   2.8198   3.6311   4.9469

          k = 0.1639 0.1891 0.0000 (108643 PWs)   bands (ev):

   -67.5832 -67.5580 -34.5087 -34.1404 -34.0128 -33.9909 -33.7956 -33.7405
   -19.2465 -19.2390 -19.2307 -19.2257 -19.2205 -19.2143 -19.2116 -19.2037
   -19.2018 -19.1958 -19.1773 -19.1727 -19.1389 -19.1384 -12.0350  -7.0682
    -5.5851  -4.3124  -3.8540  -2.8029  -1.3671  -0.1380   0.7509   1.9369
     2.2379   2.7865   3.9421   5.3373

          k = 0.1639 0.2836 0.0000 (108604 PWs)   bands (ev):

   -67.5680 -67.5469 -34.4708 -34.2272 -34.1483 -34.0559 -33.8611 -33.8162
   -19.2410 -19.2388 -19.2332 -19.2292 -19.2198 -19.2147 -19.2129 -19.2048
   -19.1997 -19.1943 -19.1657 -19.1620 -19.1492 -19.1489 -11.6350  -6.4252
    -5.6904  -4.6299  -4.2209  -2.5249  -1.6905   0.0607   0.4340   2.2175
     3.0406   3.2028   4.4848   5.7338

          k = 0.1639 0.3781 0.0000 (108577 PWs)   bands (ev):

   -67.5523 -67.5363 -34.4660 -34.3529 -34.2295 -34.0822 -33.9452 -33.8863
   -19.2411 -19.2356 -19.2347 -19.2298 -19.2221 -19.2153 -19.2131 -19.2052
   -19.1964 -19.1932 -19.1602 -19.1590 -19.1536 -19.1510 -11.2677  -6.2100
    -5.4664  -4.8013  -4.3833  -2.6461  -1.6840  -0.1876   1.2094   2.1696
     3.6381   4.2117   4.8801   6.3401

          k = 0.1639 0.4726 0.0000 (108461 PWs)   bands (ev):

   -67.5400 -67.5293 -34.5109 -34.4431 -34.2274 -34.1176 -34.0034 -33.9352
   -19.2435 -19.2367 -19.2335 -19.2271 -19.2242 -19.2157 -19.2131 -19.2045
   -19.1953 -19.1918 -19.1678 -19.1653 -19.1450 -19.1434 -11.0242  -6.4519
    -4.9281  -4.8662  -4.4035  -3.0257  -1.4535   0.0247   1.9797   2.3107
     3.8267   4.5345   5.4231   6.3570

          k = 0.1639 0.5672 0.0000 (108421 PWs)   bands (ev):

   -67.5351 -67.5272 -34.5379 -34.4721 -34.2096 -34.1445 -34.0196 -33.9535
   -19.2445 -19.2370 -19.2322 -19.2295 -19.2224 -19.2162 -19.2125 -19.2043
   -19.1954 -19.1910 -19.1706 -19.1675 -19.1416 -19.1407 -10.9411  -6.5622
    -4.8973  -4.7264  -4.3082  -3.2763  -1.3139   0.2284   2.2188   2.4623
     4.0582   4.4471   5.5834   6.1200

          k = 0.1638-0.4726 0.0000 (108451 PWs)   bands (ev):

   -67.5401 -67.5293 -34.5102 -34.4425 -34.2274 -34.1180 -34.0039 -33.9352
   -19.2434 -19.2367 -19.2332 -19.2273 -19.2244 -19.2156 -19.2134 -19.2044
   -19.1953 -19.1917 -19.1678 -19.1653 -19.1450 -19.1434 -11.0249  -6.4508
    -4.9311  -4.8631  -4.3985  -3.0307  -1.4524   0.0253   1.9838   2.3073
     3.8291   4.5248   5.4243   6.3576

          k = 0.1638-0.3781 0.0000 (108573 PWs)   bands (ev):

   -67.5524 -67.5363 -34.4654 -34.3517 -34.2293 -34.0824 -33.9461 -33.8865
   -19.2410 -19.2356 -19.2345 -19.2301 -19.2222 -19.2152 -19.2136 -19.2051
   -19.1962 -19.1932 -19.1602 -19.1590 -19.1536 -19.1510 -11.2687  -6.2089
    -5.4689  -4.7971  -4.3786  -2.6508  -1.6818  -0.1896   1.2150   2.1646
     3.6363   4.2047   4.8754   6.3437

          k = 0.1638-0.2835 0.0000 (108602 PWs)   bands (ev):

   -67.5681 -67.5469 -34.4708 -34.2257 -34.1477 -34.0557 -33.8620 -33.8165
   -19.2412 -19.2386 -19.2331 -19.2292 -19.2196 -19.2149 -19.2133 -19.2046
   -19.1994 -19.1944 -19.1657 -19.1620 -19.1492 -19.1490 -11.6360  -6.4259
    -5.6934  -4.6247  -4.2162  -2.5244  -1.6903   0.0529   0.4400   2.2143
     3.0350   3.2007   4.4780   5.7427

          k = 0.1638-0.1890 0.0000 (108653 PWs)   bands (ev):

   -67.5833 -67.5580 -34.5088 -34.1399 -34.0118 -33.9906 -33.7962 -33.7407
   -19.2467 -19.2389 -19.2307 -19.2256 -19.2203 -19.2147 -19.2118 -19.2033
   -19.2015 -19.1961 -19.1773 -19.1726 -19.1389 -19.1384 -12.0357  -7.0692
    -5.5893  -4.3087  -3.8492  -2.7978  -1.3691  -0.1384   0.7447   1.9392
     2.2388   2.7772   3.9384   5.3447

          k = 0.1638-0.0945 0.0000 (108699 PWs)   bands (ev):

   -67.5942 -67.5663 -34.5421 -34.1168 -33.9142 -33.8670 -33.7605 -33.6967
   -19.2502 -19.2399 -19.2282 -19.2227 -19.2223 -19.2170 -19.2084 -19.2023
   -19.2016 -19.1974 -19.1857 -19.1805 -19.1312 -19.1306 -12.3433  -7.5530
    -5.4826  -4.0341  -3.4677  -3.1045  -1.0094  -0.4020   1.1266   1.3163
     2.0962   2.8069   3.6352   4.9512

          k = 0.1638 0.0000 0.0000 (108679 PWs)   bands (ev):

   -67.5981 -67.5694 -34.5546 -34.1137 -33.8566 -33.8332 -33.7352 -33.6968
   -19.2513 -19.2404 -19.2264 -19.2246 -19.2212 -19.2182 -19.2066 -19.2023
   -19.2015 -19.1977 -19.1888 -19.1833 -19.1283 -19.1279 -12.4581  -7.7273
    -5.4268  -3.8033  -3.6621  -2.9941  -0.7521  -0.6237   0.8697   1.6614
     1.8007   3.0028   3.5801   4.8215

          k = 0.2458 0.1418 0.0000 (108655 PWs)   bands (ev):

   -67.5768 -67.5532 -34.4922 -34.1955 -34.0685 -34.0415 -33.8183 -33.7376
   -19.2465 -19.2370 -19.2334 -19.2236 -19.2224 -19.2135 -19.2126 -19.2046
   -19.2013 -19.1945 -19.1724 -19.1682 -19.1432 -19.1419 -11.8688  -6.9276
    -5.6046  -4.4756  -3.5740  -3.1346  -1.6532   0.3212   1.1723   1.8882
     2.5283   2.6775   3.7510   5.5304

          k = 0.2458 0.2363 0.0000 (108631 PWs)   bands (ev):

   -67.5655 -67.5452 -34.4710 -34.2842 -34.1626 -34.0648 -33.8657 -33.7887
   -19.2446 -19.2357 -19.2347 -19.2273 -19.2216 -19.2148 -19.2120 -19.2052
   -19.1996 -19.1931 -19.1638 -19.1603 -19.1508 -19.1491 -11.5850  -6.6369
    -5.5334  -4.6439  -4.0128  -2.8238  -1.8128   0.5277   0.8217   2.2036
     2.8460   3.4039   4.0789   5.9343

          k = 0.2458 0.3309 0.0000 (108571 PWs)   bands (ev):

   -67.5522 -67.5363 -34.4663 -34.3536 -34.2291 -34.0824 -33.9459 -33.8862
   -19.2412 -19.2354 -19.2342 -19.2302 -19.2222 -19.2150 -19.2135 -19.2055
   -19.1964 -19.1930 -19.1602 -19.1588 -19.1536 -19.1510 -11.2669  -6.2039
    -5.4712  -4.8026  -4.3861  -2.6556  -1.6844  -0.1762   1.2144   2.1740
     3.6381   4.2093   4.8828   6.3349

          k = 0.2458 0.4254 0.0000 (108432 PWs)   bands (ev):

   -67.5399 -67.5293 -34.4727 -34.3883 -34.2496 -34.1157 -34.0344 -33.9845
   -19.2408 -19.2345 -19.2306 -19.2297 -19.2246 -19.2161 -19.2146 -19.2045
   -19.1949 -19.1944 -19.1682 -19.1673 -19.1451 -19.1435 -11.0028  -5.7680
    -5.6045  -4.7458  -4.5329  -2.8582  -1.2599  -0.5966   1.9004   2.4538
     3.6699   4.5720   5.2455   6.6393

          k = 0.2458 0.5199 0.0000 (108408 PWs)   bands (ev):

   -67.5319 -67.5262 -34.4639 -34.3991 -34.2521 -34.1837 -34.0666 -34.0418
   -19.2417 -19.2320 -19.2305 -19.2282 -19.2229 -19.2184 -19.2160 -19.2026
   -19.1966 -19.1945 -19.1733 -19.1721 -19.1400 -19.1392 -10.8554  -5.9398
    -5.1444  -4.7277  -4.6205  -3.1524  -0.9457  -0.4716   2.5595   2.7677
     3.5032   4.1697   5.1626   6.3215

          k = 0.2459 0.6144 0.0000 (108402 PWs)   bands (ev):

   -67.5319 -67.5262 -34.4632 -34.3985 -34.2521 -34.1845 -34.0678 -34.0409
   -19.2416 -19.2318 -19.2305 -19.2284 -19.2231 -19.2184 -19.2159 -19.2025
   -19.1967 -19.1944 -19.1733 -19.1721 -19.1400 -19.1392 -10.8559  -5.9385
    -5.1444  -4.7277  -4.6184  -3.1540  -0.9453  -0.4715   2.5624   2.7636
     3.5070   4.1619   5.1631   6.3205

          k = 0.2457-0.4253 0.0000 (108430 PWs)   bands (ev):

   -67.5400 -67.5293 -34.4716 -34.3866 -34.2502 -34.1162 -34.0354 -33.9843
   -19.2404 -19.2343 -19.2307 -19.2301 -19.2247 -19.2163 -19.2146 -19.2043
   -19.1949 -19.1942 -19.1683 -19.1674 -19.1451 -19.1434 -11.0040  -5.7661
    -5.6048  -4.7437  -4.5288  -2.8609  -1.2572  -0.5998   1.9040   2.4475
     3.6727   4.5588   5.2453   6.6359

          k = 0.2457-0.3308 0.0000 (108572 PWs)   bands (ev):

   -67.5523 -67.5363 -34.4656 -34.3519 -34.2292 -34.0824 -33.9465 -33.8865
   -19.2409 -19.2355 -19.2343 -19.2303 -19.2223 -19.2151 -19.2138 -19.2052
   -19.1962 -19.1931 -19.1602 -19.1589 -19.1536 -19.1510 -11.2682  -6.2059
    -5.4714  -4.7977  -4.3803  -2.6558  -1.6819  -0.1834   1.2177   2.1669
     3.6364   4.2033   4.8770   6.3406

          k = 0.2457-0.2363 0.0000 (108629 PWs)   bands (ev):

   -67.5657 -67.5452 -34.4709 -34.2831 -34.1620 -34.0646 -33.8661 -33.7888
   -19.2448 -19.2355 -19.2349 -19.2273 -19.2215 -19.2150 -19.2123 -19.2049
   -19.1994 -19.1932 -19.1638 -19.1603 -19.1508 -19.1492 -11.5862  -6.6392
    -5.5373  -4.6377  -4.0059  -2.8195  -1.8129   0.5170   0.8235   2.1978
     2.8396   3.4045   4.0769   5.9411

          k = 0.2457-0.1417 0.0000 (108660 PWs)   bands (ev):

   -67.5768 -67.5533 -34.4923 -34.1950 -34.0675 -34.0417 -33.8184 -33.7375
   -19.2468 -19.2370 -19.2334 -19.2238 -19.2221 -19.2136 -19.2128 -19.2043
   -19.2011 -19.1946 -19.1724 -19.1681 -19.1432 -19.1419 -11.8695  -6.9293
    -5.6094  -4.4711  -3.5694  -3.1274  -1.6539   0.3169   1.1637   1.8906
     2.5167   2.6805   3.7538   5.5343

          k = 0.2457-0.0472 0.0000 (108637 PWs)   bands (ev):

   -67.5832 -67.5580 -34.5086 -34.1411 -34.0121 -33.9921 -33.7949 -33.7404
   -19.2465 -19.2389 -19.2308 -19.2257 -19.2204 -19.2143 -19.2117 -19.2037
   -19.2017 -19.1959 -19.1773 -19.1727 -19.1389 -19.1384 -12.0347  -7.0686
    -5.5848  -4.3142  -3.8545  -2.8017  -1.3650  -0.1430   0.7517   1.9379
     2.2360   2.7895   3.9484   5.3329

          k = 0.2458 0.0473 0.0000 (108642 PWs)   bands (ev):

   -67.5832 -67.5580 -34.5085 -34.1411 -34.0130 -33.9916 -33.7950 -33.7404
   -19.2464 -19.2389 -19.2308 -19.2257 -19.2205 -19.2142 -19.2116 -19.2038
   -19.2018 -19.1958 -19.1773 -19.1727 -19.1389 -19.1384 -12.0345  -7.0680
    -5.5825  -4.3157  -3.8567  -2.8053  -1.3648  -0.1409   0.7550   1.9363
     2.2367   2.7931   3.9477   5.3305

          k = 0.3277 0.1891 0.0000 (108559 PWs)   bands (ev):

   -67.5588 -67.5407 -34.4806 -34.3760 -34.2119 -34.0720 -33.8743 -33.7796
   -19.2472 -19.2377 -19.2322 -19.2257 -19.2254 -19.2138 -19.2116 -19.2055
   -19.1985 -19.1912 -19.1587 -19.1557 -19.1546 -19.1517 -11.4436  -6.8446
    -5.3633  -4.6979  -3.6364  -3.2525  -1.9165   1.1361   1.5053   2.0958
     2.6846   3.7782   3.9103   6.0450

          k = 0.3277 0.2836 0.0000 (108576 PWs)   bands (ev):

   -67.5495 -67.5347 -34.5064 -34.4356 -34.2343 -34.0838 -33.9232 -33.8309
   -19.2466 -19.2383 -19.2319 -19.2276 -19.2251 -19.2137 -19.2125 -19.2056
   -19.1963 -19.1904 -19.1607 -19.1574 -19.1518 -19.1494 -11.2394  -6.7843
    -5.1664  -4.7677  -4.0200  -3.0284  -1.8149   0.8496   1.5809   2.0331
     3.6565   3.9494   4.7815   6.2858

          k = 0.3277 0.3781 0.0000 (108457 PWs)   bands (ev):

   -67.5398 -67.5293 -34.5120 -34.4447 -34.2255 -34.1180 -34.0048 -33.9350
   -19.2439 -19.2360 -19.2330 -19.2270 -19.2247 -19.2154 -19.2137 -19.2051
   -19.1954 -19.1916 -19.1678 -19.1651 -19.1450 -19.1434 -11.0222  -6.4486
    -4.9346  -4.8683  -4.4059  -3.0377  -1.4541   0.0396   1.9903   2.3207
     3.8285   4.5300   5.4242   6.3673

          k = 0.3277 0.4727 0.0000 (108385 PWs)   bands (ev):

   -67.5317 -67.5263 -34.4651 -34.4005 -34.2513 -34.1822 -34.0682 -34.0412
   -19.2421 -19.2317 -19.2297 -19.2282 -19.2234 -19.2182 -19.2162 -19.2028
   -19.1968 -19.1943 -19.1734 -19.1719 -19.1400 -19.1392 -10.8541  -5.9393
    -5.1485  -4.7327  -4.6170  -3.1566  -0.9492  -0.4635   2.5683   2.7726
     3.5021   4.1696   5.1612   6.3235

          k = 0.3278 0.5672 0.0000 (108380 PWs)   bands (ev):

   -67.5271 -67.5268 -34.3854 -34.3447 -34.3439 -34.2328 -34.0832 -34.0806
   -19.2414 -19.2297 -19.2296 -19.2231 -19.2227 -19.2212 -19.2201 -19.1995
   -19.1978 -19.1975 -19.1751 -19.1750 -19.1380 -19.1379 -10.7906  -5.4409
    -5.4371  -4.9152  -4.5613  -3.1831  -0.6385  -0.6332   2.9580   2.9596
     3.4962   3.5037   4.8876   6.6772

          k = 0.3278 0.6617 0.0000 (108392 PWs)   bands (ev):

   -67.5318 -67.5263 -34.4640 -34.3989 -34.2519 -34.1836 -34.0685 -34.0407
   -19.2418 -19.2316 -19.2301 -19.2284 -19.2234 -19.2184 -19.2160 -19.2027
   -19.1968 -19.1943 -19.1733 -19.1720 -19.1400 -19.1392 -10.8552  -5.9386
    -5.1466  -4.7302  -4.6169  -3.1560  -0.9472  -0.4671   2.5673   2.7661
     3.5063   4.1621   5.1624   6.3209

          k = 0.3276-0.3780 0.0000 (108449 PWs)   bands (ev):

   -67.5399 -67.5293 -34.5109 -34.4430 -34.2266 -34.1181 -34.0047 -33.9352
   -19.2435 -19.2364 -19.2330 -19.2273 -19.2247 -19.2156 -19.2136 -19.2047
   -19.1953 -19.1916 -19.1678 -19.1652 -19.1450 -19.1434 -11.0237  -6.4494
    -4.9346  -4.8642  -4.4003  -3.0367  -1.4524   0.0334   1.9892   2.3127
     3.8302   4.5222   5.4249   6.3625

          k = 0.3276-0.2835 0.0000 (108562 PWs)   bands (ev):

   -67.5497 -67.5348 -34.5056 -34.4343 -34.2351 -34.0833 -33.9233 -33.8309
   -19.2465 -19.2385 -19.2321 -19.2276 -19.2251 -19.2136 -19.2127 -19.2052
   -19.1962 -19.1904 -19.1607 -19.1576 -19.1518 -19.1494 -11.2409  -6.7865
    -5.1692  -4.7615  -4.0119  -3.0250  -1.8145   0.8397   1.5795   2.0247
     3.6525   3.9488   4.7804   6.2881

          k = 0.3276-0.1890 0.0000 (108544 PWs)   bands (ev):

   -67.5590 -67.5407 -34.4803 -34.3751 -34.2121 -34.0715 -33.8742 -33.7795
   -19.2473 -19.2378 -19.2324 -19.2257 -19.2253 -19.2137 -19.2118 -19.2052
   -19.1985 -19.1912 -19.1587 -19.1557 -19.1546 -19.1518 -11.4448  -6.8475
    -5.3669  -4.6923  -3.6305  -3.2448  -1.9169   1.1276   1.4966   2.0859
     2.6861   3.7795   3.9124   6.0479

          k = 0.3276-0.0945 0.0000 (108639 PWs)   bands (ev):

   -67.5656 -67.5452 -34.4711 -34.2846 -34.1629 -34.0646 -33.8650 -33.7885
   -19.2448 -19.2355 -19.2349 -19.2274 -19.2213 -19.2149 -19.2118 -19.2051
   -19.1996 -19.1932 -19.1638 -19.1603 -19.1508 -19.1492 -11.5849  -6.6398
    -5.5340  -4.6433  -4.0141  -2.8135  -1.8137   0.5236   0.8096   2.2010
     2.8538   3.4093   4.0783   5.9358

          k = 0.3277 0.0001 0.0000 (108620 PWs)   bands (ev):

   -67.5679 -67.5469 -34.4708 -34.2290 -34.1486 -34.0560 -33.8604 -33.8159
   -19.2408 -19.2388 -19.2334 -19.2291 -19.2198 -19.2147 -19.2127 -19.2050
   -19.1999 -19.1942 -19.1657 -19.1621 -19.1492 -19.1489 -11.6338  -6.4247
    -5.6865  -4.6366  -4.2261  -2.5264  -1.6908   0.0705   0.4259   2.2220
     3.0475   3.2065   4.4927   5.7222

          k = 0.3277 0.0946 0.0000 (108633 PWs)   bands (ev):

   -67.5655 -67.5452 -34.4711 -34.2850 -34.1630 -34.0648 -33.8652 -33.7885
   -19.2447 -19.2357 -19.2347 -19.2274 -19.2215 -19.2148 -19.2118 -19.2053
   -19.1997 -19.1931 -19.1638 -19.1604 -19.1508 -19.1491 -11.5843  -6.6372
    -5.5316  -4.6470  -4.0170  -2.8210  -1.8133   0.5313   0.8138   2.2056
     2.8540   3.4068   4.0794   5.9313

          k = 0.4096 0.2364 0.0000 (108471 PWs)   bands (ev):

   -67.5450 -67.5321 -34.5621 -34.4976 -34.2376 -34.0860 -33.9144 -33.8107
   -19.2494 -19.2398 -19.2329 -19.2274 -19.2258 -19.2131 -19.2114 -19.2056
   -19.1950 -19.1884 -19.1625 -19.1579 -19.1484 -19.1466 -11.1718  -7.0566
    -5.1781  -4.7798  -3.4641  -3.3759  -1.8283   1.5323   1.8289   2.1539
     3.1358   4.3232   5.1302   6.1882

          k = 0.4096 0.3309 0.0000 (108411 PWs)   bands (ev):

   -67.5396 -67.5293 -34.5800 -34.5132 -34.2244 -34.1001 -33.9547 -33.8554
   -19.2484 -19.2392 -19.2337 -19.2282 -19.2245 -19.2143 -19.2111 -19.2056
   -19.1943 -19.1885 -19.1662 -19.1615 -19.1446 -19.1434 -11.0620  -6.9693
    -5.0852  -4.7717  -3.7840  -3.2515  -1.6577   1.2051   1.6869   2.2808
     3.9744   4.4372   5.7567   6.2748

          k = 0.4097 0.4254 0.0000 (108441 PWs)   bands (ev):

   -67.5347 -67.5272 -34.5400 -34.4746 -34.2060 -34.1456 -34.0210 -33.9532
   -19.2451 -19.2361 -19.2322 -19.2292 -19.2223 -19.2161 -19.2132 -19.2049
   -19.1955 -19.1909 -19.1706 -19.1672 -19.1416 -19.1407 -10.9380  -6.5616
    -4.8992  -4.7357  -4.3131  -3.2835  -1.3155   0.2415   2.2285   2.4796
     4.0532   4.4559   5.5795   6.1270

          k = 0.4097 0.5199 0.0000 (108405 PWs)   bands (ev):

   -67.5316 -67.5263 -34.4659 -34.4015 -34.2503 -34.1820 -34.0675 -34.0417
   -19.2422 -19.2320 -19.2297 -19.2280 -19.2231 -19.2181 -19.2164 -19.2029
   -19.1967 -19.1945 -19.1733 -19.1719 -19.1400 -19.1392 -10.8534  -5.9410
    -5.1484  -4.7333  -4.6191  -3.1546  -0.9502  -0.4637   2.5642   2.7786
     3.4971   4.1789   5.1618   6.3250

          k = 0.4097 0.6145 0.0000 (108418 PWs)   bands (ev):

   -67.5317 -67.5263 -34.4655 -34.4005 -34.2508 -34.1828 -34.0666 -34.0421
   -19.2420 -19.2321 -19.2301 -19.2280 -19.2228 -19.2182 -19.2162 -19.2028
   -19.1967 -19.1945 -19.1733 -19.1720 -19.1400 -19.1392 -10.8539  -5.9415
    -5.1464  -4.7308  -4.6210  -3.1524  -0.9486  -0.4674   2.5602   2.7763
     3.4975   4.1792   5.1626   6.3233

          k = 0.4097 0.7090 0.0000 (108431 PWs)   bands (ev):

   -67.5349 -67.5272 -34.5392 -34.4732 -34.2078 -34.1450 -34.0204 -33.9534
   -19.2447 -19.2366 -19.2322 -19.2293 -19.2224 -19.2162 -19.2129 -19.2046
   -19.1955 -19.1909 -19.1706 -19.1674 -19.1416 -19.1407 -10.9393  -6.5623
    -4.8981  -4.7318  -4.3113  -3.2795  -1.3146   0.2353   2.2236   2.4720
     4.0552   4.4523   5.5814   6.1232

          k = 0.4095-0.3308 0.0000 (108407 PWs)   bands (ev):

   -67.5399 -67.5293 -34.5791 -34.5116 -34.2263 -34.0990 -33.9546 -33.8553
   -19.2482 -19.2396 -19.2338 -19.2284 -19.2244 -19.2144 -19.2108 -19.2052
   -19.1943 -19.1885 -19.1661 -19.1617 -19.1447 -19.1433 -11.0636  -6.9708
    -5.0861  -4.7666  -3.7764  -3.2482  -1.6576   1.1961   1.6815   2.2724
     3.9723   4.4375   5.7534   6.2749

          k = 0.4095-0.2362 0.0000 (108489 PWs)   bands (ev):

   -67.5452 -67.5322 -34.5614 -34.4962 -34.2391 -34.0850 -33.9142 -33.8106
   -19.2493 -19.2400 -19.2332 -19.2275 -19.2257 -19.2132 -19.2111 -19.2052
   -19.1950 -19.1884 -19.1624 -19.1580 -19.1484 -19.1466 -11.1733  -7.0589
    -5.1803  -4.7743  -3.4585  -3.3677  -1.8292   1.5269   1.8125   2.1464
     3.1393   4.3217   5.1297   6.1913

          k = 0.4096-0.1417 0.0000 (108568 PWs)   bands (ev):

   -67.5496 -67.5348 -34.5065 -34.4352 -34.2351 -34.0833 -33.9225 -33.8306
   -19.2465 -19.2385 -19.2326 -19.2275 -19.2247 -19.2139 -19.2121 -19.2053
   -19.1964 -19.1905 -19.1607 -19.1576 -19.1518 -19.1495 -11.2398  -6.7879
    -5.1672  -4.7647  -4.0222  -3.0135  -1.8171   0.8380   1.5707   2.0302
     3.6621   3.9496   4.7837   6.2927

          k = 0.4096-0.0472 0.0000 (108594 PWs)   bands (ev):

   -67.5521 -67.5363 -34.4668 -34.3547 -34.2291 -34.0824 -33.9448 -33.8860
   -19.2412 -19.2357 -19.2346 -19.2298 -19.2221 -19.2152 -19.2130 -19.2055
   -19.1966 -19.1931 -19.1601 -19.1589 -19.1536 -19.1511 -11.2658  -6.2084
    -5.4662  -4.8072  -4.3902  -2.6460  -1.6874  -0.1789   1.2045   2.1796
     3.6400   4.2194   4.8875   6.3328

          k = 0.4096 0.0473 0.0000 (108582 PWs)   bands (ev):

   -67.5521 -67.5363 -34.4669 -34.3552 -34.2288 -34.0825 -33.9451 -33.8859
   -19.2413 -19.2355 -19.2343 -19.2300 -19.2221 -19.2150 -19.2132 -19.2056
   -19.1966 -19.1931 -19.1602 -19.1588 -19.1536 -19.1511 -11.2655  -6.2053
    -5.4687  -4.8077  -4.3913  -2.6506  -1.6877  -0.1738   1.2069   2.1816
     3.6399   4.2184   4.8887   6.3307

          k = 0.4096 0.1419 0.0000 (108574 PWs)   bands (ev):

   -67.5495 -67.5347 -34.5068 -34.4362 -34.2341 -34.0839 -33.9228 -33.8307
   -19.2466 -19.2383 -19.2322 -19.2275 -19.2249 -19.2137 -19.2124 -19.2056
   -19.1964 -19.1904 -19.1607 -19.1574 -19.1518 -19.1495 -11.2388  -6.7851
    -5.1653  -4.7695  -4.0254  -3.0226  -1.8165   0.8486   1.5760   2.0364
     3.6616   3.9497   4.7836   6.2886

          k =-0.4915-0.2837 0.0000 (108392 PWs)   bands (ev):

   -67.5396 -67.5293 -34.6093 -34.5405 -34.2264 -34.0943 -33.9289 -33.8222
   -19.2504 -19.2402 -19.2348 -19.2281 -19.2249 -19.2140 -19.2097 -19.2057
   -19.1935 -19.1873 -19.1652 -19.1599 -19.1445 -19.1433 -11.0819  -7.1549
    -5.1720  -4.8056  -3.4262  -3.2907  -1.7652   1.4262   2.0955   2.3334
     3.1930   4.7994   5.7720   6.3354

          k =-0.4915-0.1891 0.0000 (108417 PWs)   bands (ev):

   -67.5396 -67.5293 -34.5802 -34.5134 -34.2243 -34.1001 -33.9546 -33.8553
   -19.2484 -19.2392 -19.2338 -19.2280 -19.2244 -19.2143 -19.2110 -19.2056
   -19.1943 -19.1885 -19.1661 -19.1615 -19.1446 -19.1434 -11.0617  -6.9696
    -5.0853  -4.7719  -3.7878  -3.2471  -1.6585   1.2043   1.6871   2.2801
     3.9756   4.4361   5.7572   6.2763

          k =-0.4915-0.0946 0.0000 (108453 PWs)   bands (ev):

   -67.5397 -67.5293 -34.5128 -34.4455 -34.2249 -34.1181 -34.0043 -33.9348
   -19.2440 -19.2360 -19.2333 -19.2267 -19.2245 -19.2154 -19.2137 -19.2051
   -19.1955 -19.1917 -19.1678 -19.1650 -19.1449 -19.1434 -11.0212  -6.4501
    -4.9313  -4.8719  -4.4113  -3.0324  -1.4560   0.0386   1.9850   2.3258
     3.8251   4.5413   5.4240   6.3675

          k =-0.4915-0.0001 0.0000 (108430 PWs)   bands (ev):

   -67.5397 -67.5293 -34.4741 -34.3904 -34.2480 -34.1156 -34.0339 -33.9845
   -19.2410 -19.2347 -19.2302 -19.2296 -19.2245 -19.2159 -19.2148 -19.2047
   -19.1948 -19.1946 -19.1682 -19.1673 -19.1451 -19.1435 -11.0011  -5.7714
    -5.6039  -4.7479  -4.5380  -2.8548  -1.2642  -0.5927   1.8953   2.4630
     3.6659   4.5875   5.2476   6.6441

          k =-0.4915 0.0944 0.0000 (108451 PWs)   bands (ev):

   -67.5398 -67.5293 -34.5124 -34.4445 -34.2260 -34.1178 -34.0037 -33.9351
   -19.2437 -19.2364 -19.2336 -19.2268 -19.2243 -19.2156 -19.2133 -19.2049
   -19.1955 -19.1917 -19.1677 -19.1652 -19.1450 -19.1434 -11.0221  -6.4520
    -4.9283  -4.8710  -4.4106  -3.0264  -1.4555   0.0318   1.9798   2.3213
     3.8245   4.5433   5.4234   6.3622

          k =-0.4915 0.1890 0.0000 (108430 PWs)   bands (ev):

   -67.5398 -67.5293 -34.5795 -34.5120 -34.2261 -34.0990 -33.9543 -33.8552
   -19.2482 -19.2396 -19.2341 -19.2282 -19.2244 -19.2144 -19.2107 -19.2052
   -19.1944 -19.1885 -19.1661 -19.1617 -19.1447 -19.1433 -11.0632  -6.9714
    -5.0864  -4.7670  -3.7840  -3.2394  -1.6591   1.1948   1.6817   2.2712
     3.9745   4.4358   5.7542   6.2761

          k =-0.4916-0.8508 0.0000 (108372 PWs)   bands (ev):

   -67.5398 -67.5293 -34.6085 -34.5390 -34.2284 -34.0929 -33.9287 -33.8220
   -19.2502 -19.2404 -19.2350 -19.2283 -19.2249 -19.2141 -19.2094 -19.2053
   -19.1935 -19.1873 -19.1652 -19.1601 -19.1445 -19.1433 -11.0835  -7.1567
    -5.1734  -4.8003  -3.4183  -3.2851  -1.7665   1.4206   2.0796   2.3242
     3.1969   4.7984   5.7680   6.3382

     the Fermi energy is     0.8295 ev

!    total energy              =   -1375.70150587 Ry
     estimated scf accuracy    <          3.0E-13 Ry
     smearing contrib. (-TS)   =      -0.00000369 Ry
     internal energy E=F+TS    =   -1375.70150218 Ry

     The total energy is F=E-TS. E is the sum of the following terms:
     one-electron contribution =  -11616.53421167 Ry
     hartree contribution      =    5838.41419652 Ry
     xc contribution           =    -140.31299775 Ry
     ewald contribution        =    4542.73151073 Ry

     convergence has been achieved in  19 iterations

     negative rho (up, down):  1.760E-05 0.000E+00

     Forces acting on atoms (cartesian axes, Ry/au):

     atom    1 type  2   force =    -0.00045445    0.00025787   -0.00000134
     atom    2 type  1   force =     0.00003905    0.00027358   -0.00018681
     atom    3 type  1   force =     0.00009876   -0.00034928    0.00018726
     atom    4 type  3   force =     0.00026921   -0.00055439   -0.00005974
     atom    5 type  3   force =     0.00004742    0.00037222    0.00006063

     Total force =     0.001039     Total SCF correction =     0.000005


     Computing stress (Cartesian axis) and pressure


     negative rho (up, down):  1.760E-05 0.000E+00
          total   stress  (Ry/bohr**3)                   (kbar)     P=        0.20
   0.00000062   0.00000012   0.00000076            0.09        0.02        0.11
   0.00000012   0.00000340  -0.00000378            0.02        0.50       -0.56
   0.00000076  -0.00000378   0.00000012            0.11       -0.56        0.02


     Writing output data file /scratch/as3359/Ta2CH2-VCrelax/Ta.save/
 
     init_run     :    122.49s CPU     66.26s WALL (       1 calls)
     electrons    :   5471.56s CPU   2784.71s WALL (       1 calls)
     forces       :     34.47s CPU     17.74s WALL (       1 calls)
     stress       :    177.47s CPU     90.76s WALL (       1 calls)

     Called by init_run:
     wfcinit      :    100.27s CPU     51.27s WALL (       1 calls)
     potinit      :      6.57s CPU      3.32s WALL (       1 calls)
     hinit0       :     11.38s CPU      8.80s WALL (       1 calls)

     Called by electrons:
     c_bands      :   4418.41s CPU   2234.47s WALL (      19 calls)
     sum_band     :    961.73s CPU    494.99s WALL (      19 calls)
     v_of_rho     :     13.96s CPU      7.50s WALL (      20 calls)
     newd         :     75.63s CPU     46.73s WALL (      20 calls)
     mix_rho      :      5.35s CPU      3.06s WALL (      19 calls)

     Called by c_bands:
     init_us_2    :     91.17s CPU     45.65s WALL (    3034 calls)
     cegterg      :   4156.16s CPU   2102.27s WALL (    1406 calls)

     Called by *egterg:
     cdiaghg      :     16.42s CPU      8.42s WALL (    7078 calls)
     h_psi        :   3516.49s CPU   1782.09s WALL (    7152 calls)
     s_psi        :    150.37s CPU     75.22s WALL (    7152 calls)
     g_psi        :     16.82s CPU      8.43s WALL (    5672 calls)

     Called by h_psi:
     h_psi:calbec :    109.18s CPU     54.76s WALL (    7152 calls)
     vloc_psi     :   3226.83s CPU   1636.86s WALL (    7152 calls)
     add_vuspsi   :    154.87s CPU     77.49s WALL (    7152 calls)

     General routines
     calbec       :    150.63s CPU     75.57s WALL (    8928 calls)
     fft          :      8.85s CPU      4.54s WALL (     245 calls)
     ffts         :      0.55s CPU      0.28s WALL (      19 calls)
     fftw         :   3149.24s CPU   1601.41s WALL (  303102 calls)
 
     Parallel routines
 
     PWSCF        :      1h36m CPU  49m29.95s WALL

 
   This run was terminated on:  22:51:42   7Apr2022            

=------------------------------------------------------------------------------=
   JOB DONE.
=------------------------------------------------------------------------------=
