
     Program PWSCF v.6.8 starts on  7Apr2022 at 17:25:21 

     This program is part of the open-source Quantum ESPRESSO suite
     for quantum simulation of materials; please cite
         "P. Giannozzi et al., J. Phys.:Condens. Matter 21 395502 (2009);
         "P. Giannozzi et al., J. Phys.:Condens. Matter 29 465901 (2017);
         "P. Giannozzi et al., J. Chem. Phys. 152 154105 (2020);
          URL http://www.quantum-espresso.org", 
     in publications or presentations arising from this work. More details at
     http://www.quantum-espresso.org/quote

     Parallel version (MPI & OpenMP), running on       4 processor cores
     Number of MPI processes:                 2
     Threads/MPI process:                     2

     MPI processes distributed on     1 nodes
     R & G space division:  proc/nbgrp/npool/nimage =       2
     123190 MiB available memory on the printing compute node when the environment starts
 
     Reading input from Ta2CH2.scf.155.in

     Current dimensions of program PWSCF are:
     Max number of different atomic species (ntypx) = 10
     Max number of k-points (npk) =  40000
     Max angular momentum in pseudopotentials (lmaxx) =  4
     file Ta.pbesol-spfn-rrkjus_psl.1.0.0.UPF: wavefunction(s)  5S 5P renormalized

     Subspace diagonalization in iterative solution of the eigenvalue problem:
     a serial algorithm will be used

 
     Parallelization info
     --------------------
     sticks:   dense  smooth     PW     G-vecs:    dense   smooth      PW
     Min         684     684    204               200004   200004   32208
     Max         685     685    205               200031   200031   32219
     Sum        1369    1369    409               400035   400035   64427
 
     Using Slab Decomposition
 


     bravais-lattice index     =            0
     lattice parameter (alat)  =       5.5500  a.u.
     unit-cell volume          =    1533.2393 (a.u.)^3
     number of atoms/cell      =            5
     number of atomic types    =            3
     number of electrons       =        60.00
     number of Kohn-Sham states=           36
     kinetic-energy cutoff     =     155.0000  Ry
     charge density cutoff     =     620.0000  Ry
     scf convergence threshold =      1.0E-12
     mixing beta               =       0.7000
     number of iterations used =            8  plain     mixing
     Exchange-correlation= PBESOL
                           (   1   4  10   8   0   0   0)

     celldm(1)=   5.550000  celldm(2)=   0.000000  celldm(3)=   0.000000
     celldm(4)=   0.000000  celldm(5)=   0.000000  celldm(6)=   0.000000

     crystal axes: (cart. coord. in units of alat)
               a(1) = (   1.017295  -0.000177   0.000000 )  
               a(2) = (  -0.508801   0.881714   0.000000 )  
               a(3) = (   0.000000   0.000000  10.000000 )  

     reciprocal axes: (cart. coord. in units 2 pi/alat)
               b(1) = (  0.983098  0.567305  0.000000 )  
               b(2) = (  0.000198  1.134269  0.000000 )  
               b(3) = (  0.000000  0.000000  0.100000 )  


     PseudoPot. # 1 for Ta read from file:
     /shared/home/as3359/pseudo/Ta.pbesol-spfn-rrkjus_psl.1.0.0.UPF
     MD5 check sum: f099565ffaca9b150a52e9412a28e20b
     Pseudo is Ultrasoft + core correction, Zval = 27.0
     Generated using &quot;atomic&quot; code by A. Dal Corso  v.6.3
     Using radial grid of 1273 points,  8 beta functions with: 
                l(1) =   0
                l(2) =   0
                l(3) =   1
                l(4) =   1
                l(5) =   2
                l(6) =   2
                l(7) =   3
                l(8) =   3
     Q(r) pseudized with 0 coefficients 


     PseudoPot. # 2 for C  read from file:
     /shared/home/as3359/pseudo/C.pbesol-n-rrkjus_psl.1.0.0.UPF
     MD5 check sum: 05995be603a8a7c99da3dc4413f31573
     Pseudo is Ultrasoft + core correction, Zval =  4.0
     Generated using &quot;atomic&quot; code by A. Dal Corso  v.6.3MaX
     Using radial grid of 1073 points,  4 beta functions with: 
                l(1) =   0
                l(2) =   0
                l(3) =   1
                l(4) =   1
     Q(r) pseudized with 0 coefficients 


     PseudoPot. # 3 for H  read from file:
     /shared/home/as3359/pseudo/H.pbesol-rrkjus_psl.0.1.UPF
     MD5 check sum: 1dbb1a5c48b1283557b8117eb856a7ca
     Pseudo is Ultrasoft, Zval =  1.0
     Generated using "atomic" code by A. Dal Corso  v.5.0.2 svn rev. 9415
     Using radial grid of  929 points,  2 beta functions with: 
                l(1) =   0
                l(2) =   0
     Q(r) pseudized with 0 coefficients 


     atomic species   valence    mass     pseudopotential
        Ta            27.00   180.94788     Ta( 1.00)
        C              4.00    12.01070     C ( 1.00)
        H              1.00     1.00000     H ( 1.00)

     No symmetry found



   Cartesian axes

     site n.     atom                  positions (alat units)
         1           C   tau(   1) = (   0.0000000   0.0000000   0.0000000  )
         2           Ta  tau(   2) = (   0.5088008   0.2948413  -0.4364511  )
         3           Ta  tau(   3) = (  -0.0007447   0.5869407   0.4364532  )
         4           H   tau(   4) = (  -0.0017928  -0.0015314   0.8341930  )
         5           H   tau(   5) = (   0.0002769   0.0024412  -0.8341930  )

     number of k points=    74  Marzari-Vanderbilt smearing, width (Ry)=  0.0010
                       cart. coord. in units 2pi/alat
        k(    1) = (   0.0000000   0.0000000   0.0000000), wk =   0.0138889
        k(    2) = (   0.0000165   0.0945224   0.0000000), wk =   0.0277778
        k(    3) = (   0.0000329   0.1890448   0.0000000), wk =   0.0277778
        k(    4) = (   0.0000494   0.2835672   0.0000000), wk =   0.0277778
        k(    5) = (   0.0000659   0.3780896   0.0000000), wk =   0.0277778
        k(    6) = (   0.0000823   0.4726120   0.0000000), wk =   0.0277778
        k(    7) = (  -0.0000988  -0.5671343   0.0000000), wk =   0.0138889
        k(    8) = (   0.0819248   0.0472755   0.0000000), wk =   0.0277778
        k(    9) = (   0.0819413   0.1417978   0.0000000), wk =   0.0277778
        k(   10) = (   0.0819577   0.2363202   0.0000000), wk =   0.0277778
        k(   11) = (   0.0819742   0.3308426   0.0000000), wk =   0.0277778
        k(   12) = (   0.0819907   0.4253650   0.0000000), wk =   0.0277778
        k(   13) = (   0.0820071   0.5198874   0.0000000), wk =   0.0277778
        k(   14) = (   0.0818260  -0.5198589   0.0000000), wk =   0.0277778
        k(   15) = (   0.0818425  -0.4253365   0.0000000), wk =   0.0277778
        k(   16) = (   0.0818590  -0.3308141   0.0000000), wk =   0.0277778
        k(   17) = (   0.0818754  -0.2362917   0.0000000), wk =   0.0277778
        k(   18) = (   0.0818919  -0.1417693   0.0000000), wk =   0.0277778
        k(   19) = (   0.0819084  -0.0472469   0.0000000), wk =   0.0277778
        k(   20) = (   0.1638496   0.0945509   0.0000000), wk =   0.0277778
        k(   21) = (   0.1638661   0.1890733   0.0000000), wk =   0.0277778
        k(   22) = (   0.1638826   0.2835957   0.0000000), wk =   0.0277778
        k(   23) = (   0.1638990   0.3781181   0.0000000), wk =   0.0277778
        k(   24) = (   0.1639155   0.4726405   0.0000000), wk =   0.0277778
        k(   25) = (   0.1639319   0.5671629   0.0000000), wk =   0.0277778
        k(   26) = (   0.1637508  -0.4725834   0.0000000), wk =   0.0277778
        k(   27) = (   0.1637673  -0.3780610   0.0000000), wk =   0.0277778
        k(   28) = (   0.1637838  -0.2835386   0.0000000), wk =   0.0277778
        k(   29) = (   0.1638002  -0.1890163   0.0000000), wk =   0.0277778
        k(   30) = (   0.1638167  -0.0944939   0.0000000), wk =   0.0277778
        k(   31) = (   0.1638332   0.0000285   0.0000000), wk =   0.0277778
        k(   32) = (   0.2457744   0.1418264   0.0000000), wk =   0.0277778
        k(   33) = (   0.2457909   0.2363488   0.0000000), wk =   0.0277778
        k(   34) = (   0.2458074   0.3308711   0.0000000), wk =   0.0277778
        k(   35) = (   0.2458238   0.4253935   0.0000000), wk =   0.0277778
        k(   36) = (   0.2458403   0.5199159   0.0000000), wk =   0.0277778
        k(   37) = (   0.2458568   0.6144383   0.0000000), wk =   0.0277778
        k(   38) = (   0.2456757  -0.4253080   0.0000000), wk =   0.0277778
        k(   39) = (   0.2456921  -0.3307856   0.0000000), wk =   0.0277778
        k(   40) = (   0.2457086  -0.2362632   0.0000000), wk =   0.0277778
        k(   41) = (   0.2457251  -0.1417408   0.0000000), wk =   0.0277778
        k(   42) = (   0.2457415  -0.0472184   0.0000000), wk =   0.0277778
        k(   43) = (   0.2457580   0.0473040   0.0000000), wk =   0.0277778
        k(   44) = (   0.3276993   0.1891018   0.0000000), wk =   0.0277778
        k(   45) = (   0.3277157   0.2836242   0.0000000), wk =   0.0277778
        k(   46) = (   0.3277322   0.3781466   0.0000000), wk =   0.0277778
        k(   47) = (   0.3277486   0.4726690   0.0000000), wk =   0.0277778
        k(   48) = (   0.3277651   0.5671914   0.0000000), wk =   0.0277778
        k(   49) = (   0.3277816   0.6617138   0.0000000), wk =   0.0277778
        k(   50) = (   0.3276005  -0.3780325   0.0000000), wk =   0.0277778
        k(   51) = (   0.3276169  -0.2835101   0.0000000), wk =   0.0277778
        k(   52) = (   0.3276334  -0.1889877   0.0000000), wk =   0.0277778
        k(   53) = (   0.3276499  -0.0944653   0.0000000), wk =   0.0277778
        k(   54) = (   0.3276663   0.0000570   0.0000000), wk =   0.0277778
        k(   55) = (   0.3276828   0.0945794   0.0000000), wk =   0.0277778
        k(   56) = (   0.4096241   0.2363773   0.0000000), wk =   0.0277778
        k(   57) = (   0.4096405   0.3308997   0.0000000), wk =   0.0277778
        k(   58) = (   0.4096570   0.4254221   0.0000000), wk =   0.0277778
        k(   59) = (   0.4096735   0.5199445   0.0000000), wk =   0.0277778
        k(   60) = (   0.4096899   0.6144668   0.0000000), wk =   0.0277778
        k(   61) = (   0.4097064   0.7089892   0.0000000), wk =   0.0277778
        k(   62) = (   0.4095253  -0.3307571   0.0000000), wk =   0.0277778
        k(   63) = (   0.4095418  -0.2362347   0.0000000), wk =   0.0277778
        k(   64) = (   0.4095582  -0.1417123   0.0000000), wk =   0.0277778
        k(   65) = (   0.4095747  -0.0471899   0.0000000), wk =   0.0277778
        k(   66) = (   0.4095911   0.0473325   0.0000000), wk =   0.0277778
        k(   67) = (   0.4096076   0.1418549   0.0000000), wk =   0.0277778
        k(   68) = (  -0.4915489  -0.2836527   0.0000000), wk =   0.0138889
        k(   69) = (  -0.4915324  -0.1891303   0.0000000), wk =   0.0277778
        k(   70) = (  -0.4915160  -0.0946080   0.0000000), wk =   0.0277778
        k(   71) = (  -0.4914995  -0.0000856   0.0000000), wk =   0.0277778
        k(   72) = (  -0.4914830   0.0944368   0.0000000), wk =   0.0277778
        k(   73) = (  -0.4914666   0.1889592   0.0000000), wk =   0.0277778
        k(   74) = (  -0.4916477  -0.8507871   0.0000000), wk =   0.0138889

     Dense  grid:   400035 G-vectors     FFT dimensions: (  45,  45, 450)

     Estimated max dynamical RAM per process >       2.91 GB

     Estimated total dynamical RAM >       5.81 GB

     Initial potential from superposition of free atoms

     starting charge   59.99840, renormalised to   60.00000

     negative rho (up, down):  9.772E-05 0.000E+00
     Starting wfcs are   40 randomized atomic wfcs

     total cpu time spent up to now is       28.6 secs

     Self-consistent Calculation

     iteration #  1     ecut=   155.00 Ry     beta= 0.70
     Davidson diagonalization with overlap
     ethr =  1.00E-02,  avg # of iterations =  2.0

     negative rho (up, down):  5.727E-05 0.000E+00

     total cpu time spent up to now is       81.0 secs

     total energy              =   -1375.12215613 Ry
     estimated scf accuracy    <       1.04889713 Ry

     iteration #  2     ecut=   155.00 Ry     beta= 0.70
     Davidson diagonalization with overlap
     ethr =  1.75E-03,  avg # of iterations =  7.2

     negative rho (up, down):  5.462E-05 0.000E+00

     total cpu time spent up to now is      153.1 secs

     total energy              =   -1374.71439238 Ry
     estimated scf accuracy    <       5.42788216 Ry

     iteration #  3     ecut=   155.00 Ry     beta= 0.70
     Davidson diagonalization with overlap
     ethr =  1.75E-03,  avg # of iterations =  4.8

     negative rho (up, down):  7.588E-05 0.000E+00

     total cpu time spent up to now is      217.2 secs

     total energy              =   -1375.66798805 Ry
     estimated scf accuracy    <       0.22953089 Ry

     iteration #  4     ecut=   155.00 Ry     beta= 0.70
     Davidson diagonalization with overlap
     ethr =  3.83E-04,  avg # of iterations =  2.4

     negative rho (up, down):  1.053E-04 0.000E+00

     total cpu time spent up to now is      270.9 secs

     total energy              =   -1375.69754458 Ry
     estimated scf accuracy    <       0.02218948 Ry

     iteration #  5     ecut=   155.00 Ry     beta= 0.70
     Davidson diagonalization with overlap
     c_bands:  1 eigenvalues not converged
     ethr =  3.70E-05,  avg # of iterations = 11.3

     negative rho (up, down):  1.136E-04 0.000E+00

     total cpu time spent up to now is      346.4 secs

     total energy              =   -1375.69524977 Ry
     estimated scf accuracy    <       0.04506893 Ry

     iteration #  6     ecut=   155.00 Ry     beta= 0.70
     Davidson diagonalization with overlap
     ethr =  3.70E-05,  avg # of iterations = 10.7

     negative rho (up, down):  1.386E-04 0.000E+00

     total cpu time spent up to now is      410.8 secs

     total energy              =   -1375.69843420 Ry
     estimated scf accuracy    <       0.04405200 Ry

     iteration #  7     ecut=   155.00 Ry     beta= 0.70
     Davidson diagonalization with overlap
     ethr =  3.70E-05,  avg # of iterations =  4.7

     negative rho (up, down):  1.526E-04 0.000E+00

     total cpu time spent up to now is      462.5 secs

     total energy              =   -1375.70108181 Ry
     estimated scf accuracy    <       0.00025670 Ry

     iteration #  8     ecut=   155.00 Ry     beta= 0.70
     Davidson diagonalization with overlap
     c_bands:  1 eigenvalues not converged
     c_bands:  1 eigenvalues not converged
     c_bands:  1 eigenvalues not converged
     c_bands:  1 eigenvalues not converged
     c_bands:  1 eigenvalues not converged
     c_bands:  1 eigenvalues not converged
     c_bands:  1 eigenvalues not converged
     c_bands:  1 eigenvalues not converged
     c_bands:  1 eigenvalues not converged
     ethr =  4.28E-07,  avg # of iterations = 11.3

     negative rho (up, down):  1.651E-04 0.000E+00

     total cpu time spent up to now is      538.0 secs

     total energy              =   -1375.70116507 Ry
     estimated scf accuracy    <       0.00002581 Ry

     iteration #  9     ecut=   155.00 Ry     beta= 0.70
     Davidson diagonalization with overlap
     ethr =  4.30E-08,  avg # of iterations =  2.4

     negative rho (up, down):  1.669E-04 0.000E+00

     total cpu time spent up to now is      588.9 secs

     total energy              =   -1375.70116923 Ry
     estimated scf accuracy    <       0.00000501 Ry

     iteration # 10     ecut=   155.00 Ry     beta= 0.70
     Davidson diagonalization with overlap
     ethr =  8.36E-09,  avg # of iterations =  2.0

     negative rho (up, down):  1.675E-04 0.000E+00

     total cpu time spent up to now is      640.3 secs

     total energy              =   -1375.70116976 Ry
     estimated scf accuracy    <       0.00000059 Ry

     iteration # 11     ecut=   155.00 Ry     beta= 0.70
     Davidson diagonalization with overlap
     ethr =  9.82E-10,  avg # of iterations =  2.8

     negative rho (up, down):  1.675E-04 0.000E+00

     total cpu time spent up to now is      697.9 secs

     total energy              =   -1375.70116987 Ry
     estimated scf accuracy    <       0.00000009 Ry

     iteration # 12     ecut=   155.00 Ry     beta= 0.70
     Davidson diagonalization with overlap
     ethr =  1.51E-10,  avg # of iterations =  2.7

     negative rho (up, down):  1.675E-04 0.000E+00

     total cpu time spent up to now is      755.5 secs

     total energy              =   -1375.70116988 Ry
     estimated scf accuracy    <       0.00000003 Ry

     iteration # 13     ecut=   155.00 Ry     beta= 0.70
     Davidson diagonalization with overlap
     ethr =  4.64E-11,  avg # of iterations =  2.0

     negative rho (up, down):  1.675E-04 0.000E+00

     total cpu time spent up to now is      806.1 secs

     total energy              =   -1375.70116988 Ry
     estimated scf accuracy    <          5.4E-09 Ry

     iteration # 14     ecut=   155.00 Ry     beta= 0.70
     Davidson diagonalization with overlap
     ethr =  9.06E-12,  avg # of iterations =  3.3

     negative rho (up, down):  1.675E-04 0.000E+00

     total cpu time spent up to now is      859.2 secs

     total energy              =   -1375.70116988 Ry
     estimated scf accuracy    <          3.6E-10 Ry

     iteration # 15     ecut=   155.00 Ry     beta= 0.70
     Davidson diagonalization with overlap
     ethr =  5.95E-13,  avg # of iterations =  2.6

     negative rho (up, down):  1.676E-04 0.000E+00

     total cpu time spent up to now is      912.3 secs

     total energy              =   -1375.70116988 Ry
     estimated scf accuracy    <          9.4E-11 Ry

     iteration # 16     ecut=   155.00 Ry     beta= 0.70
     Davidson diagonalization with overlap
     ethr =  1.57E-13,  avg # of iterations =  2.7

     negative rho (up, down):  1.676E-04 0.000E+00

     total cpu time spent up to now is      963.9 secs

     total energy              =   -1375.70116988 Ry
     estimated scf accuracy    <          8.9E-11 Ry

     iteration # 17     ecut=   155.00 Ry     beta= 0.70
     Davidson diagonalization with overlap
     ethr =  1.49E-13,  avg # of iterations =  1.2

     negative rho (up, down):  1.676E-04 0.000E+00

     total cpu time spent up to now is     1009.4 secs

     total energy              =   -1375.70116989 Ry
     estimated scf accuracy    <          1.2E-11 Ry

     iteration # 18     ecut=   155.00 Ry     beta= 0.70
     Davidson diagonalization with overlap
     ethr =  1.00E-13,  avg # of iterations =  1.5

     negative rho (up, down):  1.676E-04 0.000E+00

     total cpu time spent up to now is     1056.1 secs

     total energy              =   -1375.70116988 Ry
     estimated scf accuracy    <          1.5E-12 Ry

     iteration # 19     ecut=   155.00 Ry     beta= 0.70
     Davidson diagonalization with overlap
     ethr =  1.00E-13,  avg # of iterations =  1.0

     negative rho (up, down):  1.676E-04 0.000E+00

     total cpu time spent up to now is     1101.1 secs

     End of self-consistent calculation

          k = 0.0000 0.0000 0.0000 ( 50071 PWs)   bands (ev):

   -67.6112 -67.5796 -34.5974 -34.1140 -33.6993 -33.6979 -33.6592 -33.6590
   -19.2567 -19.2427 -19.2235 -19.2230 -19.2228 -19.2227 -19.2017 -19.2016
   -19.2004 -19.1998 -19.1993 -19.1931 -19.1192 -19.1184 -12.8532  -8.3510
    -5.2551  -3.4729  -3.2165  -3.2017  -1.2333   0.3193   0.3392   2.4914
     2.5032   2.9052   2.9380   3.4866

          k = 0.0000 0.0945 0.0000 ( 49971 PWs)   bands (ev):

   -67.6067 -67.5761 -34.5826 -34.1129 -33.7582 -33.7164 -33.7160 -33.6685
   -19.2550 -19.2420 -19.2246 -19.2231 -19.2229 -19.2215 -19.2038 -19.2018
   -19.2006 -19.1997 -19.1958 -19.1898 -19.1226 -19.1219 -12.7139  -8.1324
    -5.3201  -3.5511  -3.3889  -3.1606  -1.0617  -0.0555   0.5495   1.8788
     2.1875   2.9298   3.3019   4.1836

          k = 0.0000 0.1890 0.0000 ( 49889 PWs)   bands (ev):

   -67.5943 -67.5664 -34.5424 -34.1167 -33.9138 -33.8669 -33.7608 -33.6967
   -19.2509 -19.2404 -19.2286 -19.2233 -19.2225 -19.2177 -19.2090 -19.2025
   -19.2020 -19.1981 -19.1861 -19.1809 -19.1317 -19.1311 -12.3439  -7.5536
    -5.4873  -4.0335  -3.4652  -3.0963  -1.0092  -0.4087   1.1332   1.3096
     2.0979   2.7899   3.6417   4.9392

          k = 0.0000 0.2836 0.0000 ( 49927 PWs)   bands (ev):

   -67.5770 -67.5533 -34.4927 -34.1944 -34.0670 -34.0418 -33.8184 -33.7374
   -19.2476 -19.2375 -19.2337 -19.2244 -19.2223 -19.2140 -19.2135 -19.2044
   -19.2015 -19.1953 -19.1728 -19.1686 -19.1437 -19.1425 -11.8706  -6.9307
    -5.6165  -4.4656  -3.5646  -3.1180  -1.6554   0.3113   1.1533   1.8930
     2.5015   2.6842   3.7583   5.5252

          k = 0.0001 0.3781 0.0000 ( 49922 PWs)   bands (ev):

   -67.5592 -67.5408 -34.4801 -34.3745 -34.2123 -34.0712 -33.8741 -33.7793
   -19.2480 -19.2382 -19.2331 -19.2263 -19.2256 -19.2139 -19.2123 -19.2052
   -19.1989 -19.1918 -19.1592 -19.1562 -19.1551 -19.1524 -11.4464  -6.8502
    -5.3721  -4.6851  -3.6247  -3.2347  -1.9185   1.1163   1.4874   2.0734
     2.6879   3.7808   3.9155   6.0512

          k = 0.0001 0.4726 0.0000 ( 49972 PWs)   bands (ev):

   -67.5455 -67.5322 -34.5604 -34.4954 -34.2407 -34.0840 -33.9139 -33.8102
   -19.2498 -19.2405 -19.2339 -19.2281 -19.2261 -19.2137 -19.2111 -19.2052
   -19.1955 -19.1890 -19.1630 -19.1587 -19.1489 -19.1471 -11.1754  -7.0606
    -5.1833  -4.7673  -3.4534  -3.3574  -1.8317   1.5216   1.7911   2.1380
     3.1447   4.3192   5.1290   6.1963

          k =-0.0001-0.5671 0.0000 ( 49992 PWs)   bands (ev):

   -67.5402 -67.5294 -34.6075 -34.5380 -34.2306 -34.0915 -33.9283 -33.8216
   -19.2507 -19.2410 -19.2357 -19.2289 -19.2254 -19.2145 -19.2094 -19.2053
   -19.1940 -19.1878 -19.1658 -19.1608 -19.1450 -19.1438 -11.0859  -7.1577
    -5.1755  -4.7934  -3.4075  -3.2810  -1.7695   1.4151   2.0584   2.3146
     3.2027   4.7970   5.7626   6.3425

          k = 0.0819 0.0473 0.0000 ( 49977 PWs)   bands (ev):

   -67.6066 -67.5760 -34.5825 -34.1129 -33.7594 -33.7161 -33.7154 -33.6686
   -19.2549 -19.2419 -19.2247 -19.2232 -19.2230 -19.2213 -19.2037 -19.2020
   -19.2012 -19.1991 -19.1958 -19.1899 -19.1226 -19.1219 -12.7137  -8.1321
    -5.3181  -3.5472  -3.3855  -3.1740  -1.0631  -0.0392   0.5332   1.8786
     2.1863   2.9620   3.2863   4.1701

          k = 0.0819 0.1418 0.0000 ( 49939 PWs)   bands (ev):

   -67.5982 -67.5694 -34.5549 -34.1136 -33.8558 -33.8332 -33.7359 -33.6968
   -19.2519 -19.2409 -19.2268 -19.2250 -19.2216 -19.2188 -19.2071 -19.2026
   -19.2019 -19.1984 -19.1892 -19.1838 -19.1288 -19.1283 -12.4587  -7.7278
    -5.4298  -3.8038  -3.6602  -2.9881  -0.7506  -0.6296   0.8722   1.6532
     1.8057   2.9993   3.5718   4.8292

          k = 0.0820 0.2363 0.0000 ( 49897 PWs)   bands (ev):

   -67.5833 -67.5581 -34.5090 -34.1403 -34.0117 -33.9917 -33.7956 -33.7405
   -19.2473 -19.2393 -19.2311 -19.2262 -19.2208 -19.2150 -19.2121 -19.2039
   -19.2021 -19.1965 -19.1777 -19.1731 -19.1393 -19.1389 -12.0358  -7.0695
    -5.5911  -4.3093  -3.8493  -2.7951  -1.3679  -0.1433   0.7434   1.9402
     2.2362   2.7777   3.9441   5.3303

          k = 0.0820 0.3308 0.0000 ( 49931 PWs)   bands (ev):

   -67.5657 -67.5453 -34.4712 -34.2835 -34.1624 -34.0645 -33.8653 -33.7885
   -19.2456 -19.2358 -19.2355 -19.2279 -19.2218 -19.2153 -19.2124 -19.2052
   -19.2000 -19.1938 -19.1643 -19.1608 -19.1513 -19.1498 -11.5865  -6.6418
    -5.5398  -4.6355  -4.0064  -2.8077  -1.8145   0.5098   0.8127   2.1931
     2.8454   3.4094   4.0767   5.9365

          k = 0.0820 0.4254 0.0000 ( 49974 PWs)   bands (ev):

   -67.5499 -67.5348 -34.5055 -34.4343 -34.2360 -34.0827 -33.9226 -33.8306
   -19.2471 -19.2390 -19.2331 -19.2281 -19.2252 -19.2143 -19.2125 -19.2053
   -19.1968 -19.1910 -19.1612 -19.1582 -19.1523 -19.1499 -11.2419  -6.7897
    -5.1711  -4.7569  -4.0132  -3.0093  -1.8174   0.8259   1.5702   2.0188
     3.6578   3.9488   4.7817   6.2964

          k = 0.0820 0.5199 0.0000 ( 49996 PWs)   bands (ev):

   -67.5401 -67.5294 -34.5784 -34.5109 -34.2281 -34.0978 -33.9540 -33.8550
   -19.2487 -19.2402 -19.2346 -19.2289 -19.2249 -19.2149 -19.2108 -19.2052
   -19.1948 -19.1891 -19.1667 -19.1624 -19.1452 -19.1438 -11.0656  -6.9722
    -5.0880  -4.7603  -3.7750  -3.2367  -1.6601   1.1841   1.6763   2.2607
     3.9726   4.4362   5.7495   6.2759

          k = 0.0818-0.5199 0.0000 ( 50002 PWs)   bands (ev):

   -67.5402 -67.5294 -34.5782 -34.5108 -34.2281 -34.0979 -33.9542 -33.8551
   -19.2487 -19.2402 -19.2345 -19.2289 -19.2249 -19.2149 -19.2109 -19.2052
   -19.1948 -19.1891 -19.1667 -19.1624 -19.1452 -19.1438 -11.0658  -6.9719
    -5.0879  -4.7602  -3.7712  -3.2411  -1.6595   1.1846   1.6763   2.2612
     3.9715   4.4368   5.7493   6.2761

          k = 0.0818-0.4253 0.0000 ( 49980 PWs)   bands (ev):

   -67.5499 -67.5348 -34.5051 -34.4339 -34.2359 -34.0828 -33.9229 -33.8307
   -19.2471 -19.2390 -19.2329 -19.2282 -19.2254 -19.2141 -19.2129 -19.2053
   -19.1967 -19.1910 -19.1612 -19.1582 -19.1523 -19.1499 -11.2424  -6.7891
    -5.1720  -4.7556  -4.0082  -3.0150  -1.8163   0.8265   1.5741   2.0167
     3.6533   3.9482   4.7805   6.2946

          k = 0.0819-0.3308 0.0000 ( 49931 PWs)   bands (ev):

   -67.5658 -67.5453 -34.4711 -34.2828 -34.1619 -34.0646 -33.8658 -33.7887
   -19.2456 -19.2358 -19.2355 -19.2279 -19.2218 -19.2154 -19.2127 -19.2051
   -19.1998 -19.1938 -19.1643 -19.1608 -19.1513 -19.1497 -11.5871  -6.6416
    -5.5413  -4.6331  -4.0025  -2.8108  -1.8142   0.5069   0.8188   2.1920
     2.8392   3.4075   4.0758   5.9388

          k = 0.0819-0.2363 0.0000 ( 49894 PWs)   bands (ev):

   -67.5834 -67.5581 -34.5090 -34.1398 -34.0116 -33.9908 -33.7962 -33.7407
   -19.2473 -19.2394 -19.2311 -19.2262 -19.2207 -19.2153 -19.2122 -19.2037
   -19.2020 -19.1967 -19.1777 -19.1731 -19.1394 -19.1389 -12.0362  -7.0698
    -5.5929  -4.3070  -3.8468  -2.7936  -1.3697  -0.1415   0.7405   1.9409
     2.2378   2.7720   3.9397   5.3350

          k = 0.0819-0.1418 0.0000 ( 49951 PWs)   bands (ev):

   -67.5982 -67.5694 -34.5550 -34.1135 -33.8549 -33.8329 -33.7365 -33.6970
   -19.2519 -19.2409 -19.2268 -19.2248 -19.2214 -19.2191 -19.2071 -19.2024
   -19.2016 -19.1987 -19.1892 -19.1837 -19.1288 -19.1283 -12.4590  -7.7282
    -5.4317  -3.8042  -3.6583  -2.9833  -0.7492  -0.6343   0.8747   1.6477
     1.8099   2.9961   3.5656   4.8375

          k = 0.0819-0.0472 0.0000 ( 49991 PWs)   bands (ev):

   -67.6067 -67.5760 -34.5825 -34.1129 -33.7588 -33.7161 -33.7157 -33.6687
   -19.2550 -19.2419 -19.2247 -19.2231 -19.2229 -19.2214 -19.2038 -19.2019
   -19.2009 -19.1994 -19.1958 -19.1899 -19.1226 -19.1219 -12.7138  -8.1323
    -5.3189  -3.5489  -3.3871  -3.1680  -1.0625  -0.0466   0.5407   1.8786
     2.1871   2.9480   3.2925   4.1762

          k = 0.1638 0.0946 0.0000 ( 49874 PWs)   bands (ev):

   -67.5942 -67.5663 -34.5421 -34.1170 -33.9150 -33.8673 -33.7603 -33.6968
   -19.2506 -19.2404 -19.2287 -19.2232 -19.2231 -19.2173 -19.2088 -19.2032
   -19.2022 -19.1976 -19.1862 -19.1810 -19.1317 -19.1311 -12.3432  -7.5526
    -5.4797  -4.0349  -3.4705  -3.1112  -1.0096  -0.3973   1.1205   1.3212
     2.0943   2.8194   3.6308   4.9309

          k = 0.1639 0.1891 0.0000 ( 49899 PWs)   bands (ev):

   -67.5832 -67.5580 -34.5088 -34.1405 -34.0129 -33.9910 -33.7957 -33.7406
   -19.2470 -19.2395 -19.2312 -19.2262 -19.2210 -19.2148 -19.2121 -19.2042
   -19.2023 -19.1963 -19.1777 -19.1731 -19.1394 -19.1388 -12.0352  -7.0685
    -5.5853  -4.3127  -3.8542  -2.8031  -1.3673  -0.1383   0.7507   1.9367
     2.2377   2.7863   3.9417   5.3257

          k = 0.1639 0.2836 0.0000 ( 49925 PWs)   bands (ev):

   -67.5681 -67.5469 -34.4709 -34.2273 -34.1484 -34.0560 -33.8612 -33.8163
   -19.2415 -19.2392 -19.2337 -19.2297 -19.2203 -19.2152 -19.2134 -19.2053
   -19.2001 -19.1948 -19.1662 -19.1625 -19.1497 -19.1494 -11.6353  -6.4254
    -5.6906  -4.6301  -4.2211  -2.5252  -1.6907   0.0604   0.4338   2.2172
     3.0404   3.2025   4.4843   5.7307

          k = 0.1639 0.3781 0.0000 ( 49957 PWs)   bands (ev):

   -67.5523 -67.5364 -34.4661 -34.3530 -34.2296 -34.0823 -33.9453 -33.8864
   -19.2416 -19.2361 -19.2352 -19.2303 -19.2226 -19.2157 -19.2136 -19.2057
   -19.1968 -19.1937 -19.1606 -19.1595 -19.1541 -19.1515 -11.2679  -6.2103
    -5.4666  -4.8016  -4.3835  -2.6463  -1.6842  -0.1878   1.2092   2.1694
     3.6379   4.2115   4.8798   6.3387

          k = 0.1639 0.4726 0.0000 ( 49989 PWs)   bands (ev):

   -67.5401 -67.5294 -34.5110 -34.4432 -34.2275 -34.1177 -34.0035 -33.9353
   -19.2440 -19.2372 -19.2340 -19.2276 -19.2247 -19.2161 -19.2136 -19.2050
   -19.1958 -19.1923 -19.1683 -19.1658 -19.1455 -19.1439 -11.0244  -6.4522
    -4.9283  -4.8664  -4.4037  -3.0259  -1.4537   0.0245   1.9795   2.3105
     3.8265   4.5343   5.4228   6.3567

          k = 0.1639 0.5672 0.0000 ( 50016 PWs)   bands (ev):

   -67.5352 -67.5272 -34.5380 -34.4722 -34.2097 -34.1445 -34.0197 -33.9536
   -19.2449 -19.2375 -19.2327 -19.2300 -19.2229 -19.2167 -19.2130 -19.2047
   -19.1959 -19.1915 -19.1711 -19.1680 -19.1421 -19.1412 -10.9414  -6.5624
    -4.8975  -4.7266  -4.3084  -3.2765  -1.3141   0.2282   2.2186   2.4621
     4.0580   4.4469   5.5832   6.1198

          k = 0.1638-0.4726 0.0000 ( 49981 PWs)   bands (ev):

   -67.5401 -67.5294 -34.5103 -34.4426 -34.2275 -34.1181 -34.0040 -33.9353
   -19.2439 -19.2372 -19.2337 -19.2278 -19.2249 -19.2161 -19.2138 -19.2049
   -19.1957 -19.1922 -19.1683 -19.1658 -19.1455 -19.1439 -11.0251  -6.4511
    -4.9313  -4.8633  -4.3988  -3.0309  -1.4526   0.0251   1.9835   2.3071
     3.8289   4.5245   5.4241   6.3573

          k = 0.1638-0.3781 0.0000 ( 49959 PWs)   bands (ev):

   -67.5524 -67.5364 -34.4655 -34.3518 -34.2294 -34.0825 -33.9462 -33.8866
   -19.2415 -19.2361 -19.2350 -19.2306 -19.2227 -19.2157 -19.2141 -19.2055
   -19.1967 -19.1937 -19.1607 -19.1595 -19.1541 -19.1515 -11.2689  -6.2092
    -5.4692  -4.7973  -4.3788  -2.6510  -1.6821  -0.1898   1.2148   2.1643
     3.6361   4.2045   4.8752   6.3423

          k = 0.1638-0.2835 0.0000 ( 49927 PWs)   bands (ev):

   -67.5681 -67.5470 -34.4709 -34.2258 -34.1478 -34.0558 -33.8621 -33.8166
   -19.2416 -19.2391 -19.2336 -19.2297 -19.2201 -19.2154 -19.2138 -19.2050
   -19.1999 -19.1949 -19.1662 -19.1624 -19.1497 -19.1494 -11.6363  -6.4261
    -5.6936  -4.6250  -4.2164  -2.5246  -1.6905   0.0526   0.4398   2.2141
     3.0347   3.2004   4.4775   5.7395

          k = 0.1638-0.1890 0.0000 ( 49891 PWs)   bands (ev):

   -67.5833 -67.5581 -34.5089 -34.1400 -34.0119 -33.9907 -33.7963 -33.7408
   -19.2471 -19.2394 -19.2312 -19.2261 -19.2208 -19.2152 -19.2122 -19.2038
   -19.2020 -19.1966 -19.1777 -19.1731 -19.1394 -19.1389 -12.0359  -7.0694
    -5.5896  -4.3089  -3.8494  -2.7981  -1.3694  -0.1386   0.7444   1.9389
     2.2385   2.7769   3.9379   5.3326

          k = 0.1638-0.0945 0.0000 ( 49883 PWs)   bands (ev):

   -67.5942 -67.5663 -34.5422 -34.1169 -33.9143 -33.8671 -33.7606 -33.6968
   -19.2507 -19.2404 -19.2287 -19.2232 -19.2228 -19.2175 -19.2089 -19.2028
   -19.2021 -19.1979 -19.1862 -19.1809 -19.1316 -19.1311 -12.3435  -7.5532
    -5.4828  -4.0344  -3.4680  -3.1047  -1.0096  -0.4022   1.1263   1.3160
     2.0960   2.8065   3.6349   4.9347

          k = 0.1638 0.0000 0.0000 ( 49925 PWs)   bands (ev):

   -67.5981 -67.5694 -34.5547 -34.1138 -33.8567 -33.8333 -33.7353 -33.6969
   -19.2518 -19.2409 -19.2269 -19.2250 -19.2216 -19.2187 -19.2071 -19.2028
   -19.2020 -19.1982 -19.1892 -19.1838 -19.1288 -19.1283 -12.4584  -7.7275
    -5.4270  -3.8036  -3.6623  -2.9944  -0.7523  -0.6240   0.8694   1.6611
     1.8004   3.0025   3.5796   4.8182

          k = 0.2458 0.1418 0.0000 ( 49931 PWs)   bands (ev):

   -67.5768 -67.5533 -34.4923 -34.1956 -34.0686 -34.0416 -33.8184 -33.7377
   -19.2470 -19.2375 -19.2339 -19.2241 -19.2229 -19.2140 -19.2131 -19.2051
   -19.2018 -19.1949 -19.1728 -19.1687 -19.1437 -19.1424 -11.8690  -6.9279
    -5.6048  -4.4758  -3.5742  -3.1348  -1.6534   0.3209   1.1720   1.8880
     2.5281   2.6773   3.7507   5.5171

          k = 0.2458 0.2363 0.0000 ( 49937 PWs)   bands (ev):

   -67.5656 -67.5452 -34.4711 -34.2843 -34.1627 -34.0649 -33.8658 -33.7888
   -19.2451 -19.2362 -19.2352 -19.2278 -19.2221 -19.2153 -19.2124 -19.2057
   -19.2001 -19.1936 -19.1643 -19.1608 -19.1513 -19.1496 -11.5852  -6.6371
    -5.5336  -4.6441  -4.0130  -2.8241  -1.8131   0.5274   0.8214   2.2033
     2.8458   3.4037   4.0786   5.9271

          k = 0.2458 0.3309 0.0000 ( 49969 PWs)   bands (ev):

   -67.5522 -67.5363 -34.4664 -34.3537 -34.2292 -34.0824 -33.9460 -33.8863
   -19.2417 -19.2359 -19.2347 -19.2307 -19.2227 -19.2154 -19.2140 -19.2060
   -19.1969 -19.1935 -19.1607 -19.1593 -19.1541 -19.1515 -11.2671  -6.2042
    -5.4715  -4.8028  -4.3864  -2.6559  -1.6846  -0.1765   1.2142   2.1738
     3.6378   4.2091   4.8826   6.3337

          k = 0.2458 0.4254 0.0000 ( 50015 PWs)   bands (ev):

   -67.5399 -67.5294 -34.4728 -34.3884 -34.2497 -34.1158 -34.0345 -33.9846
   -19.2413 -19.2350 -19.2311 -19.2302 -19.2251 -19.2166 -19.2151 -19.2050
   -19.1954 -19.1948 -19.1687 -19.1678 -19.1456 -19.1439 -11.0030  -5.7683
    -5.6047  -4.7460  -4.5331  -2.8584  -1.2601  -0.5968   1.9002   2.4536
     3.6697   4.5717   5.2453   6.6388

          k = 0.2458 0.5199 0.0000 ( 50023 PWs)   bands (ev):

   -67.5319 -67.5263 -34.4641 -34.3992 -34.2522 -34.1838 -34.0667 -34.0419
   -19.2422 -19.2324 -19.2310 -19.2287 -19.2233 -19.2188 -19.2164 -19.2031
   -19.1971 -19.1950 -19.1738 -19.1725 -19.1405 -19.1397 -10.8556  -5.9400
    -5.1446  -4.7280  -4.6208  -3.1526  -0.9460  -0.4718   2.5592   2.7675
     3.5030   4.1695   5.1624   6.3211

          k = 0.2459 0.6144 0.0000 ( 50032 PWs)   bands (ev):

   -67.5320 -67.5263 -34.4633 -34.3986 -34.2522 -34.1846 -34.0679 -34.0410
   -19.2421 -19.2322 -19.2310 -19.2289 -19.2236 -19.2189 -19.2164 -19.2030
   -19.1971 -19.1949 -19.1738 -19.1726 -19.1405 -19.1397 -10.8561  -5.9388
    -5.1447  -4.7280  -4.6187  -3.1542  -0.9455  -0.4718   2.5622   2.7634
     3.5068   4.1616   5.1629   6.3204

          k = 0.2457-0.4253 0.0000 ( 50001 PWs)   bands (ev):

   -67.5400 -67.5294 -34.4717 -34.3867 -34.2503 -34.1163 -34.0355 -33.9844
   -19.2409 -19.2348 -19.2312 -19.2306 -19.2252 -19.2168 -19.2151 -19.2048
   -19.1954 -19.1946 -19.1687 -19.1679 -19.1456 -19.1439 -11.0042  -5.7663
    -5.6051  -4.7439  -4.5290  -2.8612  -1.2575  -0.6001   1.9037   2.4473
     3.6724   4.5585   5.2451   6.6354

          k = 0.2457-0.3308 0.0000 ( 49959 PWs)   bands (ev):

   -67.5523 -67.5364 -34.4657 -34.3520 -34.2293 -34.0825 -33.9466 -33.8866
   -19.2414 -19.2360 -19.2348 -19.2308 -19.2227 -19.2156 -19.2143 -19.2057
   -19.1967 -19.1935 -19.1607 -19.1594 -19.1541 -19.1515 -11.2685  -6.2062
    -5.4716  -4.7979  -4.3805  -2.6561  -1.6821  -0.1836   1.2174   2.1667
     3.6362   4.2030   4.8768   6.3392

          k = 0.2457-0.2363 0.0000 ( 49947 PWs)   bands (ev):

   -67.5657 -67.5453 -34.4710 -34.2832 -34.1621 -34.0647 -33.8662 -33.7889
   -19.2452 -19.2360 -19.2354 -19.2278 -19.2220 -19.2154 -19.2127 -19.2053
   -19.1999 -19.1937 -19.1643 -19.1608 -19.1513 -19.1496 -11.5864  -6.6394
    -5.5376  -4.6379  -4.0061  -2.8197  -1.8132   0.5168   0.8233   2.1976
     2.8394   3.4043   4.0766   5.9337

          k = 0.2457-0.1417 0.0000 ( 49933 PWs)   bands (ev):

   -67.5769 -67.5533 -34.4924 -34.1951 -34.0676 -34.0418 -33.8185 -33.7376
   -19.2472 -19.2375 -19.2339 -19.2243 -19.2226 -19.2141 -19.2133 -19.2048
   -19.2016 -19.1951 -19.1728 -19.1686 -19.1437 -19.1424 -11.8698  -6.9296
    -5.6096  -4.4714  -3.5696  -3.1276  -1.6541   0.3167   1.1635   1.8904
     2.5164   2.6803   3.7535   5.5208

          k = 0.2457-0.0472 0.0000 ( 49903 PWs)   bands (ev):

   -67.5832 -67.5580 -34.5087 -34.1412 -34.0122 -33.9922 -33.7950 -33.7404
   -19.2470 -19.2394 -19.2313 -19.2262 -19.2209 -19.2148 -19.2122 -19.2041
   -19.2022 -19.1963 -19.1778 -19.1732 -19.1393 -19.1389 -12.0350  -7.0688
    -5.5851  -4.3145  -3.8547  -2.8019  -1.3652  -0.1432   0.7515   1.9376
     2.2357   2.7892   3.9480   5.3214

          k = 0.2458 0.0473 0.0000 ( 49910 PWs)   bands (ev):

   -67.5832 -67.5580 -34.5086 -34.1412 -34.0131 -33.9917 -33.7951 -33.7405
   -19.2469 -19.2394 -19.2313 -19.2262 -19.2210 -19.2147 -19.2121 -19.2043
   -19.2023 -19.1962 -19.1778 -19.1732 -19.1394 -19.1388 -12.0347  -7.0682
    -5.5827  -4.3159  -3.8569  -2.8055  -1.3651  -0.1411   0.7548   1.9360
     2.2365   2.7929   3.9473   5.3192

          k = 0.3277 0.1891 0.0000 ( 49936 PWs)   bands (ev):

   -67.5589 -67.5407 -34.4807 -34.3761 -34.2120 -34.0721 -33.8744 -33.7797
   -19.2477 -19.2382 -19.2327 -19.2262 -19.2259 -19.2143 -19.2121 -19.2060
   -19.1990 -19.1917 -19.1592 -19.1562 -19.1551 -19.1522 -11.4439  -6.8448
    -5.3635  -4.6981  -3.6366  -3.2528  -1.9167   1.1358   1.5051   2.0955
     2.6844   3.7780   3.9100   6.0435

          k = 0.3277 0.2836 0.0000 ( 49981 PWs)   bands (ev):

   -67.5496 -67.5348 -34.5065 -34.4357 -34.2344 -34.0839 -33.9233 -33.8310
   -19.2471 -19.2388 -19.2324 -19.2281 -19.2256 -19.2142 -19.2130 -19.2060
   -19.1968 -19.1909 -19.1612 -19.1579 -19.1522 -19.1499 -11.2397  -6.7845
    -5.1666  -4.7679  -4.0203  -3.0286  -1.8152   0.8494   1.5807   2.0328
     3.6562   3.9492   4.7813   6.2854

          k = 0.3277 0.3781 0.0000 ( 49985 PWs)   bands (ev):

   -67.5398 -67.5294 -34.5121 -34.4448 -34.2256 -34.1181 -34.0049 -33.9351
   -19.2444 -19.2365 -19.2334 -19.2275 -19.2252 -19.2159 -19.2142 -19.2056
   -19.1959 -19.1921 -19.1683 -19.1655 -19.1454 -19.1439 -11.0225  -6.4488
    -4.9348  -4.8685  -4.4062  -3.0379  -1.4544   0.0394   1.9901   2.3205
     3.8283   4.5298   5.4240   6.3670

          k = 0.3277 0.4727 0.0000 ( 50020 PWs)   bands (ev):

   -67.5317 -67.5263 -34.4652 -34.4006 -34.2514 -34.1823 -34.0683 -34.0413
   -19.2426 -19.2322 -19.2302 -19.2286 -19.2239 -19.2187 -19.2167 -19.2033
   -19.1973 -19.1948 -19.1738 -19.1723 -19.1404 -19.1397 -10.8544  -5.9395
    -5.1487  -4.7329  -4.6172  -3.1568  -0.9494  -0.4637   2.5681   2.7724
     3.5019   4.1694   5.1610   6.3234

          k = 0.3278 0.5672 0.0000 ( 49995 PWs)   bands (ev):

   -67.5271 -67.5269 -34.3855 -34.3448 -34.3440 -34.2329 -34.0833 -34.0807
   -19.2419 -19.2301 -19.2301 -19.2235 -19.2232 -19.2216 -19.2205 -19.1999
   -19.1983 -19.1980 -19.1756 -19.1755 -19.1384 -19.1384 -10.7908  -5.4411
    -5.4374  -4.9155  -4.5615  -3.1833  -0.6387  -0.6334   2.9578   2.9593
     3.4960   3.5035   4.8874   6.6782

          k = 0.3278 0.6617 0.0000 ( 50028 PWs)   bands (ev):

   -67.5318 -67.5263 -34.4641 -34.3990 -34.2520 -34.1837 -34.0686 -34.0408
   -19.2423 -19.2321 -19.2306 -19.2288 -19.2239 -19.2189 -19.2165 -19.2031
   -19.1973 -19.1948 -19.1738 -19.1725 -19.1405 -19.1397 -10.8554  -5.9388
    -5.1469  -4.7305  -4.6171  -3.1562  -0.9474  -0.4674   2.5671   2.7658
     3.5061   4.1619   5.1622   6.3208

          k = 0.3276-0.3780 0.0000 ( 49977 PWs)   bands (ev):

   -67.5400 -67.5294 -34.5110 -34.4431 -34.2266 -34.1182 -34.0048 -33.9353
   -19.2440 -19.2369 -19.2334 -19.2278 -19.2252 -19.2161 -19.2141 -19.2052
   -19.1958 -19.1920 -19.1683 -19.1657 -19.1454 -19.1439 -11.0240  -6.4496
    -4.9348  -4.8645  -4.4005  -3.0369  -1.4527   0.0331   1.9890   2.3125
     3.8300   4.5220   5.4247   6.3622

          k = 0.3276-0.2835 0.0000 ( 49985 PWs)   bands (ev):

   -67.5498 -67.5348 -34.5057 -34.4344 -34.2352 -34.0834 -33.9234 -33.8310
   -19.2469 -19.2389 -19.2326 -19.2281 -19.2256 -19.2141 -19.2132 -19.2057
   -19.1967 -19.1909 -19.1612 -19.1580 -19.1522 -19.1499 -11.2412  -6.7867
    -5.1694  -4.7618  -4.0121  -3.0253  -1.8147   0.8394   1.5792   2.0245
     3.6523   3.9486   4.7802   6.2877

          k = 0.3276-0.1890 0.0000 ( 49934 PWs)   bands (ev):

   -67.5590 -67.5407 -34.4804 -34.3752 -34.2122 -34.0716 -33.8743 -33.7796
   -19.2478 -19.2383 -19.2329 -19.2262 -19.2258 -19.2142 -19.2122 -19.2056
   -19.1989 -19.1917 -19.1592 -19.1562 -19.1551 -19.1523 -11.4450  -6.8478
    -5.3671  -4.6925  -3.6307  -3.2450  -1.9171   1.1274   1.4964   2.0857
     2.6859   3.7792   3.9122   6.0463

          k = 0.3276-0.0945 0.0000 ( 49944 PWs)   bands (ev):

   -67.5656 -67.5453 -34.4712 -34.2847 -34.1630 -34.0647 -33.8650 -33.7886
   -19.2453 -19.2360 -19.2354 -19.2279 -19.2218 -19.2154 -19.2123 -19.2055
   -19.2001 -19.1937 -19.1643 -19.1608 -19.1512 -19.1497 -11.5851  -6.6400
    -5.5342  -4.6435  -4.0143  -2.8137  -1.8139   0.5233   0.8093   2.2007
     2.8536   3.4091   4.0780   5.9285

          k = 0.3277 0.0001 0.0000 ( 49937 PWs)   bands (ev):

   -67.5679 -67.5469 -34.4709 -34.2291 -34.1487 -34.0561 -33.8605 -33.8160
   -19.2413 -19.2393 -19.2339 -19.2296 -19.2203 -19.2151 -19.2132 -19.2055
   -19.2003 -19.1947 -19.1662 -19.1625 -19.1497 -19.1494 -11.6341  -6.4249
    -5.6867  -4.6369  -4.2263  -2.5267  -1.6910   0.0703   0.4257   2.2217
     3.0473   3.2062   4.4922   5.7192

          k = 0.3277 0.0946 0.0000 ( 49939 PWs)   bands (ev):

   -67.5655 -67.5452 -34.4712 -34.2851 -34.1631 -34.0649 -33.8652 -33.7886
   -19.2451 -19.2362 -19.2352 -19.2279 -19.2219 -19.2153 -19.2123 -19.2058
   -19.2002 -19.1936 -19.1643 -19.1608 -19.1513 -19.1496 -11.5845  -6.6374
    -5.5318  -4.6473  -4.0172  -2.8212  -1.8135   0.5310   0.8136   2.2053
     2.8538   3.4066   4.0791   5.9242

          k = 0.4096 0.2364 0.0000 ( 49972 PWs)   bands (ev):

   -67.5450 -67.5322 -34.5622 -34.4977 -34.2377 -34.0861 -33.9145 -33.8108
   -19.2498 -19.2403 -19.2334 -19.2278 -19.2263 -19.2136 -19.2118 -19.2060
   -19.1954 -19.1889 -19.1629 -19.1584 -19.1489 -19.1471 -11.1721  -7.0569
    -5.1783  -4.7800  -3.4643  -3.3761  -1.8285   1.5321   1.8287   2.1537
     3.1356   4.3230   5.1300   6.1877

          k = 0.4096 0.3309 0.0000 ( 49998 PWs)   bands (ev):

   -67.5397 -67.5294 -34.5801 -34.5133 -34.2245 -34.1002 -33.9548 -33.8555
   -19.2489 -19.2397 -19.2342 -19.2287 -19.2249 -19.2148 -19.2115 -19.2060
   -19.1948 -19.1890 -19.1666 -19.1620 -19.1451 -19.1438 -11.0623  -6.9695
    -5.0854  -4.7720  -3.7843  -3.2517  -1.6579   1.2049   1.6866   2.2806
     3.9742   4.4370   5.7564   6.2748

          k = 0.4097 0.4254 0.0000 ( 50000 PWs)   bands (ev):

   -67.5347 -67.5273 -34.5401 -34.4747 -34.2060 -34.1457 -34.0211 -33.9533
   -19.2455 -19.2366 -19.2327 -19.2297 -19.2228 -19.2166 -19.2136 -19.2054
   -19.1960 -19.1914 -19.1711 -19.1677 -19.1421 -19.1412 -10.9382  -6.5618
    -4.8994  -4.7359  -4.3133  -3.2837  -1.3158   0.2413   2.2283   2.4794
     4.0530   4.4556   5.5792   6.1270

          k = 0.4097 0.5199 0.0000 ( 50011 PWs)   bands (ev):

   -67.5316 -67.5264 -34.4660 -34.4016 -34.2504 -34.1821 -34.0676 -34.0418
   -19.2427 -19.2325 -19.2302 -19.2285 -19.2236 -19.2186 -19.2169 -19.2034
   -19.1972 -19.1949 -19.1738 -19.1723 -19.1404 -19.1397 -10.8537  -5.9413
    -5.1486  -4.7335  -4.6193  -3.1549  -0.9504  -0.4639   2.5640   2.7784
     3.4969   4.1787   5.1616   6.3249

          k = 0.4097 0.6145 0.0000 ( 50011 PWs)   bands (ev):

   -67.5317 -67.5263 -34.4656 -34.4006 -34.2509 -34.1829 -34.0667 -34.0422
   -19.2425 -19.2326 -19.2306 -19.2285 -19.2233 -19.2187 -19.2167 -19.2033
   -19.1971 -19.1950 -19.1737 -19.1724 -19.1404 -19.1397 -10.8542  -5.9418
    -5.1467  -4.7311  -4.6213  -3.1527  -0.9488  -0.4676   2.5600   2.7760
     3.4973   4.1790   5.1623   6.3233

          k = 0.4097 0.7090 0.0000 ( 50008 PWs)   bands (ev):

   -67.5349 -67.5272 -34.5393 -34.4733 -34.2079 -34.1451 -34.0205 -33.9535
   -19.2452 -19.2371 -19.2327 -19.2298 -19.2229 -19.2167 -19.2134 -19.2051
   -19.1960 -19.1914 -19.1710 -19.1678 -19.1421 -19.1412 -10.9395  -6.5626
    -4.8983  -4.7320  -4.3115  -3.2798  -1.3148   0.2351   2.2233   2.4717
     4.0549   4.4521   5.5812   6.1229

          k = 0.4095-0.3308 0.0000 ( 49996 PWs)   bands (ev):

   -67.5399 -67.5294 -34.5792 -34.5117 -34.2263 -34.0990 -33.9547 -33.8554
   -19.2487 -19.2400 -19.2343 -19.2288 -19.2249 -19.2149 -19.2113 -19.2057
   -19.1948 -19.1890 -19.1666 -19.1622 -19.1451 -19.1438 -11.0639  -6.9710
    -5.0864  -4.7669  -3.7766  -3.2484  -1.6578   1.1959   1.6813   2.2722
     3.9721   4.4373   5.7532   6.2747

          k = 0.4095-0.2362 0.0000 ( 49972 PWs)   bands (ev):

   -67.5452 -67.5322 -34.5615 -34.4963 -34.2392 -34.0851 -33.9143 -33.8106
   -19.2497 -19.2405 -19.2337 -19.2280 -19.2262 -19.2137 -19.2116 -19.2057
   -19.1955 -19.1889 -19.1629 -19.1585 -19.1489 -19.1470 -11.1735  -7.0591
    -5.1805  -4.7746  -3.4588  -3.3679  -1.8295   1.5267   1.8123   2.1462
     3.1391   4.3215   5.1295   6.1910

          k = 0.4096-0.1417 0.0000 ( 49981 PWs)   bands (ev):

   -67.5497 -67.5348 -34.5066 -34.4353 -34.2352 -34.0834 -33.9226 -33.8307
   -19.2470 -19.2390 -19.2330 -19.2280 -19.2252 -19.2144 -19.2126 -19.2057
   -19.1969 -19.1909 -19.1612 -19.1580 -19.1522 -19.1499 -11.2400  -6.7881
    -5.1674  -4.7649  -4.0224  -3.0137  -1.8173   0.8378   1.5704   2.0300
     3.6618   3.9494   4.7835   6.2923

          k = 0.4096-0.0472 0.0000 ( 49959 PWs)   bands (ev):

   -67.5522 -67.5363 -34.4669 -34.3548 -34.2292 -34.0825 -33.9449 -33.8861
   -19.2417 -19.2362 -19.2351 -19.2303 -19.2226 -19.2157 -19.2135 -19.2060
   -19.1971 -19.1936 -19.1606 -19.1594 -19.1541 -19.1515 -11.2661  -6.2086
    -5.4665  -4.8074  -4.3904  -2.6462  -1.6876  -0.1792   1.2043   2.1793
     3.6397   4.2191   4.8872   6.3312

          k = 0.4096 0.0473 0.0000 ( 49963 PWs)   bands (ev):

   -67.5521 -67.5363 -34.4670 -34.3553 -34.2289 -34.0826 -33.9452 -33.8860
   -19.2418 -19.2360 -19.2348 -19.2305 -19.2226 -19.2155 -19.2137 -19.2061
   -19.1971 -19.1935 -19.1606 -19.1593 -19.1541 -19.1516 -11.2657  -6.2055
    -5.4689  -4.8080  -4.3916  -2.6508  -1.6879  -0.1740   1.2066   2.1814
     3.6397   4.2181   4.8884   6.3293

          k = 0.4096 0.1419 0.0000 ( 49985 PWs)   bands (ev):

   -67.5495 -67.5348 -34.5070 -34.4363 -34.2342 -34.0840 -33.9229 -33.8308
   -19.2471 -19.2388 -19.2327 -19.2280 -19.2254 -19.2142 -19.2128 -19.2061
   -19.1969 -19.1909 -19.1612 -19.1579 -19.1522 -19.1499 -11.2390  -6.7853
    -5.1655  -4.7697  -4.0256  -3.0228  -1.8167   0.8484   1.5758   2.0362
     3.6614   3.9495   4.7833   6.2882

          k =-0.4915-0.2837 0.0000 ( 49996 PWs)   bands (ev):

   -67.5396 -67.5294 -34.6094 -34.5406 -34.2265 -34.0944 -33.9290 -33.8223
   -19.2508 -19.2407 -19.2353 -19.2286 -19.2254 -19.2145 -19.2102 -19.2062
   -19.1940 -19.1878 -19.1657 -19.1604 -19.1450 -19.1438 -11.0821  -7.1551
    -5.1723  -4.8058  -3.4265  -3.2909  -1.7654   1.4260   2.0953   2.3332
     3.1927   4.7992   5.7718   6.3351

          k =-0.4915-0.1891 0.0000 ( 49994 PWs)   bands (ev):

   -67.5396 -67.5294 -34.5803 -34.5135 -34.2244 -34.1002 -33.9547 -33.8554
   -19.2489 -19.2397 -19.2343 -19.2285 -19.2249 -19.2148 -19.2115 -19.2061
   -19.1948 -19.1890 -19.1666 -19.1620 -19.1451 -19.1438 -11.0620  -6.9699
    -5.0855  -4.7721  -3.7881  -3.2473  -1.6587   1.2041   1.6869   2.2799
     3.9753   4.4359   5.7570   6.2755

          k =-0.4915-0.0946 0.0000 ( 49991 PWs)   bands (ev):

   -67.5397 -67.5294 -34.5129 -34.4456 -34.2250 -34.1182 -34.0044 -33.9349
   -19.2445 -19.2365 -19.2338 -19.2272 -19.2250 -19.2159 -19.2141 -19.2056
   -19.1959 -19.1922 -19.1683 -19.1655 -19.1454 -19.1439 -11.0215  -6.4503
    -4.9316  -4.8721  -4.4116  -3.0326  -1.4562   0.0384   1.9847   2.3256
     3.8248   4.5410   5.4238   6.3672

          k =-0.4915-0.0001 0.0000 ( 50011 PWs)   bands (ev):

   -67.5398 -67.5294 -34.4742 -34.3905 -34.2481 -34.1157 -34.0340 -33.9846
   -19.2415 -19.2352 -19.2307 -19.2301 -19.2250 -19.2163 -19.2153 -19.2051
   -19.1953 -19.1951 -19.1687 -19.1678 -19.1456 -19.1440 -11.0013  -5.7716
    -5.6041  -4.7481  -4.5383  -2.8551  -1.2645  -0.5929   1.8950   2.4627
     3.6657   4.5873   5.2474   6.6436

          k =-0.4915 0.0944 0.0000 ( 49989 PWs)   bands (ev):

   -67.5398 -67.5294 -34.5125 -34.4446 -34.2261 -34.1179 -34.0038 -33.9352
   -19.2442 -19.2369 -19.2341 -19.2273 -19.2248 -19.2161 -19.2138 -19.2053
   -19.1959 -19.1922 -19.1682 -19.1657 -19.1454 -19.1439 -11.0223  -6.4522
    -4.9285  -4.8712  -4.4108  -3.0266  -1.4557   0.0315   1.9796   2.3211
     3.8242   4.5431   5.4232   6.3618

          k =-0.4915 0.1890 0.0000 ( 49998 PWs)   bands (ev):

   -67.5398 -67.5294 -34.5796 -34.5121 -34.2262 -34.0991 -33.9544 -33.8553
   -19.2487 -19.2400 -19.2345 -19.2287 -19.2248 -19.2149 -19.2112 -19.2057
   -19.1949 -19.1890 -19.1666 -19.1622 -19.1451 -19.1438 -11.0634  -6.9717
    -5.0866  -4.7672  -3.7842  -3.2397  -1.6593   1.1946   1.6815   2.2710
     3.9743   4.4356   5.7540   6.2756

          k =-0.4916-0.8508 0.0000 ( 50000 PWs)   bands (ev):

   -67.5399 -67.5294 -34.6086 -34.5391 -34.2285 -34.0930 -33.9287 -33.8221
   -19.2507 -19.2409 -19.2355 -19.2288 -19.2254 -19.2146 -19.2099 -19.2058
   -19.1940 -19.1877 -19.1657 -19.1606 -19.1450 -19.1438 -11.0837  -7.1569
    -5.1737  -4.8005  -3.4185  -3.2853  -1.7668   1.4204   2.0794   2.3240
     3.1967   4.7982   5.7678   6.3379

     the Fermi energy is     0.8293 ev

!    total energy              =   -1375.70116988 Ry
     estimated scf accuracy    <          1.4E-13 Ry
     smearing contrib. (-TS)   =      -0.00000368 Ry
     internal energy E=F+TS    =   -1375.70116620 Ry

     The total energy is F=E-TS. E is the sum of the following terms:
     one-electron contribution =  -11616.53223145 Ry
     hartree contribution      =    5838.41251800 Ry
     xc contribution           =    -140.31296348 Ry
     ewald contribution        =    4542.73151073 Ry

     convergence has been achieved in  19 iterations

     negative rho (up, down):  1.676E-04 0.000E+00

     Forces acting on atoms (cartesian axes, Ry/au):

     atom    1 type  2   force =    -0.00045442    0.00025783   -0.00000141
     atom    2 type  1   force =     0.00003876    0.00027296   -0.00018779
     atom    3 type  1   force =     0.00009899   -0.00034859    0.00018839
     atom    4 type  3   force =     0.00026932   -0.00055415   -0.00005867
     atom    5 type  3   force =     0.00004735    0.00037195    0.00005947

     Total force =     0.001038     Total SCF correction =     0.000003


     Computing stress (Cartesian axis) and pressure


     negative rho (up, down):  1.676E-04 0.000E+00
          total   stress  (Ry/bohr**3)                   (kbar)     P=        0.14
   0.00000017   0.00000012   0.00000076            0.02        0.02        0.11
   0.00000012   0.00000294  -0.00000378            0.02        0.43       -0.56
   0.00000076  -0.00000378  -0.00000035            0.11       -0.56       -0.05


     Writing output data file /scratch/as3359/Ta2CH2-VCrelax/Ta.save/
 
     init_run     :     51.17s CPU     28.14s WALL (       1 calls)
     electrons    :   2107.85s CPU   1072.67s WALL (       1 calls)
     forces       :     15.43s CPU      7.94s WALL (       1 calls)
     stress       :     73.59s CPU     37.69s WALL (       1 calls)

     Called by init_run:
     wfcinit      :     40.61s CPU     20.99s WALL (       1 calls)
     potinit      :      2.95s CPU      1.49s WALL (       1 calls)
     hinit0       :      5.72s CPU      4.36s WALL (       1 calls)

     Called by electrons:
     c_bands      :   1730.35s CPU    873.75s WALL (      19 calls)
     sum_band     :    338.06s CPU    174.90s WALL (      19 calls)
     v_of_rho     :      5.90s CPU      3.21s WALL (      20 calls)
     newd         :     32.67s CPU     20.39s WALL (      20 calls)
     mix_rho      :      2.36s CPU      1.32s WALL (      19 calls)

     Called by c_bands:
     init_us_2    :     41.80s CPU     20.93s WALL (    3034 calls)
     cegterg      :   1609.49s CPU    812.84s WALL (    1406 calls)

     Called by *egterg:
     cdiaghg      :     16.44s CPU      8.41s WALL (    7219 calls)
     h_psi        :   1314.34s CPU    664.94s WALL (    7293 calls)
     s_psi        :     63.85s CPU     31.96s WALL (    7293 calls)
     g_psi        :      7.43s CPU      3.72s WALL (    5813 calls)

     Called by h_psi:
     h_psi:calbec :     51.08s CPU     25.60s WALL (    7293 calls)
     vloc_psi     :   1184.97s CPU    599.96s WALL (    7293 calls)
     add_vuspsi   :     67.79s CPU     33.94s WALL (    7293 calls)

     General routines
     calbec       :     70.59s CPU     35.38s WALL (    9069 calls)
     fft          :      6.00s CPU      3.07s WALL (     245 calls)
     ffts         :      0.22s CPU      0.11s WALL (      19 calls)
     fftw         :   1230.00s CPU    623.25s WALL (  302354 calls)
 
     Parallel routines
 
     PWSCF        :  37m34.36s CPU  19m12.25s WALL

 
   This run was terminated on:  17:44:34   7Apr2022            

=------------------------------------------------------------------------------=
   JOB DONE.
=------------------------------------------------------------------------------=
