
     Program PWSCF v.6.8 starts on  7Apr2022 at 14:26: 1 

     This program is part of the open-source Quantum ESPRESSO suite
     for quantum simulation of materials; please cite
         "P. Giannozzi et al., J. Phys.:Condens. Matter 21 395502 (2009);
         "P. Giannozzi et al., J. Phys.:Condens. Matter 29 465901 (2017);
         "P. Giannozzi et al., J. Chem. Phys. 152 154105 (2020);
          URL http://www.quantum-espresso.org", 
     in publications or presentations arising from this work. More details at
     http://www.quantum-espresso.org/quote

     Parallel version (MPI & OpenMP), running on       4 processor cores
     Number of MPI processes:                 2
     Threads/MPI process:                     2

     MPI processes distributed on     1 nodes
     R & G space division:  proc/nbgrp/npool/nimage =       2
     124504 MiB available memory on the printing compute node when the environment starts
 
     Reading input from Ta2CH2.scf.80.in

     Current dimensions of program PWSCF are:
     Max number of different atomic species (ntypx) = 10
     Max number of k-points (npk) =  40000
     Max angular momentum in pseudopotentials (lmaxx) =  4
     file Ta.pbesol-spfn-rrkjus_psl.1.0.0.UPF: wavefunction(s)  5S 5P renormalized

     Subspace diagonalization in iterative solution of the eigenvalue problem:
     a serial algorithm will be used

 
     Parallelization info
     --------------------
     sticks:   dense  smooth     PW     G-vecs:    dense   smooth      PW
     Min         351     351    111                73999    73999   13086
     Max         352     352    112                74016    74016   13093
     Sum         703     703    223               148015   148015   26179
 
     Using Slab Decomposition
 


     bravais-lattice index     =            0
     lattice parameter (alat)  =       5.5500  a.u.
     unit-cell volume          =    1533.2393 (a.u.)^3
     number of atoms/cell      =            5
     number of atomic types    =            3
     number of electrons       =        60.00
     number of Kohn-Sham states=           36
     kinetic-energy cutoff     =      80.0000  Ry
     charge density cutoff     =     320.0000  Ry
     scf convergence threshold =      1.0E-12
     mixing beta               =       0.7000
     number of iterations used =            8  plain     mixing
     Exchange-correlation= PBESOL
                           (   1   4  10   8   0   0   0)

     celldm(1)=   5.550000  celldm(2)=   0.000000  celldm(3)=   0.000000
     celldm(4)=   0.000000  celldm(5)=   0.000000  celldm(6)=   0.000000

     crystal axes: (cart. coord. in units of alat)
               a(1) = (   1.017295  -0.000177   0.000000 )  
               a(2) = (  -0.508801   0.881714   0.000000 )  
               a(3) = (   0.000000   0.000000  10.000000 )  

     reciprocal axes: (cart. coord. in units 2 pi/alat)
               b(1) = (  0.983098  0.567305  0.000000 )  
               b(2) = (  0.000198  1.134269  0.000000 )  
               b(3) = (  0.000000  0.000000  0.100000 )  


     PseudoPot. # 1 for Ta read from file:
     /shared/home/as3359/pseudo/Ta.pbesol-spfn-rrkjus_psl.1.0.0.UPF
     MD5 check sum: f099565ffaca9b150a52e9412a28e20b
     Pseudo is Ultrasoft + core correction, Zval = 27.0
     Generated using &quot;atomic&quot; code by A. Dal Corso  v.6.3
     Using radial grid of 1273 points,  8 beta functions with: 
                l(1) =   0
                l(2) =   0
                l(3) =   1
                l(4) =   1
                l(5) =   2
                l(6) =   2
                l(7) =   3
                l(8) =   3
     Q(r) pseudized with 0 coefficients 


     PseudoPot. # 2 for C  read from file:
     /shared/home/as3359/pseudo/C.pbesol-n-rrkjus_psl.1.0.0.UPF
     MD5 check sum: 05995be603a8a7c99da3dc4413f31573
     Pseudo is Ultrasoft + core correction, Zval =  4.0
     Generated using &quot;atomic&quot; code by A. Dal Corso  v.6.3MaX
     Using radial grid of 1073 points,  4 beta functions with: 
                l(1) =   0
                l(2) =   0
                l(3) =   1
                l(4) =   1
     Q(r) pseudized with 0 coefficients 


     PseudoPot. # 3 for H  read from file:
     /shared/home/as3359/pseudo/H.pbesol-rrkjus_psl.0.1.UPF
     MD5 check sum: 1dbb1a5c48b1283557b8117eb856a7ca
     Pseudo is Ultrasoft, Zval =  1.0
     Generated using "atomic" code by A. Dal Corso  v.5.0.2 svn rev. 9415
     Using radial grid of  929 points,  2 beta functions with: 
                l(1) =   0
                l(2) =   0
     Q(r) pseudized with 0 coefficients 


     atomic species   valence    mass     pseudopotential
        Ta            27.00   180.94788     Ta( 1.00)
        C              4.00    12.01070     C ( 1.00)
        H              1.00     1.00000     H ( 1.00)

     No symmetry found



   Cartesian axes

     site n.     atom                  positions (alat units)
         1           C   tau(   1) = (   0.0000000   0.0000000   0.0000000  )
         2           Ta  tau(   2) = (   0.5088008   0.2948413  -0.4364511  )
         3           Ta  tau(   3) = (  -0.0007447   0.5869407   0.4364532  )
         4           H   tau(   4) = (  -0.0017928  -0.0015314   0.8341930  )
         5           H   tau(   5) = (   0.0002769   0.0024412  -0.8341930  )

     number of k points=    74  Marzari-Vanderbilt smearing, width (Ry)=  0.0010
                       cart. coord. in units 2pi/alat
        k(    1) = (   0.0000000   0.0000000   0.0000000), wk =   0.0138889
        k(    2) = (   0.0000165   0.0945224   0.0000000), wk =   0.0277778
        k(    3) = (   0.0000329   0.1890448   0.0000000), wk =   0.0277778
        k(    4) = (   0.0000494   0.2835672   0.0000000), wk =   0.0277778
        k(    5) = (   0.0000659   0.3780896   0.0000000), wk =   0.0277778
        k(    6) = (   0.0000823   0.4726120   0.0000000), wk =   0.0277778
        k(    7) = (  -0.0000988  -0.5671343   0.0000000), wk =   0.0138889
        k(    8) = (   0.0819248   0.0472755   0.0000000), wk =   0.0277778
        k(    9) = (   0.0819413   0.1417978   0.0000000), wk =   0.0277778
        k(   10) = (   0.0819577   0.2363202   0.0000000), wk =   0.0277778
        k(   11) = (   0.0819742   0.3308426   0.0000000), wk =   0.0277778
        k(   12) = (   0.0819907   0.4253650   0.0000000), wk =   0.0277778
        k(   13) = (   0.0820071   0.5198874   0.0000000), wk =   0.0277778
        k(   14) = (   0.0818260  -0.5198589   0.0000000), wk =   0.0277778
        k(   15) = (   0.0818425  -0.4253365   0.0000000), wk =   0.0277778
        k(   16) = (   0.0818590  -0.3308141   0.0000000), wk =   0.0277778
        k(   17) = (   0.0818754  -0.2362917   0.0000000), wk =   0.0277778
        k(   18) = (   0.0818919  -0.1417693   0.0000000), wk =   0.0277778
        k(   19) = (   0.0819084  -0.0472469   0.0000000), wk =   0.0277778
        k(   20) = (   0.1638496   0.0945509   0.0000000), wk =   0.0277778
        k(   21) = (   0.1638661   0.1890733   0.0000000), wk =   0.0277778
        k(   22) = (   0.1638826   0.2835957   0.0000000), wk =   0.0277778
        k(   23) = (   0.1638990   0.3781181   0.0000000), wk =   0.0277778
        k(   24) = (   0.1639155   0.4726405   0.0000000), wk =   0.0277778
        k(   25) = (   0.1639319   0.5671629   0.0000000), wk =   0.0277778
        k(   26) = (   0.1637508  -0.4725834   0.0000000), wk =   0.0277778
        k(   27) = (   0.1637673  -0.3780610   0.0000000), wk =   0.0277778
        k(   28) = (   0.1637838  -0.2835386   0.0000000), wk =   0.0277778
        k(   29) = (   0.1638002  -0.1890163   0.0000000), wk =   0.0277778
        k(   30) = (   0.1638167  -0.0944939   0.0000000), wk =   0.0277778
        k(   31) = (   0.1638332   0.0000285   0.0000000), wk =   0.0277778
        k(   32) = (   0.2457744   0.1418264   0.0000000), wk =   0.0277778
        k(   33) = (   0.2457909   0.2363488   0.0000000), wk =   0.0277778
        k(   34) = (   0.2458074   0.3308711   0.0000000), wk =   0.0277778
        k(   35) = (   0.2458238   0.4253935   0.0000000), wk =   0.0277778
        k(   36) = (   0.2458403   0.5199159   0.0000000), wk =   0.0277778
        k(   37) = (   0.2458568   0.6144383   0.0000000), wk =   0.0277778
        k(   38) = (   0.2456757  -0.4253080   0.0000000), wk =   0.0277778
        k(   39) = (   0.2456921  -0.3307856   0.0000000), wk =   0.0277778
        k(   40) = (   0.2457086  -0.2362632   0.0000000), wk =   0.0277778
        k(   41) = (   0.2457251  -0.1417408   0.0000000), wk =   0.0277778
        k(   42) = (   0.2457415  -0.0472184   0.0000000), wk =   0.0277778
        k(   43) = (   0.2457580   0.0473040   0.0000000), wk =   0.0277778
        k(   44) = (   0.3276993   0.1891018   0.0000000), wk =   0.0277778
        k(   45) = (   0.3277157   0.2836242   0.0000000), wk =   0.0277778
        k(   46) = (   0.3277322   0.3781466   0.0000000), wk =   0.0277778
        k(   47) = (   0.3277486   0.4726690   0.0000000), wk =   0.0277778
        k(   48) = (   0.3277651   0.5671914   0.0000000), wk =   0.0277778
        k(   49) = (   0.3277816   0.6617138   0.0000000), wk =   0.0277778
        k(   50) = (   0.3276005  -0.3780325   0.0000000), wk =   0.0277778
        k(   51) = (   0.3276169  -0.2835101   0.0000000), wk =   0.0277778
        k(   52) = (   0.3276334  -0.1889877   0.0000000), wk =   0.0277778
        k(   53) = (   0.3276499  -0.0944653   0.0000000), wk =   0.0277778
        k(   54) = (   0.3276663   0.0000570   0.0000000), wk =   0.0277778
        k(   55) = (   0.3276828   0.0945794   0.0000000), wk =   0.0277778
        k(   56) = (   0.4096241   0.2363773   0.0000000), wk =   0.0277778
        k(   57) = (   0.4096405   0.3308997   0.0000000), wk =   0.0277778
        k(   58) = (   0.4096570   0.4254221   0.0000000), wk =   0.0277778
        k(   59) = (   0.4096735   0.5199445   0.0000000), wk =   0.0277778
        k(   60) = (   0.4096899   0.6144668   0.0000000), wk =   0.0277778
        k(   61) = (   0.4097064   0.7089892   0.0000000), wk =   0.0277778
        k(   62) = (   0.4095253  -0.3307571   0.0000000), wk =   0.0277778
        k(   63) = (   0.4095418  -0.2362347   0.0000000), wk =   0.0277778
        k(   64) = (   0.4095582  -0.1417123   0.0000000), wk =   0.0277778
        k(   65) = (   0.4095747  -0.0471899   0.0000000), wk =   0.0277778
        k(   66) = (   0.4095911   0.0473325   0.0000000), wk =   0.0277778
        k(   67) = (   0.4096076   0.1418549   0.0000000), wk =   0.0277778
        k(   68) = (  -0.4915489  -0.2836527   0.0000000), wk =   0.0138889
        k(   69) = (  -0.4915324  -0.1891303   0.0000000), wk =   0.0277778
        k(   70) = (  -0.4915160  -0.0946080   0.0000000), wk =   0.0277778
        k(   71) = (  -0.4914995  -0.0000856   0.0000000), wk =   0.0277778
        k(   72) = (  -0.4914830   0.0944368   0.0000000), wk =   0.0277778
        k(   73) = (  -0.4914666   0.1889592   0.0000000), wk =   0.0277778
        k(   74) = (  -0.4916477  -0.8507871   0.0000000), wk =   0.0138889

     Dense  grid:   148015 G-vectors     FFT dimensions: (  36,  36, 320)

     Estimated max dynamical RAM per process >       1.08 GB

     Estimated total dynamical RAM >       2.17 GB

     Check: negative core charge=   -0.000002

     Initial potential from superposition of free atoms

     starting charge   59.99840, renormalised to   60.00000

     negative rho (up, down):  1.446E-03 0.000E+00
     Starting wfcs are   40 randomized atomic wfcs

     total cpu time spent up to now is       10.2 secs

     Self-consistent Calculation

     iteration #  1     ecut=    80.00 Ry     beta= 0.70
     Davidson diagonalization with overlap
     ethr =  1.00E-02,  avg # of iterations =  2.0

     negative rho (up, down):  1.108E-03 0.000E+00

     total cpu time spent up to now is       27.6 secs

     total energy              =   -1375.11866590 Ry
     estimated scf accuracy    <       1.05024877 Ry

     iteration #  2     ecut=    80.00 Ry     beta= 0.70
     Davidson diagonalization with overlap
     ethr =  1.75E-03,  avg # of iterations =  7.6

     negative rho (up, down):  1.710E-04 0.000E+00

     total cpu time spent up to now is       52.3 secs

     total energy              =   -1374.69264331 Ry
     estimated scf accuracy    <       5.51893693 Ry

     iteration #  3     ecut=    80.00 Ry     beta= 0.70
     Davidson diagonalization with overlap
     ethr =  1.75E-03,  avg # of iterations =  4.9

     negative rho (up, down):  2.689E-04 0.000E+00

     total cpu time spent up to now is       74.0 secs

     total energy              =   -1375.66444909 Ry
     estimated scf accuracy    <       0.23657990 Ry

     iteration #  4     ecut=    80.00 Ry     beta= 0.70
     Davidson diagonalization with overlap
     ethr =  3.94E-04,  avg # of iterations =  2.4

     negative rho (up, down):  4.932E-04 0.000E+00

     total cpu time spent up to now is       91.8 secs

     total energy              =   -1375.69432979 Ry
     estimated scf accuracy    <       0.02385229 Ry

     iteration #  5     ecut=    80.00 Ry     beta= 0.70
     Davidson diagonalization with overlap
     c_bands:  1 eigenvalues not converged
     ethr =  3.98E-05,  avg # of iterations = 11.1

     negative rho (up, down):  5.734E-04 0.000E+00

     total cpu time spent up to now is      117.4 secs

     total energy              =   -1375.69245601 Ry
     estimated scf accuracy    <       0.03910088 Ry

     iteration #  6     ecut=    80.00 Ry     beta= 0.70
     Davidson diagonalization with overlap
     c_bands:  1 eigenvalues not converged
     c_bands:  1 eigenvalues not converged
     ethr =  3.98E-05,  avg # of iterations = 11.3

     negative rho (up, down):  8.139E-04 0.000E+00

     total cpu time spent up to now is      139.3 secs

     total energy              =   -1375.69494272 Ry
     estimated scf accuracy    <       0.05112430 Ry

     iteration #  7     ecut=    80.00 Ry     beta= 0.70
     Davidson diagonalization with overlap
     ethr =  3.98E-05,  avg # of iterations =  5.4

     negative rho (up, down):  1.031E-03 0.000E+00

     total cpu time spent up to now is      156.9 secs

     total energy              =   -1375.69795862 Ry
     estimated scf accuracy    <       0.00027035 Ry

     iteration #  8     ecut=    80.00 Ry     beta= 0.70
     Davidson diagonalization with overlap
     c_bands:  1 eigenvalues not converged
     c_bands:  1 eigenvalues not converged
     c_bands:  1 eigenvalues not converged
     c_bands:  1 eigenvalues not converged
     c_bands:  1 eigenvalues not converged
     c_bands:  1 eigenvalues not converged
     c_bands:  1 eigenvalues not converged
     c_bands:  1 eigenvalues not converged
     c_bands:  1 eigenvalues not converged
     c_bands:  1 eigenvalues not converged
     ethr =  4.51E-07,  avg # of iterations = 12.3

     negative rho (up, down):  1.147E-03 0.000E+00

     total cpu time spent up to now is      183.2 secs

     total energy              =   -1375.69804438 Ry
     estimated scf accuracy    <       0.00004233 Ry

     iteration #  9     ecut=    80.00 Ry     beta= 0.70
     Davidson diagonalization with overlap
     c_bands:  1 eigenvalues not converged
     ethr =  7.05E-08,  avg # of iterations =  2.9

     negative rho (up, down):  1.165E-03 0.000E+00

     total cpu time spent up to now is      200.5 secs

     total energy              =   -1375.69805100 Ry
     estimated scf accuracy    <       0.00000588 Ry

     iteration # 10     ecut=    80.00 Ry     beta= 0.70
     Davidson diagonalization with overlap
     ethr =  9.80E-09,  avg # of iterations =  2.0

     negative rho (up, down):  1.170E-03 0.000E+00

     total cpu time spent up to now is      218.4 secs

     total energy              =   -1375.69805160 Ry
     estimated scf accuracy    <       0.00000078 Ry

     iteration # 11     ecut=    80.00 Ry     beta= 0.70
     Davidson diagonalization with overlap
     ethr =  1.30E-09,  avg # of iterations =  2.6

     negative rho (up, down):  1.169E-03 0.000E+00

     total cpu time spent up to now is      237.6 secs

     total energy              =   -1375.69805171 Ry
     estimated scf accuracy    <       0.00000014 Ry

     iteration # 12     ecut=    80.00 Ry     beta= 0.70
     Davidson diagonalization with overlap
     ethr =  2.31E-10,  avg # of iterations =  2.7

     negative rho (up, down):  1.169E-03 0.000E+00

     total cpu time spent up to now is      256.8 secs

     total energy              =   -1375.69805174 Ry
     estimated scf accuracy    <       0.00000004 Ry

     iteration # 13     ecut=    80.00 Ry     beta= 0.70
     Davidson diagonalization with overlap
     ethr =  6.29E-11,  avg # of iterations =  2.0

     negative rho (up, down):  1.169E-03 0.000E+00

     total cpu time spent up to now is      273.7 secs

     total energy              =   -1375.69805174 Ry
     estimated scf accuracy    <          6.3E-09 Ry

     iteration # 14     ecut=    80.00 Ry     beta= 0.70
     Davidson diagonalization with overlap
     ethr =  1.06E-11,  avg # of iterations =  4.4

     negative rho (up, down):  1.169E-03 0.000E+00

     total cpu time spent up to now is      292.4 secs

     total energy              =   -1375.69805174 Ry
     estimated scf accuracy    <          5.0E-10 Ry

     iteration # 15     ecut=    80.00 Ry     beta= 0.70
     Davidson diagonalization with overlap
     ethr =  8.25E-13,  avg # of iterations =  2.2

     negative rho (up, down):  1.169E-03 0.000E+00

     total cpu time spent up to now is      309.5 secs

     total energy              =   -1375.69805174 Ry
     estimated scf accuracy    <          1.2E-10 Ry

     iteration # 16     ecut=    80.00 Ry     beta= 0.70
     Davidson diagonalization with overlap
     ethr =  2.07E-13,  avg # of iterations =  3.7

     negative rho (up, down):  1.169E-03 0.000E+00

     total cpu time spent up to now is      327.3 secs

     total energy              =   -1375.69805174 Ry
     estimated scf accuracy    <          1.5E-10 Ry

     iteration # 17     ecut=    80.00 Ry     beta= 0.70
     Davidson diagonalization with overlap
     ethr =  2.07E-13,  avg # of iterations =  1.2

     negative rho (up, down):  1.169E-03 0.000E+00

     total cpu time spent up to now is      342.5 secs

     total energy              =   -1375.69805174 Ry
     estimated scf accuracy    <          1.7E-11 Ry

     iteration # 18     ecut=    80.00 Ry     beta= 0.70
     Davidson diagonalization with overlap
     ethr =  1.00E-13,  avg # of iterations =  1.4

     negative rho (up, down):  1.169E-03 0.000E+00

     total cpu time spent up to now is      357.8 secs

     total energy              =   -1375.69805174 Ry
     estimated scf accuracy    <          1.9E-12 Ry

     iteration # 19     ecut=    80.00 Ry     beta= 0.70
     Davidson diagonalization with overlap
     ethr =  1.00E-13,  avg # of iterations =  1.0

     negative rho (up, down):  1.169E-03 0.000E+00

     total cpu time spent up to now is      372.7 secs

     End of self-consistent calculation

          k = 0.0000 0.0000 0.0000 ( 18299 PWs)   bands (ev):

   -67.6139 -67.5824 -34.5987 -34.1153 -33.7004 -33.6990 -33.6603 -33.6601
   -19.2620 -19.2480 -19.2289 -19.2284 -19.2282 -19.2281 -19.2071 -19.2071
   -19.2059 -19.2052 -19.2046 -19.1984 -19.1245 -19.1238 -12.8556  -8.3534
    -5.2572  -3.4750  -3.2188  -3.2040  -1.2356   0.3171   0.3371   2.4892
     2.5010   2.9030   2.9359   3.4820

          k = 0.0000 0.0945 0.0000 ( 18374 PWs)   bands (ev):

   -67.6095 -67.5788 -34.5838 -34.1141 -33.7594 -33.7175 -33.7171 -33.6696
   -19.2603 -19.2473 -19.2300 -19.2285 -19.2283 -19.2269 -19.2093 -19.2073
   -19.2060 -19.2051 -19.2011 -19.1952 -19.1279 -19.1273 -12.7163  -8.1348
    -5.3223  -3.5533  -3.3911  -3.1629  -1.0640  -0.0577   0.5474   1.8762
     2.1853   2.9267   3.2998   4.1785

          k = 0.0000 0.1890 0.0000 ( 18430 PWs)   bands (ev):

   -67.5971 -67.5692 -34.5437 -34.1179 -33.9150 -33.8681 -33.7619 -33.6978
   -19.2562 -19.2457 -19.2339 -19.2287 -19.2279 -19.2231 -19.2144 -19.2079
   -19.2074 -19.2035 -19.1915 -19.1862 -19.1370 -19.1365 -12.3463  -7.5561
    -5.4895  -4.0358  -3.4674  -3.0985  -1.0115  -0.4111   1.1311   1.3071
     2.0957   2.7865   3.6396   4.8315

          k = 0.0000 0.2836 0.0000 ( 18468 PWs)   bands (ev):

   -67.5798 -67.5562 -34.4939 -34.1956 -34.0682 -34.0430 -33.8196 -33.7385
   -19.2529 -19.2428 -19.2391 -19.2298 -19.2277 -19.2194 -19.2189 -19.2099
   -19.2069 -19.2007 -19.1781 -19.1739 -19.1491 -19.1478 -11.8729  -6.9331
    -5.6188  -4.4679  -3.5668  -3.1203  -1.6576   0.3090   1.1508   1.8908
     2.4988   2.6820   3.7562   5.4501

          k = 0.0001 0.3781 0.0000 ( 18538 PWs)   bands (ev):

   -67.5620 -67.5436 -34.4814 -34.3757 -34.2136 -34.0724 -33.8752 -33.7804
   -19.2534 -19.2436 -19.2385 -19.2317 -19.2310 -19.2193 -19.2177 -19.2107
   -19.2043 -19.1973 -19.1646 -19.1615 -19.1605 -19.1578 -11.4487  -6.8526
    -5.3744  -4.6874  -3.6269  -3.2370  -1.9208   1.1140   1.4851   2.0711
     2.6857   3.7787   3.9134   6.0403

          k = 0.0001 0.4726 0.0000 ( 18546 PWs)   bands (ev):

   -67.5483 -67.5350 -34.5616 -34.4967 -34.2419 -34.0853 -33.9151 -33.8114
   -19.2552 -19.2459 -19.2393 -19.2335 -19.2315 -19.2191 -19.2165 -19.2106
   -19.2009 -19.1944 -19.1683 -19.1641 -19.1543 -19.1524 -11.1777  -7.0630
    -5.1856  -4.7696  -3.4556  -3.3597  -1.8340   1.5194   1.7888   2.1358
     3.1426   4.3171   5.1269   6.1937

          k =-0.0001-0.5671 0.0000 ( 18578 PWs)   bands (ev):

   -67.5430 -67.5322 -34.6087 -34.5393 -34.2318 -34.0928 -33.9295 -33.8228
   -19.2561 -19.2464 -19.2410 -19.2343 -19.2308 -19.2199 -19.2148 -19.2108
   -19.1995 -19.1933 -19.1711 -19.1662 -19.1504 -19.1492 -11.0881  -7.1601
    -5.1777  -4.7957  -3.4098  -3.2833  -1.7718   1.4129   2.0561   2.3126
     3.2006   4.7949   5.7605   6.3401

          k = 0.0819 0.0473 0.0000 ( 18372 PWs)   bands (ev):

   -67.6094 -67.5788 -34.5838 -34.1142 -33.7605 -33.7172 -33.7165 -33.6697
   -19.2603 -19.2473 -19.2301 -19.2286 -19.2283 -19.2267 -19.2091 -19.2074
   -19.2066 -19.2045 -19.2011 -19.1952 -19.1279 -19.1273 -12.7161  -8.1345
    -5.3202  -3.5494  -3.3878  -3.1762  -1.0654  -0.0414   0.5311   1.8761
     2.1842   2.9588   3.2842   4.1652

          k = 0.0819 0.1418 0.0000 ( 18434 PWs)   bands (ev):

   -67.6010 -67.5722 -34.5561 -34.1149 -33.8570 -33.8344 -33.7370 -33.6980
   -19.2572 -19.2462 -19.2322 -19.2304 -19.2270 -19.2242 -19.2125 -19.2080
   -19.2073 -19.2038 -19.1945 -19.1891 -19.1342 -19.1337 -12.4611  -7.7302
    -5.4320  -3.8061  -3.6624  -2.9903  -0.7529  -0.6318   0.8700   1.6509
     1.8030   2.9966   3.5681   4.7403

          k = 0.0820 0.2363 0.0000 ( 18482 PWs)   bands (ev):

   -67.5861 -67.5609 -34.5102 -34.1415 -34.0130 -33.9929 -33.7967 -33.7416
   -19.2526 -19.2447 -19.2365 -19.2316 -19.2262 -19.2204 -19.2176 -19.2093
   -19.2075 -19.2019 -19.1831 -19.1784 -19.1447 -19.1443 -12.0381  -7.0718
    -5.5933  -4.3116  -3.8516  -2.7973  -1.3701  -0.1456   0.7411   1.9377
     2.2337   2.7754   3.9406   5.2558

          k = 0.0820 0.3308 0.0000 ( 18527 PWs)   bands (ev):

   -67.5686 -67.5481 -34.4725 -34.2847 -34.1637 -34.0658 -33.8664 -33.7897
   -19.2509 -19.2412 -19.2408 -19.2333 -19.2272 -19.2207 -19.2178 -19.2106
   -19.2054 -19.1992 -19.1696 -19.1661 -19.1566 -19.1551 -11.5888  -6.6442
    -5.5421  -4.6378  -4.0087  -2.8099  -1.8168   0.5076   0.8104   2.1906
     2.8432   3.4072   4.0742   5.8927

          k = 0.0820 0.4254 0.0000 ( 18575 PWs)   bands (ev):

   -67.5527 -67.5377 -34.5067 -34.4355 -34.2372 -34.0840 -33.9237 -33.8317
   -19.2525 -19.2444 -19.2385 -19.2334 -19.2306 -19.2197 -19.2179 -19.2108
   -19.2022 -19.1965 -19.1666 -19.1635 -19.1576 -19.1553 -11.2442  -6.7921
    -5.1734  -4.7592  -4.0154  -3.0115  -1.8197   0.8236   1.5680   2.0166
     3.6555   3.9466   4.7795   6.2931

          k = 0.0820 0.5199 0.0000 ( 18558 PWs)   bands (ev):

   -67.5430 -67.5322 -34.5796 -34.5122 -34.2294 -34.0991 -33.9552 -33.8562
   -19.2541 -19.2456 -19.2400 -19.2342 -19.2302 -19.2203 -19.2162 -19.2107
   -19.2003 -19.1945 -19.1720 -19.1677 -19.1505 -19.1492 -11.0678  -6.9746
    -5.0902  -4.7626  -3.7773  -3.2389  -1.6624   1.1818   1.6741   2.2586
     3.9704   4.4341   5.7472   6.2746

          k = 0.0818-0.5199 0.0000 ( 18562 PWs)   bands (ev):

   -67.5430 -67.5322 -34.5794 -34.5120 -34.2294 -34.0991 -33.9553 -33.8562
   -19.2541 -19.2456 -19.2398 -19.2343 -19.2303 -19.2203 -19.2163 -19.2106
   -19.2002 -19.1945 -19.1720 -19.1677 -19.1505 -19.1492 -11.0680  -6.9743
    -5.0901  -4.7625  -3.7735  -3.2434  -1.6617   1.1823   1.6741   2.2591
     3.9693   4.4347   5.7470   6.2742

          k = 0.0818-0.4253 0.0000 ( 18573 PWs)   bands (ev):

   -67.5528 -67.5377 -34.5063 -34.4351 -34.2371 -34.0841 -33.9241 -33.8318
   -19.2524 -19.2444 -19.2383 -19.2335 -19.2307 -19.2195 -19.2183 -19.2107
   -19.2021 -19.1964 -19.1666 -19.1635 -19.1576 -19.1553 -11.2447  -6.7915
    -5.1743  -4.7579  -4.0104  -3.0173  -1.8186   0.8243   1.5718   2.0144
     3.6511   3.9461   4.7783   6.2913

          k = 0.0819-0.3308 0.0000 ( 18533 PWs)   bands (ev):

   -67.5686 -67.5481 -34.4724 -34.2840 -34.1631 -34.0658 -33.8670 -33.7899
   -19.2509 -19.2411 -19.2408 -19.2332 -19.2272 -19.2208 -19.2181 -19.2105
   -19.2052 -19.1993 -19.1696 -19.1661 -19.1566 -19.1551 -11.5894  -6.6439
    -5.5436  -4.6354  -4.0047  -2.8130  -1.8165   0.5046   0.8165   2.1895
     2.8369   3.4053   4.0733   5.8948

          k = 0.0819-0.2363 0.0000 ( 18479 PWs)   bands (ev):

   -67.5862 -67.5609 -34.5103 -34.1410 -34.0128 -33.9920 -33.7974 -33.7418
   -19.2527 -19.2447 -19.2365 -19.2315 -19.2261 -19.2207 -19.2177 -19.2091
   -19.2074 -19.2021 -19.1830 -19.1784 -19.1447 -19.1443 -12.0386  -7.0722
    -5.5952  -4.3093  -3.8490  -2.7958  -1.3719  -0.1438   0.7382   1.9383
     2.2353   2.7697   3.9362   5.2590

          k = 0.0819-0.1418 0.0000 ( 18434 PWs)   bands (ev):

   -67.6010 -67.5722 -34.5562 -34.1148 -33.8561 -33.8341 -33.7377 -33.6981
   -19.2573 -19.2463 -19.2322 -19.2302 -19.2268 -19.2245 -19.2126 -19.2078
   -19.2071 -19.2042 -19.1945 -19.1890 -19.1342 -19.1337 -12.4614  -7.7306
    -5.4339  -3.8065  -3.6605  -2.9855  -0.7516  -0.6366   0.8725   1.6454
     1.8071   2.9934   3.5620   4.7767

          k = 0.0819-0.0472 0.0000 ( 18370 PWs)   bands (ev):

   -67.6094 -67.5788 -34.5838 -34.1142 -33.7599 -33.7173 -33.7168 -33.6698
   -19.2603 -19.2473 -19.2301 -19.2285 -19.2283 -19.2268 -19.2092 -19.2073
   -19.2063 -19.2048 -19.2011 -19.1952 -19.1279 -19.1273 -12.7162  -8.1347
    -5.3211  -3.5511  -3.3893  -3.1703  -1.0648  -0.0488   0.5385   1.8761
     2.1849   2.9449   3.2903   4.1713

          k = 0.1638 0.0946 0.0000 ( 18432 PWs)   bands (ev):

   -67.5970 -67.5691 -34.5434 -34.1183 -33.9162 -33.8685 -33.7614 -33.6979
   -19.2559 -19.2457 -19.2341 -19.2285 -19.2284 -19.2227 -19.2142 -19.2086
   -19.2076 -19.2030 -19.1915 -19.1863 -19.1370 -19.1365 -12.3456  -7.5550
    -5.4819  -4.0371  -3.4726  -3.1135  -1.0118  -0.3996   1.1184   1.3186
     2.0922   2.8160   3.6287   4.8287

          k = 0.1639 0.1891 0.0000 ( 18483 PWs)   bands (ev):

   -67.5861 -67.5608 -34.5100 -34.1418 -34.0141 -33.9922 -33.7969 -33.7417
   -19.2523 -19.2448 -19.2365 -19.2316 -19.2264 -19.2202 -19.2175 -19.2096
   -19.2077 -19.2017 -19.1831 -19.1785 -19.1447 -19.1442 -12.0376  -7.0708
    -5.5876  -4.3150  -3.8564  -2.8054  -1.3696  -0.1406   0.7484   1.9341
     2.2352   2.7839   3.9381   5.2540

          k = 0.1639 0.2836 0.0000 ( 18506 PWs)   bands (ev):

   -67.5709 -67.5498 -34.4722 -34.2285 -34.1496 -34.0572 -33.8624 -33.8174
   -19.2468 -19.2446 -19.2391 -19.2350 -19.2256 -19.2206 -19.2188 -19.2107
   -19.2056 -19.2002 -19.1715 -19.1678 -19.1551 -19.1548 -11.6376  -6.4277
    -5.6929  -4.6324  -4.2234  -2.5274  -1.6930   0.0582   0.4315   2.2146
     3.0381   3.2002   4.4804   5.7108

          k = 0.1639 0.3781 0.0000 ( 18565 PWs)   bands (ev):

   -67.5552 -67.5392 -34.4674 -34.3543 -34.2309 -34.0836 -33.9465 -33.8876
   -19.2470 -19.2415 -19.2406 -19.2357 -19.2280 -19.2211 -19.2190 -19.2111
   -19.2023 -19.1991 -19.1660 -19.1648 -19.1595 -19.1569 -11.2702  -6.2126
    -5.4690  -4.8038  -4.3858  -2.6485  -1.6865  -0.1900   1.2070   2.1671
     3.6357   4.2091   4.8773   6.3284

          k = 0.1639 0.4726 0.0000 ( 18563 PWs)   bands (ev):

   -67.5429 -67.5322 -34.5122 -34.4445 -34.2288 -34.1189 -34.0047 -33.9365
   -19.2493 -19.2426 -19.2394 -19.2330 -19.2301 -19.2215 -19.2190 -19.2104
   -19.2012 -19.1977 -19.1736 -19.1712 -19.1508 -19.1493 -11.0266  -6.4546
    -4.9306  -4.8687  -4.4060  -3.0282  -1.4561   0.0222   1.9773   2.3083
     3.8243   4.5321   5.4206   6.3534

          k = 0.1639 0.5672 0.0000 ( 18558 PWs)   bands (ev):

   -67.5380 -67.5300 -34.5393 -34.4735 -34.2110 -34.1458 -34.0209 -33.9548
   -19.2503 -19.2429 -19.2381 -19.2354 -19.2283 -19.2221 -19.2184 -19.2102
   -19.2013 -19.1969 -19.1764 -19.1734 -19.1475 -19.1465 -10.9436  -6.5648
    -4.8997  -4.7289  -4.3107  -3.2787  -1.3164   0.2259   2.2164   2.4600
     4.0558   4.4447   5.5809   6.1171

          k = 0.1638-0.4726 0.0000 ( 18563 PWs)   bands (ev):

   -67.5430 -67.5322 -34.5115 -34.4438 -34.2287 -34.1193 -34.0052 -33.9365
   -19.2492 -19.2426 -19.2391 -19.2332 -19.2303 -19.2215 -19.2192 -19.2103
   -19.2012 -19.1976 -19.1736 -19.1712 -19.1508 -19.1492 -11.0273  -6.4535
    -4.9336  -4.8656  -4.4011  -3.0331  -1.4549   0.0228   1.9814   2.3049
     3.8267   4.5223   5.4219   6.3541

          k = 0.1638-0.3781 0.0000 ( 18565 PWs)   bands (ev):

   -67.5552 -67.5392 -34.4668 -34.3530 -34.2306 -34.0838 -33.9474 -33.8878
   -19.2469 -19.2415 -19.2404 -19.2360 -19.2281 -19.2211 -19.2195 -19.2110
   -19.2021 -19.1991 -19.1660 -19.1648 -19.1595 -19.1568 -11.2712  -6.2115
    -5.4715  -4.7995  -4.3811  -2.6533  -1.6844  -0.1920   1.2126   2.1620
     3.6339   4.2021   4.8726   6.3320

          k = 0.1638-0.2835 0.0000 ( 18508 PWs)   bands (ev):

   -67.5710 -67.5498 -34.4722 -34.2271 -34.1491 -34.0571 -33.8632 -33.8177
   -19.2470 -19.2444 -19.2390 -19.2351 -19.2255 -19.2208 -19.2192 -19.2105
   -19.2053 -19.2003 -19.1715 -19.1678 -19.1551 -19.1548 -11.6386  -6.4284
    -5.6959  -4.6273  -4.2187  -2.5268  -1.6928   0.0504   0.4375   2.2114
     3.0325   3.1981   4.4737   5.7191

          k = 0.1638-0.1890 0.0000 ( 18474 PWs)   bands (ev):

   -67.5861 -67.5609 -34.5102 -34.1412 -34.0131 -33.9919 -33.7975 -33.7419
   -19.2525 -19.2448 -19.2365 -19.2315 -19.2262 -19.2206 -19.2176 -19.2092
   -19.2074 -19.2020 -19.1831 -19.1784 -19.1447 -19.1442 -12.0383  -7.0718
    -5.5918  -4.3112  -3.8517  -2.8003  -1.3716  -0.1409   0.7422   1.9364
     2.2360   2.7746   3.9344   5.2582

          k = 0.1638-0.0945 0.0000 ( 18434 PWs)   bands (ev):

   -67.5970 -67.5691 -34.5435 -34.1182 -33.9155 -33.8683 -33.7617 -33.6980
   -19.2560 -19.2457 -19.2341 -19.2285 -19.2282 -19.2229 -19.2143 -19.2082
   -19.2075 -19.2033 -19.1915 -19.1863 -19.1370 -19.1365 -12.3459  -7.5556
    -5.4851  -4.0367  -3.4701  -3.1070  -1.0118  -0.4045   1.1242   1.3135
     2.0938   2.8031   3.6328   4.8292

          k = 0.1638 0.0000 0.0000 ( 18434 PWs)   bands (ev):

   -67.6009 -67.5722 -34.5560 -34.1151 -33.8579 -33.8344 -33.7364 -33.6980
   -19.2571 -19.2462 -19.2323 -19.2304 -19.2270 -19.2241 -19.2125 -19.2082
   -19.2074 -19.2036 -19.1946 -19.1891 -19.1342 -19.1337 -12.4608  -7.7299
    -5.4292  -3.8059  -3.6645  -2.9966  -0.7546  -0.6262   0.8673   1.6589
     1.7976   2.9998   3.5759   4.7490

          k = 0.2458 0.1418 0.0000 ( 18466 PWs)   bands (ev):

   -67.5796 -67.5561 -34.4936 -34.1968 -34.0698 -34.0428 -33.8195 -33.7388
   -19.2524 -19.2429 -19.2393 -19.2295 -19.2283 -19.2194 -19.2185 -19.2105
   -19.2072 -19.2004 -19.1782 -19.1740 -19.1491 -19.1477 -11.8714  -6.9302
    -5.6071  -4.4781  -3.5764  -3.1371  -1.6557   0.3186   1.1695   1.8858
     2.5253   2.6751   3.7486   5.4445

          k = 0.2458 0.2363 0.0000 ( 18525 PWs)   bands (ev):

   -67.5684 -67.5481 -34.4724 -34.2855 -34.1640 -34.0661 -33.8670 -33.7900
   -19.2505 -19.2415 -19.2405 -19.2332 -19.2274 -19.2207 -19.2178 -19.2111
   -19.2055 -19.1990 -19.1696 -19.1662 -19.1566 -19.1549 -11.5876  -6.6395
    -5.5359  -4.6464  -4.0152  -2.8263  -1.8153   0.5252   0.8191   2.2008
     2.8436   3.4015   4.0762   5.8850

          k = 0.2458 0.3309 0.0000 ( 18565 PWs)   bands (ev):

   -67.5551 -67.5392 -34.4676 -34.3549 -34.2305 -34.0837 -33.9472 -33.8875
   -19.2471 -19.2413 -19.2401 -19.2361 -19.2281 -19.2208 -19.2194 -19.2114
   -19.2023 -19.1989 -19.1660 -19.1647 -19.1595 -19.1569 -11.2694  -6.2065
    -5.4738  -4.8050  -4.3886  -2.6581  -1.6869  -0.1787   1.2120   2.1715
     3.6357   4.2067   4.8800   6.3233

          k = 0.2458 0.4254 0.0000 ( 18576 PWs)   bands (ev):

   -67.5428 -67.5322 -34.4741 -34.3897 -34.2509 -34.1170 -34.0357 -33.9858
   -19.2466 -19.2404 -19.2364 -19.2356 -19.2304 -19.2220 -19.2205 -19.2104
   -19.2008 -19.2003 -19.1741 -19.1732 -19.1509 -19.1493 -11.0052  -5.7707
    -5.6070  -4.7482  -4.5355  -2.8607  -1.2624  -0.5991   1.8980   2.4514
     3.6675   4.5696   5.2432   6.6335

          k = 0.2458 0.5199 0.0000 ( 18553 PWs)   bands (ev):

   -67.5347 -67.5291 -34.4653 -34.4005 -34.2534 -34.1851 -34.0679 -34.0432
   -19.2476 -19.2378 -19.2364 -19.2341 -19.2287 -19.2242 -19.2218 -19.2085
   -19.2025 -19.2004 -19.1791 -19.1779 -19.1458 -19.1451 -10.8578  -5.9424
    -5.1470  -4.7303  -4.6230  -3.1548  -0.9483  -0.4741   2.5571   2.7654
     3.5008   4.1673   5.1603   6.3185

          k = 0.2459 0.6144 0.0000 ( 18557 PWs)   bands (ev):

   -67.5348 -67.5291 -34.4645 -34.3998 -34.2535 -34.1858 -34.0691 -34.0422
   -19.2475 -19.2376 -19.2364 -19.2342 -19.2290 -19.2243 -19.2218 -19.2084
   -19.2026 -19.2003 -19.1791 -19.1779 -19.1458 -19.1450 -10.8583  -5.9412
    -5.1470  -4.7303  -4.6209  -3.1564  -0.9478  -0.4740   2.5601   2.7613
     3.5046   4.1595   5.1608   6.3174

          k = 0.2457-0.4253 0.0000 ( 18580 PWs)   bands (ev):

   -67.5429 -67.5322 -34.4729 -34.3879 -34.2515 -34.1176 -34.0367 -33.9855
   -19.2463 -19.2402 -19.2365 -19.2360 -19.2305 -19.2222 -19.2205 -19.2102
   -19.2008 -19.2001 -19.1741 -19.1732 -19.1509 -19.1493 -11.0065  -5.7688
    -5.6074  -4.7462  -4.5313  -2.8634  -1.2598  -0.6023   1.9016   2.4450
     3.6703   4.5563   5.2430   6.6302

          k = 0.2457-0.3308 0.0000 ( 18565 PWs)   bands (ev):

   -67.5552 -67.5392 -34.4669 -34.3532 -34.2305 -34.0838 -33.9477 -33.8878
   -19.2468 -19.2414 -19.2402 -19.2361 -19.2281 -19.2209 -19.2197 -19.2111
   -19.2021 -19.1990 -19.1660 -19.1648 -19.1595 -19.1568 -11.2708  -6.2085
    -5.4739  -4.8002  -4.3828  -2.6583  -1.6844  -0.1859   1.2152   2.1643
     3.6340   4.2007   4.8742   6.3289

          k = 0.2457-0.2363 0.0000 ( 18525 PWs)   bands (ev):

   -67.5685 -67.5481 -34.4723 -34.2844 -34.1633 -34.0659 -33.8673 -33.7901
   -19.2506 -19.2413 -19.2408 -19.2332 -19.2273 -19.2208 -19.2181 -19.2107
   -19.2053 -19.1991 -19.1696 -19.1661 -19.1566 -19.1550 -11.5887  -6.6418
    -5.5399  -4.6402  -4.0083  -2.8219  -1.8154   0.5145   0.8210   2.1950
     2.8372   3.4021   4.0742   5.8906

          k = 0.2457-0.1417 0.0000 ( 18472 PWs)   bands (ev):

   -67.5797 -67.5561 -34.4937 -34.1964 -34.0688 -34.0430 -33.8196 -33.7388
   -19.2526 -19.2428 -19.2392 -19.2296 -19.2279 -19.2195 -19.2187 -19.2102
   -19.2070 -19.2005 -19.1782 -19.1740 -19.1490 -19.1478 -11.8721  -6.9319
    -5.6119  -4.4737  -3.5717  -3.1299  -1.6564   0.3144   1.1610   1.8882
     2.5136   2.6782   3.7514   5.4470

          k = 0.2457-0.0472 0.0000 ( 18483 PWs)   bands (ev):

   -67.5860 -67.5608 -34.5100 -34.1424 -34.0134 -33.9934 -33.7962 -33.7416
   -19.2524 -19.2447 -19.2367 -19.2316 -19.2263 -19.2202 -19.2176 -19.2096
   -19.2076 -19.2018 -19.1831 -19.1785 -19.1447 -19.1442 -12.0373  -7.0712
    -5.5873  -4.3168  -3.8569  -2.8042  -1.3675  -0.1455   0.7492   1.9351
     2.2332   2.7868   3.9444   5.2504

          k = 0.2458 0.0473 0.0000 ( 18483 PWs)   bands (ev):

   -67.5860 -67.5608 -34.5099 -34.1424 -34.0143 -33.9929 -33.7962 -33.7416
   -19.2522 -19.2448 -19.2367 -19.2316 -19.2264 -19.2201 -19.2175 -19.2097
   -19.2077 -19.2017 -19.1831 -19.1785 -19.1447 -19.1442 -12.0371  -7.0706
    -5.5849  -4.3182  -3.8591  -2.8078  -1.3673  -0.1434   0.7525   1.9335
     2.2340   2.7905   3.9437   5.2495

          k = 0.3277 0.1891 0.0000 ( 18542 PWs)   bands (ev):

   -67.5617 -67.5435 -34.4820 -34.3773 -34.2132 -34.0734 -33.8755 -33.7809
   -19.2531 -19.2436 -19.2381 -19.2316 -19.2313 -19.2197 -19.2175 -19.2114
   -19.2044 -19.1971 -19.1645 -19.1615 -19.1604 -19.1575 -11.4462  -6.8472
    -5.3658  -4.7004  -3.6388  -3.2551  -1.9190   1.1336   1.5027   2.0932
     2.6822   3.7759   3.9079   6.0334

          k = 0.3277 0.2836 0.0000 ( 18577 PWs)   bands (ev):

   -67.5524 -67.5376 -34.5078 -34.4370 -34.2356 -34.0852 -33.9245 -33.8321
   -19.2524 -19.2442 -19.2378 -19.2334 -19.2310 -19.2196 -19.2184 -19.2115
   -19.2022 -19.1963 -19.1666 -19.1633 -19.1576 -19.1553 -11.2419  -6.7869
    -5.1689  -4.7702  -4.0225  -3.0309  -1.8175   0.8471   1.5785   2.0306
     3.6540   3.9470   4.7791   6.2823

          k = 0.3277 0.3781 0.0000 ( 18559 PWs)   bands (ev):

   -67.5426 -67.5322 -34.5133 -34.4460 -34.2269 -34.1193 -34.0061 -33.9362
   -19.2498 -19.2418 -19.2388 -19.2329 -19.2306 -19.2213 -19.2196 -19.2110
   -19.2013 -19.1975 -19.1736 -19.1709 -19.1508 -19.1493 -11.0247  -6.4512
    -4.9371  -4.8708  -4.4085  -3.0401  -1.4567   0.0371   1.9879   2.3183
     3.8261   4.5275   5.4218   6.3637

          k = 0.3277 0.4727 0.0000 ( 18553 PWs)   bands (ev):

   -67.5345 -67.5292 -34.4665 -34.4019 -34.2526 -34.1835 -34.0695 -34.0425
   -19.2480 -19.2376 -19.2356 -19.2340 -19.2292 -19.2241 -19.2221 -19.2087
   -19.2027 -19.2002 -19.1792 -19.1777 -19.1458 -19.1451 -10.8566  -5.9420
    -5.1511  -4.7352  -4.6195  -3.1590  -0.9517  -0.4659   2.5660   2.7703
     3.4997   4.1672   5.1589   6.3205

          k = 0.3278 0.5672 0.0000 ( 18590 PWs)   bands (ev):

   -67.5300 -67.5297 -34.3867 -34.3460 -34.3452 -34.2341 -34.0845 -34.0820
   -19.2473 -19.2355 -19.2355 -19.2289 -19.2285 -19.2270 -19.2259 -19.2054
   -19.2037 -19.2034 -19.1809 -19.1808 -19.1438 -19.1437 -10.7930  -5.4435
    -5.4398  -4.9177  -4.5637  -3.1855  -0.6410  -0.6357   2.9558   2.9573
     3.4937   3.5013   4.8853   6.6761

          k = 0.3278 0.6617 0.0000 ( 18551 PWs)   bands (ev):

   -67.5347 -67.5291 -34.4653 -34.4003 -34.2532 -34.1850 -34.0698 -34.0420
   -19.2476 -19.2375 -19.2360 -19.2342 -19.2293 -19.2243 -19.2219 -19.2085
   -19.2027 -19.2002 -19.1791 -19.1778 -19.1458 -19.1450 -10.8576  -5.9412
    -5.1492  -4.7328  -4.6194  -3.1584  -0.9497  -0.4696   2.5650   2.7637
     3.5039   4.1597   5.1601   6.3178

          k = 0.3276-0.3780 0.0000 ( 18559 PWs)   bands (ev):

   -67.5428 -67.5322 -34.5122 -34.4443 -34.2279 -34.1194 -34.0059 -33.9365
   -19.2494 -19.2422 -19.2388 -19.2332 -19.2305 -19.2215 -19.2195 -19.2106
   -19.2012 -19.1975 -19.1736 -19.1710 -19.1508 -19.1492 -11.0262  -6.4520
    -4.9371  -4.8667  -4.4028  -3.0391  -1.4550   0.0309   1.9868   2.3104
     3.8278   4.5198   5.4225   6.3589

          k = 0.3276-0.2835 0.0000 ( 18579 PWs)   bands (ev):

   -67.5526 -67.5377 -34.5070 -34.4356 -34.2364 -34.0846 -33.9245 -33.8321
   -19.2523 -19.2443 -19.2380 -19.2335 -19.2310 -19.2195 -19.2186 -19.2111
   -19.2021 -19.1963 -19.1666 -19.1634 -19.1576 -19.1552 -11.2434  -6.7891
    -5.1717  -4.7641  -4.0144  -3.0275  -1.8170   0.8372   1.5770   2.0222
     3.6500   3.9464   4.7780   6.2845

          k = 0.3276-0.1890 0.0000 ( 18540 PWs)   bands (ev):

   -67.5618 -67.5436 -34.4817 -34.3764 -34.2135 -34.0729 -33.8755 -33.7807
   -19.2531 -19.2436 -19.2383 -19.2316 -19.2311 -19.2196 -19.2176 -19.2110
   -19.2044 -19.1971 -19.1645 -19.1615 -19.1604 -19.1576 -11.4473  -6.8501
    -5.3694  -4.6948  -3.6329  -3.2473  -1.9194   1.1251   1.4940   2.0834
     2.6837   3.7771   3.9101   6.0359

          k = 0.3276-0.0945 0.0000 ( 18525 PWs)   bands (ev):

   -67.5684 -67.5481 -34.4724 -34.2859 -34.1642 -34.0659 -33.8662 -33.7897
   -19.2506 -19.2414 -19.2408 -19.2333 -19.2272 -19.2208 -19.2177 -19.2110
   -19.2055 -19.1991 -19.1696 -19.1662 -19.1566 -19.1550 -11.5874  -6.6424
    -5.5365  -4.6458  -4.0165  -2.8159  -1.8162   0.5211   0.8070   2.1982
     2.8513   3.4069   4.0756   5.8858

          k = 0.3277 0.0001 0.0000 ( 18508 PWs)   bands (ev):

   -67.5708 -67.5497 -34.4721 -34.2303 -34.1499 -34.0574 -33.8617 -33.8172
   -19.2466 -19.2447 -19.2393 -19.2349 -19.2257 -19.2205 -19.2186 -19.2109
   -19.2058 -19.2001 -19.1715 -19.1679 -19.1550 -19.1547 -11.6364  -6.4273
    -5.6890  -4.6391  -4.2286  -2.5289  -1.6933   0.0681   0.4234   2.2191
     3.0451   3.2039   4.4883   5.7000

          k = 0.3277 0.0946 0.0000 ( 18527 PWs)   bands (ev):

   -67.5683 -67.5481 -34.4724 -34.2863 -34.1643 -34.0662 -33.8664 -33.7898
   -19.2505 -19.2415 -19.2405 -19.2333 -19.2273 -19.2207 -19.2177 -19.2112
   -19.2056 -19.1990 -19.1696 -19.1662 -19.1566 -19.1549 -11.5868  -6.6398
    -5.5341  -4.6496  -4.0195  -2.8234  -1.8158   0.5288   0.8113   2.2028
     2.8515   3.4044   4.0767   5.8823

          k = 0.4096 0.2364 0.0000 ( 18562 PWs)   bands (ev):

   -67.5479 -67.5350 -34.5634 -34.4990 -34.2390 -34.0873 -33.9156 -33.8120
   -19.2552 -19.2457 -19.2388 -19.2332 -19.2317 -19.2190 -19.2172 -19.2115
   -19.2009 -19.1943 -19.1683 -19.1637 -19.1542 -19.1524 -11.1743  -7.0593
    -5.1806  -4.7823  -3.4665  -3.3784  -1.8308   1.5299   1.8264   2.1515
     3.1334   4.3209   5.1279   6.1851

          k = 0.4096 0.3309 0.0000 ( 18558 PWs)   bands (ev):

   -67.5425 -67.5322 -34.5813 -34.5145 -34.2258 -34.1014 -33.9560 -33.8566
   -19.2543 -19.2451 -19.2395 -19.2340 -19.2303 -19.2202 -19.2169 -19.2115
   -19.2002 -19.1944 -19.1720 -19.1674 -19.1505 -19.1492 -11.0645  -6.9719
    -5.0876  -4.7743  -3.7865  -3.2539  -1.6602   1.2026   1.6845   2.2785
     3.9720   4.4349   5.7542   6.2722

          k = 0.4097 0.4254 0.0000 ( 18570 PWs)   bands (ev):

   -67.5376 -67.5301 -34.5413 -34.4760 -34.2073 -34.1469 -34.0223 -33.9545
   -19.2509 -19.2420 -19.2381 -19.2351 -19.2282 -19.2220 -19.2190 -19.2108
   -19.2014 -19.1968 -19.1764 -19.1730 -19.1474 -19.1466 -10.9405  -6.5642
    -4.9017  -4.7382  -4.3156  -3.2859  -1.3181   0.2391   2.2261   2.4773
     4.0508   4.4535   5.5770   6.1241

          k = 0.4097 0.5199 0.0000 ( 18545 PWs)   bands (ev):

   -67.5344 -67.5292 -34.4673 -34.4028 -34.2516 -34.1834 -34.0688 -34.0430
   -19.2480 -19.2378 -19.2355 -19.2339 -19.2289 -19.2240 -19.2223 -19.2088
   -19.2026 -19.2004 -19.1791 -19.1777 -19.1458 -19.1451 -10.8559  -5.9437
    -5.1510  -4.7358  -4.6215  -3.1570  -0.9527  -0.4662   2.5619   2.7763
     3.4947   4.1765   5.1595   6.3223

          k = 0.4097 0.6145 0.0000 ( 18549 PWs)   bands (ev):

   -67.5345 -67.5292 -34.4668 -34.4018 -34.2521 -34.1841 -34.0680 -34.0435
   -19.2478 -19.2380 -19.2359 -19.2339 -19.2287 -19.2241 -19.2221 -19.2087
   -19.2026 -19.2004 -19.1791 -19.1778 -19.1458 -19.1451 -10.8564  -5.9442
    -5.1490  -4.7334  -4.6235  -3.1548  -0.9511  -0.4699   2.5579   2.7739
     3.4951   4.1768   5.1602   6.3204

          k = 0.4097 0.7090 0.0000 ( 18562 PWs)   bands (ev):

   -67.5378 -67.5301 -34.5405 -34.4745 -34.2091 -34.1464 -34.0217 -33.9547
   -19.2505 -19.2425 -19.2381 -19.2352 -19.2282 -19.2221 -19.2188 -19.2105
   -19.2014 -19.1968 -19.1764 -19.1732 -19.1474 -19.1465 -10.9418  -6.5650
    -4.9006  -4.7343  -4.3138  -3.2820  -1.3171   0.2328   2.2212   2.4697
     4.0528   4.4499   5.5789   6.1203

          k = 0.4095-0.3308 0.0000 ( 18554 PWs)   bands (ev):

   -67.5427 -67.5322 -34.5805 -34.5130 -34.2276 -34.1003 -33.9558 -33.8566
   -19.2540 -19.2454 -19.2397 -19.2342 -19.2303 -19.2203 -19.2167 -19.2111
   -19.2002 -19.1944 -19.1720 -19.1676 -19.1505 -19.1492 -11.0661  -6.9734
    -5.0886  -4.7692  -3.7789  -3.2507  -1.6601   1.1936   1.6791   2.2701
     3.9699   4.4351   5.7509   6.2727

          k = 0.4095-0.2362 0.0000 ( 18560 PWs)   bands (ev):

   -67.5481 -67.5350 -34.5627 -34.4976 -34.2404 -34.0863 -33.9155 -33.8118
   -19.2551 -19.2459 -19.2391 -19.2334 -19.2315 -19.2191 -19.2169 -19.2111
   -19.2009 -19.1943 -19.1683 -19.1639 -19.1543 -19.1524 -11.1758  -7.0615
    -5.1827  -4.7769  -3.4610  -3.3702  -1.8317   1.5245   1.8099   2.1440
     3.1370   4.3194   5.1274   6.1883

          k = 0.4096-0.1417 0.0000 ( 18581 PWs)   bands (ev):

   -67.5525 -67.5376 -34.5078 -34.4365 -34.2364 -34.0846 -33.9238 -33.8319
   -19.2524 -19.2444 -19.2384 -19.2333 -19.2306 -19.2198 -19.2180 -19.2112
   -19.2023 -19.1964 -19.1665 -19.1634 -19.1576 -19.1553 -11.2423  -6.7905
    -5.1697  -4.7672  -4.0247  -3.0159  -1.8196   0.8355   1.5682   2.0277
     3.6596   3.9473   4.7813   6.2891

          k = 0.4096-0.0472 0.0000 ( 18561 PWs)   bands (ev):

   -67.5550 -67.5392 -34.4682 -34.3561 -34.2305 -34.0837 -33.9461 -33.8873
   -19.2470 -19.2416 -19.2405 -19.2356 -19.2280 -19.2211 -19.2189 -19.2114
   -19.2025 -19.1990 -19.1659 -19.1648 -19.1594 -19.1569 -11.2683  -6.2110
    -5.4688  -4.8096  -4.3927  -2.6484  -1.6899  -0.1814   1.2021   2.1770
     3.6376   4.2167   4.8847   6.3210

          k = 0.4096 0.0473 0.0000 ( 18563 PWs)   bands (ev):

   -67.5549 -67.5392 -34.4683 -34.3565 -34.2302 -34.0838 -33.9464 -33.8872
   -19.2472 -19.2414 -19.2402 -19.2358 -19.2280 -19.2209 -19.2191 -19.2115
   -19.2025 -19.1990 -19.1660 -19.1647 -19.1594 -19.1569 -11.2680  -6.2079
    -5.4712  -4.8102  -4.3938  -2.6530  -1.6903  -0.1762   1.2044   2.1791
     3.6375   4.2157   4.8859   6.3190

          k = 0.4096 0.1419 0.0000 ( 18581 PWs)   bands (ev):

   -67.5524 -67.5376 -34.5082 -34.4375 -34.2355 -34.0853 -33.9241 -33.8320
   -19.2524 -19.2442 -19.2380 -19.2334 -19.2307 -19.2196 -19.2182 -19.2115
   -19.2023 -19.1963 -19.1665 -19.1633 -19.1576 -19.1553 -11.2413  -6.7877
    -5.1678  -4.7720  -4.0278  -3.0251  -1.8190   0.8461   1.5736   2.0340
     3.6591   3.9473   4.7812   6.2851

          k =-0.4915-0.2837 0.0000 ( 18570 PWs)   bands (ev):

   -67.5424 -67.5322 -34.6106 -34.5419 -34.2277 -34.0957 -33.9302 -33.8234
   -19.2562 -19.2460 -19.2407 -19.2340 -19.2308 -19.2199 -19.2156 -19.2116
   -19.1994 -19.1932 -19.1711 -19.1658 -19.1503 -19.1492 -11.0844  -7.1576
    -5.1745  -4.8081  -3.4288  -3.2931  -1.7677   1.4239   2.0930   2.3311
     3.1906   4.7971   5.7697   6.3327

          k =-0.4915-0.1891 0.0000 ( 18560 PWs)   bands (ev):

   -67.5425 -67.5322 -34.5815 -34.5147 -34.2257 -34.1015 -33.9559 -33.8566
   -19.2543 -19.2451 -19.2397 -19.2339 -19.2302 -19.2202 -19.2169 -19.2115
   -19.2002 -19.1944 -19.1720 -19.1674 -19.1505 -19.1492 -11.0642  -6.9723
    -5.0878  -4.7745  -3.7904  -3.2496  -1.6610   1.2018   1.6847   2.2778
     3.9731   4.4338   5.7548   6.2737

          k =-0.4915-0.0946 0.0000 ( 18553 PWs)   bands (ev):

   -67.5425 -67.5322 -34.5141 -34.4469 -34.2263 -34.1194 -34.0056 -33.9361
   -19.2498 -19.2419 -19.2392 -19.2326 -19.2304 -19.2213 -19.2195 -19.2110
   -19.2014 -19.1976 -19.1736 -19.1709 -19.1508 -19.1493 -11.0237  -6.4527
    -4.9339  -4.8744  -4.4139  -3.0348  -1.4585   0.0362   1.9826   2.3235
     3.8227   4.5388   5.4215   6.3639

          k =-0.4915-0.0001 0.0000 ( 18576 PWs)   bands (ev):

   -67.5426 -67.5322 -34.4754 -34.3918 -34.2494 -34.1169 -34.0352 -33.9857
   -19.2469 -19.2406 -19.2360 -19.2355 -19.2304 -19.2217 -19.2206 -19.2106
   -19.2007 -19.2005 -19.1740 -19.1731 -19.1509 -19.1493 -11.0035  -5.7740
    -5.6064  -4.7504  -4.5406  -2.8573  -1.2668  -0.5951   1.8929   2.4605
     3.6635   4.5851   5.2453   6.6386

          k =-0.4915 0.0944 0.0000 ( 18561 PWs)   bands (ev):

   -67.5427 -67.5322 -34.5137 -34.4459 -34.2274 -34.1191 -34.0050 -33.9363
   -19.2495 -19.2423 -19.2395 -19.2326 -19.2301 -19.2215 -19.2192 -19.2107
   -19.2014 -19.1976 -19.1736 -19.1710 -19.1508 -19.1493 -11.0245  -6.4546
    -4.9308  -4.8735  -4.4131  -3.0288  -1.4580   0.0293   1.9775   2.3189
     3.8221   4.5408   5.4210   6.3585

          k =-0.4915 0.1890 0.0000 ( 18564 PWs)   bands (ev):

   -67.5427 -67.5322 -34.5809 -34.5133 -34.2274 -34.1003 -33.9556 -33.8565
   -19.2541 -19.2454 -19.2399 -19.2340 -19.2302 -19.2203 -19.2166 -19.2111
   -19.2003 -19.1944 -19.1719 -19.1675 -19.1505 -19.1492 -11.0656  -6.9741
    -5.0889  -4.7695  -3.7865  -3.2419  -1.6616   1.1923   1.6794   2.2689
     3.9721   4.4334   5.7517   6.2742

          k =-0.4916-0.8508 0.0000 ( 18574 PWs)   bands (ev):

   -67.5427 -67.5322 -34.6099 -34.5404 -34.2297 -34.0943 -33.9299 -33.8232
   -19.2560 -19.2463 -19.2409 -19.2341 -19.2307 -19.2200 -19.2153 -19.2112
   -19.1995 -19.1932 -19.1710 -19.1659 -19.1503 -19.1491 -11.0860  -7.1593
    -5.1759  -4.8028  -3.4208  -3.2876  -1.7690   1.4182   2.0771   2.3219
     3.1945   4.7961   5.7657   6.3355

     the Fermi energy is     0.8270 ev

!    total energy              =   -1375.69805174 Ry
     estimated scf accuracy    <          3.3E-13 Ry
     smearing contrib. (-TS)   =      -0.00000366 Ry
     internal energy E=F+TS    =   -1375.69804808 Ry

     The total energy is F=E-TS. E is the sum of the following terms:
     one-electron contribution =  -11616.51115502 Ry
     hartree contribution      =    5838.39376337 Ry
     xc contribution           =    -140.31216716 Ry
     ewald contribution        =    4542.73151073 Ry

     convergence has been achieved in  19 iterations

     negative rho (up, down):  1.169E-03 0.000E+00

     Forces acting on atoms (cartesian axes, Ry/au):

     atom    1 type  2   force =    -0.00045460    0.00025794   -0.00000162
     atom    2 type  1   force =     0.00003707    0.00027063   -0.00026050
     atom    3 type  1   force =     0.00010065   -0.00034643    0.00026153
     atom    4 type  3   force =     0.00026986   -0.00055328   -0.00007588
     atom    5 type  3   force =     0.00004702    0.00037114    0.00007647

     Total force =     0.001070     Total SCF correction =     0.000006


     Computing stress (Cartesian axis) and pressure


     negative rho (up, down):  1.169E-03 0.000E+00
          total   stress  (Ry/bohr**3)                   (kbar)     P=       -0.32
  -0.00000289   0.00000012   0.00000077           -0.42        0.02        0.11
   0.00000012  -0.00000012  -0.00000377            0.02       -0.02       -0.55
   0.00000077  -0.00000377  -0.00000347            0.11       -0.55       -0.51


     Writing output data file /scratch/as3359/Ta2CH2-VCrelax/Ta.save/
 
     init_run     :     17.77s CPU      9.77s WALL (       1 calls)
     electrons    :    708.72s CPU    362.58s WALL (       1 calls)
     forces       :      5.69s CPU      2.94s WALL (       1 calls)
     stress       :     20.34s CPU     10.47s WALL (       1 calls)

     Called by init_run:
     wfcinit      :     13.41s CPU      6.87s WALL (       1 calls)
     potinit      :      1.10s CPU      0.56s WALL (       1 calls)
     hinit0       :      2.58s CPU      1.87s WALL (       1 calls)

     Called by electrons:
     c_bands      :    585.44s CPU    296.80s WALL (      19 calls)
     sum_band     :    108.99s CPU     57.04s WALL (      19 calls)
     v_of_rho     :      2.34s CPU      1.21s WALL (      20 calls)
     newd         :     11.69s CPU      7.40s WALL (      20 calls)
     mix_rho      :      0.79s CPU      0.43s WALL (      19 calls)

     Called by c_bands:
     init_us_2    :     15.39s CPU      7.72s WALL (    3034 calls)
     cegterg      :    539.35s CPU    273.49s WALL (    1406 calls)

     Called by *egterg:
     cdiaghg      :     17.07s CPU      8.74s WALL (    7553 calls)
     h_psi        :    425.53s CPU    216.22s WALL (    7627 calls)
     s_psi        :     20.51s CPU     10.28s WALL (    7627 calls)
     g_psi        :      2.72s CPU      1.37s WALL (    6147 calls)

     Called by h_psi:
     h_psi:calbec :     18.63s CPU      9.37s WALL (    7627 calls)
     vloc_psi     :    378.49s CPU    192.57s WALL (    7627 calls)
     add_vuspsi   :     24.61s CPU     12.33s WALL (    7627 calls)

     General routines
     calbec       :     25.29s CPU     12.72s WALL (    9403 calls)
     fft          :      2.39s CPU      1.22s WALL (     245 calls)
     ffts         :      0.07s CPU      0.04s WALL (      19 calls)
     fftw         :    379.17s CPU    193.09s WALL (  303572 calls)
 
     Parallel routines
 
     PWSCF        :  12m35.75s CPU   6m28.99s WALL

 
   This run was terminated on:  14:32:30   7Apr2022            

=------------------------------------------------------------------------------=
   JOB DONE.
=------------------------------------------------------------------------------=
