
     Program PWSCF v.6.8 starts on  7Apr2022 at 16: 3:42 

     This program is part of the open-source Quantum ESPRESSO suite
     for quantum simulation of materials; please cite
         "P. Giannozzi et al., J. Phys.:Condens. Matter 21 395502 (2009);
         "P. Giannozzi et al., J. Phys.:Condens. Matter 29 465901 (2017);
         "P. Giannozzi et al., J. Chem. Phys. 152 154105 (2020);
          URL http://www.quantum-espresso.org", 
     in publications or presentations arising from this work. More details at
     http://www.quantum-espresso.org/quote

     Parallel version (MPI & OpenMP), running on       4 processor cores
     Number of MPI processes:                 2
     Threads/MPI process:                     2

     MPI processes distributed on     1 nodes
     R & G space division:  proc/nbgrp/npool/nimage =       2
     123670 MiB available memory on the printing compute node when the environment starts
 
     Reading input from Ta2CH2.scf.130.in

     Current dimensions of program PWSCF are:
     Max number of different atomic species (ntypx) = 10
     Max number of k-points (npk) =  40000
     Max angular momentum in pseudopotentials (lmaxx) =  4
     file Ta.pbesol-spfn-rrkjus_psl.1.0.0.UPF: wavefunction(s)  5S 5P renormalized

     Subspace diagonalization in iterative solution of the eigenvalue problem:
     a serial algorithm will be used

 
     Parallelization info
     --------------------
     sticks:   dense  smooth     PW     G-vecs:    dense   smooth      PW
     Min         573     573    174               153693   153693   25406
     Max         574     574    175               153708   153708   25431
     Sum        1147    1147    349               307401   307401   50837
 
     Using Slab Decomposition
 


     bravais-lattice index     =            0
     lattice parameter (alat)  =       5.5500  a.u.
     unit-cell volume          =    1533.2393 (a.u.)^3
     number of atoms/cell      =            5
     number of atomic types    =            3
     number of electrons       =        60.00
     number of Kohn-Sham states=           36
     kinetic-energy cutoff     =     130.0000  Ry
     charge density cutoff     =     520.0000  Ry
     scf convergence threshold =      1.0E-12
     mixing beta               =       0.7000
     number of iterations used =            8  plain     mixing
     Exchange-correlation= PBESOL
                           (   1   4  10   8   0   0   0)

     celldm(1)=   5.550000  celldm(2)=   0.000000  celldm(3)=   0.000000
     celldm(4)=   0.000000  celldm(5)=   0.000000  celldm(6)=   0.000000

     crystal axes: (cart. coord. in units of alat)
               a(1) = (   1.017295  -0.000177   0.000000 )  
               a(2) = (  -0.508801   0.881714   0.000000 )  
               a(3) = (   0.000000   0.000000  10.000000 )  

     reciprocal axes: (cart. coord. in units 2 pi/alat)
               b(1) = (  0.983098  0.567305  0.000000 )  
               b(2) = (  0.000198  1.134269  0.000000 )  
               b(3) = (  0.000000  0.000000  0.100000 )  


     PseudoPot. # 1 for Ta read from file:
     /shared/home/as3359/pseudo/Ta.pbesol-spfn-rrkjus_psl.1.0.0.UPF
     MD5 check sum: f099565ffaca9b150a52e9412a28e20b
     Pseudo is Ultrasoft + core correction, Zval = 27.0
     Generated using &quot;atomic&quot; code by A. Dal Corso  v.6.3
     Using radial grid of 1273 points,  8 beta functions with: 
                l(1) =   0
                l(2) =   0
                l(3) =   1
                l(4) =   1
                l(5) =   2
                l(6) =   2
                l(7) =   3
                l(8) =   3
     Q(r) pseudized with 0 coefficients 


     PseudoPot. # 2 for C  read from file:
     /shared/home/as3359/pseudo/C.pbesol-n-rrkjus_psl.1.0.0.UPF
     MD5 check sum: 05995be603a8a7c99da3dc4413f31573
     Pseudo is Ultrasoft + core correction, Zval =  4.0
     Generated using &quot;atomic&quot; code by A. Dal Corso  v.6.3MaX
     Using radial grid of 1073 points,  4 beta functions with: 
                l(1) =   0
                l(2) =   0
                l(3) =   1
                l(4) =   1
     Q(r) pseudized with 0 coefficients 


     PseudoPot. # 3 for H  read from file:
     /shared/home/as3359/pseudo/H.pbesol-rrkjus_psl.0.1.UPF
     MD5 check sum: 1dbb1a5c48b1283557b8117eb856a7ca
     Pseudo is Ultrasoft, Zval =  1.0
     Generated using "atomic" code by A. Dal Corso  v.5.0.2 svn rev. 9415
     Using radial grid of  929 points,  2 beta functions with: 
                l(1) =   0
                l(2) =   0
     Q(r) pseudized with 0 coefficients 


     atomic species   valence    mass     pseudopotential
        Ta            27.00   180.94788     Ta( 1.00)
        C              4.00    12.01070     C ( 1.00)
        H              1.00     1.00000     H ( 1.00)

     No symmetry found



   Cartesian axes

     site n.     atom                  positions (alat units)
         1           C   tau(   1) = (   0.0000000   0.0000000   0.0000000  )
         2           Ta  tau(   2) = (   0.5088008   0.2948413  -0.4364511  )
         3           Ta  tau(   3) = (  -0.0007447   0.5869407   0.4364532  )
         4           H   tau(   4) = (  -0.0017928  -0.0015314   0.8341930  )
         5           H   tau(   5) = (   0.0002769   0.0024412  -0.8341930  )

     number of k points=    74  Marzari-Vanderbilt smearing, width (Ry)=  0.0010
                       cart. coord. in units 2pi/alat
        k(    1) = (   0.0000000   0.0000000   0.0000000), wk =   0.0138889
        k(    2) = (   0.0000165   0.0945224   0.0000000), wk =   0.0277778
        k(    3) = (   0.0000329   0.1890448   0.0000000), wk =   0.0277778
        k(    4) = (   0.0000494   0.2835672   0.0000000), wk =   0.0277778
        k(    5) = (   0.0000659   0.3780896   0.0000000), wk =   0.0277778
        k(    6) = (   0.0000823   0.4726120   0.0000000), wk =   0.0277778
        k(    7) = (  -0.0000988  -0.5671343   0.0000000), wk =   0.0138889
        k(    8) = (   0.0819248   0.0472755   0.0000000), wk =   0.0277778
        k(    9) = (   0.0819413   0.1417978   0.0000000), wk =   0.0277778
        k(   10) = (   0.0819577   0.2363202   0.0000000), wk =   0.0277778
        k(   11) = (   0.0819742   0.3308426   0.0000000), wk =   0.0277778
        k(   12) = (   0.0819907   0.4253650   0.0000000), wk =   0.0277778
        k(   13) = (   0.0820071   0.5198874   0.0000000), wk =   0.0277778
        k(   14) = (   0.0818260  -0.5198589   0.0000000), wk =   0.0277778
        k(   15) = (   0.0818425  -0.4253365   0.0000000), wk =   0.0277778
        k(   16) = (   0.0818590  -0.3308141   0.0000000), wk =   0.0277778
        k(   17) = (   0.0818754  -0.2362917   0.0000000), wk =   0.0277778
        k(   18) = (   0.0818919  -0.1417693   0.0000000), wk =   0.0277778
        k(   19) = (   0.0819084  -0.0472469   0.0000000), wk =   0.0277778
        k(   20) = (   0.1638496   0.0945509   0.0000000), wk =   0.0277778
        k(   21) = (   0.1638661   0.1890733   0.0000000), wk =   0.0277778
        k(   22) = (   0.1638826   0.2835957   0.0000000), wk =   0.0277778
        k(   23) = (   0.1638990   0.3781181   0.0000000), wk =   0.0277778
        k(   24) = (   0.1639155   0.4726405   0.0000000), wk =   0.0277778
        k(   25) = (   0.1639319   0.5671629   0.0000000), wk =   0.0277778
        k(   26) = (   0.1637508  -0.4725834   0.0000000), wk =   0.0277778
        k(   27) = (   0.1637673  -0.3780610   0.0000000), wk =   0.0277778
        k(   28) = (   0.1637838  -0.2835386   0.0000000), wk =   0.0277778
        k(   29) = (   0.1638002  -0.1890163   0.0000000), wk =   0.0277778
        k(   30) = (   0.1638167  -0.0944939   0.0000000), wk =   0.0277778
        k(   31) = (   0.1638332   0.0000285   0.0000000), wk =   0.0277778
        k(   32) = (   0.2457744   0.1418264   0.0000000), wk =   0.0277778
        k(   33) = (   0.2457909   0.2363488   0.0000000), wk =   0.0277778
        k(   34) = (   0.2458074   0.3308711   0.0000000), wk =   0.0277778
        k(   35) = (   0.2458238   0.4253935   0.0000000), wk =   0.0277778
        k(   36) = (   0.2458403   0.5199159   0.0000000), wk =   0.0277778
        k(   37) = (   0.2458568   0.6144383   0.0000000), wk =   0.0277778
        k(   38) = (   0.2456757  -0.4253080   0.0000000), wk =   0.0277778
        k(   39) = (   0.2456921  -0.3307856   0.0000000), wk =   0.0277778
        k(   40) = (   0.2457086  -0.2362632   0.0000000), wk =   0.0277778
        k(   41) = (   0.2457251  -0.1417408   0.0000000), wk =   0.0277778
        k(   42) = (   0.2457415  -0.0472184   0.0000000), wk =   0.0277778
        k(   43) = (   0.2457580   0.0473040   0.0000000), wk =   0.0277778
        k(   44) = (   0.3276993   0.1891018   0.0000000), wk =   0.0277778
        k(   45) = (   0.3277157   0.2836242   0.0000000), wk =   0.0277778
        k(   46) = (   0.3277322   0.3781466   0.0000000), wk =   0.0277778
        k(   47) = (   0.3277486   0.4726690   0.0000000), wk =   0.0277778
        k(   48) = (   0.3277651   0.5671914   0.0000000), wk =   0.0277778
        k(   49) = (   0.3277816   0.6617138   0.0000000), wk =   0.0277778
        k(   50) = (   0.3276005  -0.3780325   0.0000000), wk =   0.0277778
        k(   51) = (   0.3276169  -0.2835101   0.0000000), wk =   0.0277778
        k(   52) = (   0.3276334  -0.1889877   0.0000000), wk =   0.0277778
        k(   53) = (   0.3276499  -0.0944653   0.0000000), wk =   0.0277778
        k(   54) = (   0.3276663   0.0000570   0.0000000), wk =   0.0277778
        k(   55) = (   0.3276828   0.0945794   0.0000000), wk =   0.0277778
        k(   56) = (   0.4096241   0.2363773   0.0000000), wk =   0.0277778
        k(   57) = (   0.4096405   0.3308997   0.0000000), wk =   0.0277778
        k(   58) = (   0.4096570   0.4254221   0.0000000), wk =   0.0277778
        k(   59) = (   0.4096735   0.5199445   0.0000000), wk =   0.0277778
        k(   60) = (   0.4096899   0.6144668   0.0000000), wk =   0.0277778
        k(   61) = (   0.4097064   0.7089892   0.0000000), wk =   0.0277778
        k(   62) = (   0.4095253  -0.3307571   0.0000000), wk =   0.0277778
        k(   63) = (   0.4095418  -0.2362347   0.0000000), wk =   0.0277778
        k(   64) = (   0.4095582  -0.1417123   0.0000000), wk =   0.0277778
        k(   65) = (   0.4095747  -0.0471899   0.0000000), wk =   0.0277778
        k(   66) = (   0.4095911   0.0473325   0.0000000), wk =   0.0277778
        k(   67) = (   0.4096076   0.1418549   0.0000000), wk =   0.0277778
        k(   68) = (  -0.4915489  -0.2836527   0.0000000), wk =   0.0138889
        k(   69) = (  -0.4915324  -0.1891303   0.0000000), wk =   0.0277778
        k(   70) = (  -0.4915160  -0.0946080   0.0000000), wk =   0.0277778
        k(   71) = (  -0.4914995  -0.0000856   0.0000000), wk =   0.0277778
        k(   72) = (  -0.4914830   0.0944368   0.0000000), wk =   0.0277778
        k(   73) = (  -0.4914666   0.1889592   0.0000000), wk =   0.0277778
        k(   74) = (  -0.4916477  -0.8507871   0.0000000), wk =   0.0138889

     Dense  grid:   307401 G-vectors     FFT dimensions: (  45,  45, 405)

     Estimated max dynamical RAM per process >       2.24 GB

     Estimated total dynamical RAM >       4.48 GB

     Initial potential from superposition of free atoms

     starting charge   59.99840, renormalised to   60.00000

     negative rho (up, down):  1.078E-04 0.000E+00
     Starting wfcs are   40 randomized atomic wfcs

     total cpu time spent up to now is       23.1 secs

     Self-consistent Calculation

     iteration #  1     ecut=   130.00 Ry     beta= 0.70
     Davidson diagonalization with overlap
     ethr =  1.00E-02,  avg # of iterations =  2.0

     negative rho (up, down):  1.203E-04 0.000E+00

     total cpu time spent up to now is       66.2 secs

     total energy              =   -1375.12179850 Ry
     estimated scf accuracy    <       1.04886942 Ry

     iteration #  2     ecut=   130.00 Ry     beta= 0.70
     Davidson diagonalization with overlap
     ethr =  1.75E-03,  avg # of iterations =  7.4

     negative rho (up, down):  9.631E-05 0.000E+00

     total cpu time spent up to now is      124.8 secs

     total energy              =   -1374.71480050 Ry
     estimated scf accuracy    <       5.42418210 Ry

     iteration #  3     ecut=   130.00 Ry     beta= 0.70
     Davidson diagonalization with overlap
     ethr =  1.75E-03,  avg # of iterations =  4.8

     negative rho (up, down):  1.185E-04 0.000E+00

     total cpu time spent up to now is      177.4 secs

     total energy              =   -1375.66772474 Ry
     estimated scf accuracy    <       0.22873300 Ry

     iteration #  4     ecut=   130.00 Ry     beta= 0.70
     Davidson diagonalization with overlap
     ethr =  3.81E-04,  avg # of iterations =  2.5

     negative rho (up, down):  1.640E-04 0.000E+00

     total cpu time spent up to now is      221.2 secs

     total energy              =   -1375.69729207 Ry
     estimated scf accuracy    <       0.02186694 Ry

     iteration #  5     ecut=   130.00 Ry     beta= 0.70
     Davidson diagonalization with overlap
     ethr =  3.64E-05,  avg # of iterations =  9.1

     negative rho (up, down):  1.840E-04 0.000E+00

     total cpu time spent up to now is      279.3 secs

     total energy              =   -1375.69836634 Ry
     estimated scf accuracy    <       0.00837749 Ry

     iteration #  6     ecut=   130.00 Ry     beta= 0.70
     Davidson diagonalization with overlap
     ethr =  1.40E-05,  avg # of iterations = 11.8

     negative rho (up, down):  1.995E-04 0.000E+00

     total cpu time spent up to now is      336.5 secs

     total energy              =   -1375.69533425 Ry
     estimated scf accuracy    <       0.09515950 Ry

     iteration #  7     ecut=   130.00 Ry     beta= 0.70
     Davidson diagonalization with overlap
     c_bands:  1 eigenvalues not converged
     c_bands:  1 eigenvalues not converged
     ethr =  1.40E-05,  avg # of iterations = 11.5

     negative rho (up, down):  2.208E-04 0.000E+00

     total cpu time spent up to now is      391.7 secs

     total energy              =   -1375.70070350 Ry
     estimated scf accuracy    <       0.00048112 Ry

     iteration #  8     ecut=   130.00 Ry     beta= 0.70
     Davidson diagonalization with overlap
     ethr =  8.02E-07,  avg # of iterations =  6.0

     negative rho (up, down):  2.326E-04 0.000E+00

     total cpu time spent up to now is      443.0 secs

     total energy              =   -1375.70076989 Ry
     estimated scf accuracy    <       0.00002637 Ry

     iteration #  9     ecut=   130.00 Ry     beta= 0.70
     Davidson diagonalization with overlap
     ethr =  4.40E-08,  avg # of iterations =  2.3

     negative rho (up, down):  2.341E-04 0.000E+00

     total cpu time spent up to now is      484.8 secs

     total energy              =   -1375.70077315 Ry
     estimated scf accuracy    <       0.00000232 Ry

     iteration # 10     ecut=   130.00 Ry     beta= 0.70
     Davidson diagonalization with overlap
     ethr =  3.87E-09,  avg # of iterations =  2.2

     negative rho (up, down):  2.352E-04 0.000E+00

     total cpu time spent up to now is      530.6 secs

     total energy              =   -1375.70077352 Ry
     estimated scf accuracy    <       0.00000044 Ry

     iteration # 11     ecut=   130.00 Ry     beta= 0.70
     Davidson diagonalization with overlap
     ethr =  7.32E-10,  avg # of iterations =  2.1

     negative rho (up, down):  2.354E-04 0.000E+00

     total cpu time spent up to now is      577.4 secs

     total energy              =   -1375.70077362 Ry
     estimated scf accuracy    <       0.00000006 Ry

     iteration # 12     ecut=   130.00 Ry     beta= 0.70
     Davidson diagonalization with overlap
     ethr =  1.06E-10,  avg # of iterations =  2.8

     negative rho (up, down):  2.354E-04 0.000E+00

     total cpu time spent up to now is      622.6 secs

     total energy              =   -1375.70077363 Ry
     estimated scf accuracy    <          9.5E-09 Ry

     iteration # 13     ecut=   130.00 Ry     beta= 0.70
     Davidson diagonalization with overlap
     ethr =  1.58E-11,  avg # of iterations =  2.2

     negative rho (up, down):  2.354E-04 0.000E+00

     total cpu time spent up to now is      664.8 secs

     total energy              =   -1375.70077363 Ry
     estimated scf accuracy    <          1.2E-09 Ry

     iteration # 14     ecut=   130.00 Ry     beta= 0.70
     Davidson diagonalization with overlap
     ethr =  1.97E-12,  avg # of iterations =  3.5

     negative rho (up, down):  2.354E-04 0.000E+00

     total cpu time spent up to now is      709.2 secs

     total energy              =   -1375.70077363 Ry
     estimated scf accuracy    <          1.5E-10 Ry

     iteration # 15     ecut=   130.00 Ry     beta= 0.70
     Davidson diagonalization with overlap
     ethr =  2.46E-13,  avg # of iterations =  2.7

     negative rho (up, down):  2.354E-04 0.000E+00

     total cpu time spent up to now is      754.1 secs

     total energy              =   -1375.70077363 Ry
     estimated scf accuracy    <          2.7E-11 Ry

     iteration # 16     ecut=   130.00 Ry     beta= 0.70
     Davidson diagonalization with overlap
     ethr =  1.00E-13,  avg # of iterations =  2.2

     negative rho (up, down):  2.354E-04 0.000E+00

     total cpu time spent up to now is      795.9 secs

     total energy              =   -1375.70077363 Ry
     estimated scf accuracy    <          3.4E-12 Ry

     iteration # 17     ecut=   130.00 Ry     beta= 0.70
     Davidson diagonalization with overlap
     ethr =  1.00E-13,  avg # of iterations =  1.0

     negative rho (up, down):  2.354E-04 0.000E+00

     total cpu time spent up to now is      833.0 secs

     total energy              =   -1375.70077363 Ry
     estimated scf accuracy    <          4.3E-12 Ry

     iteration # 18     ecut=   130.00 Ry     beta= 0.70
     Davidson diagonalization with overlap
     ethr =  1.00E-13,  avg # of iterations =  1.0

     negative rho (up, down):  2.354E-04 0.000E+00

     total cpu time spent up to now is      869.5 secs

     End of self-consistent calculation

          k = 0.0000 0.0000 0.0000 ( 38287 PWs)   bands (ev):

   -67.6112 -67.5796 -34.5972 -34.1138 -33.6991 -33.6976 -33.6590 -33.6587
   -19.2567 -19.2427 -19.2235 -19.2230 -19.2228 -19.2227 -19.2018 -19.2017
   -19.2005 -19.1998 -19.1993 -19.1931 -19.1192 -19.1184 -12.8532  -8.3510
    -5.2551  -3.4729  -3.2165  -3.2017  -1.2333   0.3193   0.3393   2.4914
     2.5033   2.9052   2.9380   3.4866

          k = 0.0000 0.0945 0.0000 ( 38397 PWs)   bands (ev):

   -67.6067 -67.5760 -34.5823 -34.1126 -33.7580 -33.7162 -33.7157 -33.6683
   -19.2550 -19.2420 -19.2246 -19.2232 -19.2229 -19.2215 -19.2039 -19.2019
   -19.2006 -19.1997 -19.1958 -19.1899 -19.1226 -19.1219 -12.7139  -8.1324
    -5.3201  -3.5511  -3.3889  -3.1606  -1.0617  -0.0555   0.5496   1.8788
     2.1875   2.9298   3.3019   4.1836

          k = 0.0000 0.1890 0.0000 ( 38366 PWs)   bands (ev):

   -67.5942 -67.5663 -34.5421 -34.1164 -33.9136 -33.8666 -33.7605 -33.6964
   -19.2509 -19.2404 -19.2286 -19.2233 -19.2225 -19.2177 -19.2090 -19.2025
   -19.2020 -19.1981 -19.1862 -19.1809 -19.1317 -19.1312 -12.3439  -7.5537
    -5.4873  -4.0335  -3.4652  -3.0962  -1.0092  -0.4087   1.1333   1.3097
     2.0979   2.7899   3.6418   4.9374

          k = 0.0000 0.2836 0.0000 ( 38337 PWs)   bands (ev):

   -67.5770 -67.5533 -34.4924 -34.1941 -34.0668 -34.0415 -33.8182 -33.7372
   -19.2476 -19.2375 -19.2337 -19.2244 -19.2223 -19.2141 -19.2135 -19.2045
   -19.2015 -19.1953 -19.1728 -19.1686 -19.1437 -19.1425 -11.8706  -6.9307
    -5.6165  -4.4656  -3.5646  -3.1180  -1.6553   0.3113   1.1533   1.8930
     2.5016   2.6842   3.7583   5.5241

          k = 0.0001 0.3781 0.0000 ( 38402 PWs)   bands (ev):

   -67.5592 -67.5408 -34.4799 -34.3742 -34.2121 -34.0709 -33.8738 -33.7790
   -19.2481 -19.2382 -19.2331 -19.2263 -19.2256 -19.2139 -19.2124 -19.2053
   -19.1989 -19.1918 -19.1592 -19.1562 -19.1551 -19.1524 -11.4464  -6.8502
    -5.3721  -4.6851  -3.6247  -3.2347  -1.9185   1.1163   1.4874   2.0735
     2.6879   3.7808   3.9155   6.0513

          k = 0.0001 0.4726 0.0000 ( 38390 PWs)   bands (ev):

   -67.5455 -67.5322 -34.5602 -34.4952 -34.2404 -34.0838 -33.9136 -33.8100
   -19.2499 -19.2406 -19.2339 -19.2281 -19.2261 -19.2137 -19.2112 -19.2052
   -19.1955 -19.1890 -19.1630 -19.1587 -19.1489 -19.1471 -11.1754  -7.0606
    -5.1833  -4.7673  -3.4534  -3.3574  -1.8317   1.5216   1.7912   2.1380
     3.1447   4.3193   5.1291   6.1964

          k =-0.0001-0.5671 0.0000 ( 38440 PWs)   bands (ev):

   -67.5401 -67.5293 -34.6072 -34.5378 -34.2303 -34.0913 -33.9281 -33.8214
   -19.2507 -19.2410 -19.2357 -19.2289 -19.2255 -19.2145 -19.2095 -19.2054
   -19.1941 -19.1879 -19.1658 -19.1608 -19.1450 -19.1438 -11.0859  -7.1577
    -5.1755  -4.7934  -3.4075  -3.2810  -1.7695   1.4151   2.0584   2.3147
     3.2028   4.7970   5.7626   6.3428

          k = 0.0819 0.0473 0.0000 ( 38403 PWs)   bands (ev):

   -67.6066 -67.5760 -34.5822 -34.1127 -33.7592 -33.7158 -33.7151 -33.6684
   -19.2550 -19.2420 -19.2247 -19.2232 -19.2230 -19.2213 -19.2037 -19.2020
   -19.2012 -19.1991 -19.1958 -19.1899 -19.1226 -19.1219 -12.7137  -8.1321
    -5.3181  -3.5472  -3.3855  -3.1739  -1.0631  -0.0392   0.5332   1.8786
     2.1864   2.9620   3.2864   4.1701

          k = 0.0819 0.1418 0.0000 ( 38422 PWs)   bands (ev):

   -67.5982 -67.5694 -34.5546 -34.1134 -33.8556 -33.8329 -33.7357 -33.6966
   -19.2519 -19.2409 -19.2268 -19.2250 -19.2216 -19.2189 -19.2071 -19.2026
   -19.2019 -19.1984 -19.1892 -19.1838 -19.1288 -19.1284 -12.4587  -7.7278
    -5.4298  -3.8038  -3.6602  -2.9881  -0.7505  -0.6296   0.8722   1.6532
     1.8057   2.9994   3.5719   4.8289

          k = 0.0820 0.2363 0.0000 ( 38359 PWs)   bands (ev):

   -67.5833 -67.5580 -34.5087 -34.1400 -34.0115 -33.9914 -33.7953 -33.7402
   -19.2473 -19.2394 -19.2311 -19.2262 -19.2208 -19.2150 -19.2122 -19.2039
   -19.2021 -19.1965 -19.1778 -19.1731 -19.1394 -19.1389 -12.0358  -7.0695
    -5.5911  -4.3093  -3.8493  -2.7950  -1.3678  -0.1433   0.7434   1.9402
     2.2363   2.7778   3.9441   5.3292

          k = 0.0820 0.3308 0.0000 ( 38359 PWs)   bands (ev):

   -67.5657 -67.5453 -34.4710 -34.2832 -34.1622 -34.0643 -33.8650 -33.7883
   -19.2456 -19.2358 -19.2355 -19.2279 -19.2218 -19.2154 -19.2124 -19.2052
   -19.2000 -19.1938 -19.1643 -19.1608 -19.1513 -19.1498 -11.5865  -6.6419
    -5.5398  -4.6355  -4.0064  -2.8077  -1.8145   0.5099   0.8127   2.1931
     2.8455   3.4094   4.0767   5.9361

          k = 0.0820 0.4254 0.0000 ( 38363 PWs)   bands (ev):

   -67.5499 -67.5348 -34.5052 -34.4340 -34.2357 -34.0825 -33.9223 -33.8303
   -19.2471 -19.2390 -19.2331 -19.2281 -19.2252 -19.2143 -19.2125 -19.2054
   -19.1968 -19.1910 -19.1612 -19.1582 -19.1523 -19.1499 -11.2419  -6.7897
    -5.1711  -4.7569  -4.0131  -3.0093  -1.8174   0.8259   1.5702   2.0188
     3.6578   3.9488   4.7817   6.2964

          k = 0.0820 0.5199 0.0000 ( 38406 PWs)   bands (ev):

   -67.5401 -67.5293 -34.5781 -34.5107 -34.2279 -34.0976 -33.9538 -33.8548
   -19.2487 -19.2402 -19.2346 -19.2289 -19.2249 -19.2149 -19.2108 -19.2053
   -19.1949 -19.1891 -19.1667 -19.1624 -19.1452 -19.1438 -11.0656  -6.9722
    -5.0880  -4.7603  -3.7750  -3.2367  -1.6601   1.1841   1.6763   2.2607
     3.9726   4.4362   5.7495   6.2764

          k = 0.0818-0.5199 0.0000 ( 38410 PWs)   bands (ev):

   -67.5401 -67.5293 -34.5779 -34.5105 -34.2279 -34.0976 -33.9539 -33.8548
   -19.2487 -19.2402 -19.2345 -19.2290 -19.2250 -19.2149 -19.2109 -19.2052
   -19.1948 -19.1891 -19.1667 -19.1624 -19.1452 -19.1438 -11.0658  -6.9719
    -5.0879  -4.7602  -3.7711  -3.2411  -1.6594   1.1846   1.6763   2.2613
     3.9715   4.4368   5.7493   6.2765

          k = 0.0818-0.4253 0.0000 ( 38365 PWs)   bands (ev):

   -67.5499 -67.5348 -34.5048 -34.4336 -34.2356 -34.0826 -33.9226 -33.8304
   -19.2471 -19.2390 -19.2329 -19.2282 -19.2254 -19.2141 -19.2129 -19.2053
   -19.1967 -19.1910 -19.1613 -19.1582 -19.1523 -19.1499 -11.2424  -6.7891
    -5.1720  -4.7556  -4.0081  -3.0150  -1.8163   0.8265   1.5741   2.0167
     3.6534   3.9483   4.7805   6.2945

          k = 0.0819-0.3308 0.0000 ( 38355 PWs)   bands (ev):

   -67.5658 -67.5453 -34.4709 -34.2825 -34.1617 -34.0644 -33.8656 -33.7884
   -19.2456 -19.2358 -19.2355 -19.2279 -19.2218 -19.2154 -19.2127 -19.2051
   -19.1998 -19.1938 -19.1643 -19.1608 -19.1513 -19.1498 -11.5871  -6.6416
    -5.5413  -4.6331  -4.0025  -2.8108  -1.8142   0.5069   0.8188   2.1920
     2.8392   3.4076   4.0758   5.9384

          k = 0.0819-0.2363 0.0000 ( 38372 PWs)   bands (ev):

   -67.5833 -67.5580 -34.5088 -34.1395 -34.0114 -33.9906 -33.7960 -33.7404
   -19.2474 -19.2394 -19.2311 -19.2262 -19.2207 -19.2153 -19.2123 -19.2037
   -19.2020 -19.1967 -19.1777 -19.1731 -19.1394 -19.1389 -12.0362  -7.0698
    -5.5929  -4.3070  -3.8468  -2.7936  -1.3697  -0.1415   0.7405   1.9409
     2.2379   2.7721   3.9397   5.3339

          k = 0.0819-0.1418 0.0000 ( 38421 PWs)   bands (ev):

   -67.5982 -67.5694 -34.5547 -34.1133 -33.8547 -33.8326 -33.7363 -33.6967
   -19.2520 -19.2409 -19.2268 -19.2249 -19.2215 -19.2191 -19.2072 -19.2024
   -19.2017 -19.1988 -19.1892 -19.1837 -19.1288 -19.1284 -12.4590  -7.7282
    -5.4317  -3.8042  -3.6583  -2.9832  -0.7492  -0.6343   0.8747   1.6477
     1.8099   2.9962   3.5657   4.8372

          k = 0.0819-0.0472 0.0000 ( 38397 PWs)   bands (ev):

   -67.6066 -67.5760 -34.5823 -34.1127 -33.7585 -33.7159 -33.7154 -33.6684
   -19.2550 -19.2420 -19.2247 -19.2231 -19.2230 -19.2214 -19.2038 -19.2019
   -19.2009 -19.1994 -19.1958 -19.1899 -19.1226 -19.1219 -12.7138  -8.1323
    -5.3189  -3.5489  -3.3871  -3.1680  -1.0625  -0.0465   0.5407   1.8786
     2.1871   2.9481   3.2925   4.1763

          k = 0.1638 0.0946 0.0000 ( 38380 PWs)   bands (ev):

   -67.5941 -67.5663 -34.5419 -34.1168 -33.9148 -33.8670 -33.7600 -33.6965
   -19.2506 -19.2404 -19.2287 -19.2232 -19.2231 -19.2173 -19.2088 -19.2032
   -19.2022 -19.1976 -19.1862 -19.1810 -19.1317 -19.1311 -12.3432  -7.5526
    -5.4797  -4.0349  -3.4705  -3.1112  -1.0096  -0.3973   1.1205   1.3212
     2.0944   2.8195   3.6309   4.9293

          k = 0.1639 0.1891 0.0000 ( 38377 PWs)   bands (ev):

   -67.5832 -67.5580 -34.5085 -34.1403 -34.0126 -33.9908 -33.7955 -33.7403
   -19.2470 -19.2395 -19.2312 -19.2262 -19.2210 -19.2148 -19.2121 -19.2042
   -19.2023 -19.1963 -19.1778 -19.1732 -19.1394 -19.1389 -12.0352  -7.0685
    -5.5853  -4.3127  -3.8542  -2.8031  -1.3673  -0.1383   0.7507   1.9367
     2.2377   2.7863   3.9417   5.3247

          k = 0.1639 0.2836 0.0000 ( 38392 PWs)   bands (ev):

   -67.5680 -67.5469 -34.4707 -34.2270 -34.1481 -34.0557 -33.8610 -33.8160
   -19.2415 -19.2393 -19.2337 -19.2297 -19.2203 -19.2152 -19.2134 -19.2053
   -19.2002 -19.1948 -19.1662 -19.1625 -19.1497 -19.1494 -11.6353  -6.4254
    -5.6906  -4.6301  -4.2211  -2.5252  -1.6907   0.0605   0.4338   2.2172
     3.0404   3.2026   4.4844   5.7305

          k = 0.1639 0.3781 0.0000 ( 38342 PWs)   bands (ev):

   -67.5523 -67.5363 -34.4659 -34.3528 -34.2294 -34.0821 -33.9450 -33.8862
   -19.2416 -19.2362 -19.2352 -19.2303 -19.2226 -19.2158 -19.2136 -19.2057
   -19.1969 -19.1937 -19.1606 -19.1595 -19.1541 -19.1515 -11.2679  -6.2103
    -5.4666  -4.8016  -4.3835  -2.6463  -1.6842  -0.1878   1.2092   2.1694
     3.6379   4.2115   4.8799   6.3386

          k = 0.1639 0.4726 0.0000 ( 38364 PWs)   bands (ev):

   -67.5400 -67.5293 -34.5107 -34.4430 -34.2273 -34.1174 -34.0032 -33.9351
   -19.2440 -19.2372 -19.2340 -19.2276 -19.2247 -19.2162 -19.2136 -19.2050
   -19.1958 -19.1923 -19.1683 -19.1658 -19.1455 -19.1439 -11.0244  -6.4522
    -4.9283  -4.8664  -4.4037  -3.0259  -1.4537   0.0245   1.9795   2.3105
     3.8265   4.5343   5.4229   6.3567

          k = 0.1639 0.5672 0.0000 ( 38368 PWs)   bands (ev):

   -67.5352 -67.5272 -34.5378 -34.4720 -34.2095 -34.1443 -34.0194 -33.9534
   -19.2450 -19.2375 -19.2327 -19.2300 -19.2229 -19.2167 -19.2130 -19.2048
   -19.1959 -19.1915 -19.1711 -19.1680 -19.1421 -19.1412 -10.9413  -6.5624
    -4.8975  -4.7266  -4.3084  -3.2765  -1.3141   0.2282   2.2186   2.4621
     4.0580   4.4469   5.5832   6.1197

          k = 0.1638-0.4726 0.0000 ( 38370 PWs)   bands (ev):

   -67.5401 -67.5293 -34.5100 -34.4423 -34.2272 -34.1178 -34.0037 -33.9350
   -19.2439 -19.2372 -19.2337 -19.2278 -19.2249 -19.2161 -19.2139 -19.2049
   -19.1958 -19.1922 -19.1683 -19.1658 -19.1455 -19.1439 -11.0251  -6.4511
    -4.9313  -4.8633  -4.3988  -3.0309  -1.4526   0.0251   1.9836   2.3071
     3.8289   4.5246   5.4241   6.3573

          k = 0.1638-0.3781 0.0000 ( 38340 PWs)   bands (ev):

   -67.5524 -67.5364 -34.4653 -34.3515 -34.2291 -34.0823 -33.9459 -33.8863
   -19.2415 -19.2361 -19.2350 -19.2306 -19.2227 -19.2157 -19.2141 -19.2056
   -19.1967 -19.1937 -19.1607 -19.1595 -19.1541 -19.1515 -11.2689  -6.2092
    -5.4692  -4.7973  -4.3788  -2.6510  -1.6821  -0.1898   1.2148   2.1644
     3.6361   4.2045   4.8752   6.3422

          k = 0.1638-0.2835 0.0000 ( 38388 PWs)   bands (ev):

   -67.5681 -67.5470 -34.4707 -34.2256 -34.1476 -34.0556 -33.8618 -33.8163
   -19.2417 -19.2391 -19.2336 -19.2297 -19.2201 -19.2154 -19.2138 -19.2051
   -19.1999 -19.1949 -19.1662 -19.1625 -19.1497 -19.1495 -11.6362  -6.4261
    -5.6936  -4.6250  -4.2164  -2.5246  -1.6905   0.0526   0.4398   2.2141
     3.0348   3.2005   4.4776   5.7393

          k = 0.1638-0.1890 0.0000 ( 38370 PWs)   bands (ev):

   -67.5833 -67.5580 -34.5087 -34.1397 -34.0117 -33.9904 -33.7961 -33.7405
   -19.2472 -19.2394 -19.2312 -19.2261 -19.2208 -19.2152 -19.2123 -19.2038
   -19.2020 -19.1966 -19.1777 -19.1731 -19.1394 -19.1389 -12.0359  -7.0694
    -5.5896  -4.3089  -3.8494  -2.7981  -1.3693  -0.1386   0.7445   1.9390
     2.2385   2.7770   3.9380   5.3315

          k = 0.1638-0.0945 0.0000 ( 38374 PWs)   bands (ev):

   -67.5942 -67.5663 -34.5420 -34.1167 -33.9140 -33.8669 -33.7603 -33.6966
   -19.2507 -19.2404 -19.2287 -19.2232 -19.2228 -19.2175 -19.2089 -19.2028
   -19.2021 -19.1979 -19.1862 -19.1810 -19.1317 -19.1311 -12.3435  -7.5532
    -5.4828  -4.0344  -3.4680  -3.1047  -1.0096  -0.4022   1.1264   1.3161
     2.0960   2.8065   3.6350   4.9330

          k = 0.1638 0.0000 0.0000 ( 38420 PWs)   bands (ev):

   -67.5981 -67.5694 -34.5545 -34.1136 -33.8564 -33.8330 -33.7350 -33.6966
   -19.2518 -19.2409 -19.2269 -19.2251 -19.2217 -19.2187 -19.2071 -19.2028
   -19.2020 -19.1982 -19.1893 -19.1838 -19.1288 -19.1284 -12.4584  -7.7275
    -5.4270  -3.8035  -3.6623  -2.9944  -0.7523  -0.6239   0.8695   1.6612
     1.8004   3.0025   3.5797   4.8179

          k = 0.2458 0.1418 0.0000 ( 38349 PWs)   bands (ev):

   -67.5768 -67.5533 -34.4921 -34.1953 -34.0684 -34.0414 -33.8181 -33.7374
   -19.2470 -19.2375 -19.2339 -19.2241 -19.2229 -19.2140 -19.2131 -19.2051
   -19.2018 -19.1950 -19.1728 -19.1687 -19.1437 -19.1424 -11.8690  -6.9279
    -5.6048  -4.4758  -3.5742  -3.1348  -1.6534   0.3209   1.1720   1.8880
     2.5281   2.6773   3.7508   5.5160

          k = 0.2458 0.2363 0.0000 ( 38365 PWs)   bands (ev):

   -67.5656 -67.5452 -34.4709 -34.2840 -34.1625 -34.0646 -33.8655 -33.7885
   -19.2451 -19.2362 -19.2352 -19.2278 -19.2221 -19.2153 -19.2125 -19.2057
   -19.2001 -19.1936 -19.1643 -19.1608 -19.1513 -19.1496 -11.5852  -6.6371
    -5.5336  -4.6441  -4.0130  -2.8241  -1.8131   0.5275   0.8215   2.2033
     2.8458   3.4037   4.0787   5.9267

          k = 0.2458 0.3309 0.0000 ( 38344 PWs)   bands (ev):

   -67.5522 -67.5363 -34.4661 -34.3534 -34.2290 -34.0822 -33.9457 -33.8861
   -19.2417 -19.2359 -19.2347 -19.2307 -19.2228 -19.2155 -19.2140 -19.2060
   -19.1969 -19.1935 -19.1607 -19.1593 -19.1541 -19.1515 -11.2671  -6.2042
    -5.4715  -4.8028  -4.3863  -2.6559  -1.6846  -0.1764   1.2142   2.1738
     3.6379   4.2091   4.8826   6.3334

          k = 0.2458 0.4254 0.0000 ( 38324 PWs)   bands (ev):

   -67.5399 -67.5293 -34.4726 -34.3882 -34.2494 -34.1155 -34.0343 -33.9844
   -19.2413 -19.2350 -19.2311 -19.2302 -19.2251 -19.2166 -19.2151 -19.2050
   -19.1954 -19.1948 -19.1687 -19.1678 -19.1456 -19.1440 -11.0030  -5.7683
    -5.6047  -4.7460  -4.5331  -2.8584  -1.2601  -0.5968   1.9002   2.4536
     3.6697   4.5718   5.2454   6.6389

          k = 0.2458 0.5199 0.0000 ( 38388 PWs)   bands (ev):

   -67.5319 -67.5263 -34.4638 -34.3990 -34.2519 -34.1836 -34.0665 -34.0417
   -19.2422 -19.2325 -19.2310 -19.2287 -19.2234 -19.2189 -19.2165 -19.2031
   -19.1971 -19.1950 -19.1738 -19.1726 -19.1405 -19.1397 -10.8556  -5.9400
    -5.1446  -4.7280  -4.6208  -3.1526  -0.9460  -0.4718   2.5593   2.7676
     3.5030   4.1695   5.1625   6.3213

          k = 0.2459 0.6144 0.0000 ( 38388 PWs)   bands (ev):

   -67.5319 -67.5262 -34.4631 -34.3983 -34.2520 -34.1843 -34.0677 -34.0407
   -19.2421 -19.2323 -19.2310 -19.2289 -19.2236 -19.2189 -19.2164 -19.2030
   -19.1972 -19.1949 -19.1738 -19.1726 -19.1405 -19.1397 -10.8561  -5.9388
    -5.1447  -4.7280  -4.6187  -3.1542  -0.9455  -0.4717   2.5622   2.7634
     3.5068   4.1617   5.1629   6.3202

          k = 0.2457-0.4253 0.0000 ( 38324 PWs)   bands (ev):

   -67.5400 -67.5293 -34.4714 -34.3864 -34.2500 -34.1161 -34.0353 -33.9841
   -19.2409 -19.2349 -19.2312 -19.2306 -19.2252 -19.2169 -19.2151 -19.2048
   -19.1954 -19.1947 -19.1687 -19.1679 -19.1456 -19.1439 -11.0042  -5.7663
    -5.6051  -4.7439  -4.5290  -2.8611  -1.2574  -0.6000   1.9038   2.4473
     3.6725   4.5586   5.2452   6.6354

          k = 0.2457-0.3308 0.0000 ( 38348 PWs)   bands (ev):

   -67.5523 -67.5364 -34.4654 -34.3517 -34.2290 -34.0823 -33.9463 -33.8863
   -19.2414 -19.2360 -19.2348 -19.2308 -19.2228 -19.2156 -19.2143 -19.2057
   -19.1967 -19.1936 -19.1607 -19.1594 -19.1541 -19.1515 -11.2685  -6.2062
    -5.4716  -4.7979  -4.3805  -2.6561  -1.6821  -0.1836   1.2175   2.1667
     3.6362   4.2031   4.8768   6.3391

          k = 0.2457-0.2363 0.0000 ( 38361 PWs)   bands (ev):

   -67.5657 -67.5453 -34.4708 -34.2829 -34.1619 -34.0644 -33.8659 -33.7887
   -19.2453 -19.2360 -19.2354 -19.2278 -19.2220 -19.2155 -19.2128 -19.2054
   -19.1999 -19.1937 -19.1643 -19.1608 -19.1513 -19.1497 -11.5864  -6.6394
    -5.5376  -4.6380  -4.0061  -2.8197  -1.8132   0.5168   0.8233   2.1976
     2.8394   3.4043   4.0767   5.9332

          k = 0.2457-0.1417 0.0000 ( 38340 PWs)   bands (ev):

   -67.5769 -67.5533 -34.4922 -34.1949 -34.0674 -34.0415 -33.8182 -33.7374
   -19.2473 -19.2375 -19.2339 -19.2243 -19.2226 -19.2141 -19.2133 -19.2048
   -19.2016 -19.1951 -19.1728 -19.1686 -19.1437 -19.1424 -11.8697  -6.9296
    -5.6096  -4.4714  -3.5696  -3.1276  -1.6541   0.3167   1.1635   1.8904
     2.5164   2.6803   3.7536   5.5197

          k = 0.2457-0.0472 0.0000 ( 38363 PWs)   bands (ev):

   -67.5832 -67.5580 -34.5085 -34.1409 -34.0120 -33.9920 -33.7948 -33.7402
   -19.2470 -19.2394 -19.2313 -19.2262 -19.2209 -19.2148 -19.2122 -19.2042
   -19.2022 -19.1963 -19.1778 -19.1732 -19.1393 -19.1389 -12.0350  -7.0688
    -5.5851  -4.3145  -3.8547  -2.8019  -1.3652  -0.1432   0.7515   1.9377
     2.2358   2.7892   3.9480   5.3204

          k = 0.2458 0.0473 0.0000 ( 38367 PWs)   bands (ev):

   -67.5832 -67.5580 -34.5084 -34.1410 -34.0128 -33.9915 -33.7948 -33.7402
   -19.2469 -19.2394 -19.2313 -19.2262 -19.2210 -19.2147 -19.2121 -19.2043
   -19.2023 -19.1962 -19.1778 -19.1732 -19.1394 -19.1388 -12.0347  -7.0682
    -5.5827  -4.3159  -3.8569  -2.8055  -1.3650  -0.1411   0.7548   1.9360
     2.2365   2.7929   3.9473   5.3182

          k = 0.3277 0.1891 0.0000 ( 38396 PWs)   bands (ev):

   -67.5589 -67.5407 -34.4805 -34.3758 -34.2117 -34.0719 -33.8741 -33.7794
   -19.2477 -19.2382 -19.2327 -19.2262 -19.2259 -19.2143 -19.2121 -19.2060
   -19.1990 -19.1917 -19.1592 -19.1562 -19.1551 -19.1522 -11.4439  -6.8448
    -5.3635  -4.6981  -3.6366  -3.2528  -1.9167   1.1359   1.5051   2.0955
     2.6844   3.7780   3.9101   6.0435

          k = 0.3277 0.2836 0.0000 ( 38367 PWs)   bands (ev):

   -67.5496 -67.5348 -34.5063 -34.4355 -34.2341 -34.0837 -33.9230 -33.8307
   -19.2471 -19.2388 -19.2324 -19.2281 -19.2256 -19.2142 -19.2131 -19.2061
   -19.1968 -19.1909 -19.1612 -19.1579 -19.1523 -19.1499 -11.2396  -6.7845
    -5.1666  -4.7679  -4.0203  -3.0286  -1.8152   0.8494   1.5807   2.0329
     3.6563   3.9492   4.7813   6.2855

          k = 0.3277 0.3781 0.0000 ( 38378 PWs)   bands (ev):

   -67.5398 -67.5293 -34.5118 -34.4445 -34.2254 -34.1178 -34.0046 -33.9348
   -19.2444 -19.2365 -19.2335 -19.2275 -19.2252 -19.2159 -19.2142 -19.2056
   -19.1959 -19.1921 -19.1683 -19.1655 -19.1455 -19.1439 -11.0224  -6.4488
    -4.9348  -4.8686  -4.4062  -3.0379  -1.4544   0.0394   1.9901   2.3205
     3.8283   4.5298   5.4240   6.3670

          k = 0.3277 0.4727 0.0000 ( 38380 PWs)   bands (ev):

   -67.5317 -67.5263 -34.4650 -34.4004 -34.2511 -34.1820 -34.0680 -34.0411
   -19.2426 -19.2322 -19.2302 -19.2287 -19.2239 -19.2187 -19.2167 -19.2033
   -19.1973 -19.1948 -19.1738 -19.1724 -19.1405 -19.1397 -10.8544  -5.9396
    -5.1487  -4.7329  -4.6172  -3.1568  -0.9494  -0.4637   2.5681   2.7724
     3.5019   4.1694   5.1610   6.3233

          k = 0.3278 0.5672 0.0000 ( 38350 PWs)   bands (ev):

   -67.5271 -67.5269 -34.3853 -34.3445 -34.3437 -34.2326 -34.0830 -34.0805
   -19.2419 -19.2302 -19.2301 -19.2236 -19.2232 -19.2216 -19.2206 -19.2000
   -19.1983 -19.1980 -19.1756 -19.1755 -19.1384 -19.1384 -10.7908  -5.4412
    -5.4374  -4.9155  -4.5615  -3.1833  -0.6387  -0.6334   2.9579   2.9594
     3.4960   3.5035   4.8874   6.6782

          k = 0.3278 0.6617 0.0000 ( 38386 PWs)   bands (ev):

   -67.5318 -67.5263 -34.4638 -34.3988 -34.2517 -34.1835 -34.0684 -34.0405
   -19.2423 -19.2321 -19.2306 -19.2289 -19.2239 -19.2189 -19.2165 -19.2031
   -19.1973 -19.1948 -19.1738 -19.1725 -19.1405 -19.1397 -10.8554  -5.9388
    -5.1469  -4.7305  -4.6171  -3.1562  -0.9474  -0.4674   2.5671   2.7659
     3.5061   4.1619   5.1622   6.3206

          k = 0.3276-0.3780 0.0000 ( 38366 PWs)   bands (ev):

   -67.5399 -67.5293 -34.5108 -34.4428 -34.2264 -34.1179 -34.0045 -33.9350
   -19.2440 -19.2369 -19.2335 -19.2278 -19.2252 -19.2161 -19.2141 -19.2052
   -19.1958 -19.1920 -19.1683 -19.1657 -19.1455 -19.1439 -11.0240  -6.4497
    -4.9348  -4.8645  -4.4005  -3.0369  -1.4527   0.0332   1.9890   2.3126
     3.8300   4.5220   5.4248   6.3622

          k = 0.3276-0.2835 0.0000 ( 38371 PWs)   bands (ev):

   -67.5497 -67.5348 -34.5055 -34.4341 -34.2349 -34.0831 -33.9231 -33.8307
   -19.2470 -19.2390 -19.2326 -19.2281 -19.2256 -19.2141 -19.2132 -19.2057
   -19.1967 -19.1909 -19.1612 -19.1581 -19.1523 -19.1499 -11.2411  -6.7867
    -5.1694  -4.7618  -4.0121  -3.0252  -1.8147   0.8395   1.5793   2.0245
     3.6523   3.9486   4.7802   6.2877

          k = 0.3276-0.1890 0.0000 ( 38397 PWs)   bands (ev):

   -67.5590 -67.5407 -34.4802 -34.3749 -34.2120 -34.0714 -33.8741 -33.7793
   -19.2478 -19.2383 -19.2330 -19.2262 -19.2258 -19.2142 -19.2123 -19.2056
   -19.1989 -19.1917 -19.1592 -19.1562 -19.1551 -19.1523 -11.4450  -6.8478
    -5.3671  -4.6925  -3.6307  -3.2450  -1.9171   1.1274   1.4964   2.0857
     2.6859   3.7793   3.9123   6.0464

          k = 0.3276-0.0945 0.0000 ( 38355 PWs)   bands (ev):

   -67.5656 -67.5452 -34.4709 -34.2844 -34.1628 -34.0644 -33.8648 -33.7883
   -19.2453 -19.2360 -19.2354 -19.2280 -19.2218 -19.2154 -19.2123 -19.2056
   -19.2001 -19.1937 -19.1643 -19.1608 -19.1513 -19.1497 -11.5851  -6.6400
    -5.5342  -4.6435  -4.0143  -2.8137  -1.8139   0.5233   0.8094   2.2007
     2.8536   3.4091   4.0781   5.9280

          k = 0.3277 0.0001 0.0000 ( 38388 PWs)   bands (ev):

   -67.5679 -67.5469 -34.4706 -34.2289 -34.1485 -34.0559 -33.8602 -33.8157
   -19.2413 -19.2393 -19.2339 -19.2296 -19.2203 -19.2152 -19.2132 -19.2055
   -19.2004 -19.1947 -19.1662 -19.1625 -19.1497 -19.1494 -11.6341  -6.4249
    -5.6867  -4.6369  -4.2263  -2.5267  -1.6910   0.0703   0.4257   2.2218
     3.0473   3.2063   4.4923   5.7190

          k = 0.3277 0.0946 0.0000 ( 38359 PWs)   bands (ev):

   -67.5655 -67.5452 -34.4709 -34.2848 -34.1629 -34.0647 -33.8650 -33.7883
   -19.2452 -19.2362 -19.2352 -19.2279 -19.2220 -19.2153 -19.2123 -19.2058
   -19.2002 -19.1936 -19.1643 -19.1609 -19.1513 -19.1496 -11.5845  -6.6375
    -5.5318  -4.6473  -4.0172  -2.8212  -1.8135   0.5311   0.8136   2.2054
     2.8538   3.4066   4.0792   5.9238

          k = 0.4096 0.2364 0.0000 ( 38410 PWs)   bands (ev):

   -67.5450 -67.5322 -34.5619 -34.4975 -34.2375 -34.0858 -33.9142 -33.8106
   -19.2499 -19.2403 -19.2334 -19.2279 -19.2263 -19.2136 -19.2119 -19.2061
   -19.1955 -19.1889 -19.1629 -19.1584 -19.1489 -19.1471 -11.1721  -7.0569
    -5.1783  -4.7800  -3.4643  -3.3761  -1.8285   1.5321   1.8287   2.1537
     3.1356   4.3230   5.1300   6.1878

          k = 0.4096 0.3309 0.0000 ( 38411 PWs)   bands (ev):

   -67.5397 -67.5294 -34.5798 -34.5130 -34.2243 -34.0999 -33.9546 -33.8552
   -19.2489 -19.2398 -19.2342 -19.2287 -19.2250 -19.2149 -19.2116 -19.2061
   -19.1948 -19.1890 -19.1666 -19.1620 -19.1451 -19.1439 -11.0623  -6.9695
    -5.0854  -4.7719  -3.7842  -3.2517  -1.6579   1.2049   1.6867   2.2806
     3.9743   4.4370   5.7565   6.2750

          k = 0.4097 0.4254 0.0000 ( 38376 PWs)   bands (ev):

   -67.5347 -67.5273 -34.5398 -34.4745 -34.2058 -34.1454 -34.0208 -33.9530
   -19.2456 -19.2366 -19.2327 -19.2297 -19.2228 -19.2166 -19.2137 -19.2054
   -19.1960 -19.1914 -19.1711 -19.1677 -19.1421 -19.1412 -10.9382  -6.5618
    -4.8994  -4.7359  -4.3133  -3.2837  -1.3158   0.2413   2.2283   2.4794
     4.0530   4.4557   5.5793   6.1268

          k = 0.4097 0.5199 0.0000 ( 38380 PWs)   bands (ev):

   -67.5316 -67.5264 -34.4658 -34.4013 -34.2501 -34.1819 -34.0673 -34.0416
   -19.2427 -19.2325 -19.2302 -19.2285 -19.2236 -19.2186 -19.2169 -19.2034
   -19.1972 -19.1950 -19.1738 -19.1724 -19.1404 -19.1397 -10.8536  -5.9413
    -5.1486  -4.7335  -4.6193  -3.1548  -0.9504  -0.4639   2.5640   2.7784
     3.4969   4.1787   5.1616   6.3248

          k = 0.4097 0.6145 0.0000 ( 38384 PWs)   bands (ev):

   -67.5317 -67.5263 -34.4654 -34.4004 -34.2507 -34.1826 -34.0665 -34.0420
   -19.2425 -19.2326 -19.2306 -19.2285 -19.2234 -19.2187 -19.2167 -19.2033
   -19.1972 -19.1950 -19.1738 -19.1725 -19.1405 -19.1397 -10.8542  -5.9418
    -5.1467  -4.7311  -4.6213  -3.1526  -0.9488  -0.4676   2.5600   2.7761
     3.4973   4.1790   5.1624   6.3231

          k = 0.4097 0.7090 0.0000 ( 38369 PWs)   bands (ev):

   -67.5349 -67.5272 -34.5390 -34.4730 -34.2076 -34.1449 -34.0202 -33.9533
   -19.2452 -19.2371 -19.2328 -19.2298 -19.2229 -19.2167 -19.2134 -19.2051
   -19.1960 -19.1914 -19.1711 -19.1678 -19.1421 -19.1412 -10.9395  -6.5626
    -4.8983  -4.7320  -4.3115  -3.2798  -1.3148   0.2351   2.2234   2.4718
     4.0550   4.4521   5.5812   6.1230

          k = 0.4095-0.3308 0.0000 ( 38415 PWs)   bands (ev):

   -67.5399 -67.5294 -34.5790 -34.5115 -34.2261 -34.0988 -33.9544 -33.8551
   -19.2487 -19.2401 -19.2343 -19.2289 -19.2249 -19.2149 -19.2113 -19.2057
   -19.1948 -19.1890 -19.1666 -19.1622 -19.1452 -19.1438 -11.0639  -6.9710
    -5.0864  -4.7669  -3.7766  -3.2484  -1.6578   1.1959   1.6813   2.2722
     3.9721   4.4373   5.7532   6.2752

          k = 0.4095-0.2362 0.0000 ( 38404 PWs)   bands (ev):

   -67.5452 -67.5322 -34.5612 -34.4961 -34.2389 -34.0848 -33.9140 -33.8104
   -19.2497 -19.2405 -19.2337 -19.2280 -19.2262 -19.2137 -19.2116 -19.2057
   -19.1955 -19.1889 -19.1629 -19.1585 -19.1489 -19.1471 -11.1735  -7.0591
    -5.1805  -4.7746  -3.4588  -3.3679  -1.8294   1.5267   1.8123   2.1462
     3.1392   4.3215   5.1296   6.1909

          k = 0.4096-0.1417 0.0000 ( 38365 PWs)   bands (ev):

   -67.5497 -67.5348 -34.5063 -34.4350 -34.2349 -34.0831 -33.9224 -33.8305
   -19.2470 -19.2390 -19.2331 -19.2280 -19.2252 -19.2144 -19.2126 -19.2058
   -19.1969 -19.1910 -19.1612 -19.1581 -19.1522 -19.1500 -11.2400  -6.7882
    -5.1674  -4.7649  -4.0224  -3.0137  -1.8173   0.8378   1.5705   2.0300
     3.6619   3.9495   4.7835   6.2923

          k = 0.4096-0.0472 0.0000 ( 38344 PWs)   bands (ev):

   -67.5521 -67.5363 -34.4667 -34.3546 -34.2290 -34.0822 -33.9446 -33.8859
   -19.2417 -19.2362 -19.2351 -19.2303 -19.2226 -19.2157 -19.2135 -19.2060
   -19.1971 -19.1936 -19.1606 -19.1594 -19.1541 -19.1516 -11.2661  -6.2087
    -5.4665  -4.8074  -4.3904  -2.6462  -1.6876  -0.1791   1.2043   2.1794
     3.6398   4.2191   4.8873   6.3312

          k = 0.4096 0.0473 0.0000 ( 38338 PWs)   bands (ev):

   -67.5521 -67.5363 -34.4668 -34.3550 -34.2287 -34.0823 -33.9450 -33.8858
   -19.2418 -19.2360 -19.2348 -19.2305 -19.2226 -19.2155 -19.2137 -19.2061
   -19.1971 -19.1936 -19.1607 -19.1593 -19.1541 -19.1516 -11.2657  -6.2055
    -5.4689  -4.8080  -4.3916  -2.6508  -1.6879  -0.1740   1.2067   2.1814
     3.6397   4.2182   4.8884   6.3291

          k = 0.4096 0.1419 0.0000 ( 38361 PWs)   bands (ev):

   -67.5495 -67.5348 -34.5067 -34.4360 -34.2340 -34.0838 -33.9227 -33.8306
   -19.2471 -19.2388 -19.2327 -19.2280 -19.2254 -19.2142 -19.2129 -19.2061
   -19.1969 -19.1909 -19.1612 -19.1579 -19.1522 -19.1500 -11.2390  -6.7853
    -5.1655  -4.7697  -4.0256  -3.0228  -1.8167   0.8484   1.5758   2.0362
     3.6614   3.9495   4.7834   6.2883

          k =-0.4915-0.2837 0.0000 ( 38452 PWs)   bands (ev):

   -67.5396 -67.5294 -34.6091 -34.5404 -34.2262 -34.0942 -33.9287 -33.8220
   -19.2508 -19.2407 -19.2354 -19.2286 -19.2254 -19.2145 -19.2102 -19.2062
   -19.1940 -19.1878 -19.1657 -19.1604 -19.1450 -19.1438 -11.0821  -7.1552
    -5.1723  -4.8058  -3.4264  -3.2909  -1.7654   1.4260   2.0953   2.3332
     3.1928   4.7992   5.7718   6.3354

          k =-0.4915-0.1891 0.0000 ( 38410 PWs)   bands (ev):

   -67.5396 -67.5294 -34.5800 -34.5132 -34.2242 -34.1000 -33.9544 -33.8552
   -19.2489 -19.2397 -19.2343 -19.2286 -19.2249 -19.2148 -19.2115 -19.2061
   -19.1948 -19.1890 -19.1666 -19.1620 -19.1451 -19.1439 -11.0620  -6.9699
    -5.0855  -4.7721  -3.7881  -3.2473  -1.6587   1.2041   1.6869   2.2800
     3.9754   4.4360   5.7571   6.2760

          k =-0.4915-0.0946 0.0000 ( 38380 PWs)   bands (ev):

   -67.5397 -67.5294 -34.5126 -34.4454 -34.2248 -34.1179 -34.0042 -33.9347
   -19.2445 -19.2365 -19.2338 -19.2272 -19.2250 -19.2159 -19.2142 -19.2056
   -19.1959 -19.1922 -19.1683 -19.1655 -19.1454 -19.1439 -11.0214  -6.4503
    -4.9316  -4.8721  -4.4116  -3.0326  -1.4562   0.0384   1.9848   2.3256
     3.8249   4.5411   5.4238   6.3672

          k =-0.4915-0.0001 0.0000 ( 38320 PWs)   bands (ev):

   -67.5398 -67.5293 -34.4739 -34.3903 -34.2479 -34.1154 -34.0337 -33.9843
   -19.2415 -19.2352 -19.2307 -19.2301 -19.2250 -19.2164 -19.2153 -19.2052
   -19.1953 -19.1951 -19.1687 -19.1678 -19.1456 -19.1440 -11.0013  -5.7716
    -5.6041  -4.7481  -4.5383  -2.8551  -1.2644  -0.5929   1.8951   2.4628
     3.6657   4.5873   5.2474   6.6436

          k =-0.4915 0.0944 0.0000 ( 38370 PWs)   bands (ev):

   -67.5398 -67.5294 -34.5122 -34.4444 -34.2259 -34.1176 -34.0035 -33.9349
   -19.2442 -19.2369 -19.2341 -19.2273 -19.2248 -19.2161 -19.2138 -19.2053
   -19.1960 -19.1922 -19.1682 -19.1657 -19.1454 -19.1439 -11.0223  -6.4522
    -4.9285  -4.8712  -4.4108  -3.0266  -1.4557   0.0316   1.9796   2.3211
     3.8243   4.5431   5.4233   6.3619

          k =-0.4915 0.1890 0.0000 ( 38410 PWs)   bands (ev):

   -67.5398 -67.5294 -34.5794 -34.5118 -34.2259 -34.0988 -33.9541 -33.8551
   -19.2487 -19.2401 -19.2346 -19.2287 -19.2249 -19.2149 -19.2112 -19.2057
   -19.1949 -19.1890 -19.1666 -19.1622 -19.1452 -19.1438 -11.0634  -6.9717
    -5.0866  -4.7672  -3.7842  -3.2397  -1.6593   1.1946   1.6815   2.2710
     3.9743   4.4356   5.7540   6.2760

          k =-0.4916-0.8508 0.0000 ( 38440 PWs)   bands (ev):

   -67.5398 -67.5294 -34.6084 -34.5389 -34.2282 -34.0928 -33.9285 -33.8218
   -19.2507 -19.2409 -19.2355 -19.2288 -19.2254 -19.2146 -19.2099 -19.2058
   -19.1940 -19.1878 -19.1657 -19.1606 -19.1450 -19.1438 -11.0837  -7.1569
    -5.1737  -4.8005  -3.4185  -3.2853  -1.7668   1.4204   2.0794   2.3240
     3.1967   4.7982   5.7678   6.3382

     the Fermi energy is     0.8293 ev

!    total energy              =   -1375.70077363 Ry
     estimated scf accuracy    <          5.3E-13 Ry
     smearing contrib. (-TS)   =      -0.00000368 Ry
     internal energy E=F+TS    =   -1375.70076995 Ry

     The total energy is F=E-TS. E is the sum of the following terms:
     one-electron contribution =  -11616.53156194 Ry
     hartree contribution      =    5838.41234091 Ry
     xc contribution           =    -140.31305964 Ry
     ewald contribution        =    4542.73151073 Ry

     convergence has been achieved in  18 iterations

     negative rho (up, down):  2.354E-04 0.000E+00

     Forces acting on atoms (cartesian axes, Ry/au):

     atom    1 type  2   force =    -0.00045447    0.00025788   -0.00000082
     atom    2 type  1   force =     0.00003902    0.00027360   -0.00019151
     atom    3 type  1   force =     0.00009877   -0.00034930    0.00019038
     atom    4 type  3   force =     0.00026929   -0.00055424   -0.00005782
     atom    5 type  3   force =     0.00004738    0.00037206    0.00005977

     Total force =     0.001040     Total SCF correction =     0.000005


     Computing stress (Cartesian axis) and pressure


     negative rho (up, down):  2.354E-04 0.000E+00
          total   stress  (Ry/bohr**3)                   (kbar)     P=        0.05
  -0.00000043   0.00000012   0.00000076           -0.06        0.02        0.11
   0.00000012   0.00000235  -0.00000378            0.02        0.35       -0.56
   0.00000076  -0.00000378  -0.00000095            0.11       -0.56       -0.14


     Writing output data file /scratch/as3359/Ta2CH2-VCrelax/Ta.save/
 
     init_run     :     41.83s CPU     22.89s WALL (       1 calls)
     electrons    :   1663.13s CPU    846.51s WALL (       1 calls)
     forces       :     11.82s CPU      6.08s WALL (       1 calls)
     stress       :     51.73s CPU     26.50s WALL (       1 calls)

     Called by init_run:
     wfcinit      :     33.51s CPU     17.30s WALL (       1 calls)
     potinit      :      2.29s CPU      1.17s WALL (       1 calls)
     hinit0       :      4.57s CPU      3.44s WALL (       1 calls)

     Called by electrons:
     c_bands      :   1367.90s CPU    691.03s WALL (      18 calls)
     sum_band     :    265.90s CPU    137.57s WALL (      18 calls)
     v_of_rho     :      4.74s CPU      2.61s WALL (      19 calls)
     newd         :     23.93s CPU     14.97s WALL (      19 calls)
     mix_rho      :      1.81s CPU      1.01s WALL (      18 calls)

     Called by c_bands:
     init_us_2    :     29.68s CPU     14.87s WALL (    2886 calls)
     cegterg      :   1283.78s CPU    648.56s WALL (    1332 calls)

     Called by *egterg:
     cdiaghg      :     16.49s CPU      8.45s WALL (    7044 calls)
     h_psi        :   1068.60s CPU    540.69s WALL (    7118 calls)
     s_psi        :     46.92s CPU     23.50s WALL (    7118 calls)
     g_psi        :      4.57s CPU      2.30s WALL (    5712 calls)

     Called by h_psi:
     h_psi:calbec :     37.77s CPU     18.93s WALL (    7118 calls)
     vloc_psi     :    971.32s CPU    491.79s WALL (    7118 calls)
     add_vuspsi   :     51.84s CPU     25.96s WALL (    7118 calls)

     General routines
     calbec       :     54.18s CPU     27.18s WALL (    8820 calls)
     fft          :      2.24s CPU      1.15s WALL (     234 calls)
     ffts         :      0.16s CPU      0.08s WALL (      18 calls)
     fftw         :   1010.45s CPU    512.00s WALL (  290616 calls)
 
     Parallel routines
 
     PWSCF        :  29m33.64s CPU  15m 6.61s WALL

 
   This run was terminated on:  16:18:49   7Apr2022            

=------------------------------------------------------------------------------=
   JOB DONE.
=------------------------------------------------------------------------------=
