
     Program PWSCF v.6.8 starts on  7Apr2022 at 15:36:44 

     This program is part of the open-source Quantum ESPRESSO suite
     for quantum simulation of materials; please cite
         "P. Giannozzi et al., J. Phys.:Condens. Matter 21 395502 (2009);
         "P. Giannozzi et al., J. Phys.:Condens. Matter 29 465901 (2017);
         "P. Giannozzi et al., J. Chem. Phys. 152 154105 (2020);
          URL http://www.quantum-espresso.org", 
     in publications or presentations arising from this work. More details at
     http://www.quantum-espresso.org/quote

     Parallel version (MPI & OpenMP), running on       4 processor cores
     Number of MPI processes:                 2
     Threads/MPI process:                     2

     MPI processes distributed on     1 nodes
     R & G space division:  proc/nbgrp/npool/nimage =       2
     123856 MiB available memory on the printing compute node when the environment starts
 
     Reading input from Ta2CH2.scf.120.in

     Current dimensions of program PWSCF are:
     Max number of different atomic species (ntypx) = 10
     Max number of k-points (npk) =  40000
     Max angular momentum in pseudopotentials (lmaxx) =  4
     file Ta.pbesol-spfn-rrkjus_psl.1.0.0.UPF: wavefunction(s)  5S 5P renormalized

     Subspace diagonalization in iterative solution of the eigenvalue problem:
     a serial algorithm will be used

 
     Parallelization info
     --------------------
     sticks:   dense  smooth     PW     G-vecs:    dense   smooth      PW
     Min         524     524    156               136118   136118   22734
     Max         525     525    157               136121   136121   22767
     Sum        1049    1049    313               272239   272239   45501
 
     Using Slab Decomposition
 


     bravais-lattice index     =            0
     lattice parameter (alat)  =       5.5500  a.u.
     unit-cell volume          =    1533.2393 (a.u.)^3
     number of atoms/cell      =            5
     number of atomic types    =            3
     number of electrons       =        60.00
     number of Kohn-Sham states=           36
     kinetic-energy cutoff     =     120.0000  Ry
     charge density cutoff     =     480.0000  Ry
     scf convergence threshold =      1.0E-12
     mixing beta               =       0.7000
     number of iterations used =            8  plain     mixing
     Exchange-correlation= PBESOL
                           (   1   4  10   8   0   0   0)

     celldm(1)=   5.550000  celldm(2)=   0.000000  celldm(3)=   0.000000
     celldm(4)=   0.000000  celldm(5)=   0.000000  celldm(6)=   0.000000

     crystal axes: (cart. coord. in units of alat)
               a(1) = (   1.017295  -0.000177   0.000000 )  
               a(2) = (  -0.508801   0.881714   0.000000 )  
               a(3) = (   0.000000   0.000000  10.000000 )  

     reciprocal axes: (cart. coord. in units 2 pi/alat)
               b(1) = (  0.983098  0.567305  0.000000 )  
               b(2) = (  0.000198  1.134269  0.000000 )  
               b(3) = (  0.000000  0.000000  0.100000 )  


     PseudoPot. # 1 for Ta read from file:
     /shared/home/as3359/pseudo/Ta.pbesol-spfn-rrkjus_psl.1.0.0.UPF
     MD5 check sum: f099565ffaca9b150a52e9412a28e20b
     Pseudo is Ultrasoft + core correction, Zval = 27.0
     Generated using &quot;atomic&quot; code by A. Dal Corso  v.6.3
     Using radial grid of 1273 points,  8 beta functions with: 
                l(1) =   0
                l(2) =   0
                l(3) =   1
                l(4) =   1
                l(5) =   2
                l(6) =   2
                l(7) =   3
                l(8) =   3
     Q(r) pseudized with 0 coefficients 


     PseudoPot. # 2 for C  read from file:
     /shared/home/as3359/pseudo/C.pbesol-n-rrkjus_psl.1.0.0.UPF
     MD5 check sum: 05995be603a8a7c99da3dc4413f31573
     Pseudo is Ultrasoft + core correction, Zval =  4.0
     Generated using &quot;atomic&quot; code by A. Dal Corso  v.6.3MaX
     Using radial grid of 1073 points,  4 beta functions with: 
                l(1) =   0
                l(2) =   0
                l(3) =   1
                l(4) =   1
     Q(r) pseudized with 0 coefficients 


     PseudoPot. # 3 for H  read from file:
     /shared/home/as3359/pseudo/H.pbesol-rrkjus_psl.0.1.UPF
     MD5 check sum: 1dbb1a5c48b1283557b8117eb856a7ca
     Pseudo is Ultrasoft, Zval =  1.0
     Generated using "atomic" code by A. Dal Corso  v.5.0.2 svn rev. 9415
     Using radial grid of  929 points,  2 beta functions with: 
                l(1) =   0
                l(2) =   0
     Q(r) pseudized with 0 coefficients 


     atomic species   valence    mass     pseudopotential
        Ta            27.00   180.94788     Ta( 1.00)
        C              4.00    12.01070     C ( 1.00)
        H              1.00     1.00000     H ( 1.00)

     No symmetry found



   Cartesian axes

     site n.     atom                  positions (alat units)
         1           C   tau(   1) = (   0.0000000   0.0000000   0.0000000  )
         2           Ta  tau(   2) = (   0.5088008   0.2948413  -0.4364511  )
         3           Ta  tau(   3) = (  -0.0007447   0.5869407   0.4364532  )
         4           H   tau(   4) = (  -0.0017928  -0.0015314   0.8341930  )
         5           H   tau(   5) = (   0.0002769   0.0024412  -0.8341930  )

     number of k points=    74  Marzari-Vanderbilt smearing, width (Ry)=  0.0010
                       cart. coord. in units 2pi/alat
        k(    1) = (   0.0000000   0.0000000   0.0000000), wk =   0.0138889
        k(    2) = (   0.0000165   0.0945224   0.0000000), wk =   0.0277778
        k(    3) = (   0.0000329   0.1890448   0.0000000), wk =   0.0277778
        k(    4) = (   0.0000494   0.2835672   0.0000000), wk =   0.0277778
        k(    5) = (   0.0000659   0.3780896   0.0000000), wk =   0.0277778
        k(    6) = (   0.0000823   0.4726120   0.0000000), wk =   0.0277778
        k(    7) = (  -0.0000988  -0.5671343   0.0000000), wk =   0.0138889
        k(    8) = (   0.0819248   0.0472755   0.0000000), wk =   0.0277778
        k(    9) = (   0.0819413   0.1417978   0.0000000), wk =   0.0277778
        k(   10) = (   0.0819577   0.2363202   0.0000000), wk =   0.0277778
        k(   11) = (   0.0819742   0.3308426   0.0000000), wk =   0.0277778
        k(   12) = (   0.0819907   0.4253650   0.0000000), wk =   0.0277778
        k(   13) = (   0.0820071   0.5198874   0.0000000), wk =   0.0277778
        k(   14) = (   0.0818260  -0.5198589   0.0000000), wk =   0.0277778
        k(   15) = (   0.0818425  -0.4253365   0.0000000), wk =   0.0277778
        k(   16) = (   0.0818590  -0.3308141   0.0000000), wk =   0.0277778
        k(   17) = (   0.0818754  -0.2362917   0.0000000), wk =   0.0277778
        k(   18) = (   0.0818919  -0.1417693   0.0000000), wk =   0.0277778
        k(   19) = (   0.0819084  -0.0472469   0.0000000), wk =   0.0277778
        k(   20) = (   0.1638496   0.0945509   0.0000000), wk =   0.0277778
        k(   21) = (   0.1638661   0.1890733   0.0000000), wk =   0.0277778
        k(   22) = (   0.1638826   0.2835957   0.0000000), wk =   0.0277778
        k(   23) = (   0.1638990   0.3781181   0.0000000), wk =   0.0277778
        k(   24) = (   0.1639155   0.4726405   0.0000000), wk =   0.0277778
        k(   25) = (   0.1639319   0.5671629   0.0000000), wk =   0.0277778
        k(   26) = (   0.1637508  -0.4725834   0.0000000), wk =   0.0277778
        k(   27) = (   0.1637673  -0.3780610   0.0000000), wk =   0.0277778
        k(   28) = (   0.1637838  -0.2835386   0.0000000), wk =   0.0277778
        k(   29) = (   0.1638002  -0.1890163   0.0000000), wk =   0.0277778
        k(   30) = (   0.1638167  -0.0944939   0.0000000), wk =   0.0277778
        k(   31) = (   0.1638332   0.0000285   0.0000000), wk =   0.0277778
        k(   32) = (   0.2457744   0.1418264   0.0000000), wk =   0.0277778
        k(   33) = (   0.2457909   0.2363488   0.0000000), wk =   0.0277778
        k(   34) = (   0.2458074   0.3308711   0.0000000), wk =   0.0277778
        k(   35) = (   0.2458238   0.4253935   0.0000000), wk =   0.0277778
        k(   36) = (   0.2458403   0.5199159   0.0000000), wk =   0.0277778
        k(   37) = (   0.2458568   0.6144383   0.0000000), wk =   0.0277778
        k(   38) = (   0.2456757  -0.4253080   0.0000000), wk =   0.0277778
        k(   39) = (   0.2456921  -0.3307856   0.0000000), wk =   0.0277778
        k(   40) = (   0.2457086  -0.2362632   0.0000000), wk =   0.0277778
        k(   41) = (   0.2457251  -0.1417408   0.0000000), wk =   0.0277778
        k(   42) = (   0.2457415  -0.0472184   0.0000000), wk =   0.0277778
        k(   43) = (   0.2457580   0.0473040   0.0000000), wk =   0.0277778
        k(   44) = (   0.3276993   0.1891018   0.0000000), wk =   0.0277778
        k(   45) = (   0.3277157   0.2836242   0.0000000), wk =   0.0277778
        k(   46) = (   0.3277322   0.3781466   0.0000000), wk =   0.0277778
        k(   47) = (   0.3277486   0.4726690   0.0000000), wk =   0.0277778
        k(   48) = (   0.3277651   0.5671914   0.0000000), wk =   0.0277778
        k(   49) = (   0.3277816   0.6617138   0.0000000), wk =   0.0277778
        k(   50) = (   0.3276005  -0.3780325   0.0000000), wk =   0.0277778
        k(   51) = (   0.3276169  -0.2835101   0.0000000), wk =   0.0277778
        k(   52) = (   0.3276334  -0.1889877   0.0000000), wk =   0.0277778
        k(   53) = (   0.3276499  -0.0944653   0.0000000), wk =   0.0277778
        k(   54) = (   0.3276663   0.0000570   0.0000000), wk =   0.0277778
        k(   55) = (   0.3276828   0.0945794   0.0000000), wk =   0.0277778
        k(   56) = (   0.4096241   0.2363773   0.0000000), wk =   0.0277778
        k(   57) = (   0.4096405   0.3308997   0.0000000), wk =   0.0277778
        k(   58) = (   0.4096570   0.4254221   0.0000000), wk =   0.0277778
        k(   59) = (   0.4096735   0.5199445   0.0000000), wk =   0.0277778
        k(   60) = (   0.4096899   0.6144668   0.0000000), wk =   0.0277778
        k(   61) = (   0.4097064   0.7089892   0.0000000), wk =   0.0277778
        k(   62) = (   0.4095253  -0.3307571   0.0000000), wk =   0.0277778
        k(   63) = (   0.4095418  -0.2362347   0.0000000), wk =   0.0277778
        k(   64) = (   0.4095582  -0.1417123   0.0000000), wk =   0.0277778
        k(   65) = (   0.4095747  -0.0471899   0.0000000), wk =   0.0277778
        k(   66) = (   0.4095911   0.0473325   0.0000000), wk =   0.0277778
        k(   67) = (   0.4096076   0.1418549   0.0000000), wk =   0.0277778
        k(   68) = (  -0.4915489  -0.2836527   0.0000000), wk =   0.0138889
        k(   69) = (  -0.4915324  -0.1891303   0.0000000), wk =   0.0277778
        k(   70) = (  -0.4915160  -0.0946080   0.0000000), wk =   0.0277778
        k(   71) = (  -0.4914995  -0.0000856   0.0000000), wk =   0.0277778
        k(   72) = (  -0.4914830   0.0944368   0.0000000), wk =   0.0277778
        k(   73) = (  -0.4914666   0.1889592   0.0000000), wk =   0.0277778
        k(   74) = (  -0.4916477  -0.8507871   0.0000000), wk =   0.0138889

     Dense  grid:   272239 G-vectors     FFT dimensions: (  40,  40, 400)

     Estimated max dynamical RAM per process >       1.98 GB

     Estimated total dynamical RAM >       3.96 GB

     Initial potential from superposition of free atoms

     starting charge   59.99840, renormalised to   60.00000

     negative rho (up, down):  3.219E-04 0.000E+00
     Starting wfcs are   40 randomized atomic wfcs

     total cpu time spent up to now is       18.2 secs

     Self-consistent Calculation

     iteration #  1     ecut=   120.00 Ry     beta= 0.70
     Davidson diagonalization with overlap
     ethr =  1.00E-02,  avg # of iterations =  2.0

     negative rho (up, down):  1.731E-04 0.000E+00

     total cpu time spent up to now is       50.7 secs

     total energy              =   -1375.12121882 Ry
     estimated scf accuracy    <       1.04955996 Ry

     iteration #  2     ecut=   120.00 Ry     beta= 0.70
     Davidson diagonalization with overlap
     ethr =  1.75E-03,  avg # of iterations =  7.4

     negative rho (up, down):  1.479E-04 0.000E+00

     total cpu time spent up to now is       95.8 secs

     total energy              =   -1374.71217927 Ry
     estimated scf accuracy    <       5.43744839 Ry

     iteration #  3     ecut=   120.00 Ry     beta= 0.70
     Davidson diagonalization with overlap
     ethr =  1.75E-03,  avg # of iterations =  4.8

     negative rho (up, down):  1.716E-04 0.000E+00

     total cpu time spent up to now is      135.7 secs

     total energy              =   -1375.66736160 Ry
     estimated scf accuracy    <       0.22993528 Ry

     iteration #  4     ecut=   120.00 Ry     beta= 0.70
     Davidson diagonalization with overlap
     ethr =  3.83E-04,  avg # of iterations =  2.4

     negative rho (up, down):  1.925E-04 0.000E+00

     total cpu time spent up to now is      168.7 secs

     total energy              =   -1375.69697372 Ry
     estimated scf accuracy    <       0.02223322 Ry

     iteration #  5     ecut=   120.00 Ry     beta= 0.70
     Davidson diagonalization with overlap
     c_bands:  1 eigenvalues not converged
     ethr =  3.71E-05,  avg # of iterations = 11.1

     negative rho (up, down):  2.022E-04 0.000E+00

     total cpu time spent up to now is      215.9 secs

     total energy              =   -1375.69502850 Ry
     estimated scf accuracy    <       0.03937719 Ry

     iteration #  6     ecut=   120.00 Ry     beta= 0.70
     Davidson diagonalization with overlap
     ethr =  3.71E-05,  avg # of iterations = 10.8

     negative rho (up, down):  2.323E-04 0.000E+00

     total cpu time spent up to now is      256.2 secs

     total energy              =   -1375.69759743 Ry
     estimated scf accuracy    <       0.04888771 Ry

     iteration #  7     ecut=   120.00 Ry     beta= 0.70
     Davidson diagonalization with overlap
     ethr =  3.71E-05,  avg # of iterations =  5.2

     negative rho (up, down):  2.494E-04 0.000E+00

     total cpu time spent up to now is      288.9 secs

     total energy              =   -1375.70049936 Ry
     estimated scf accuracy    <       0.00025966 Ry

     iteration #  8     ecut=   120.00 Ry     beta= 0.70
     Davidson diagonalization with overlap
     c_bands:  1 eigenvalues not converged
     c_bands:  1 eigenvalues not converged
     c_bands:  1 eigenvalues not converged
     c_bands:  1 eigenvalues not converged
     c_bands:  1 eigenvalues not converged
     c_bands:  1 eigenvalues not converged
     c_bands:  1 eigenvalues not converged
     c_bands:  1 eigenvalues not converged
     c_bands:  1 eigenvalues not converged
     ethr =  4.33E-07,  avg # of iterations = 11.7

     negative rho (up, down):  2.636E-04 0.000E+00

     total cpu time spent up to now is      336.6 secs

     total energy              =   -1375.70058127 Ry
     estimated scf accuracy    <       0.00002686 Ry

     iteration #  9     ecut=   120.00 Ry     beta= 0.70
     Davidson diagonalization with overlap
     ethr =  4.48E-08,  avg # of iterations =  2.5

     negative rho (up, down):  2.658E-04 0.000E+00

     total cpu time spent up to now is      368.5 secs

     total energy              =   -1375.70058558 Ry
     estimated scf accuracy    <       0.00000502 Ry

     iteration # 10     ecut=   120.00 Ry     beta= 0.70
     Davidson diagonalization with overlap
     ethr =  8.37E-09,  avg # of iterations =  2.0

     negative rho (up, down):  2.666E-04 0.000E+00

     total cpu time spent up to now is      401.9 secs

     total energy              =   -1375.70058612 Ry
     estimated scf accuracy    <       0.00000061 Ry

     iteration # 11     ecut=   120.00 Ry     beta= 0.70
     Davidson diagonalization with overlap
     ethr =  1.02E-09,  avg # of iterations =  2.7

     negative rho (up, down):  2.666E-04 0.000E+00

     total cpu time spent up to now is      437.7 secs

     total energy              =   -1375.70058623 Ry
     estimated scf accuracy    <       0.00000009 Ry

     iteration # 12     ecut=   120.00 Ry     beta= 0.70
     Davidson diagonalization with overlap
     ethr =  1.58E-10,  avg # of iterations =  2.7

     negative rho (up, down):  2.666E-04 0.000E+00

     total cpu time spent up to now is      473.7 secs

     total energy              =   -1375.70058624 Ry
     estimated scf accuracy    <       0.00000003 Ry

     iteration # 13     ecut=   120.00 Ry     beta= 0.70
     Davidson diagonalization with overlap
     ethr =  4.89E-11,  avg # of iterations =  2.0

     negative rho (up, down):  2.667E-04 0.000E+00

     total cpu time spent up to now is      505.3 secs

     total energy              =   -1375.70058624 Ry
     estimated scf accuracy    <          5.2E-09 Ry

     iteration # 14     ecut=   120.00 Ry     beta= 0.70
     Davidson diagonalization with overlap
     ethr =  8.67E-12,  avg # of iterations =  4.4

     negative rho (up, down):  2.667E-04 0.000E+00

     total cpu time spent up to now is      539.8 secs

     total energy              =   -1375.70058624 Ry
     estimated scf accuracy    <          4.2E-10 Ry

     iteration # 15     ecut=   120.00 Ry     beta= 0.70
     Davidson diagonalization with overlap
     ethr =  6.97E-13,  avg # of iterations =  2.2

     negative rho (up, down):  2.667E-04 0.000E+00

     total cpu time spent up to now is      571.6 secs

     total energy              =   -1375.70058624 Ry
     estimated scf accuracy    <          9.5E-11 Ry

     iteration # 16     ecut=   120.00 Ry     beta= 0.70
     Davidson diagonalization with overlap
     ethr =  1.58E-13,  avg # of iterations =  3.8

     negative rho (up, down):  2.667E-04 0.000E+00

     total cpu time spent up to now is      605.2 secs

     total energy              =   -1375.70058624 Ry
     estimated scf accuracy    <          9.5E-11 Ry

     iteration # 17     ecut=   120.00 Ry     beta= 0.70
     Davidson diagonalization with overlap
     ethr =  1.58E-13,  avg # of iterations =  1.2

     negative rho (up, down):  2.667E-04 0.000E+00

     total cpu time spent up to now is      633.4 secs

     total energy              =   -1375.70058624 Ry
     estimated scf accuracy    <          1.5E-11 Ry

     iteration # 18     ecut=   120.00 Ry     beta= 0.70
     Davidson diagonalization with overlap
     ethr =  1.00E-13,  avg # of iterations =  1.0

     negative rho (up, down):  2.667E-04 0.000E+00

     total cpu time spent up to now is      661.3 secs

     total energy              =   -1375.70058624 Ry
     estimated scf accuracy    <          1.1E-12 Ry

     iteration # 19     ecut=   120.00 Ry     beta= 0.70
     Davidson diagonalization with overlap
     ethr =  1.00E-13,  avg # of iterations =  1.0

     negative rho (up, down):  2.667E-04 0.000E+00

     total cpu time spent up to now is      689.0 secs

     End of self-consistent calculation

          k = 0.0000 0.0000 0.0000 ( 33805 PWs)   bands (ev):

   -67.6112 -67.5797 -34.5974 -34.1140 -33.6993 -33.6979 -33.6592 -33.6589
   -19.2569 -19.2429 -19.2238 -19.2233 -19.2231 -19.2230 -19.2020 -19.2019
   -19.2007 -19.2001 -19.1995 -19.1934 -19.1194 -19.1186 -12.8534  -8.3512
    -5.2553  -3.4731  -3.2167  -3.2019  -1.2335   0.3191   0.3391   2.4913
     2.5031   2.9050   2.9378   3.4862

          k = 0.0000 0.0945 0.0000 ( 33931 PWs)   bands (ev):

   -67.6067 -67.5761 -34.5825 -34.1128 -33.7582 -33.7164 -33.7159 -33.6685
   -19.2553 -19.2422 -19.2248 -19.2234 -19.2231 -19.2218 -19.2041 -19.2021
   -19.2008 -19.2000 -19.1961 -19.1901 -19.1228 -19.1222 -12.7141  -8.1326
    -5.3203  -3.5513  -3.3891  -3.1608  -1.0619  -0.0557   0.5494   1.8786
     2.1874   2.9295   3.3018   4.1831

          k = 0.0000 0.1890 0.0000 ( 33979 PWs)   bands (ev):

   -67.5943 -67.5664 -34.5424 -34.1166 -33.9138 -33.8668 -33.7607 -33.6966
   -19.2511 -19.2406 -19.2288 -19.2236 -19.2228 -19.2179 -19.2092 -19.2028
   -19.2023 -19.1984 -19.1864 -19.1811 -19.1319 -19.1314 -12.3441  -7.5539
    -5.4875  -4.0337  -3.4654  -3.0964  -1.0094  -0.4089   1.1331   1.3094
     2.0977   2.7896   3.6416   4.9242

          k = 0.0000 0.2836 0.0000 ( 34061 PWs)   bands (ev):

   -67.5770 -67.5534 -34.4926 -34.1943 -34.0670 -34.0418 -33.8184 -33.7374
   -19.2478 -19.2377 -19.2340 -19.2247 -19.2225 -19.2143 -19.2138 -19.2047
   -19.2018 -19.1955 -19.1731 -19.1688 -19.1440 -19.1427 -11.8708  -6.9310
    -5.6167  -4.4658  -3.5648  -3.1182  -1.6555   0.3111   1.1531   1.8928
     2.5013   2.6840   3.7582   5.5141

          k = 0.0001 0.3781 0.0000 ( 34085 PWs)   bands (ev):

   -67.5592 -67.5408 -34.4801 -34.3745 -34.2123 -34.0711 -33.8740 -33.7792
   -19.2483 -19.2385 -19.2334 -19.2266 -19.2259 -19.2141 -19.2126 -19.2055
   -19.1991 -19.1921 -19.1595 -19.1564 -19.1554 -19.1527 -11.4466  -6.8504
    -5.3723  -4.6854  -3.6249  -3.2349  -1.9187   1.1161   1.4872   2.0733
     2.6877   3.7807   3.9154   6.0500

          k = 0.0001 0.4726 0.0000 ( 34123 PWs)   bands (ev):

   -67.5455 -67.5323 -34.5604 -34.4954 -34.2406 -34.0840 -33.9139 -33.8102
   -19.2501 -19.2408 -19.2342 -19.2284 -19.2264 -19.2140 -19.2114 -19.2055
   -19.1957 -19.1892 -19.1632 -19.1590 -19.1492 -19.1473 -11.1756  -7.0608
    -5.1835  -4.7675  -3.4536  -3.3576  -1.8319   1.5214   1.7909   2.1378
     3.1446   4.3191   5.1289   6.1962

          k =-0.0001-0.5671 0.0000 ( 34112 PWs)   bands (ev):

   -67.5402 -67.5294 -34.6074 -34.5380 -34.2305 -34.0915 -33.9283 -33.8216
   -19.2510 -19.2413 -19.2359 -19.2292 -19.2257 -19.2148 -19.2097 -19.2056
   -19.1943 -19.1881 -19.1660 -19.1611 -19.1453 -19.1441 -11.0860  -7.1579
    -5.1757  -4.7936  -3.4077  -3.2813  -1.7697   1.4149   2.0582   2.3145
     3.2026   4.7969   5.7625   6.3423

          k = 0.0819 0.0473 0.0000 ( 33929 PWs)   bands (ev):

   -67.6067 -67.5761 -34.5825 -34.1129 -33.7594 -33.7160 -33.7153 -33.6686
   -19.2552 -19.2422 -19.2250 -19.2234 -19.2232 -19.2215 -19.2040 -19.2022
   -19.2014 -19.1994 -19.1961 -19.1901 -19.1228 -19.1222 -12.7139  -8.1323
    -5.3183  -3.5474  -3.3857  -3.1742  -1.0633  -0.0394   0.5331   1.8784
     2.1862   2.9617   3.2862   4.1696

          k = 0.0819 0.1418 0.0000 ( 33966 PWs)   bands (ev):

   -67.5982 -67.5695 -34.5548 -34.1136 -33.8558 -33.8331 -33.7359 -33.6968
   -19.2521 -19.2412 -19.2270 -19.2252 -19.2219 -19.2191 -19.2073 -19.2029
   -19.2022 -19.1987 -19.1895 -19.1840 -19.1291 -19.1286 -12.4589  -7.7280
    -5.4300  -3.8040  -3.6604  -2.9883  -0.7507  -0.6298   0.8721   1.6530
     1.8055   2.9991   3.5715   4.8254

          k = 0.0820 0.2363 0.0000 ( 34004 PWs)   bands (ev):

   -67.5834 -67.5581 -34.5089 -34.1402 -34.0117 -33.9916 -33.7955 -33.7404
   -19.2475 -19.2396 -19.2314 -19.2265 -19.2211 -19.2152 -19.2124 -19.2041
   -19.2024 -19.1968 -19.1780 -19.1734 -19.1396 -19.1392 -12.0360  -7.0697
    -5.5913  -4.3095  -3.8495  -2.7952  -1.3680  -0.1435   0.7432   1.9400
     2.2361   2.7776   3.9438   5.3201

          k = 0.0820 0.3308 0.0000 ( 34051 PWs)   bands (ev):

   -67.5658 -67.5454 -34.4712 -34.2834 -34.1624 -34.0645 -33.8652 -33.7885
   -19.2458 -19.2361 -19.2357 -19.2282 -19.2221 -19.2156 -19.2126 -19.2055
   -19.2002 -19.1940 -19.1646 -19.1610 -19.1515 -19.1500 -11.5867  -6.6421
    -5.5400  -4.6358  -4.0066  -2.8079  -1.8147   0.5097   0.8125   2.1929
     2.8453   3.4092   4.0765   5.9304

          k = 0.0820 0.4254 0.0000 ( 34062 PWs)   bands (ev):

   -67.5500 -67.5349 -34.5054 -34.4342 -34.2360 -34.0827 -33.9225 -33.8305
   -19.2474 -19.2393 -19.2334 -19.2283 -19.2255 -19.2145 -19.2127 -19.2056
   -19.1970 -19.1913 -19.1615 -19.1584 -19.1525 -19.1502 -11.2421  -6.7899
    -5.1713  -4.7571  -4.0133  -3.0095  -1.8176   0.8257   1.5700   2.0186
     3.6576   3.9487   4.7815   6.2960

          k = 0.0820 0.5199 0.0000 ( 34099 PWs)   bands (ev):

   -67.5402 -67.5294 -34.5783 -34.5109 -34.2281 -34.0978 -33.9540 -33.8550
   -19.2490 -19.2405 -19.2348 -19.2291 -19.2252 -19.2151 -19.2110 -19.2055
   -19.1951 -19.1893 -19.1669 -19.1626 -19.1454 -19.1441 -11.0657  -6.9724
    -5.0882  -4.7605  -3.7752  -3.2369  -1.6603   1.1839   1.6761   2.2605
     3.9724   4.4361   5.7493   6.2765

          k = 0.0818-0.5199 0.0000 ( 34101 PWs)   bands (ev):

   -67.5402 -67.5294 -34.5781 -34.5107 -34.2281 -34.0979 -33.9541 -33.8550
   -19.2489 -19.2405 -19.2347 -19.2292 -19.2252 -19.2151 -19.2111 -19.2055
   -19.1951 -19.1893 -19.1669 -19.1626 -19.1454 -19.1441 -11.0659  -6.9722
    -5.0881  -4.7604  -3.7714  -3.2413  -1.6597   1.1844   1.6761   2.2611
     3.9713   4.4367   5.7491   6.2759

          k = 0.0818-0.4253 0.0000 ( 34058 PWs)   bands (ev):

   -67.5500 -67.5349 -34.5050 -34.4338 -34.2358 -34.0828 -33.9229 -33.8306
   -19.2473 -19.2392 -19.2332 -19.2284 -19.2256 -19.2143 -19.2132 -19.2055
   -19.1969 -19.1912 -19.1615 -19.1584 -19.1525 -19.1502 -11.2426  -6.7893
    -5.1722  -4.7558  -4.0083  -3.0152  -1.8165   0.8263   1.5739   2.0165
     3.6532   3.9481   4.7804   6.2942

          k = 0.0819-0.3308 0.0000 ( 34040 PWs)   bands (ev):

   -67.5659 -67.5454 -34.4711 -34.2827 -34.1619 -34.0646 -33.8658 -33.7886
   -19.2458 -19.2360 -19.2357 -19.2281 -19.2221 -19.2156 -19.2130 -19.2053
   -19.2001 -19.1941 -19.1645 -19.1610 -19.1515 -19.1500 -11.5873  -6.6418
    -5.5415  -4.6333  -4.0027  -2.8110  -1.8144   0.5067   0.8186   2.1918
     2.8390   3.4074   4.0756   5.9327

          k = 0.0819-0.2363 0.0000 ( 34006 PWs)   bands (ev):

   -67.5834 -67.5581 -34.5090 -34.1397 -34.0116 -33.9908 -33.7962 -33.7406
   -19.2476 -19.2396 -19.2313 -19.2264 -19.2209 -19.2155 -19.2125 -19.2039
   -19.2022 -19.1969 -19.1780 -19.1733 -19.1396 -19.1392 -12.0364  -7.0700
    -5.5931  -4.3072  -3.8470  -2.7938  -1.3699  -0.1417   0.7403   1.9407
     2.2376   2.7718   3.9394   5.3245

          k = 0.0819-0.1418 0.0000 ( 33968 PWs)   bands (ev):

   -67.5983 -67.5695 -34.5549 -34.1135 -33.8549 -33.8329 -33.7365 -33.6969
   -19.2522 -19.2412 -19.2271 -19.2251 -19.2217 -19.2194 -19.2074 -19.2027
   -19.2019 -19.1990 -19.1895 -19.1840 -19.1291 -19.1286 -12.4592  -7.7284
    -5.4319  -3.8044  -3.6585  -2.9834  -0.7494  -0.6345   0.8745   1.6475
     1.8097   2.9959   3.5653   4.8339

          k = 0.0819-0.0472 0.0000 ( 33927 PWs)   bands (ev):

   -67.6067 -67.5761 -34.5825 -34.1129 -33.7587 -33.7161 -33.7157 -33.6686
   -19.2552 -19.2422 -19.2249 -19.2233 -19.2232 -19.2216 -19.2041 -19.2021
   -19.2011 -19.1997 -19.1961 -19.1901 -19.1228 -19.1222 -12.7140  -8.1325
    -5.3191  -3.5491  -3.3873  -3.1682  -1.0627  -0.0467   0.5405   1.8784
     2.1869   2.9478   3.2923   4.1758

          k = 0.1638 0.0946 0.0000 ( 33979 PWs)   bands (ev):

   -67.5942 -67.5664 -34.5421 -34.1170 -33.9150 -33.8673 -33.7602 -33.6967
   -19.2508 -19.2406 -19.2290 -19.2234 -19.2233 -19.2175 -19.2090 -19.2034
   -19.2025 -19.1978 -19.1864 -19.1812 -19.1319 -19.1313 -12.3434  -7.5528
    -5.4799  -4.0351  -3.4707  -3.1114  -1.0098  -0.3975   1.1204   1.3210
     2.0942   2.8191   3.6307   4.9169

          k = 0.1639 0.1891 0.0000 ( 33995 PWs)   bands (ev):

   -67.5833 -67.5581 -34.5087 -34.1405 -34.0129 -33.9910 -33.7957 -33.7406
   -19.2472 -19.2397 -19.2314 -19.2264 -19.2213 -19.2151 -19.2123 -19.2044
   -19.2025 -19.1966 -19.1780 -19.1734 -19.1396 -19.1391 -12.0354  -7.0687
    -5.5855  -4.3129  -3.8544  -2.8033  -1.3675  -0.1384   0.7505   1.9365
     2.2375   2.7861   3.9414   5.3159

          k = 0.1639 0.2836 0.0000 ( 34022 PWs)   bands (ev):

   -67.5681 -67.5470 -34.4709 -34.2273 -34.1484 -34.0559 -33.8612 -33.8162
   -19.2418 -19.2395 -19.2339 -19.2299 -19.2205 -19.2154 -19.2136 -19.2056
   -19.2004 -19.1950 -19.1664 -19.1627 -19.1499 -19.1497 -11.6355  -6.4256
    -5.6908  -4.6304  -4.2213  -2.5254  -1.6909   0.0603   0.4336   2.2170
     3.0402   3.2024   4.4840   5.7282

          k = 0.1639 0.3781 0.0000 ( 34018 PWs)   bands (ev):

   -67.5524 -67.5364 -34.4661 -34.3530 -34.2296 -34.0823 -33.9452 -33.8864
   -19.2419 -19.2364 -19.2355 -19.2306 -19.2229 -19.2160 -19.2138 -19.2060
   -19.1971 -19.1939 -19.1609 -19.1597 -19.1544 -19.1518 -11.2681  -6.2105
    -5.4668  -4.8018  -4.3837  -2.6465  -1.6844  -0.1880   1.2090   2.1692
     3.6377   4.2113   4.8796   6.3375

          k = 0.1639 0.4726 0.0000 ( 34030 PWs)   bands (ev):

   -67.5401 -67.5294 -34.5109 -34.4432 -34.2275 -34.1176 -34.0034 -33.9353
   -19.2442 -19.2374 -19.2343 -19.2279 -19.2250 -19.2164 -19.2139 -19.2052
   -19.1961 -19.1925 -19.1685 -19.1661 -19.1457 -19.1442 -11.0246  -6.4524
    -4.9285  -4.8667  -4.4039  -3.0261  -1.4539   0.0243   1.9793   2.3103
     3.8263   4.5342   5.4227   6.3564

          k = 0.1639 0.5672 0.0000 ( 34074 PWs)   bands (ev):

   -67.5352 -67.5273 -34.5380 -34.4722 -34.2097 -34.1445 -34.0196 -33.9536
   -19.2452 -19.2377 -19.2330 -19.2303 -19.2232 -19.2170 -19.2133 -19.2050
   -19.1961 -19.1917 -19.1713 -19.1683 -19.1424 -19.1414 -10.9415  -6.5626
    -4.8977  -4.7268  -4.3086  -3.2767  -1.3143   0.2280   2.2184   2.4620
     4.0578   4.4467   5.5830   6.1195

          k = 0.1638-0.4726 0.0000 ( 34030 PWs)   bands (ev):

   -67.5402 -67.5294 -34.5102 -34.4425 -34.2274 -34.1180 -34.0040 -33.9353
   -19.2441 -19.2374 -19.2340 -19.2281 -19.2252 -19.2164 -19.2141 -19.2052
   -19.1960 -19.1924 -19.1685 -19.1660 -19.1457 -19.1441 -11.0253  -6.4513
    -4.9315  -4.8635  -4.3990  -3.0311  -1.4528   0.0249   1.9834   2.3069
     3.8287   4.5244   5.4239   6.3570

          k = 0.1638-0.3781 0.0000 ( 34016 PWs)   bands (ev):

   -67.5525 -67.5364 -34.4655 -34.3517 -34.2293 -34.0825 -33.9461 -33.8865
   -19.2417 -19.2363 -19.2353 -19.2309 -19.2229 -19.2159 -19.2143 -19.2058
   -19.1969 -19.1939 -19.1609 -19.1597 -19.1544 -19.1517 -11.2691  -6.2094
    -5.4694  -4.7975  -4.3790  -2.6512  -1.6823  -0.1900   1.2146   2.1642
     3.6360   4.2043   4.8750   6.3412

          k = 0.1638-0.2835 0.0000 ( 34026 PWs)   bands (ev):

   -67.5682 -67.5470 -34.4709 -34.2258 -34.1478 -34.0558 -33.8620 -33.8165
   -19.2419 -19.2393 -19.2339 -19.2300 -19.2203 -19.2156 -19.2140 -19.2053
   -19.2001 -19.1952 -19.1664 -19.1627 -19.1500 -19.1497 -11.6364  -6.4263
    -5.6938  -4.6252  -4.2166  -2.5248  -1.6907   0.0525   0.4396   2.2139
     3.0346   3.2003   4.4772   5.7369

          k = 0.1638-0.1890 0.0000 ( 34002 PWs)   bands (ev):

   -67.5834 -67.5581 -34.5089 -34.1400 -34.0119 -33.9906 -33.7963 -33.7407
   -19.2474 -19.2397 -19.2314 -19.2264 -19.2211 -19.2155 -19.2125 -19.2041
   -19.2023 -19.1968 -19.1780 -19.1733 -19.1396 -19.1391 -12.0361  -7.0697
    -5.5898  -4.3091  -3.8496  -2.7983  -1.3695  -0.1388   0.7443   1.9388
     2.2383   2.7767   3.9376   5.3223

          k = 0.1638-0.0945 0.0000 ( 33975 PWs)   bands (ev):

   -67.5943 -67.5664 -34.5422 -34.1169 -33.9142 -33.8671 -33.7605 -33.6968
   -19.2510 -19.2406 -19.2290 -19.2234 -19.2231 -19.2178 -19.2092 -19.2031
   -19.2023 -19.1981 -19.1864 -19.1812 -19.1319 -19.1314 -12.3437  -7.5535
    -5.4830  -4.0346  -3.4682  -3.1049  -1.0098  -0.4024   1.1262   1.3158
     2.0958   2.8062   3.6348   4.9202

          k = 0.1638 0.0000 0.0000 ( 33959 PWs)   bands (ev):

   -67.5982 -67.5694 -34.5547 -34.1138 -33.8567 -33.8332 -33.7352 -33.6968
   -19.2521 -19.2411 -19.2271 -19.2253 -19.2219 -19.2190 -19.2073 -19.2030
   -19.2022 -19.1984 -19.1895 -19.1841 -19.1290 -19.1286 -12.4586  -7.7277
    -5.4272  -3.8038  -3.6625  -2.9946  -0.7525  -0.6241   0.8693   1.6610
     1.8002   3.0023   3.5793   4.8150

          k = 0.2458 0.1418 0.0000 ( 34061 PWs)   bands (ev):

   -67.5769 -67.5533 -34.4923 -34.1956 -34.0686 -34.0416 -33.8183 -33.7376
   -19.2473 -19.2378 -19.2341 -19.2244 -19.2232 -19.2142 -19.2133 -19.2054
   -19.2021 -19.1952 -19.1731 -19.1689 -19.1440 -19.1426 -11.8692  -6.9281
    -5.6050  -4.4760  -3.5744  -3.1350  -1.6536   0.3207   1.1718   1.8878
     2.5278   2.6771   3.7506   5.5064

          k = 0.2458 0.2363 0.0000 ( 34044 PWs)   bands (ev):

   -67.5656 -67.5453 -34.4711 -34.2842 -34.1627 -34.0648 -33.8658 -33.7888
   -19.2454 -19.2364 -19.2354 -19.2281 -19.2223 -19.2156 -19.2127 -19.2059
   -19.2003 -19.1938 -19.1646 -19.1611 -19.1515 -19.1498 -11.5854  -6.6373
    -5.5339  -4.6443  -4.0132  -2.8243  -1.8133   0.5273   0.8213   2.2031
     2.8457   3.4035   4.0785   5.9213

          k = 0.2458 0.3309 0.0000 ( 34017 PWs)   bands (ev):

   -67.5523 -67.5364 -34.4663 -34.3536 -34.2292 -34.0824 -33.9460 -33.8863
   -19.2419 -19.2362 -19.2350 -19.2310 -19.2230 -19.2157 -19.2143 -19.2063
   -19.1972 -19.1937 -19.1609 -19.1596 -19.1544 -19.1518 -11.2673  -6.2044
    -5.4717  -4.8030  -4.3865  -2.6561  -1.6848  -0.1766   1.2141   2.1736
     3.6377   4.2089   4.8824   6.3323

          k = 0.2458 0.4254 0.0000 ( 34042 PWs)   bands (ev):

   -67.5400 -67.5294 -34.4728 -34.3884 -34.2496 -34.1157 -34.0345 -33.9846
   -19.2415 -19.2352 -19.2313 -19.2305 -19.2253 -19.2169 -19.2154 -19.2052
   -19.1956 -19.1951 -19.1690 -19.1681 -19.1458 -19.1442 -11.0032  -5.7685
    -5.6049  -4.7462  -4.5333  -2.8586  -1.2603  -0.5970   1.9000   2.4534
     3.6695   4.5716   5.2452   6.6383

          k = 0.2458 0.5199 0.0000 ( 34045 PWs)   bands (ev):

   -67.5320 -67.5263 -34.4640 -34.3992 -34.2521 -34.1838 -34.0667 -34.0419
   -19.2425 -19.2327 -19.2313 -19.2290 -19.2236 -19.2191 -19.2167 -19.2033
   -19.1973 -19.1953 -19.1740 -19.1728 -19.1407 -19.1400 -10.8558  -5.9402
    -5.1448  -4.7282  -4.6210  -3.1528  -0.9462  -0.4720   2.5591   2.7674
     3.5028   4.1693   5.1623   6.3210

          k = 0.2459 0.6144 0.0000 ( 34043 PWs)   bands (ev):

   -67.5320 -67.5263 -34.4633 -34.3986 -34.2522 -34.1845 -34.0679 -34.0409
   -19.2424 -19.2325 -19.2313 -19.2291 -19.2239 -19.2192 -19.2166 -19.2032
   -19.1974 -19.1952 -19.1740 -19.1728 -19.1407 -19.1399 -10.8563  -5.9390
    -5.1449  -4.7282  -4.6189  -3.1544  -0.9457  -0.4719   2.5620   2.7632
     3.5066   4.1615   5.1627   6.3199

          k = 0.2457-0.4253 0.0000 ( 34042 PWs)   bands (ev):

   -67.5401 -67.5294 -34.4716 -34.3866 -34.2502 -34.1163 -34.0355 -33.9843
   -19.2412 -19.2351 -19.2314 -19.2309 -19.2254 -19.2171 -19.2154 -19.2050
   -19.1956 -19.1949 -19.1690 -19.1681 -19.1458 -19.1442 -11.0044  -5.7666
    -5.6053  -4.7442  -4.5292  -2.8613  -1.2576  -0.6002   1.9036   2.4471
     3.6723   4.5584   5.2450   6.6349

          k = 0.2457-0.3308 0.0000 ( 34018 PWs)   bands (ev):

   -67.5524 -67.5364 -34.4656 -34.3519 -34.2292 -34.0825 -33.9465 -33.8865
   -19.2417 -19.2363 -19.2351 -19.2310 -19.2230 -19.2158 -19.2145 -19.2059
   -19.1970 -19.1938 -19.1609 -19.1596 -19.1544 -19.1517 -11.2687  -6.2064
    -5.4718  -4.7981  -4.3807  -2.6563  -1.6823  -0.1838   1.2173   2.1665
     3.6360   4.2029   4.8766   6.3380

          k = 0.2457-0.2363 0.0000 ( 34038 PWs)   bands (ev):

   -67.5658 -67.5453 -34.4710 -34.2831 -34.1621 -34.0646 -33.8661 -33.7889
   -19.2455 -19.2362 -19.2357 -19.2280 -19.2222 -19.2157 -19.2130 -19.2056
   -19.2001 -19.1939 -19.1645 -19.1610 -19.1515 -19.1499 -11.5866  -6.6397
    -5.5378  -4.6382  -4.0063  -2.8199  -1.8134   0.5166   0.8231   2.1974
     2.8392   3.4042   4.0765   5.9277

          k = 0.2457-0.1417 0.0000 ( 34057 PWs)   bands (ev):

   -67.5769 -67.5534 -34.4924 -34.1951 -34.0676 -34.0417 -33.8184 -33.7376
   -19.2475 -19.2377 -19.2341 -19.2245 -19.2228 -19.2144 -19.2136 -19.2050
   -19.2019 -19.1954 -19.1731 -19.1689 -19.1439 -19.1427 -11.8699  -6.9298
    -5.6098  -4.4716  -3.5698  -3.1278  -1.6543   0.3165   1.1633   1.8902
     2.5162   2.6802   3.7534   5.5099

          k = 0.2457-0.0472 0.0000 ( 34009 PWs)   bands (ev):

   -67.5833 -67.5581 -34.5087 -34.1411 -34.0122 -33.9922 -33.7950 -33.7404
   -19.2473 -19.2396 -19.2315 -19.2265 -19.2212 -19.2150 -19.2124 -19.2044
   -19.2025 -19.1966 -19.1780 -19.1734 -19.1396 -19.1391 -12.0352  -7.0691
    -5.5853  -4.3147  -3.8549  -2.8021  -1.3654  -0.1434   0.7513   1.9374
     2.2356   2.7890   3.9477   5.3117

          k = 0.2458 0.0473 0.0000 ( 33999 PWs)   bands (ev):

   -67.5833 -67.5581 -34.5086 -34.1412 -34.0131 -33.9917 -33.7950 -33.7404
   -19.2472 -19.2397 -19.2315 -19.2265 -19.2213 -19.2149 -19.2123 -19.2045
   -19.2026 -19.1965 -19.1780 -19.1734 -19.1396 -19.1391 -12.0349  -7.0684
    -5.5829  -4.3161  -3.8571  -2.8057  -1.3652  -0.1413   0.7546   1.9358
     2.2363   2.7927   3.9470   5.3098

          k = 0.3277 0.1891 0.0000 ( 34073 PWs)   bands (ev):

   -67.5589 -67.5408 -34.4807 -34.3760 -34.2119 -34.0721 -33.8743 -33.7797
   -19.2480 -19.2385 -19.2330 -19.2264 -19.2262 -19.2145 -19.2123 -19.2063
   -19.1993 -19.1919 -19.1595 -19.1565 -19.1553 -19.1524 -11.4441  -6.8451
    -5.3637  -4.6983  -3.6368  -3.2530  -1.9169   1.1357   1.5049   2.0953
     2.6842   3.7778   3.9099   6.0422

          k = 0.3277 0.2836 0.0000 ( 34062 PWs)   bands (ev):

   -67.5496 -67.5348 -34.5065 -34.4357 -34.2343 -34.0839 -33.9233 -33.8309
   -19.2473 -19.2390 -19.2327 -19.2283 -19.2259 -19.2144 -19.2133 -19.2063
   -19.1970 -19.1911 -19.1615 -19.1582 -19.1525 -19.1502 -11.2398  -6.7847
    -5.1668  -4.7681  -4.0205  -3.0288  -1.8154   0.8492   1.5806   2.0327
     3.6561   3.9490   4.7811   6.2852

          k = 0.3277 0.3781 0.0000 ( 34037 PWs)   bands (ev):

   -67.5398 -67.5294 -34.5121 -34.4447 -34.2256 -34.1180 -34.0048 -33.9350
   -19.2447 -19.2367 -19.2337 -19.2277 -19.2255 -19.2162 -19.2145 -19.2058
   -19.1961 -19.1923 -19.1685 -19.1658 -19.1457 -19.1442 -11.0226  -6.4491
    -4.9350  -4.8688  -4.4064  -3.0381  -1.4546   0.0392   1.9899   2.3203
     3.8281   4.5296   5.4238   6.3666

          k = 0.3277 0.4727 0.0000 ( 34037 PWs)   bands (ev):

   -67.5317 -67.5264 -34.4652 -34.4006 -34.2513 -34.1822 -34.0682 -34.0413
   -19.2428 -19.2325 -19.2305 -19.2289 -19.2241 -19.2190 -19.2169 -19.2036
   -19.1975 -19.1951 -19.1741 -19.1726 -19.1407 -19.1400 -10.8545  -5.9398
    -5.1490  -4.7331  -4.6174  -3.1570  -0.9496  -0.4639   2.5679   2.7722
     3.5017   4.1692   5.1608   6.3230

          k = 0.3278 0.5672 0.0000 ( 34060 PWs)   bands (ev):

   -67.5272 -67.5269 -34.3855 -34.3448 -34.3439 -34.2328 -34.0832 -34.0807
   -19.2422 -19.2304 -19.2304 -19.2238 -19.2234 -19.2219 -19.2208 -19.2002
   -19.1986 -19.1983 -19.1758 -19.1757 -19.1387 -19.1387 -10.7910  -5.4414
    -5.4376  -4.9157  -4.5617  -3.1835  -0.6389  -0.6336   2.9577   2.9592
     3.4958   3.5033   4.8873   6.6779

          k = 0.3278 0.6617 0.0000 ( 34035 PWs)   bands (ev):

   -67.5319 -67.5264 -34.4640 -34.3990 -34.2519 -34.1837 -34.0686 -34.0407
   -19.2425 -19.2324 -19.2309 -19.2291 -19.2242 -19.2191 -19.2167 -19.2034
   -19.1975 -19.1950 -19.1740 -19.1727 -19.1407 -19.1399 -10.8556  -5.9390
    -5.1471  -4.7307  -4.6173  -3.1564  -0.9476  -0.4676   2.5669   2.7657
     3.5059   4.1617   5.1621   6.3203

          k = 0.3276-0.3780 0.0000 ( 34031 PWs)   bands (ev):

   -67.5400 -67.5294 -34.5110 -34.4431 -34.2266 -34.1181 -34.0047 -33.9352
   -19.2443 -19.2371 -19.2337 -19.2280 -19.2254 -19.2163 -19.2144 -19.2055
   -19.1961 -19.1923 -19.1685 -19.1659 -19.1457 -19.1441 -11.0241  -6.4499
    -4.9350  -4.8647  -4.4007  -3.0371  -1.4529   0.0330   1.9888   2.3124
     3.8298   4.5218   5.4246   6.3619

          k = 0.3276-0.2835 0.0000 ( 34058 PWs)   bands (ev):

   -67.5498 -67.5349 -34.5057 -34.4343 -34.2351 -34.0833 -33.9233 -33.8309
   -19.2472 -19.2392 -19.2328 -19.2284 -19.2259 -19.2144 -19.2135 -19.2059
   -19.1969 -19.1911 -19.1614 -19.1583 -19.1525 -19.1501 -11.2413  -6.7870
    -5.1696  -4.7620  -4.0123  -3.0255  -1.8149   0.8393   1.5791   2.0243
     3.6521   3.9484   4.7801   6.2874

          k = 0.3276-0.1890 0.0000 ( 34081 PWs)   bands (ev):

   -67.5591 -67.5408 -34.4804 -34.3752 -34.2122 -34.0716 -33.8743 -33.7795
   -19.2480 -19.2385 -19.2332 -19.2265 -19.2260 -19.2144 -19.2125 -19.2059
   -19.1992 -19.1920 -19.1595 -19.1564 -19.1553 -19.1525 -11.4452  -6.8480
    -5.3673  -4.6927  -3.6309  -3.2452  -1.9173   1.1272   1.4962   2.0855
     2.6857   3.7791   3.9121   6.0451

          k = 0.3276-0.0945 0.0000 ( 34051 PWs)   bands (ev):

   -67.5657 -67.5453 -34.4711 -34.2847 -34.1630 -34.0647 -33.8650 -33.7885
   -19.2455 -19.2363 -19.2357 -19.2282 -19.2221 -19.2156 -19.2125 -19.2058
   -19.2004 -19.1939 -19.1646 -19.1611 -19.1515 -19.1499 -11.5853  -6.6403
    -5.5345  -4.6437  -4.0145  -2.8139  -1.8141   0.5232   0.8092   2.2005
     2.8534   3.4089   4.0779   5.9226

          k = 0.3277 0.0001 0.0000 ( 34022 PWs)   bands (ev):

   -67.5680 -67.5470 -34.4709 -34.2291 -34.1487 -34.0561 -33.8605 -33.8160
   -19.2415 -19.2396 -19.2342 -19.2298 -19.2206 -19.2154 -19.2134 -19.2057
   -19.2006 -19.1950 -19.1664 -19.1628 -19.1499 -19.1496 -11.6343  -6.4252
    -5.6870  -4.6371  -4.2265  -2.5269  -1.6912   0.0701   0.4255   2.2215
     3.0471   3.2061   4.4919   5.7167

          k = 0.3277 0.0946 0.0000 ( 34042 PWs)   bands (ev):

   -67.5656 -67.5453 -34.4711 -34.2851 -34.1631 -34.0649 -33.8652 -33.7886
   -19.2454 -19.2364 -19.2354 -19.2282 -19.2222 -19.2155 -19.2125 -19.2060
   -19.2005 -19.1938 -19.1646 -19.1611 -19.1515 -19.1498 -11.5847  -6.6377
    -5.5320  -4.6475  -4.0174  -2.8214  -1.8137   0.5309   0.8134   2.2052
     2.8536   3.4065   4.0790   5.9184

          k = 0.4096 0.2364 0.0000 ( 34123 PWs)   bands (ev):

   -67.5451 -67.5322 -34.5622 -34.4977 -34.2377 -34.0860 -33.9144 -33.8108
   -19.2501 -19.2406 -19.2337 -19.2281 -19.2266 -19.2139 -19.2121 -19.2063
   -19.1957 -19.1891 -19.1632 -19.1586 -19.1492 -19.1473 -11.1722  -7.0571
    -5.1785  -4.7802  -3.4645  -3.3763  -1.8287   1.5319   1.8285   2.1535
     3.1355   4.3229   5.1299   6.1876

          k = 0.4096 0.3309 0.0000 ( 34093 PWs)   bands (ev):

   -67.5397 -67.5294 -34.5800 -34.5132 -34.2245 -34.1001 -33.9548 -33.8554
   -19.2492 -19.2400 -19.2344 -19.2289 -19.2252 -19.2151 -19.2118 -19.2063
   -19.1950 -19.1892 -19.1669 -19.1623 -19.1454 -19.1441 -11.0624  -6.9697
    -5.0856  -4.7722  -3.7845  -3.2519  -1.6581   1.2047   1.6865   2.2805
     3.9741   4.4368   5.7563   6.2750

          k = 0.4097 0.4254 0.0000 ( 34073 PWs)   bands (ev):

   -67.5348 -67.5273 -34.5400 -34.4747 -34.2060 -34.1457 -34.0211 -33.9532
   -19.2458 -19.2368 -19.2329 -19.2300 -19.2231 -19.2169 -19.2139 -19.2056
   -19.1962 -19.1916 -19.1713 -19.1679 -19.1423 -19.1415 -10.9384  -6.5621
    -4.8996  -4.7361  -4.3135  -3.2839  -1.3160   0.2411   2.2281   2.4792
     4.0529   4.4555   5.5791   6.1268

          k = 0.4097 0.5199 0.0000 ( 34041 PWs)   bands (ev):

   -67.5317 -67.5264 -34.4660 -34.4015 -34.2503 -34.1821 -34.0676 -34.0418
   -19.2429 -19.2327 -19.2304 -19.2288 -19.2238 -19.2189 -19.2171 -19.2036
   -19.1974 -19.1952 -19.1740 -19.1726 -19.1407 -19.1400 -10.8538  -5.9415
    -5.1488  -4.7337  -4.6195  -3.1550  -0.9506  -0.4641   2.5638   2.7783
     3.4967   4.1785   5.1614   6.3244

          k = 0.4097 0.6145 0.0000 ( 34055 PWs)   bands (ev):

   -67.5318 -67.5264 -34.4656 -34.4006 -34.2509 -34.1828 -34.0667 -34.0422
   -19.2427 -19.2328 -19.2308 -19.2288 -19.2236 -19.2190 -19.2170 -19.2035
   -19.1974 -19.1952 -19.1740 -19.1727 -19.1407 -19.1400 -10.8543  -5.9420
    -5.1469  -4.7313  -4.6215  -3.1528  -0.9490  -0.4678   2.5599   2.7759
     3.4971   4.1788   5.1622   6.3228

          k = 0.4097 0.7090 0.0000 ( 34072 PWs)   bands (ev):

   -67.5350 -67.5273 -34.5392 -34.4732 -34.2078 -34.1451 -34.0204 -33.9535
   -19.2454 -19.2373 -19.2330 -19.2301 -19.2231 -19.2170 -19.2136 -19.2053
   -19.1962 -19.1916 -19.1713 -19.1681 -19.1423 -19.1414 -10.9397  -6.5628
    -4.8985  -4.7322  -4.3117  -3.2800  -1.3150   0.2349   2.2232   2.4716
     4.0548   4.4519   5.5810   6.1231

          k = 0.4095-0.3308 0.0000 ( 34101 PWs)   bands (ev):

   -67.5399 -67.5294 -34.5792 -34.5117 -34.2263 -34.0990 -33.9546 -33.8553
   -19.2489 -19.2403 -19.2345 -19.2291 -19.2252 -19.2152 -19.2116 -19.2059
   -19.1950 -19.1892 -19.1669 -19.1624 -19.1454 -19.1441 -11.0640  -6.9712
    -5.0866  -4.7671  -3.7768  -3.2487  -1.6580   1.1957   1.6811   2.2720
     3.9720   4.4371   5.7531   6.2747

          k = 0.4095-0.2362 0.0000 ( 34123 PWs)   bands (ev):

   -67.5453 -67.5323 -34.5615 -34.4963 -34.2391 -34.0850 -33.9142 -33.8106
   -19.2500 -19.2408 -19.2340 -19.2283 -19.2264 -19.2140 -19.2118 -19.2059
   -19.1957 -19.1891 -19.1632 -19.1588 -19.1492 -19.1473 -11.1737  -7.0594
    -5.1807  -4.7748  -3.4590  -3.3681  -1.8297   1.5265   1.8121   2.1460
     3.1390   4.3214   5.1294   6.1907

          k = 0.4096-0.1417 0.0000 ( 34072 PWs)   bands (ev):

   -67.5497 -67.5349 -34.5065 -34.4353 -34.2351 -34.0833 -33.9226 -33.8307
   -19.2473 -19.2393 -19.2333 -19.2282 -19.2255 -19.2146 -19.2128 -19.2060
   -19.1971 -19.1912 -19.1614 -19.1583 -19.1525 -19.1502 -11.2402  -6.7884
    -5.1676  -4.7651  -4.0226  -3.0139  -1.8175   0.8376   1.5703   2.0298
     3.6617   3.9493   4.7833   6.2920

          k = 0.4096-0.0472 0.0000 ( 34013 PWs)   bands (ev):

   -67.5522 -67.5364 -34.4669 -34.3548 -34.2292 -34.0824 -33.9448 -33.8861
   -19.2419 -19.2365 -19.2354 -19.2305 -19.2228 -19.2159 -19.2138 -19.2062
   -19.1973 -19.1938 -19.1608 -19.1596 -19.1543 -19.1518 -11.2662  -6.2089
    -5.4667  -4.8076  -4.3906  -2.6464  -1.6878  -0.1793   1.2041   2.1792
     3.6396   4.2189   4.8871   6.3301

          k = 0.4096 0.0473 0.0000 ( 34017 PWs)   bands (ev):

   -67.5522 -67.5364 -34.4670 -34.3552 -34.2289 -34.0825 -33.9452 -33.8860
   -19.2421 -19.2363 -19.2351 -19.2307 -19.2229 -19.2158 -19.2140 -19.2064
   -19.1973 -19.1938 -19.1609 -19.1596 -19.1543 -19.1518 -11.2659  -6.2058
    -5.4691  -4.8082  -4.3918  -2.6510  -1.6881  -0.1742   1.2065   2.1812
     3.6395   4.2180   4.8882   6.3282

          k = 0.4096 0.1419 0.0000 ( 34068 PWs)   bands (ev):

   -67.5496 -67.5348 -34.5069 -34.4362 -34.2342 -34.0840 -33.9229 -33.8308
   -19.2473 -19.2391 -19.2329 -19.2283 -19.2256 -19.2145 -19.2131 -19.2063
   -19.1971 -19.1911 -19.1614 -19.1582 -19.1525 -19.1502 -11.2392  -6.7855
    -5.1657  -4.7699  -4.0258  -3.0230  -1.8169   0.8482   1.5756   2.0361
     3.6612   3.9493   4.7832   6.2879

          k =-0.4915-0.2837 0.0000 ( 34094 PWs)   bands (ev):

   -67.5397 -67.5294 -34.6094 -34.5406 -34.2264 -34.0944 -33.9289 -33.8222
   -19.2511 -19.2409 -19.2356 -19.2289 -19.2257 -19.2148 -19.2105 -19.2065
   -19.1942 -19.1880 -19.1660 -19.1607 -19.1452 -19.1441 -11.0823  -7.1554
    -5.1725  -4.8060  -3.4267  -3.2911  -1.7656   1.4259   2.0951   2.3330
     3.1926   4.7991   5.7717   6.3349

          k =-0.4915-0.1891 0.0000 ( 34101 PWs)   bands (ev):

   -67.5397 -67.5294 -34.5802 -34.5134 -34.2244 -34.1002 -33.9546 -33.8554
   -19.2492 -19.2400 -19.2346 -19.2288 -19.2251 -19.2151 -19.2118 -19.2063
   -19.1951 -19.1893 -19.1669 -19.1623 -19.1454 -19.1441 -11.0622  -6.9701
    -5.0857  -4.7723  -3.7883  -3.2475  -1.6589   1.2039   1.6867   2.2798
     3.9752   4.4358   5.7569   6.2755

          k =-0.4915-0.0946 0.0000 ( 34039 PWs)   bands (ev):

   -67.5398 -67.5294 -34.5128 -34.4456 -34.2250 -34.1181 -34.0044 -33.9349
   -19.2447 -19.2368 -19.2341 -19.2275 -19.2253 -19.2161 -19.2144 -19.2058
   -19.1962 -19.1924 -19.1685 -19.1658 -19.1457 -19.1442 -11.0216  -6.4505
    -4.9318  -4.8724  -4.4118  -3.0328  -1.4564   0.0382   1.9846   2.3255
     3.8247   4.5409   5.4236   6.3669

          k =-0.4915-0.0001 0.0000 ( 34046 PWs)   bands (ev):

   -67.5398 -67.5294 -34.4741 -34.3905 -34.2481 -34.1156 -34.0339 -33.9845
   -19.2418 -19.2355 -19.2309 -19.2304 -19.2252 -19.2166 -19.2155 -19.2054
   -19.1955 -19.1953 -19.1689 -19.1680 -19.1458 -19.1442 -11.0015  -5.7718
    -5.6044  -4.7483  -4.5385  -2.8553  -1.2646  -0.5931   1.8949   2.4626
     3.6656   4.5872   5.2472   6.6434

          k =-0.4915 0.0944 0.0000 ( 34045 PWs)   bands (ev):

   -67.5399 -67.5294 -34.5124 -34.4446 -34.2261 -34.1178 -34.0037 -33.9351
   -19.2444 -19.2372 -19.2343 -19.2275 -19.2250 -19.2163 -19.2141 -19.2056
   -19.1962 -19.1924 -19.1685 -19.1659 -19.1457 -19.1442 -11.0225  -6.4525
    -4.9287  -4.8714  -4.4110  -3.0268  -1.4559   0.0314   1.9794   2.3209
     3.8241   4.5429   5.4231   6.3616

          k =-0.4915 0.1890 0.0000 ( 34097 PWs)   bands (ev):

   -67.5399 -67.5294 -34.5796 -34.5121 -34.2262 -34.0990 -33.9544 -33.8553
   -19.2490 -19.2403 -19.2348 -19.2289 -19.2251 -19.2152 -19.2114 -19.2059
   -19.1951 -19.1893 -19.1668 -19.1624 -19.1454 -19.1441 -11.0636  -6.9719
    -5.0868  -4.7674  -3.7845  -3.2399  -1.6595   1.1944   1.6813   2.2708
     3.9741   4.4354   5.7538   6.2754

          k =-0.4916-0.8508 0.0000 ( 34106 PWs)   bands (ev):

   -67.5399 -67.5294 -34.6086 -34.5391 -34.2284 -34.0930 -33.9287 -33.8220
   -19.2509 -19.2412 -19.2358 -19.2290 -19.2256 -19.2148 -19.2102 -19.2061
   -19.1943 -19.1880 -19.1659 -19.1608 -19.1452 -19.1440 -11.0839  -7.1571
    -5.1739  -4.8007  -3.4187  -3.2855  -1.7670   1.4202   2.0792   2.3238
     3.1965   4.7981   5.7677   6.3377

     the Fermi energy is     0.8291 ev

!    total energy              =   -1375.70058624 Ry
     estimated scf accuracy    <          2.4E-13 Ry
     smearing contrib. (-TS)   =      -0.00000369 Ry
     internal energy E=F+TS    =   -1375.70058255 Ry

     The total energy is F=E-TS. E is the sum of the following terms:
     one-electron contribution =  -11616.53024703 Ry
     hartree contribution      =    5838.41125426 Ry
     xc contribution           =    -140.31310051 Ry
     ewald contribution        =    4542.73151073 Ry

     convergence has been achieved in  19 iterations

     negative rho (up, down):  2.667E-04 0.000E+00

     Forces acting on atoms (cartesian axes, Ry/au):

     atom    1 type  2   force =    -0.00045443    0.00025786   -0.00000160
     atom    2 type  1   force =     0.00003907    0.00027286   -0.00019064
     atom    3 type  1   force =     0.00009870   -0.00034853    0.00019177
     atom    4 type  3   force =     0.00026926   -0.00055428   -0.00005877
     atom    5 type  3   force =     0.00004740    0.00037209    0.00005924

     Total force =     0.001040     Total SCF correction =     0.000005


     Computing stress (Cartesian axis) and pressure


     negative rho (up, down):  2.667E-04 0.000E+00
          total   stress  (Ry/bohr**3)                   (kbar)     P=        0.11
   0.00000001   0.00000012   0.00000076            0.00        0.02        0.11
   0.00000012   0.00000279  -0.00000378            0.02        0.41       -0.56
   0.00000076  -0.00000378  -0.00000051            0.11       -0.56       -0.08


     Writing output data file /scratch/as3359/Ta2CH2-VCrelax/Ta.save/
 
     init_run     :     32.47s CPU     18.01s WALL (       1 calls)
     electrons    :   1313.72s CPU    670.88s WALL (       1 calls)
     forces       :     10.49s CPU      5.40s WALL (       1 calls)
     stress       :     44.92s CPU     23.04s WALL (       1 calls)

     Called by init_run:
     wfcinit      :     25.04s CPU     13.01s WALL (       1 calls)
     potinit      :      2.02s CPU      1.03s WALL (       1 calls)
     hinit0       :      4.13s CPU      3.10s WALL (       1 calls)

     Called by electrons:
     c_bands      :   1079.50s CPU    546.32s WALL (      19 calls)
     sum_band     :    207.11s CPU    108.00s WALL (      19 calls)
     v_of_rho     :      4.02s CPU      2.21s WALL (      20 calls)
     newd         :     22.40s CPU     13.98s WALL (      20 calls)
     mix_rho      :      1.63s CPU      0.92s WALL (      19 calls)

     Called by c_bands:
     init_us_2    :     27.90s CPU     13.98s WALL (    3034 calls)
     cegterg      :    997.29s CPU    504.86s WALL (    1406 calls)

     Called by *egterg:
     cdiaghg      :     16.80s CPU      8.60s WALL (    7376 calls)
     h_psi        :    794.04s CPU    402.95s WALL (    7450 calls)
     s_psi        :     42.56s CPU     21.30s WALL (    7450 calls)
     g_psi        :      5.04s CPU      2.53s WALL (    5970 calls)

     Called by h_psi:
     h_psi:calbec :     34.64s CPU     17.37s WALL (    7450 calls)
     vloc_psi     :    705.55s CPU    358.47s WALL (    7450 calls)
     add_vuspsi   :     46.78s CPU     23.43s WALL (    7450 calls)

     General routines
     calbec       :     49.87s CPU     25.03s WALL (    9226 calls)
     fft          :      1.89s CPU      0.97s WALL (     245 calls)
     ffts         :      0.14s CPU      0.07s WALL (      19 calls)
     fftw         :    723.49s CPU    367.93s WALL (  303070 calls)
 
     Parallel routines
 
     PWSCF        :  23m26.59s CPU  12m 1.88s WALL

 
   This run was terminated on:  15:48:46   7Apr2022            

=------------------------------------------------------------------------------=
   JOB DONE.
=------------------------------------------------------------------------------=
