
     Program PWSCF v.6.8 starts on  7Apr2022 at 15:48:47 

     This program is part of the open-source Quantum ESPRESSO suite
     for quantum simulation of materials; please cite
         "P. Giannozzi et al., J. Phys.:Condens. Matter 21 395502 (2009);
         "P. Giannozzi et al., J. Phys.:Condens. Matter 29 465901 (2017);
         "P. Giannozzi et al., J. Chem. Phys. 152 154105 (2020);
          URL http://www.quantum-espresso.org", 
     in publications or presentations arising from this work. More details at
     http://www.quantum-espresso.org/quote

     Parallel version (MPI & OpenMP), running on       4 processor cores
     Number of MPI processes:                 2
     Threads/MPI process:                     2

     MPI processes distributed on     1 nodes
     R & G space division:  proc/nbgrp/npool/nimage =       2
     123766 MiB available memory on the printing compute node when the environment starts
 
     Reading input from Ta2CH2.scf.125.in

     Current dimensions of program PWSCF are:
     Max number of different atomic species (ntypx) = 10
     Max number of k-points (npk) =  40000
     Max angular momentum in pseudopotentials (lmaxx) =  4
     file Ta.pbesol-spfn-rrkjus_psl.1.0.0.UPF: wavefunction(s)  5S 5P renormalized

     Subspace diagonalization in iterative solution of the eigenvalue problem:
     a serial algorithm will be used

 
     Parallelization info
     --------------------
     sticks:   dense  smooth     PW     G-vecs:    dense   smooth      PW
     Min         549     549    168               144637   144637   23961
     Max         550     550    169               144648   144648   23976
     Sum        1099    1099    337               289285   289285   47937
 
     Using Slab Decomposition
 


     bravais-lattice index     =            0
     lattice parameter (alat)  =       5.5500  a.u.
     unit-cell volume          =    1533.2393 (a.u.)^3
     number of atoms/cell      =            5
     number of atomic types    =            3
     number of electrons       =        60.00
     number of Kohn-Sham states=           36
     kinetic-energy cutoff     =     125.0000  Ry
     charge density cutoff     =     500.0000  Ry
     scf convergence threshold =      1.0E-12
     mixing beta               =       0.7000
     number of iterations used =            8  plain     mixing
     Exchange-correlation= PBESOL
                           (   1   4  10   8   0   0   0)

     celldm(1)=   5.550000  celldm(2)=   0.000000  celldm(3)=   0.000000
     celldm(4)=   0.000000  celldm(5)=   0.000000  celldm(6)=   0.000000

     crystal axes: (cart. coord. in units of alat)
               a(1) = (   1.017295  -0.000177   0.000000 )  
               a(2) = (  -0.508801   0.881714   0.000000 )  
               a(3) = (   0.000000   0.000000  10.000000 )  

     reciprocal axes: (cart. coord. in units 2 pi/alat)
               b(1) = (  0.983098  0.567305  0.000000 )  
               b(2) = (  0.000198  1.134269  0.000000 )  
               b(3) = (  0.000000  0.000000  0.100000 )  


     PseudoPot. # 1 for Ta read from file:
     /shared/home/as3359/pseudo/Ta.pbesol-spfn-rrkjus_psl.1.0.0.UPF
     MD5 check sum: f099565ffaca9b150a52e9412a28e20b
     Pseudo is Ultrasoft + core correction, Zval = 27.0
     Generated using &quot;atomic&quot; code by A. Dal Corso  v.6.3
     Using radial grid of 1273 points,  8 beta functions with: 
                l(1) =   0
                l(2) =   0
                l(3) =   1
                l(4) =   1
                l(5) =   2
                l(6) =   2
                l(7) =   3
                l(8) =   3
     Q(r) pseudized with 0 coefficients 


     PseudoPot. # 2 for C  read from file:
     /shared/home/as3359/pseudo/C.pbesol-n-rrkjus_psl.1.0.0.UPF
     MD5 check sum: 05995be603a8a7c99da3dc4413f31573
     Pseudo is Ultrasoft + core correction, Zval =  4.0
     Generated using &quot;atomic&quot; code by A. Dal Corso  v.6.3MaX
     Using radial grid of 1073 points,  4 beta functions with: 
                l(1) =   0
                l(2) =   0
                l(3) =   1
                l(4) =   1
     Q(r) pseudized with 0 coefficients 


     PseudoPot. # 3 for H  read from file:
     /shared/home/as3359/pseudo/H.pbesol-rrkjus_psl.0.1.UPF
     MD5 check sum: 1dbb1a5c48b1283557b8117eb856a7ca
     Pseudo is Ultrasoft, Zval =  1.0
     Generated using "atomic" code by A. Dal Corso  v.5.0.2 svn rev. 9415
     Using radial grid of  929 points,  2 beta functions with: 
                l(1) =   0
                l(2) =   0
     Q(r) pseudized with 0 coefficients 


     atomic species   valence    mass     pseudopotential
        Ta            27.00   180.94788     Ta( 1.00)
        C              4.00    12.01070     C ( 1.00)
        H              1.00     1.00000     H ( 1.00)

     No symmetry found



   Cartesian axes

     site n.     atom                  positions (alat units)
         1           C   tau(   1) = (   0.0000000   0.0000000   0.0000000  )
         2           Ta  tau(   2) = (   0.5088008   0.2948413  -0.4364511  )
         3           Ta  tau(   3) = (  -0.0007447   0.5869407   0.4364532  )
         4           H   tau(   4) = (  -0.0017928  -0.0015314   0.8341930  )
         5           H   tau(   5) = (   0.0002769   0.0024412  -0.8341930  )

     number of k points=    74  Marzari-Vanderbilt smearing, width (Ry)=  0.0010
                       cart. coord. in units 2pi/alat
        k(    1) = (   0.0000000   0.0000000   0.0000000), wk =   0.0138889
        k(    2) = (   0.0000165   0.0945224   0.0000000), wk =   0.0277778
        k(    3) = (   0.0000329   0.1890448   0.0000000), wk =   0.0277778
        k(    4) = (   0.0000494   0.2835672   0.0000000), wk =   0.0277778
        k(    5) = (   0.0000659   0.3780896   0.0000000), wk =   0.0277778
        k(    6) = (   0.0000823   0.4726120   0.0000000), wk =   0.0277778
        k(    7) = (  -0.0000988  -0.5671343   0.0000000), wk =   0.0138889
        k(    8) = (   0.0819248   0.0472755   0.0000000), wk =   0.0277778
        k(    9) = (   0.0819413   0.1417978   0.0000000), wk =   0.0277778
        k(   10) = (   0.0819577   0.2363202   0.0000000), wk =   0.0277778
        k(   11) = (   0.0819742   0.3308426   0.0000000), wk =   0.0277778
        k(   12) = (   0.0819907   0.4253650   0.0000000), wk =   0.0277778
        k(   13) = (   0.0820071   0.5198874   0.0000000), wk =   0.0277778
        k(   14) = (   0.0818260  -0.5198589   0.0000000), wk =   0.0277778
        k(   15) = (   0.0818425  -0.4253365   0.0000000), wk =   0.0277778
        k(   16) = (   0.0818590  -0.3308141   0.0000000), wk =   0.0277778
        k(   17) = (   0.0818754  -0.2362917   0.0000000), wk =   0.0277778
        k(   18) = (   0.0818919  -0.1417693   0.0000000), wk =   0.0277778
        k(   19) = (   0.0819084  -0.0472469   0.0000000), wk =   0.0277778
        k(   20) = (   0.1638496   0.0945509   0.0000000), wk =   0.0277778
        k(   21) = (   0.1638661   0.1890733   0.0000000), wk =   0.0277778
        k(   22) = (   0.1638826   0.2835957   0.0000000), wk =   0.0277778
        k(   23) = (   0.1638990   0.3781181   0.0000000), wk =   0.0277778
        k(   24) = (   0.1639155   0.4726405   0.0000000), wk =   0.0277778
        k(   25) = (   0.1639319   0.5671629   0.0000000), wk =   0.0277778
        k(   26) = (   0.1637508  -0.4725834   0.0000000), wk =   0.0277778
        k(   27) = (   0.1637673  -0.3780610   0.0000000), wk =   0.0277778
        k(   28) = (   0.1637838  -0.2835386   0.0000000), wk =   0.0277778
        k(   29) = (   0.1638002  -0.1890163   0.0000000), wk =   0.0277778
        k(   30) = (   0.1638167  -0.0944939   0.0000000), wk =   0.0277778
        k(   31) = (   0.1638332   0.0000285   0.0000000), wk =   0.0277778
        k(   32) = (   0.2457744   0.1418264   0.0000000), wk =   0.0277778
        k(   33) = (   0.2457909   0.2363488   0.0000000), wk =   0.0277778
        k(   34) = (   0.2458074   0.3308711   0.0000000), wk =   0.0277778
        k(   35) = (   0.2458238   0.4253935   0.0000000), wk =   0.0277778
        k(   36) = (   0.2458403   0.5199159   0.0000000), wk =   0.0277778
        k(   37) = (   0.2458568   0.6144383   0.0000000), wk =   0.0277778
        k(   38) = (   0.2456757  -0.4253080   0.0000000), wk =   0.0277778
        k(   39) = (   0.2456921  -0.3307856   0.0000000), wk =   0.0277778
        k(   40) = (   0.2457086  -0.2362632   0.0000000), wk =   0.0277778
        k(   41) = (   0.2457251  -0.1417408   0.0000000), wk =   0.0277778
        k(   42) = (   0.2457415  -0.0472184   0.0000000), wk =   0.0277778
        k(   43) = (   0.2457580   0.0473040   0.0000000), wk =   0.0277778
        k(   44) = (   0.3276993   0.1891018   0.0000000), wk =   0.0277778
        k(   45) = (   0.3277157   0.2836242   0.0000000), wk =   0.0277778
        k(   46) = (   0.3277322   0.3781466   0.0000000), wk =   0.0277778
        k(   47) = (   0.3277486   0.4726690   0.0000000), wk =   0.0277778
        k(   48) = (   0.3277651   0.5671914   0.0000000), wk =   0.0277778
        k(   49) = (   0.3277816   0.6617138   0.0000000), wk =   0.0277778
        k(   50) = (   0.3276005  -0.3780325   0.0000000), wk =   0.0277778
        k(   51) = (   0.3276169  -0.2835101   0.0000000), wk =   0.0277778
        k(   52) = (   0.3276334  -0.1889877   0.0000000), wk =   0.0277778
        k(   53) = (   0.3276499  -0.0944653   0.0000000), wk =   0.0277778
        k(   54) = (   0.3276663   0.0000570   0.0000000), wk =   0.0277778
        k(   55) = (   0.3276828   0.0945794   0.0000000), wk =   0.0277778
        k(   56) = (   0.4096241   0.2363773   0.0000000), wk =   0.0277778
        k(   57) = (   0.4096405   0.3308997   0.0000000), wk =   0.0277778
        k(   58) = (   0.4096570   0.4254221   0.0000000), wk =   0.0277778
        k(   59) = (   0.4096735   0.5199445   0.0000000), wk =   0.0277778
        k(   60) = (   0.4096899   0.6144668   0.0000000), wk =   0.0277778
        k(   61) = (   0.4097064   0.7089892   0.0000000), wk =   0.0277778
        k(   62) = (   0.4095253  -0.3307571   0.0000000), wk =   0.0277778
        k(   63) = (   0.4095418  -0.2362347   0.0000000), wk =   0.0277778
        k(   64) = (   0.4095582  -0.1417123   0.0000000), wk =   0.0277778
        k(   65) = (   0.4095747  -0.0471899   0.0000000), wk =   0.0277778
        k(   66) = (   0.4095911   0.0473325   0.0000000), wk =   0.0277778
        k(   67) = (   0.4096076   0.1418549   0.0000000), wk =   0.0277778
        k(   68) = (  -0.4915489  -0.2836527   0.0000000), wk =   0.0138889
        k(   69) = (  -0.4915324  -0.1891303   0.0000000), wk =   0.0277778
        k(   70) = (  -0.4915160  -0.0946080   0.0000000), wk =   0.0277778
        k(   71) = (  -0.4914995  -0.0000856   0.0000000), wk =   0.0277778
        k(   72) = (  -0.4914830   0.0944368   0.0000000), wk =   0.0277778
        k(   73) = (  -0.4914666   0.1889592   0.0000000), wk =   0.0277778
        k(   74) = (  -0.4916477  -0.8507871   0.0000000), wk =   0.0138889

     Dense  grid:   289285 G-vectors     FFT dimensions: (  45,  45, 400)

     Estimated max dynamical RAM per process >       2.11 GB

     Estimated total dynamical RAM >       4.22 GB

     Initial potential from superposition of free atoms

     starting charge   59.99840, renormalised to   60.00000

     negative rho (up, down):  1.971E-04 0.000E+00
     Starting wfcs are   40 randomized atomic wfcs

     total cpu time spent up to now is       21.8 secs

     Self-consistent Calculation

     iteration #  1     ecut=   125.00 Ry     beta= 0.70
     Davidson diagonalization with overlap
     ethr =  1.00E-02,  avg # of iterations =  2.0

     negative rho (up, down):  1.499E-04 0.000E+00

     total cpu time spent up to now is       62.7 secs

     total energy              =   -1375.12145764 Ry
     estimated scf accuracy    <       1.04943403 Ry

     iteration #  2     ecut=   125.00 Ry     beta= 0.70
     Davidson diagonalization with overlap
     ethr =  1.75E-03,  avg # of iterations =  7.5

     negative rho (up, down):  1.204E-04 0.000E+00

     total cpu time spent up to now is      118.9 secs

     total energy              =   -1374.71186959 Ry
     estimated scf accuracy    <       5.43932465 Ry

     iteration #  3     ecut=   125.00 Ry     beta= 0.70
     Davidson diagonalization with overlap
     ethr =  1.75E-03,  avg # of iterations =  4.8

     negative rho (up, down):  1.451E-04 0.000E+00

     total cpu time spent up to now is      169.1 secs

     total energy              =   -1375.66761140 Ry
     estimated scf accuracy    <       0.23008604 Ry

     iteration #  4     ecut=   125.00 Ry     beta= 0.70
     Davidson diagonalization with overlap
     ethr =  3.83E-04,  avg # of iterations =  2.4

     negative rho (up, down):  1.800E-04 0.000E+00

     total cpu time spent up to now is      210.8 secs

     total energy              =   -1375.69697075 Ry
     estimated scf accuracy    <       0.02240131 Ry

     iteration #  5     ecut=   125.00 Ry     beta= 0.70
     Davidson diagonalization with overlap
     ethr =  3.73E-05,  avg # of iterations = 11.7

     negative rho (up, down):  1.894E-04 0.000E+00

     total cpu time spent up to now is      270.4 secs

     total energy              =   -1375.69368158 Ry
     estimated scf accuracy    <       0.06372012 Ry

     iteration #  6     ecut=   125.00 Ry     beta= 0.70
     Davidson diagonalization with overlap
     ethr =  3.73E-05,  avg # of iterations = 11.1

     negative rho (up, down):  2.214E-04 0.000E+00

     total cpu time spent up to now is      321.1 secs

     total energy              =   -1375.69853392 Ry
     estimated scf accuracy    <       0.03264327 Ry

     iteration #  7     ecut=   125.00 Ry     beta= 0.70
     Davidson diagonalization with overlap
     ethr =  3.73E-05,  avg # of iterations =  3.8

     negative rho (up, down):  2.412E-04 0.000E+00

     total cpu time spent up to now is      360.3 secs

     total energy              =   -1375.70058887 Ry
     estimated scf accuracy    <       0.00024955 Ry

     iteration #  8     ecut=   125.00 Ry     beta= 0.70
     Davidson diagonalization with overlap
     c_bands:  1 eigenvalues not converged
     c_bands:  1 eigenvalues not converged
     c_bands:  1 eigenvalues not converged
     c_bands:  1 eigenvalues not converged
     c_bands:  1 eigenvalues not converged
     c_bands:  1 eigenvalues not converged
     c_bands:  1 eigenvalues not converged
     ethr =  4.16E-07,  avg # of iterations = 11.7

     negative rho (up, down):  2.577E-04 0.000E+00

     total cpu time spent up to now is      419.3 secs

     total energy              =   -1375.70066711 Ry
     estimated scf accuracy    <       0.00002189 Ry

     iteration #  9     ecut=   125.00 Ry     beta= 0.70
     Davidson diagonalization with overlap
     ethr =  3.65E-08,  avg # of iterations =  2.5

     negative rho (up, down):  2.600E-04 0.000E+00

     total cpu time spent up to now is      459.8 secs

     total energy              =   -1375.70067096 Ry
     estimated scf accuracy    <       0.00000523 Ry

     iteration # 10     ecut=   125.00 Ry     beta= 0.70
     Davidson diagonalization with overlap
     ethr =  8.72E-09,  avg # of iterations =  2.0

     negative rho (up, down):  2.606E-04 0.000E+00

     total cpu time spent up to now is      499.7 secs

     total energy              =   -1375.70067146 Ry
     estimated scf accuracy    <       0.00000065 Ry

     iteration # 11     ecut=   125.00 Ry     beta= 0.70
     Davidson diagonalization with overlap
     ethr =  1.08E-09,  avg # of iterations =  2.9

     negative rho (up, down):  2.606E-04 0.000E+00

     total cpu time spent up to now is      540.8 secs

     total energy              =   -1375.70067157 Ry
     estimated scf accuracy    <       0.00000007 Ry

     iteration # 12     ecut=   125.00 Ry     beta= 0.70
     Davidson diagonalization with overlap
     ethr =  1.15E-10,  avg # of iterations =  3.2

     negative rho (up, down):  2.606E-04 0.000E+00

     total cpu time spent up to now is      587.2 secs

     total energy              =   -1375.70067158 Ry
     estimated scf accuracy    <       0.00000003 Ry

     iteration # 13     ecut=   125.00 Ry     beta= 0.70
     Davidson diagonalization with overlap
     ethr =  5.13E-11,  avg # of iterations =  2.0

     negative rho (up, down):  2.606E-04 0.000E+00

     total cpu time spent up to now is      626.3 secs

     total energy              =   -1375.70067158 Ry
     estimated scf accuracy    <          5.7E-09 Ry

     iteration # 14     ecut=   125.00 Ry     beta= 0.70
     Davidson diagonalization with overlap
     ethr =  9.47E-12,  avg # of iterations =  3.3

     negative rho (up, down):  2.606E-04 0.000E+00

     total cpu time spent up to now is      668.1 secs

     total energy              =   -1375.70067158 Ry
     estimated scf accuracy    <          4.6E-10 Ry

     iteration # 15     ecut=   125.00 Ry     beta= 0.70
     Davidson diagonalization with overlap
     ethr =  7.62E-13,  avg # of iterations =  2.1

     negative rho (up, down):  2.607E-04 0.000E+00

     total cpu time spent up to now is      712.0 secs

     total energy              =   -1375.70067158 Ry
     estimated scf accuracy    <          1.1E-10 Ry

     iteration # 16     ecut=   125.00 Ry     beta= 0.70
     Davidson diagonalization with overlap
     ethr =  1.90E-13,  avg # of iterations =  2.3

     negative rho (up, down):  2.607E-04 0.000E+00

     total cpu time spent up to now is      752.0 secs

     total energy              =   -1375.70067158 Ry
     estimated scf accuracy    <          1.5E-10 Ry

     iteration # 17     ecut=   125.00 Ry     beta= 0.70
     Davidson diagonalization with overlap
     ethr =  1.90E-13,  avg # of iterations =  1.0

     negative rho (up, down):  2.607E-04 0.000E+00

     total cpu time spent up to now is      787.1 secs

     total energy              =   -1375.70067158 Ry
     estimated scf accuracy    <          1.0E-11 Ry

     iteration # 18     ecut=   125.00 Ry     beta= 0.70
     Davidson diagonalization with overlap
     ethr =  1.00E-13,  avg # of iterations =  2.1

     negative rho (up, down):  2.607E-04 0.000E+00

     total cpu time spent up to now is      825.2 secs

     total energy              =   -1375.70067158 Ry
     estimated scf accuracy    <          3.3E-12 Ry

     iteration # 19     ecut=   125.00 Ry     beta= 0.70
     Davidson diagonalization with overlap
     ethr =  1.00E-13,  avg # of iterations =  1.0

     negative rho (up, down):  2.607E-04 0.000E+00

     total cpu time spent up to now is      860.1 secs

     End of self-consistent calculation

          k = 0.0000 0.0000 0.0000 ( 35959 PWs)   bands (ev):

   -67.6112 -67.5797 -34.5973 -34.1139 -33.6992 -33.6978 -33.6591 -33.6588
   -19.2569 -19.2429 -19.2237 -19.2233 -19.2231 -19.2229 -19.2020 -19.2019
   -19.2007 -19.2000 -19.1995 -19.1933 -19.1194 -19.1186 -12.8534  -8.3512
    -5.2552  -3.4730  -3.2167  -3.2018  -1.2335   0.3192   0.3391   2.4913
     2.5031   2.9051   2.9379   3.4863

          k = 0.0000 0.0945 0.0000 ( 36055 PWs)   bands (ev):

   -67.6067 -67.5761 -34.5825 -34.1128 -33.7581 -33.7163 -33.7158 -33.6684
   -19.2552 -19.2422 -19.2248 -19.2234 -19.2231 -19.2217 -19.2041 -19.2021
   -19.2008 -19.2000 -19.1960 -19.1901 -19.1228 -19.1221 -12.7140  -8.1325
    -5.3202  -3.5512  -3.3890  -3.1607  -1.0618  -0.0556   0.5494   1.8787
     2.1874   2.9296   3.3018   4.1833

          k = 0.0000 0.1890 0.0000 ( 36075 PWs)   bands (ev):

   -67.5943 -67.5664 -34.5423 -34.1166 -33.9137 -33.8668 -33.7607 -33.6966
   -19.2511 -19.2406 -19.2288 -19.2236 -19.2228 -19.2179 -19.2092 -19.2027
   -19.2022 -19.1983 -19.1864 -19.1811 -19.1319 -19.1314 -12.3441  -7.5538
    -5.4875  -4.0337  -3.4654  -3.0964  -1.0094  -0.4089   1.1331   1.3095
     2.0978   2.7897   3.6417   4.9300

          k = 0.0000 0.2836 0.0000 ( 36107 PWs)   bands (ev):

   -67.5771 -67.5534 -34.4926 -34.1943 -34.0669 -34.0417 -33.8183 -33.7373
   -19.2478 -19.2377 -19.2339 -19.2247 -19.2225 -19.2143 -19.2137 -19.2047
   -19.2017 -19.1955 -19.1730 -19.1688 -19.1439 -19.1427 -11.8707  -6.9309
    -5.6166  -4.4657  -3.5647  -3.1182  -1.6555   0.3111   1.1531   1.8929
     2.5014   2.6841   3.7582   5.5183

          k = 0.0001 0.3781 0.0000 ( 36164 PWs)   bands (ev):

   -67.5593 -67.5409 -34.4800 -34.3744 -34.2122 -34.0711 -33.8740 -33.7791
   -19.2483 -19.2384 -19.2333 -19.2265 -19.2258 -19.2141 -19.2126 -19.2055
   -19.1991 -19.1921 -19.1594 -19.1564 -19.1553 -19.1526 -11.4465  -6.8504
    -5.3722  -4.6853  -3.6249  -3.2348  -1.9187   1.1161   1.4873   2.0733
     2.6878   3.7807   3.9154   6.0505

          k = 0.0001 0.4726 0.0000 ( 36178 PWs)   bands (ev):

   -67.5456 -67.5323 -34.5603 -34.4953 -34.2405 -34.0839 -33.9138 -33.8101
   -19.2501 -19.2408 -19.2341 -19.2284 -19.2264 -19.2139 -19.2114 -19.2054
   -19.1957 -19.1892 -19.1632 -19.1589 -19.1492 -19.1473 -11.1756  -7.0608
    -5.1835  -4.7674  -3.4536  -3.3576  -1.8319   1.5215   1.7910   2.1378
     3.1446   4.3191   5.1289   6.1962

          k =-0.0001-0.5671 0.0000 ( 36196 PWs)   bands (ev):

   -67.5402 -67.5294 -34.6074 -34.5379 -34.2304 -34.0914 -33.9282 -33.8215
   -19.2509 -19.2413 -19.2359 -19.2291 -19.2257 -19.2148 -19.2097 -19.2056
   -19.1943 -19.1881 -19.1660 -19.1610 -19.1453 -19.1440 -11.0860  -7.1579
    -5.1756  -4.7935  -3.4077  -3.2812  -1.7697   1.4149   2.0583   2.3145
     3.2027   4.7969   5.7625   6.3424

          k = 0.0819 0.0473 0.0000 ( 36049 PWs)   bands (ev):

   -67.6067 -67.5761 -34.5824 -34.1128 -33.7593 -33.7159 -33.7153 -33.6685
   -19.2552 -19.2422 -19.2249 -19.2234 -19.2232 -19.2215 -19.2040 -19.2022
   -19.2014 -19.1993 -19.1961 -19.1901 -19.1228 -19.1221 -12.7138  -8.1323
    -5.3182  -3.5474  -3.3857  -3.1741  -1.0632  -0.0393   0.5331   1.8785
     2.1863   2.9618   3.2862   4.1698

          k = 0.0819 0.1418 0.0000 ( 36070 PWs)   bands (ev):

   -67.5982 -67.5695 -34.5548 -34.1135 -33.8557 -33.8331 -33.7358 -33.6967
   -19.2521 -19.2411 -19.2270 -19.2252 -19.2218 -19.2191 -19.2073 -19.2029
   -19.2021 -19.1986 -19.1894 -19.1840 -19.1290 -19.1286 -12.4588  -7.7279
    -5.4299  -3.8040  -3.6603  -2.9882  -0.7507  -0.6297   0.8721   1.6531
     1.8056   2.9992   3.5716   4.8271

          k = 0.0820 0.2363 0.0000 ( 36093 PWs)   bands (ev):

   -67.5834 -67.5581 -34.5089 -34.1401 -34.0116 -33.9916 -33.7954 -33.7403
   -19.2475 -19.2396 -19.2313 -19.2265 -19.2211 -19.2152 -19.2124 -19.2041
   -19.2023 -19.1967 -19.1780 -19.1733 -19.1396 -19.1391 -12.0359  -7.0696
    -5.5912  -4.3095  -3.8495  -2.7952  -1.3680  -0.1434   0.7433   1.9401
     2.2361   2.7776   3.9439   5.3240

          k = 0.0820 0.3308 0.0000 ( 36147 PWs)   bands (ev):

   -67.5658 -67.5454 -34.4711 -34.2833 -34.1623 -34.0644 -33.8652 -33.7884
   -19.2458 -19.2360 -19.2357 -19.2281 -19.2220 -19.2156 -19.2126 -19.2055
   -19.2002 -19.1940 -19.1645 -19.1610 -19.1515 -19.1500 -11.5867  -6.6420
    -5.5400  -4.6357  -4.0066  -2.8078  -1.8146   0.5097   0.8126   2.1930
     2.8453   3.4093   4.0766   5.9327

          k = 0.0820 0.4254 0.0000 ( 36194 PWs)   bands (ev):

   -67.5500 -67.5349 -34.5053 -34.4341 -34.2359 -34.0826 -33.9224 -33.8304
   -19.2474 -19.2392 -19.2334 -19.2283 -19.2255 -19.2145 -19.2127 -19.2056
   -19.1970 -19.1912 -19.1615 -19.1584 -19.1525 -19.1502 -11.2421  -6.7899
    -5.1713  -4.7571  -4.0133  -3.0094  -1.8176   0.8258   1.5701   2.0187
     3.6576   3.9487   4.7816   6.2962

          k = 0.0820 0.5199 0.0000 ( 36194 PWs)   bands (ev):

   -67.5402 -67.5294 -34.5782 -34.5108 -34.2280 -34.0977 -33.9539 -33.8549
   -19.2489 -19.2404 -19.2348 -19.2291 -19.2251 -19.2151 -19.2110 -19.2055
   -19.1951 -19.1893 -19.1669 -19.1626 -19.1454 -19.1441 -11.0657  -6.9724
    -5.0881  -4.7605  -3.7751  -3.2368  -1.6602   1.1840   1.6762   2.2606
     3.9725   4.4361   5.7494   6.2794

          k = 0.0818-0.5199 0.0000 ( 36192 PWs)   bands (ev):

   -67.5402 -67.5294 -34.5781 -34.5107 -34.2280 -34.0978 -33.9540 -33.8549
   -19.2489 -19.2404 -19.2347 -19.2292 -19.2252 -19.2151 -19.2111 -19.2055
   -19.1950 -19.1893 -19.1669 -19.1626 -19.1454 -19.1441 -11.0659  -6.9721
    -5.0880  -4.7603  -3.7713  -3.2413  -1.6596   1.1845   1.6762   2.2611
     3.9714   4.4367   5.7492   6.2760

          k = 0.0818-0.4253 0.0000 ( 36192 PWs)   bands (ev):

   -67.5500 -67.5349 -34.5049 -34.4337 -34.2358 -34.0827 -33.9228 -33.8305
   -19.2473 -19.2392 -19.2332 -19.2284 -19.2256 -19.2143 -19.2131 -19.2055
   -19.1969 -19.1912 -19.1615 -19.1584 -19.1525 -19.1501 -11.2426  -6.7893
    -5.1722  -4.7557  -4.0083  -3.0152  -1.8165   0.8264   1.5739   2.0166
     3.6532   3.9481   4.7804   6.2944

          k = 0.0819-0.3308 0.0000 ( 36151 PWs)   bands (ev):

   -67.5659 -67.5454 -34.4710 -34.2827 -34.1618 -34.0645 -33.8657 -33.7886
   -19.2458 -19.2360 -19.2357 -19.2281 -19.2221 -19.2156 -19.2130 -19.2053
   -19.2000 -19.1941 -19.1645 -19.1610 -19.1515 -19.1500 -11.5872  -6.6417
    -5.5415  -4.6333  -4.0026  -2.8109  -1.8143   0.5068   0.8187   2.1919
     2.8391   3.4074   4.0756   5.9350

          k = 0.0819-0.2363 0.0000 ( 36105 PWs)   bands (ev):

   -67.5834 -67.5581 -34.5089 -34.1396 -34.0115 -33.9907 -33.7961 -33.7405
   -19.2476 -19.2396 -19.2313 -19.2264 -19.2209 -19.2155 -19.2125 -19.2039
   -19.2022 -19.1969 -19.1780 -19.1733 -19.1396 -19.1391 -12.0364  -7.0700
    -5.5931  -4.3071  -3.8469  -2.7937  -1.3698  -0.1416   0.7404   1.9407
     2.2377   2.7719   3.9395   5.3286

          k = 0.0819-0.1418 0.0000 ( 36074 PWs)   bands (ev):

   -67.5983 -67.5695 -34.5548 -34.1134 -33.8548 -33.8328 -33.7364 -33.6968
   -19.2522 -19.2412 -19.2271 -19.2251 -19.2217 -19.2194 -19.2074 -19.2027
   -19.2019 -19.1990 -19.1894 -19.1839 -19.1290 -19.1286 -12.4591  -7.7283
    -5.4319  -3.8044  -3.6584  -2.9834  -0.7494  -0.6344   0.8746   1.6475
     1.8097   2.9960   3.5654   4.8351

          k = 0.0819-0.0472 0.0000 ( 36059 PWs)   bands (ev):

   -67.6067 -67.5761 -34.5824 -34.1128 -33.7587 -33.7160 -33.7156 -33.6686
   -19.2552 -19.2422 -19.2249 -19.2233 -19.2232 -19.2216 -19.2041 -19.2021
   -19.2011 -19.1996 -19.1961 -19.1901 -19.1228 -19.1221 -12.7139  -8.1324
    -5.3190  -3.5491  -3.3872  -3.1681  -1.0627  -0.0467   0.5406   1.8785
     2.1870   2.9479   3.2924   4.1760

          k = 0.1638 0.0946 0.0000 ( 36083 PWs)   bands (ev):

   -67.5942 -67.5664 -34.5420 -34.1169 -33.9149 -33.8672 -33.7601 -33.6967
   -19.2508 -19.2406 -19.2289 -19.2234 -19.2233 -19.2175 -19.2090 -19.2034
   -19.2025 -19.1978 -19.1864 -19.1812 -19.1319 -19.1313 -12.3433  -7.5528
    -5.4798  -4.0350  -3.4706  -3.1113  -1.0097  -0.3975   1.1204   1.3210
     2.0942   2.8192   3.6308   4.9223

          k = 0.1639 0.1891 0.0000 ( 36093 PWs)   bands (ev):

   -67.5833 -67.5581 -34.5087 -34.1404 -34.0128 -33.9909 -33.7956 -33.7405
   -19.2472 -19.2397 -19.2314 -19.2264 -19.2213 -19.2151 -19.2123 -19.2044
   -19.2025 -19.1965 -19.1780 -19.1734 -19.1396 -19.1391 -12.0354  -7.0686
    -5.5855  -4.3128  -3.8543  -2.8033  -1.3675  -0.1384   0.7505   1.9365
     2.2375   2.7862   3.9415   5.3197

          k = 0.1639 0.2836 0.0000 ( 36170 PWs)   bands (ev):

   -67.5681 -67.5470 -34.4708 -34.2272 -34.1483 -34.0558 -33.8611 -33.8162
   -19.2417 -19.2395 -19.2339 -19.2299 -19.2205 -19.2154 -19.2136 -19.2055
   -19.2004 -19.1950 -19.1664 -19.1627 -19.1499 -19.1496 -11.6354  -6.4255
    -5.6908  -4.6303  -4.2213  -2.5253  -1.6908   0.0603   0.4336   2.2171
     3.0402   3.2024   4.4841   5.7291

          k = 0.1639 0.3781 0.0000 ( 36227 PWs)   bands (ev):

   -67.5524 -67.5364 -34.4660 -34.3529 -34.2295 -34.0822 -33.9452 -33.8863
   -19.2419 -19.2364 -19.2355 -19.2306 -19.2229 -19.2160 -19.2138 -19.2060
   -19.1971 -19.1939 -19.1609 -19.1597 -19.1543 -19.1518 -11.2680  -6.2104
    -5.4668  -4.8017  -4.3836  -2.6464  -1.6844  -0.1879   1.2091   2.1693
     3.6378   4.2114   4.8797   6.3380

          k = 0.1639 0.4726 0.0000 ( 36269 PWs)   bands (ev):

   -67.5401 -67.5294 -34.5109 -34.4431 -34.2274 -34.1175 -34.0034 -33.9352
   -19.2442 -19.2374 -19.2343 -19.2279 -19.2250 -19.2164 -19.2139 -19.2052
   -19.1960 -19.1925 -19.1685 -19.1660 -19.1457 -19.1441 -11.0245  -6.4523
    -4.9284  -4.8666  -4.4038  -3.0261  -1.4539   0.0244   1.9794   2.3104
     3.8264   4.5342   5.4227   6.3566

          k = 0.1639 0.5672 0.0000 ( 36250 PWs)   bands (ev):

   -67.5353 -67.5273 -34.5379 -34.4721 -34.2096 -34.1444 -34.0196 -33.9535
   -19.2452 -19.2377 -19.2330 -19.2302 -19.2232 -19.2170 -19.2133 -19.2050
   -19.1961 -19.1917 -19.1713 -19.1682 -19.1423 -19.1414 -10.9415  -6.5626
    -4.8976  -4.7268  -4.3085  -3.2767  -1.3143   0.2280   2.2185   2.4620
     4.0579   4.4468   5.5831   6.1199

          k = 0.1638-0.4726 0.0000 ( 36271 PWs)   bands (ev):

   -67.5402 -67.5294 -34.5102 -34.4425 -34.2274 -34.1180 -34.0039 -33.9352
   -19.2441 -19.2374 -19.2340 -19.2281 -19.2251 -19.2163 -19.2141 -19.2051
   -19.1960 -19.1924 -19.1685 -19.1660 -19.1457 -19.1441 -11.0252  -6.4512
    -4.9315  -4.8635  -4.3989  -3.0311  -1.4527   0.0250   1.9834   2.3070
     3.8287   4.5244   5.4240   6.3572

          k = 0.1638-0.3781 0.0000 ( 36229 PWs)   bands (ev):

   -67.5525 -67.5365 -34.4654 -34.3517 -34.2292 -34.0824 -33.9461 -33.8865
   -19.2417 -19.2363 -19.2352 -19.2308 -19.2229 -19.2159 -19.2143 -19.2058
   -19.1969 -19.1939 -19.1609 -19.1597 -19.1543 -19.1517 -11.2690  -6.2093
    -5.4693  -4.7974  -4.3789  -2.6512  -1.6822  -0.1899   1.2147   2.1642
     3.6360   4.2043   4.8750   6.3415

          k = 0.1638-0.2835 0.0000 ( 36176 PWs)   bands (ev):

   -67.5682 -67.5471 -34.4708 -34.2257 -34.1477 -34.0557 -33.8619 -33.8164
   -19.2419 -19.2393 -19.2338 -19.2300 -19.2203 -19.2156 -19.2140 -19.2053
   -19.2001 -19.1951 -19.1664 -19.1627 -19.1499 -19.1497 -11.6364  -6.4262
    -5.6937  -4.6251  -4.2165  -2.5247  -1.6906   0.0525   0.4396   2.2139
     3.0346   3.2003   4.4773   5.7379

          k = 0.1638-0.1890 0.0000 ( 36095 PWs)   bands (ev):

   -67.5834 -67.5581 -34.5088 -34.1399 -34.0118 -33.9906 -33.7962 -33.7407
   -19.2474 -19.2397 -19.2314 -19.2263 -19.2210 -19.2154 -19.2125 -19.2040
   -19.2023 -19.1968 -19.1780 -19.1733 -19.1396 -19.1391 -12.0361  -7.0696
    -5.5897  -4.3091  -3.8496  -2.7982  -1.3695  -0.1388   0.7443   1.9388
     2.2384   2.7768   3.9378   5.3263

          k = 0.1638-0.0945 0.0000 ( 36085 PWs)   bands (ev):

   -67.5943 -67.5664 -34.5421 -34.1168 -33.9142 -33.8670 -33.7604 -33.6967
   -19.2509 -19.2406 -19.2289 -19.2234 -19.2230 -19.2177 -19.2092 -19.2030
   -19.2023 -19.1981 -19.1864 -19.1812 -19.1319 -19.1314 -12.3437  -7.5534
    -5.4830  -4.0345  -3.4681  -3.1049  -1.0097  -0.4024   1.1262   1.3159
     2.0959   2.8063   3.6349   4.9257

          k = 0.1638 0.0000 0.0000 ( 36074 PWs)   bands (ev):

   -67.5982 -67.5695 -34.5546 -34.1137 -33.8566 -33.8332 -33.7352 -33.6967
   -19.2520 -19.2411 -19.2271 -19.2253 -19.2219 -19.2189 -19.2073 -19.2030
   -19.2022 -19.1984 -19.1895 -19.1840 -19.1290 -19.1286 -12.4585  -7.7277
    -5.4271  -3.8037  -3.6625  -2.9945  -0.7524  -0.6241   0.8693   1.6610
     1.8002   3.0024   3.5794   4.8165

          k = 0.2458 0.1418 0.0000 ( 36107 PWs)   bands (ev):

   -67.5769 -67.5533 -34.4922 -34.1955 -34.0685 -34.0415 -33.8182 -33.7375
   -19.2473 -19.2378 -19.2341 -19.2244 -19.2231 -19.2142 -19.2133 -19.2053
   -19.2020 -19.1952 -19.1731 -19.1689 -19.1439 -19.1426 -11.8692  -6.9280
    -5.6050  -4.4759  -3.5744  -3.1350  -1.6536   0.3208   1.1719   1.8879
     2.5279   2.6772   3.7507   5.5104

          k = 0.2458 0.2363 0.0000 ( 36159 PWs)   bands (ev):

   -67.5656 -67.5453 -34.4710 -34.2841 -34.1626 -34.0647 -33.8657 -33.7887
   -19.2454 -19.2364 -19.2354 -19.2281 -19.2223 -19.2156 -19.2127 -19.2059
   -19.2003 -19.1938 -19.1645 -19.1610 -19.1515 -19.1498 -11.5854  -6.6373
    -5.5338  -4.6443  -4.0131  -2.8242  -1.8132   0.5273   0.8213   2.2032
     2.8457   3.4036   4.0785   5.9235

          k = 0.2458 0.3309 0.0000 ( 36227 PWs)   bands (ev):

   -67.5523 -67.5364 -34.4663 -34.3535 -34.2291 -34.0823 -33.9459 -33.8862
   -19.2419 -19.2361 -19.2349 -19.2309 -19.2230 -19.2157 -19.2142 -19.2062
   -19.1972 -19.1937 -19.1609 -19.1595 -19.1543 -19.1517 -11.2672  -6.2043
    -5.4716  -4.8029  -4.3865  -2.6560  -1.6847  -0.1766   1.2141   2.1737
     3.6377   4.2090   4.8824   6.3328

          k = 0.2458 0.4254 0.0000 ( 36286 PWs)   bands (ev):

   -67.5400 -67.5294 -34.4727 -34.3883 -34.2495 -34.1156 -34.0344 -33.9845
   -19.2415 -19.2352 -19.2313 -19.2304 -19.2253 -19.2168 -19.2154 -19.2052
   -19.1956 -19.1951 -19.1689 -19.1681 -19.1458 -19.1442 -11.0031  -5.7684
    -5.6048  -4.7461  -4.5333  -2.8586  -1.2603  -0.5970   1.9001   2.4535
     3.6695   4.5716   5.2452   6.6387

          k = 0.2458 0.5199 0.0000 ( 36285 PWs)   bands (ev):

   -67.5320 -67.5264 -34.4639 -34.3991 -34.2521 -34.1837 -34.0666 -34.0418
   -19.2425 -19.2327 -19.2312 -19.2289 -19.2236 -19.2191 -19.2167 -19.2033
   -19.1973 -19.1952 -19.1740 -19.1728 -19.1407 -19.1399 -10.8557  -5.9402
    -5.1448  -4.7281  -4.6209  -3.1527  -0.9461  -0.4719   2.5591   2.7674
     3.5029   4.1694   5.1623   6.3210

          k = 0.2459 0.6144 0.0000 ( 36286 PWs)   bands (ev):

   -67.5320 -67.5263 -34.4632 -34.3985 -34.2521 -34.1845 -34.0678 -34.0409
   -19.2423 -19.2325 -19.2313 -19.2291 -19.2238 -19.2191 -19.2166 -19.2032
   -19.1974 -19.1951 -19.1740 -19.1728 -19.1407 -19.1399 -10.8562  -5.9390
    -5.1448  -4.7281  -4.6188  -3.1543  -0.9457  -0.4719   2.5621   2.7633
     3.5067   4.1615   5.1628   6.3200

          k = 0.2457-0.4253 0.0000 ( 36278 PWs)   bands (ev):

   -67.5401 -67.5294 -34.4716 -34.3866 -34.2502 -34.1162 -34.0354 -33.9842
   -19.2412 -19.2351 -19.2314 -19.2308 -19.2254 -19.2171 -19.2154 -19.2050
   -19.1956 -19.1949 -19.1690 -19.1681 -19.1458 -19.1442 -11.0043  -5.7665
    -5.6052  -4.7441  -4.5292  -2.8613  -1.2576  -0.6002   1.9036   2.4471
     3.6723   4.5584   5.2450   6.6354

          k = 0.2457-0.3308 0.0000 ( 36229 PWs)   bands (ev):

   -67.5524 -67.5365 -34.4656 -34.3519 -34.2292 -34.0824 -33.9464 -33.8865
   -19.2417 -19.2363 -19.2350 -19.2310 -19.2230 -19.2158 -19.2145 -19.2059
   -19.1969 -19.1938 -19.1609 -19.1596 -19.1543 -19.1517 -11.2686  -6.2063
    -5.4718  -4.7981  -4.3806  -2.6562  -1.6822  -0.1838   1.2173   2.1665
     3.6360   4.2029   4.8766   6.3384

          k = 0.2457-0.2363 0.0000 ( 36159 PWs)   bands (ev):

   -67.5658 -67.5454 -34.4709 -34.2831 -34.1620 -34.0646 -33.8660 -33.7888
   -19.2455 -19.2362 -19.2357 -19.2280 -19.2222 -19.2157 -19.2130 -19.2056
   -19.2001 -19.1939 -19.1645 -19.1610 -19.1515 -19.1499 -11.5865  -6.6396
    -5.5377  -4.6381  -4.0062  -2.8198  -1.8133   0.5167   0.8232   2.1974
     2.8393   3.4042   4.0765   5.9300

          k = 0.2457-0.1417 0.0000 ( 36117 PWs)   bands (ev):

   -67.5770 -67.5534 -34.4923 -34.1950 -34.0675 -34.0416 -33.8183 -33.7375
   -19.2475 -19.2377 -19.2341 -19.2245 -19.2228 -19.2144 -19.2135 -19.2050
   -19.2018 -19.1953 -19.1731 -19.1688 -19.1439 -19.1426 -11.8699  -6.9297
    -5.6098  -4.4715  -3.5697  -3.1278  -1.6542   0.3166   1.1633   1.8903
     2.5162   2.6802   3.7535   5.5140

          k = 0.2457-0.0472 0.0000 ( 36091 PWs)   bands (ev):

   -67.5833 -67.5581 -34.5086 -34.1410 -34.0121 -33.9921 -33.7949 -33.7403
   -19.2473 -19.2396 -19.2315 -19.2264 -19.2212 -19.2150 -19.2124 -19.2044
   -19.2024 -19.1966 -19.1780 -19.1734 -19.1396 -19.1391 -12.0351  -7.0690
    -5.5852  -4.3146  -3.8549  -2.8020  -1.3654  -0.1434   0.7514   1.9375
     2.2356   2.7891   3.9478   5.3154

          k = 0.2458 0.0473 0.0000 ( 36101 PWs)   bands (ev):

   -67.5833 -67.5581 -34.5085 -34.1411 -34.0130 -33.9916 -33.7950 -33.7403
   -19.2471 -19.2397 -19.2315 -19.2265 -19.2213 -19.2149 -19.2123 -19.2045
   -19.2025 -19.1965 -19.1780 -19.1734 -19.1396 -19.1391 -12.0348  -7.0684
    -5.5828  -4.3160  -3.8571  -2.8057  -1.3652  -0.1412   0.7547   1.9359
     2.2363   2.7928   3.9471   5.3134

          k = 0.3277 0.1891 0.0000 ( 36168 PWs)   bands (ev):

   -67.5589 -67.5408 -34.4806 -34.3760 -34.2119 -34.0720 -33.8743 -33.7796
   -19.2479 -19.2384 -19.2330 -19.2264 -19.2262 -19.2145 -19.2123 -19.2062
   -19.1992 -19.1919 -19.1594 -19.1564 -19.1553 -19.1524 -11.4440  -6.8450
    -5.3636  -4.6983  -3.6368  -3.2529  -1.9168   1.1357   1.5049   2.0954
     2.6843   3.7779   3.9100   6.0427

          k = 0.3277 0.2836 0.0000 ( 36190 PWs)   bands (ev):

   -67.5497 -67.5349 -34.5064 -34.4356 -34.2343 -34.0838 -33.9232 -33.8308
   -19.2473 -19.2390 -19.2327 -19.2283 -19.2258 -19.2144 -19.2133 -19.2063
   -19.1970 -19.1911 -19.1614 -19.1581 -19.1525 -19.1501 -11.2398  -6.7847
    -5.1667  -4.7681  -4.0204  -3.0288  -1.8153   0.8492   1.5806   2.0327
     3.6561   3.9491   4.7812   6.2853

          k = 0.3277 0.3781 0.0000 ( 36263 PWs)   bands (ev):

   -67.5399 -67.5294 -34.5120 -34.4447 -34.2255 -34.1180 -34.0048 -33.9349
   -19.2446 -19.2367 -19.2337 -19.2277 -19.2255 -19.2161 -19.2144 -19.2058
   -19.1961 -19.1923 -19.1685 -19.1658 -19.1457 -19.1441 -11.0226  -6.4490
    -4.9349  -4.8687  -4.4063  -3.0381  -1.4545   0.0393   1.9900   2.3204
     3.8282   4.5296   5.4239   6.3668

          k = 0.3277 0.4727 0.0000 ( 36282 PWs)   bands (ev):

   -67.5318 -67.5264 -34.4651 -34.4005 -34.2513 -34.1822 -34.0681 -34.0412
   -19.2428 -19.2324 -19.2305 -19.2289 -19.2241 -19.2189 -19.2169 -19.2035
   -19.1975 -19.1950 -19.1741 -19.1726 -19.1407 -19.1399 -10.8545  -5.9397
    -5.1489  -4.7330  -4.6174  -3.1569  -0.9496  -0.4638   2.5680   2.7723
     3.5018   4.1693   5.1609   6.3230

          k = 0.3278 0.5672 0.0000 ( 36260 PWs)   bands (ev):

   -67.5272 -67.5270 -34.3854 -34.3447 -34.3439 -34.2327 -34.0832 -34.0806
   -19.2421 -19.2304 -19.2303 -19.2238 -19.2234 -19.2219 -19.2208 -19.2002
   -19.1986 -19.1982 -19.1758 -19.1757 -19.1387 -19.1386 -10.7909  -5.4413
    -5.4375  -4.9156  -4.5616  -3.1835  -0.6388  -0.6335   2.9577   2.9592
     3.4958   3.5034   4.8873   6.6783

          k = 0.3278 0.6617 0.0000 ( 36294 PWs)   bands (ev):

   -67.5319 -67.5264 -34.4640 -34.3989 -34.2519 -34.1836 -34.0685 -34.0407
   -19.2425 -19.2324 -19.2308 -19.2291 -19.2241 -19.2191 -19.2167 -19.2034
   -19.1975 -19.1950 -19.1740 -19.1727 -19.1407 -19.1399 -10.8555  -5.9390
    -5.1470  -4.7306  -4.6172  -3.1563  -0.9475  -0.4675   2.5670   2.7657
     3.5060   4.1618   5.1621   6.3204

          k = 0.3276-0.3780 0.0000 ( 36267 PWs)   bands (ev):

   -67.5400 -67.5294 -34.5109 -34.4430 -34.2265 -34.1181 -34.0046 -33.9351
   -19.2442 -19.2371 -19.2337 -19.2280 -19.2254 -19.2163 -19.2143 -19.2055
   -19.1960 -19.1923 -19.1685 -19.1659 -19.1457 -19.1441 -11.0241  -6.4498
    -4.9349  -4.8646  -4.4006  -3.0371  -1.4528   0.0330   1.9889   2.3124
     3.8299   4.5219   5.4246   6.3620

          k = 0.3276-0.2835 0.0000 ( 36190 PWs)   bands (ev):

   -67.5498 -67.5349 -34.5056 -34.4343 -34.2351 -34.0833 -33.9232 -33.8308
   -19.2472 -19.2392 -19.2328 -19.2284 -19.2258 -19.2143 -19.2134 -19.2059
   -19.1969 -19.1911 -19.1614 -19.1583 -19.1525 -19.1501 -11.2413  -6.7869
    -5.1696  -4.7619  -4.0122  -3.0254  -1.8148   0.8393   1.5791   2.0243
     3.6522   3.9485   4.7801   6.2875

          k = 0.3276-0.1890 0.0000 ( 36172 PWs)   bands (ev):

   -67.5591 -67.5408 -34.4803 -34.3751 -34.2121 -34.0715 -33.8742 -33.7795
   -19.2480 -19.2385 -19.2332 -19.2265 -19.2260 -19.2144 -19.2125 -19.2059
   -19.1992 -19.1919 -19.1594 -19.1564 -19.1553 -19.1525 -11.4451  -6.8479
    -5.3673  -4.6926  -3.6309  -3.2452  -1.9173   1.1273   1.4963   2.0856
     2.6858   3.7792   3.9121   6.0455

          k = 0.3276-0.0945 0.0000 ( 36151 PWs)   bands (ev):

   -67.5657 -67.5453 -34.4711 -34.2846 -34.1629 -34.0646 -33.8649 -33.7884
   -19.2455 -19.2362 -19.2357 -19.2282 -19.2221 -19.2156 -19.2125 -19.2058
   -19.2004 -19.1939 -19.1645 -19.1611 -19.1515 -19.1499 -11.5853  -6.6402
    -5.5344  -4.6437  -4.0144  -2.8138  -1.8140   0.5232   0.8092   2.2006
     2.8535   3.4090   4.0779   5.9248

          k = 0.3277 0.0001 0.0000 ( 36172 PWs)   bands (ev):

   -67.5680 -67.5470 -34.4708 -34.2290 -34.1486 -34.0560 -33.8604 -33.8159
   -19.2415 -19.2395 -19.2341 -19.2298 -19.2205 -19.2154 -19.2134 -19.2057
   -19.2006 -19.1950 -19.1664 -19.1628 -19.1499 -19.1496 -11.6342  -6.4251
    -5.6869  -4.6370  -4.2265  -2.5268  -1.6912   0.0702   0.4255   2.2216
     3.0472   3.2061   4.4920   5.7176

          k = 0.3277 0.0946 0.0000 ( 36151 PWs)   bands (ev):

   -67.5656 -67.5453 -34.4711 -34.2850 -34.1630 -34.0648 -33.8651 -33.7885
   -19.2454 -19.2364 -19.2354 -19.2282 -19.2222 -19.2155 -19.2125 -19.2060
   -19.2004 -19.1938 -19.1645 -19.1611 -19.1515 -19.1498 -11.5847  -6.6376
    -5.5320  -4.6474  -4.0174  -2.8213  -1.8137   0.5309   0.8135   2.2052
     2.8537   3.4065   4.0790   5.9206

          k = 0.4096 0.2364 0.0000 ( 36188 PWs)   bands (ev):

   -67.5451 -67.5323 -34.5621 -34.4976 -34.2376 -34.0860 -33.9143 -33.8107
   -19.2501 -19.2405 -19.2337 -19.2281 -19.2266 -19.2139 -19.2121 -19.2063
   -19.1957 -19.1891 -19.1632 -19.1586 -19.1491 -19.1473 -11.1722  -7.0570
    -5.1784  -4.7802  -3.4644  -3.3763  -1.8286   1.5320   1.8286   2.1536
     3.1355   4.3229   5.1299   6.1876

          k = 0.4096 0.3309 0.0000 ( 36186 PWs)   bands (ev):

   -67.5397 -67.5295 -34.5800 -34.5132 -34.2244 -34.1001 -33.9547 -33.8553
   -19.2491 -19.2400 -19.2344 -19.2289 -19.2252 -19.2151 -19.2118 -19.2063
   -19.1950 -19.1892 -19.1669 -19.1623 -19.1454 -19.1441 -11.0624  -6.9697
    -5.0855  -4.7721  -3.7844  -3.2518  -1.6580   1.2048   1.6865   2.2805
     3.9741   4.4369   5.7564   6.2746

          k = 0.4097 0.4254 0.0000 ( 36242 PWs)   bands (ev):

   -67.5348 -67.5274 -34.5400 -34.4746 -34.2059 -34.1456 -34.0210 -33.9532
   -19.2458 -19.2368 -19.2329 -19.2299 -19.2231 -19.2169 -19.2139 -19.2056
   -19.1962 -19.1916 -19.1713 -19.1679 -19.1423 -19.1414 -10.9383  -6.5620
    -4.8995  -4.7361  -4.3134  -3.2838  -1.3159   0.2412   2.2281   2.4793
     4.0529   4.4555   5.5791   6.1269

          k = 0.4097 0.5199 0.0000 ( 36283 PWs)   bands (ev):

   -67.5317 -67.5265 -34.4659 -34.4015 -34.2503 -34.1820 -34.0675 -34.0417
   -19.2429 -19.2327 -19.2304 -19.2287 -19.2238 -19.2188 -19.2171 -19.2036
   -19.1974 -19.1952 -19.1740 -19.1726 -19.1407 -19.1400 -10.8538  -5.9414
    -5.1488  -4.7336  -4.6194  -3.1550  -0.9505  -0.4640   2.5639   2.7783
     3.4968   4.1785   5.1615   6.3246

          k = 0.4097 0.6145 0.0000 ( 36281 PWs)   bands (ev):

   -67.5318 -67.5264 -34.4655 -34.4005 -34.2508 -34.1827 -34.0666 -34.0421
   -19.2427 -19.2328 -19.2308 -19.2288 -19.2236 -19.2190 -19.2170 -19.2035
   -19.1974 -19.1952 -19.1740 -19.1727 -19.1407 -19.1399 -10.8543  -5.9419
    -5.1468  -4.7312  -4.6214  -3.1528  -0.9489  -0.4678   2.5599   2.7759
     3.4972   4.1789   5.1622   6.3228

          k = 0.4097 0.7090 0.0000 ( 36247 PWs)   bands (ev):

   -67.5350 -67.5273 -34.5392 -34.4731 -34.2078 -34.1450 -34.0203 -33.9534
   -19.2454 -19.2373 -19.2330 -19.2301 -19.2231 -19.2170 -19.2136 -19.2053
   -19.1962 -19.1916 -19.1713 -19.1681 -19.1423 -19.1414 -10.9396  -6.5627
    -4.8984  -4.7322  -4.3117  -3.2799  -1.3149   0.2350   2.2232   2.4716
     4.0548   4.4520   5.5811   6.1229

          k = 0.4095-0.3308 0.0000 ( 36196 PWs)   bands (ev):

   -67.5400 -67.5295 -34.5791 -34.5116 -34.2262 -34.0989 -33.9545 -33.8553
   -19.2489 -19.2403 -19.2345 -19.2291 -19.2252 -19.2152 -19.2115 -19.2059
   -19.1950 -19.1892 -19.1668 -19.1624 -19.1454 -19.1440 -11.0640  -6.9712
    -5.0865  -4.7670  -3.7768  -3.2486  -1.6579   1.1957   1.6812   2.2721
     3.9720   4.4372   5.7531   6.2747

          k = 0.4095-0.2362 0.0000 ( 36184 PWs)   bands (ev):

   -67.5453 -67.5323 -34.5614 -34.4962 -34.2391 -34.0849 -33.9142 -33.8105
   -19.2500 -19.2407 -19.2339 -19.2282 -19.2264 -19.2140 -19.2118 -19.2059
   -19.1957 -19.1891 -19.1631 -19.1587 -19.1491 -19.1473 -11.1736  -7.0593
    -5.1806  -4.7747  -3.4589  -3.3680  -1.8296   1.5266   1.8121   2.1461
     3.1390   4.3214   5.1295   6.1907

          k = 0.4096-0.1417 0.0000 ( 36196 PWs)   bands (ev):

   -67.5497 -67.5349 -34.5064 -34.4352 -34.2350 -34.0833 -33.9225 -33.8306
   -19.2472 -19.2392 -19.2333 -19.2282 -19.2254 -19.2146 -19.2128 -19.2060
   -19.1971 -19.1912 -19.1614 -19.1583 -19.1525 -19.1502 -11.2401  -6.7883
    -5.1676  -4.7651  -4.0225  -3.0138  -1.8175   0.8377   1.5703   2.0299
     3.6617   3.9493   4.7834   6.2921

          k = 0.4096-0.0472 0.0000 ( 36233 PWs)   bands (ev):

   -67.5522 -67.5364 -34.4668 -34.3547 -34.2291 -34.0823 -33.9448 -33.8860
   -19.2419 -19.2364 -19.2353 -19.2305 -19.2228 -19.2159 -19.2138 -19.2062
   -19.1973 -19.1938 -19.1608 -19.1596 -19.1543 -19.1518 -11.2662  -6.2088
    -5.4666  -4.8075  -4.3906  -2.6463  -1.6877  -0.1793   1.2042   2.1792
     3.6396   4.2190   4.8871   6.3305

          k = 0.4096 0.0473 0.0000 ( 36229 PWs)   bands (ev):

   -67.5522 -67.5364 -34.4669 -34.3551 -34.2288 -34.0825 -33.9451 -33.8859
   -19.2420 -19.2363 -19.2350 -19.2307 -19.2229 -19.2157 -19.2140 -19.2063
   -19.1973 -19.1938 -19.1609 -19.1595 -19.1543 -19.1518 -11.2658  -6.2057
    -5.4690  -4.8081  -4.3917  -2.6509  -1.6881  -0.1741   1.2065   2.1813
     3.6396   4.2180   4.8883   6.3285

          k = 0.4096 0.1419 0.0000 ( 36194 PWs)   bands (ev):

   -67.5496 -67.5349 -34.5068 -34.4362 -34.2341 -34.0839 -33.9228 -33.8307
   -19.2473 -19.2390 -19.2329 -19.2282 -19.2256 -19.2145 -19.2131 -19.2063
   -19.1971 -19.1911 -19.1614 -19.1581 -19.1525 -19.1502 -11.2391  -6.7855
    -5.1656  -4.7698  -4.0257  -3.0230  -1.8168   0.8482   1.5757   2.0361
     3.6613   3.9494   4.7833   6.2880

          k =-0.4915-0.2837 0.0000 ( 36196 PWs)   bands (ev):

   -67.5397 -67.5295 -34.6093 -34.5405 -34.2263 -34.0943 -33.9289 -33.8222
   -19.2511 -19.2409 -19.2356 -19.2289 -19.2257 -19.2148 -19.2104 -19.2064
   -19.1942 -19.1880 -19.1659 -19.1606 -19.1452 -19.1440 -11.0822  -7.1553
    -5.1724  -4.8059  -3.4266  -3.2910  -1.7656   1.4259   2.0951   2.3331
     3.1927   4.7991   5.7717   6.3350

          k =-0.4915-0.1891 0.0000 ( 36185 PWs)   bands (ev):

   -67.5397 -67.5295 -34.5802 -34.5134 -34.2243 -34.1001 -33.9546 -33.8553
   -19.2492 -19.2400 -19.2346 -19.2288 -19.2251 -19.2151 -19.2117 -19.2063
   -19.1950 -19.1892 -19.1668 -19.1623 -19.1454 -19.1441 -11.0621  -6.9700
    -5.0857  -4.7723  -3.7882  -3.2475  -1.6589   1.2040   1.6867   2.2798
     3.9752   4.4358   5.7569   6.2755

          k =-0.4915-0.0946 0.0000 ( 36261 PWs)   bands (ev):

   -67.5398 -67.5294 -34.5128 -34.4455 -34.2249 -34.1181 -34.0043 -33.9348
   -19.2447 -19.2367 -19.2340 -19.2274 -19.2253 -19.2161 -19.2144 -19.2058
   -19.1962 -19.1924 -19.1685 -19.1657 -19.1457 -19.1442 -11.0216  -6.4505
    -4.9317  -4.8723  -4.4117  -3.0327  -1.4564   0.0383   1.9846   2.3255
     3.8247   4.5409   5.4237   6.3671

          k =-0.4915-0.0001 0.0000 ( 36290 PWs)   bands (ev):

   -67.5399 -67.5294 -34.4740 -34.3904 -34.2480 -34.1156 -34.0338 -33.9844
   -19.2417 -19.2355 -19.2309 -19.2304 -19.2252 -19.2166 -19.2155 -19.2054
   -19.1955 -19.1953 -19.1689 -19.1680 -19.1458 -19.1442 -11.0014  -5.7718
    -5.6043  -4.7483  -4.5384  -2.8552  -1.2646  -0.5930   1.8949   2.4626
     3.6656   4.5872   5.2473   6.6435

          k =-0.4915 0.0944 0.0000 ( 36267 PWs)   bands (ev):

   -67.5399 -67.5294 -34.5124 -34.4445 -34.2260 -34.1177 -34.0037 -33.9350
   -19.2444 -19.2371 -19.2343 -19.2275 -19.2250 -19.2163 -19.2141 -19.2056
   -19.1962 -19.1924 -19.1684 -19.1659 -19.1457 -19.1441 -11.0224  -6.4524
    -4.9287  -4.8714  -4.4110  -3.0267  -1.4558   0.0314   1.9795   2.3209
     3.8241   4.5430   5.4231   6.3617

          k =-0.4915 0.1890 0.0000 ( 36186 PWs)   bands (ev):

   -67.5399 -67.5295 -34.5795 -34.5120 -34.2261 -34.0990 -33.9543 -33.8552
   -19.2489 -19.2403 -19.2348 -19.2289 -19.2251 -19.2151 -19.2114 -19.2059
   -19.1951 -19.1892 -19.1668 -19.1624 -19.1454 -19.1441 -11.0635  -6.9718
    -5.0868  -4.7674  -3.7844  -3.2398  -1.6594   1.1945   1.6814   2.2709
     3.9742   4.4355   5.7539   6.2754

          k =-0.4916-0.8508 0.0000 ( 36192 PWs)   bands (ev):

   -67.5399 -67.5295 -34.6085 -34.5390 -34.2284 -34.0929 -33.9286 -33.8219
   -19.2509 -19.2412 -19.2358 -19.2290 -19.2256 -19.2148 -19.2101 -19.2060
   -19.1942 -19.1880 -19.1659 -19.1608 -19.1452 -19.1440 -11.0838  -7.1571
    -5.1738  -4.8007  -3.4186  -3.2855  -1.7669   1.4202   2.0793   2.3239
     3.1966   4.7981   5.7677   6.3378

     the Fermi energy is     0.8292 ev

!    total energy              =   -1375.70067158 Ry
     estimated scf accuracy    <          6.7E-13 Ry
     smearing contrib. (-TS)   =      -0.00000368 Ry
     internal energy E=F+TS    =   -1375.70066790 Ry

     The total energy is F=E-TS. E is the sum of the following terms:
     one-electron contribution =  -11616.53060718 Ry
     hartree contribution      =    5838.41149596 Ry
     xc contribution           =    -140.31306739 Ry
     ewald contribution        =    4542.73151073 Ry

     convergence has been achieved in  19 iterations

     negative rho (up, down):  2.607E-04 0.000E+00

     Forces acting on atoms (cartesian axes, Ry/au):

     atom    1 type  2   force =    -0.00045450    0.00025787   -0.00000122
     atom    2 type  1   force =     0.00003908    0.00027312   -0.00019469
     atom    3 type  1   force =     0.00009876   -0.00034879    0.00019473
     atom    4 type  3   force =     0.00026931   -0.00055421   -0.00005838
     atom    5 type  3   force =     0.00004736    0.00037201    0.00005957

     Total force =     0.001041     Total SCF correction =     0.000007


     Computing stress (Cartesian axis) and pressure


     negative rho (up, down):  2.607E-04 0.000E+00
          total   stress  (Ry/bohr**3)                   (kbar)     P=        0.07
  -0.00000026   0.00000012   0.00000076           -0.04        0.02        0.11
   0.00000012   0.00000251  -0.00000378            0.02        0.37       -0.56
   0.00000076  -0.00000378  -0.00000080            0.11       -0.56       -0.12


     Writing output data file /scratch/as3359/Ta2CH2-VCrelax/Ta.save/
 
     init_run     :     39.46s CPU     21.56s WALL (       1 calls)
     electrons    :   1646.92s CPU    838.39s WALL (       1 calls)
     forces       :     11.17s CPU      5.76s WALL (       1 calls)
     stress       :     47.27s CPU     24.23s WALL (       1 calls)

     Called by init_run:
     wfcinit      :     31.54s CPU     16.27s WALL (       1 calls)
     potinit      :      2.18s CPU      1.11s WALL (       1 calls)
     hinit0       :      4.35s CPU      3.26s WALL (       1 calls)

     Called by electrons:
     c_bands      :   1350.27s CPU    682.01s WALL (      19 calls)
     sum_band     :    267.72s CPU    138.64s WALL (      19 calls)
     v_of_rho     :      4.83s CPU      2.67s WALL (      20 calls)
     newd         :     23.43s CPU     14.71s WALL (      20 calls)
     mix_rho      :      1.76s CPU      1.00s WALL (      19 calls)

     Called by c_bands:
     init_us_2    :     29.78s CPU     14.91s WALL (    3034 calls)
     cegterg      :   1262.02s CPU    637.46s WALL (    1406 calls)

     Called by *egterg:
     cdiaghg      :     16.50s CPU      8.45s WALL (    7276 calls)
     h_psi        :   1048.71s CPU    530.51s WALL (    7350 calls)
     s_psi        :     45.81s CPU     22.94s WALL (    7350 calls)
     g_psi        :      5.32s CPU      2.67s WALL (    5870 calls)

     Called by h_psi:
     h_psi:calbec :     36.91s CPU     18.50s WALL (    7350 calls)
     vloc_psi     :    955.55s CPU    483.71s WALL (    7350 calls)
     add_vuspsi   :     48.87s CPU     24.47s WALL (    7350 calls)

     General routines
     calbec       :     50.73s CPU     25.43s WALL (    9126 calls)
     fft          :      4.08s CPU      2.09s WALL (     245 calls)
     ffts         :      0.16s CPU      0.08s WALL (      19 calls)
     fftw         :    998.17s CPU    505.73s WALL (  301720 calls)
 
     Parallel routines
 
     PWSCF        :  29m 9.79s CPU  14m54.41s WALL

 
   This run was terminated on:  16: 3:41   7Apr2022            

=------------------------------------------------------------------------------=
   JOB DONE.
=------------------------------------------------------------------------------=
