
     Program PWSCF v.6.8 starts on  7Apr2022 at 14: 5:40 

     This program is part of the open-source Quantum ESPRESSO suite
     for quantum simulation of materials; please cite
         "P. Giannozzi et al., J. Phys.:Condens. Matter 21 395502 (2009);
         "P. Giannozzi et al., J. Phys.:Condens. Matter 29 465901 (2017);
         "P. Giannozzi et al., J. Chem. Phys. 152 154105 (2020);
          URL http://www.quantum-espresso.org", 
     in publications or presentations arising from this work. More details at
     http://www.quantum-espresso.org/quote

     Parallel version (MPI & OpenMP), running on       4 processor cores
     Number of MPI processes:                 2
     Threads/MPI process:                     2

     MPI processes distributed on     1 nodes
     R & G space division:  proc/nbgrp/npool/nimage =       2
     125257 MiB available memory on the printing compute node when the environment starts
 
     Reading input from Ta2CH2.scf.60.in

     Current dimensions of program PWSCF are:
     Max number of different atomic species (ntypx) = 10
     Max number of k-points (npk) =  40000
     Max angular momentum in pseudopotentials (lmaxx) =  4
     file Ta.pbesol-spfn-rrkjus_psl.1.0.0.UPF: wavefunction(s)  5S 5P renormalized

     Subspace diagonalization in iterative solution of the eigenvalue problem:
     a serial algorithm will be used

 
     Parallelization info
     --------------------
     sticks:   dense  smooth     PW     G-vecs:    dense   smooth      PW
     Min         258     258     81                47974    47974    8891
     Max         259     259     82                47987    47987    8924
     Sum         517     517    163                95961    95961   17815
 
     Using Slab Decomposition
 


     bravais-lattice index     =            0
     lattice parameter (alat)  =       5.5500  a.u.
     unit-cell volume          =    1533.2393 (a.u.)^3
     number of atoms/cell      =            5
     number of atomic types    =            3
     number of electrons       =        60.00
     number of Kohn-Sham states=           36
     kinetic-energy cutoff     =      60.0000  Ry
     charge density cutoff     =     240.0000  Ry
     scf convergence threshold =      1.0E-12
     mixing beta               =       0.7000
     number of iterations used =            8  plain     mixing
     Exchange-correlation= PBESOL
                           (   1   4  10   8   0   0   0)

     celldm(1)=   5.550000  celldm(2)=   0.000000  celldm(3)=   0.000000
     celldm(4)=   0.000000  celldm(5)=   0.000000  celldm(6)=   0.000000

     crystal axes: (cart. coord. in units of alat)
               a(1) = (   1.017295  -0.000177   0.000000 )  
               a(2) = (  -0.508801   0.881714   0.000000 )  
               a(3) = (   0.000000   0.000000  10.000000 )  

     reciprocal axes: (cart. coord. in units 2 pi/alat)
               b(1) = (  0.983098  0.567305  0.000000 )  
               b(2) = (  0.000198  1.134269  0.000000 )  
               b(3) = (  0.000000  0.000000  0.100000 )  


     PseudoPot. # 1 for Ta read from file:
     /shared/home/as3359/pseudo/Ta.pbesol-spfn-rrkjus_psl.1.0.0.UPF
     MD5 check sum: f099565ffaca9b150a52e9412a28e20b
     Pseudo is Ultrasoft + core correction, Zval = 27.0
     Generated using &quot;atomic&quot; code by A. Dal Corso  v.6.3
     Using radial grid of 1273 points,  8 beta functions with: 
                l(1) =   0
                l(2) =   0
                l(3) =   1
                l(4) =   1
                l(5) =   2
                l(6) =   2
                l(7) =   3
                l(8) =   3
     Q(r) pseudized with 0 coefficients 


     PseudoPot. # 2 for C  read from file:
     /shared/home/as3359/pseudo/C.pbesol-n-rrkjus_psl.1.0.0.UPF
     MD5 check sum: 05995be603a8a7c99da3dc4413f31573
     Pseudo is Ultrasoft + core correction, Zval =  4.0
     Generated using &quot;atomic&quot; code by A. Dal Corso  v.6.3MaX
     Using radial grid of 1073 points,  4 beta functions with: 
                l(1) =   0
                l(2) =   0
                l(3) =   1
                l(4) =   1
     Q(r) pseudized with 0 coefficients 


     PseudoPot. # 3 for H  read from file:
     /shared/home/as3359/pseudo/H.pbesol-rrkjus_psl.0.1.UPF
     MD5 check sum: 1dbb1a5c48b1283557b8117eb856a7ca
     Pseudo is Ultrasoft, Zval =  1.0
     Generated using "atomic" code by A. Dal Corso  v.5.0.2 svn rev. 9415
     Using radial grid of  929 points,  2 beta functions with: 
                l(1) =   0
                l(2) =   0
     Q(r) pseudized with 0 coefficients 


     atomic species   valence    mass     pseudopotential
        Ta            27.00   180.94788     Ta( 1.00)
        C              4.00    12.01070     C ( 1.00)
        H              1.00     1.00000     H ( 1.00)

     No symmetry found



   Cartesian axes

     site n.     atom                  positions (alat units)
         1           C   tau(   1) = (   0.0000000   0.0000000   0.0000000  )
         2           Ta  tau(   2) = (   0.5088008   0.2948413  -0.4364511  )
         3           Ta  tau(   3) = (  -0.0007447   0.5869407   0.4364532  )
         4           H   tau(   4) = (  -0.0017928  -0.0015314   0.8341930  )
         5           H   tau(   5) = (   0.0002769   0.0024412  -0.8341930  )

     number of k points=    74  Marzari-Vanderbilt smearing, width (Ry)=  0.0010
                       cart. coord. in units 2pi/alat
        k(    1) = (   0.0000000   0.0000000   0.0000000), wk =   0.0138889
        k(    2) = (   0.0000165   0.0945224   0.0000000), wk =   0.0277778
        k(    3) = (   0.0000329   0.1890448   0.0000000), wk =   0.0277778
        k(    4) = (   0.0000494   0.2835672   0.0000000), wk =   0.0277778
        k(    5) = (   0.0000659   0.3780896   0.0000000), wk =   0.0277778
        k(    6) = (   0.0000823   0.4726120   0.0000000), wk =   0.0277778
        k(    7) = (  -0.0000988  -0.5671343   0.0000000), wk =   0.0138889
        k(    8) = (   0.0819248   0.0472755   0.0000000), wk =   0.0277778
        k(    9) = (   0.0819413   0.1417978   0.0000000), wk =   0.0277778
        k(   10) = (   0.0819577   0.2363202   0.0000000), wk =   0.0277778
        k(   11) = (   0.0819742   0.3308426   0.0000000), wk =   0.0277778
        k(   12) = (   0.0819907   0.4253650   0.0000000), wk =   0.0277778
        k(   13) = (   0.0820071   0.5198874   0.0000000), wk =   0.0277778
        k(   14) = (   0.0818260  -0.5198589   0.0000000), wk =   0.0277778
        k(   15) = (   0.0818425  -0.4253365   0.0000000), wk =   0.0277778
        k(   16) = (   0.0818590  -0.3308141   0.0000000), wk =   0.0277778
        k(   17) = (   0.0818754  -0.2362917   0.0000000), wk =   0.0277778
        k(   18) = (   0.0818919  -0.1417693   0.0000000), wk =   0.0277778
        k(   19) = (   0.0819084  -0.0472469   0.0000000), wk =   0.0277778
        k(   20) = (   0.1638496   0.0945509   0.0000000), wk =   0.0277778
        k(   21) = (   0.1638661   0.1890733   0.0000000), wk =   0.0277778
        k(   22) = (   0.1638826   0.2835957   0.0000000), wk =   0.0277778
        k(   23) = (   0.1638990   0.3781181   0.0000000), wk =   0.0277778
        k(   24) = (   0.1639155   0.4726405   0.0000000), wk =   0.0277778
        k(   25) = (   0.1639319   0.5671629   0.0000000), wk =   0.0277778
        k(   26) = (   0.1637508  -0.4725834   0.0000000), wk =   0.0277778
        k(   27) = (   0.1637673  -0.3780610   0.0000000), wk =   0.0277778
        k(   28) = (   0.1637838  -0.2835386   0.0000000), wk =   0.0277778
        k(   29) = (   0.1638002  -0.1890163   0.0000000), wk =   0.0277778
        k(   30) = (   0.1638167  -0.0944939   0.0000000), wk =   0.0277778
        k(   31) = (   0.1638332   0.0000285   0.0000000), wk =   0.0277778
        k(   32) = (   0.2457744   0.1418264   0.0000000), wk =   0.0277778
        k(   33) = (   0.2457909   0.2363488   0.0000000), wk =   0.0277778
        k(   34) = (   0.2458074   0.3308711   0.0000000), wk =   0.0277778
        k(   35) = (   0.2458238   0.4253935   0.0000000), wk =   0.0277778
        k(   36) = (   0.2458403   0.5199159   0.0000000), wk =   0.0277778
        k(   37) = (   0.2458568   0.6144383   0.0000000), wk =   0.0277778
        k(   38) = (   0.2456757  -0.4253080   0.0000000), wk =   0.0277778
        k(   39) = (   0.2456921  -0.3307856   0.0000000), wk =   0.0277778
        k(   40) = (   0.2457086  -0.2362632   0.0000000), wk =   0.0277778
        k(   41) = (   0.2457251  -0.1417408   0.0000000), wk =   0.0277778
        k(   42) = (   0.2457415  -0.0472184   0.0000000), wk =   0.0277778
        k(   43) = (   0.2457580   0.0473040   0.0000000), wk =   0.0277778
        k(   44) = (   0.3276993   0.1891018   0.0000000), wk =   0.0277778
        k(   45) = (   0.3277157   0.2836242   0.0000000), wk =   0.0277778
        k(   46) = (   0.3277322   0.3781466   0.0000000), wk =   0.0277778
        k(   47) = (   0.3277486   0.4726690   0.0000000), wk =   0.0277778
        k(   48) = (   0.3277651   0.5671914   0.0000000), wk =   0.0277778
        k(   49) = (   0.3277816   0.6617138   0.0000000), wk =   0.0277778
        k(   50) = (   0.3276005  -0.3780325   0.0000000), wk =   0.0277778
        k(   51) = (   0.3276169  -0.2835101   0.0000000), wk =   0.0277778
        k(   52) = (   0.3276334  -0.1889877   0.0000000), wk =   0.0277778
        k(   53) = (   0.3276499  -0.0944653   0.0000000), wk =   0.0277778
        k(   54) = (   0.3276663   0.0000570   0.0000000), wk =   0.0277778
        k(   55) = (   0.3276828   0.0945794   0.0000000), wk =   0.0277778
        k(   56) = (   0.4096241   0.2363773   0.0000000), wk =   0.0277778
        k(   57) = (   0.4096405   0.3308997   0.0000000), wk =   0.0277778
        k(   58) = (   0.4096570   0.4254221   0.0000000), wk =   0.0277778
        k(   59) = (   0.4096735   0.5199445   0.0000000), wk =   0.0277778
        k(   60) = (   0.4096899   0.6144668   0.0000000), wk =   0.0277778
        k(   61) = (   0.4097064   0.7089892   0.0000000), wk =   0.0277778
        k(   62) = (   0.4095253  -0.3307571   0.0000000), wk =   0.0277778
        k(   63) = (   0.4095418  -0.2362347   0.0000000), wk =   0.0277778
        k(   64) = (   0.4095582  -0.1417123   0.0000000), wk =   0.0277778
        k(   65) = (   0.4095747  -0.0471899   0.0000000), wk =   0.0277778
        k(   66) = (   0.4095911   0.0473325   0.0000000), wk =   0.0277778
        k(   67) = (   0.4096076   0.1418549   0.0000000), wk =   0.0277778
        k(   68) = (  -0.4915489  -0.2836527   0.0000000), wk =   0.0138889
        k(   69) = (  -0.4915324  -0.1891303   0.0000000), wk =   0.0277778
        k(   70) = (  -0.4915160  -0.0946080   0.0000000), wk =   0.0277778
        k(   71) = (  -0.4914995  -0.0000856   0.0000000), wk =   0.0277778
        k(   72) = (  -0.4914830   0.0944368   0.0000000), wk =   0.0277778
        k(   73) = (  -0.4914666   0.1889592   0.0000000), wk =   0.0277778
        k(   74) = (  -0.4916477  -0.8507871   0.0000000), wk =   0.0138889

     Dense  grid:    95961 G-vectors     FFT dimensions: (  27,  27, 288)

     Estimated max dynamical RAM per process >     720.03 MB

     Estimated total dynamical RAM >       1.41 GB

     Check: negative core charge=   -0.000005

     Initial potential from superposition of free atoms

     starting charge   59.99840, renormalised to   60.00000

     negative rho (up, down):  5.664E-03 0.000E+00
     Starting wfcs are   40 randomized atomic wfcs

     total cpu time spent up to now is        6.8 secs

     Self-consistent Calculation

     iteration #  1     ecut=    60.00 Ry     beta= 0.70
     Davidson diagonalization with overlap
     ethr =  1.00E-02,  avg # of iterations =  2.0

     negative rho (up, down):  5.028E-03 0.000E+00

     total cpu time spent up to now is       18.1 secs

     total energy              =   -1375.11091006 Ry
     estimated scf accuracy    <       1.05670317 Ry

     iteration #  2     ecut=    60.00 Ry     beta= 0.70
     Davidson diagonalization with overlap
     ethr =  1.76E-03,  avg # of iterations =  8.2

     negative rho (up, down):  6.120E-05 0.000E+00

     total cpu time spent up to now is       34.4 secs

     total energy              =   -1374.56465217 Ry
     estimated scf accuracy    <       6.12484348 Ry

     iteration #  3     ecut=    60.00 Ry     beta= 0.70
     Davidson diagonalization with overlap
     ethr =  1.76E-03,  avg # of iterations =  4.9

     negative rho (up, down):  1.629E-04 0.000E+00

     total cpu time spent up to now is       48.7 secs

     total energy              =   -1375.65857175 Ry
     estimated scf accuracy    <       0.27888052 Ry

     iteration #  4     ecut=    60.00 Ry     beta= 0.70
     Davidson diagonalization with overlap
     ethr =  4.65E-04,  avg # of iterations =  2.2

     negative rho (up, down):  5.882E-04 0.000E+00

     total cpu time spent up to now is       60.0 secs

     total energy              =   -1375.68950306 Ry
     estimated scf accuracy    <       0.03494631 Ry

     iteration #  5     ecut=    60.00 Ry     beta= 0.70
     Davidson diagonalization with overlap
     ethr =  5.82E-05,  avg # of iterations = 10.2

     negative rho (up, down):  8.505E-04 0.000E+00

     total cpu time spent up to now is       74.6 secs

     total energy              =   -1375.67920025 Ry
     estimated scf accuracy    <       0.21362106 Ry

     iteration #  6     ecut=    60.00 Ry     beta= 0.70
     Davidson diagonalization with overlap
     ethr =  5.82E-05,  avg # of iterations =  9.9

     negative rho (up, down):  2.002E-03 0.000E+00

     total cpu time spent up to now is       88.2 secs

     total energy              =   -1375.69182628 Ry
     estimated scf accuracy    <       0.01311064 Ry

     iteration #  7     ecut=    60.00 Ry     beta= 0.70
     Davidson diagonalization with overlap
     ethr =  2.19E-05,  avg # of iterations =  4.5

     negative rho (up, down):  3.903E-03 0.000E+00

     total cpu time spent up to now is       99.3 secs

     total energy              =   -1375.69277469 Ry
     estimated scf accuracy    <       0.00067270 Ry

     iteration #  8     ecut=    60.00 Ry     beta= 0.70
     Davidson diagonalization with overlap
     c_bands:  1 eigenvalues not converged
     c_bands:  1 eigenvalues not converged
     c_bands:  1 eigenvalues not converged
     c_bands:  1 eigenvalues not converged
     c_bands:  1 eigenvalues not converged
     c_bands:  1 eigenvalues not converged
     c_bands:  1 eigenvalues not converged
     c_bands:  1 eigenvalues not converged
     c_bands:  1 eigenvalues not converged
     c_bands:  1 eigenvalues not converged
     ethr =  1.12E-06,  avg # of iterations = 11.6

     negative rho (up, down):  5.092E-03 0.000E+00

     total cpu time spent up to now is      115.9 secs

     total energy              =   -1375.69279878 Ry
     estimated scf accuracy    <       0.00019857 Ry

     iteration #  9     ecut=    60.00 Ry     beta= 0.70
     Davidson diagonalization with overlap
     c_bands:  1 eigenvalues not converged
     c_bands:  1 eigenvalues not converged
     c_bands:  1 eigenvalues not converged
     c_bands:  1 eigenvalues not converged
     c_bands:  1 eigenvalues not converged
     c_bands:  1 eigenvalues not converged
     c_bands:  1 eigenvalues not converged
     c_bands:  1 eigenvalues not converged
     c_bands:  1 eigenvalues not converged
     c_bands:  1 eigenvalues not converged
     c_bands:  1 eigenvalues not converged
     c_bands:  1 eigenvalues not converged
     ethr =  3.31E-07,  avg # of iterations =  8.2

     negative rho (up, down):  5.118E-03 0.000E+00

     total cpu time spent up to now is      128.9 secs

     total energy              =   -1375.69283401 Ry
     estimated scf accuracy    <       0.00002872 Ry

     iteration # 10     ecut=    60.00 Ry     beta= 0.70
     Davidson diagonalization with overlap
     ethr =  4.79E-08,  avg # of iterations =  2.3

     negative rho (up, down):  5.092E-03 0.000E+00

     total cpu time spent up to now is      139.8 secs

     total energy              =   -1375.69283484 Ry
     estimated scf accuracy    <       0.00000706 Ry

     iteration # 11     ecut=    60.00 Ry     beta= 0.70
     Davidson diagonalization with overlap
     ethr =  1.18E-08,  avg # of iterations =  2.3

     negative rho (up, down):  5.047E-03 0.000E+00

     total cpu time spent up to now is      150.8 secs

     total energy              =   -1375.69283544 Ry
     estimated scf accuracy    <       0.00000085 Ry

     iteration # 12     ecut=    60.00 Ry     beta= 0.70
     Davidson diagonalization with overlap
     ethr =  1.41E-09,  avg # of iterations =  3.0

     negative rho (up, down):  5.047E-03 0.000E+00

     total cpu time spent up to now is      163.4 secs

     total energy              =   -1375.69283559 Ry
     estimated scf accuracy    <       0.00000040 Ry

     iteration # 13     ecut=    60.00 Ry     beta= 0.70
     Davidson diagonalization with overlap
     ethr =  6.67E-10,  avg # of iterations =  2.5

     negative rho (up, down):  5.048E-03 0.000E+00

     total cpu time spent up to now is      174.4 secs

     total energy              =   -1375.69283565 Ry
     estimated scf accuracy    <          2.5E-09 Ry

     iteration # 14     ecut=    60.00 Ry     beta= 0.70
     Davidson diagonalization with overlap
     ethr =  4.11E-12,  avg # of iterations =  6.2

     negative rho (up, down):  5.048E-03 0.000E+00

     total cpu time spent up to now is      190.6 secs

     total energy              =   -1375.69283565 Ry
     estimated scf accuracy    <          5.8E-09 Ry

     iteration # 15     ecut=    60.00 Ry     beta= 0.70
     Davidson diagonalization with overlap
     ethr =  4.11E-12,  avg # of iterations =  2.4

     negative rho (up, down):  5.048E-03 0.000E+00

     total cpu time spent up to now is      201.7 secs

     total energy              =   -1375.69283565 Ry
     estimated scf accuracy    <          1.8E-09 Ry

     iteration # 16     ecut=    60.00 Ry     beta= 0.70
     Davidson diagonalization with overlap
     ethr =  3.01E-12,  avg # of iterations =  1.9

     negative rho (up, down):  5.048E-03 0.000E+00

     total cpu time spent up to now is      212.0 secs

     total energy              =   -1375.69283565 Ry
     estimated scf accuracy    <          1.7E-09 Ry

     iteration # 17     ecut=    60.00 Ry     beta= 0.70
     Davidson diagonalization with overlap
     ethr =  2.84E-12,  avg # of iterations =  2.0

     negative rho (up, down):  5.048E-03 0.000E+00

     total cpu time spent up to now is      222.5 secs

     total energy              =   -1375.69283565 Ry
     estimated scf accuracy    <          5.6E-11 Ry

     iteration # 18     ecut=    60.00 Ry     beta= 0.70
     Davidson diagonalization with overlap
     ethr =  1.00E-13,  avg # of iterations =  3.6

     negative rho (up, down):  5.048E-03 0.000E+00

     total cpu time spent up to now is      236.1 secs

     total energy              =   -1375.69283565 Ry
     estimated scf accuracy    <          1.5E-11 Ry

     iteration # 19     ecut=    60.00 Ry     beta= 0.70
     Davidson diagonalization with overlap
     ethr =  1.00E-13,  avg # of iterations =  1.9

     negative rho (up, down):  5.048E-03 0.000E+00

     total cpu time spent up to now is      246.4 secs

     End of self-consistent calculation

          k = 0.0000 0.0000 0.0000 ( 11879 PWs)   bands (ev):

   -67.6250 -67.5935 -34.6098 -34.1264 -33.7107 -33.7093 -33.6705 -33.6703
   -19.3189 -19.3055 -19.2934 -19.2931 -19.2885 -19.2880 -19.2726 -19.2723
   -19.2662 -19.2656 -19.2654 -19.2592 -19.1863 -19.1855 -12.8666  -8.3636
    -5.2671  -3.4839  -3.2271  -3.2123  -1.2444   0.3096   0.3296   2.4821
     2.4939   2.8960   2.9289   3.4653

          k = 0.0000 0.0945 0.0000 ( 11914 PWs)   bands (ev):

   -67.6205 -67.5899 -34.5950 -34.1252 -33.7696 -33.7278 -33.7273 -33.6798
   -19.3173 -19.3049 -19.2947 -19.2934 -19.2882 -19.2869 -19.2744 -19.2725
   -19.2664 -19.2655 -19.2618 -19.2560 -19.1899 -19.1893 -12.7272  -8.1450
    -5.3320  -3.5621  -3.3998  -3.1713  -1.0727  -0.0655   0.5399   1.8675
     2.1782   2.9161   3.2929   4.1009

          k = 0.0000 0.1890 0.0000 ( 11954 PWs)   bands (ev):

   -67.6081 -67.5802 -34.5548 -34.1290 -33.9252 -33.8782 -33.7722 -33.7080
   -19.3133 -19.3036 -19.2988 -19.2939 -19.2881 -19.2835 -19.2790 -19.2722
   -19.2681 -19.2636 -19.2523 -19.2474 -19.1991 -19.1986 -12.3572  -7.5662
    -5.4990  -4.0449  -3.4762  -3.1070  -1.0198  -0.4196   1.1237   1.2978
     2.0886   2.7745   3.6328   4.5691

          k = 0.0000 0.2836 0.0000 ( 12010 PWs)   bands (ev):

   -67.5908 -67.5672 -34.5050 -34.2061 -34.0785 -34.0537 -33.8298 -33.7488
   -19.3105 -19.3044 -19.3008 -19.2952 -19.2903 -19.2812 -19.2809 -19.2701
   -19.2697 -19.2608 -19.2393 -19.2353 -19.2112 -19.2100 -11.8838  -6.9430
    -5.6282  -4.4774  -3.5755  -3.1290  -1.6662   0.3004   1.1414   1.8835
     2.4887   2.6750   3.7494   5.2654

          k = 0.0001 0.3781 0.0000 ( 12050 PWs)   bands (ev):

   -67.5730 -67.5546 -34.4921 -34.3860 -34.2240 -34.0834 -33.8854 -33.7906
   -19.3120 -19.3084 -19.2998 -19.2971 -19.2923 -19.2819 -19.2787 -19.2701
   -19.2654 -19.2575 -19.2260 -19.2232 -19.2227 -19.2200 -11.4594  -6.8622
    -5.3840  -4.6971  -3.6357  -3.2457  -1.9298   1.1055   1.4758   2.0625
     2.6786   3.7718   3.9066   5.9979

          k = 0.0001 0.4726 0.0000 ( 12064 PWs)   bands (ev):

   -67.5594 -67.5461 -34.5719 -34.5070 -34.2527 -34.0963 -33.9253 -33.8216
   -19.3149 -19.3099 -19.3040 -19.2989 -19.2898 -19.2839 -19.2756 -19.2698
   -19.2611 -19.2549 -19.2305 -19.2264 -19.2158 -19.2142 -11.1882  -7.0727
    -5.1948  -4.7791  -3.4647  -3.3685  -1.8432   1.5110   1.7795   2.1277
     3.1356   4.3104   5.1206   6.1843

          k =-0.0001-0.5671 0.0000 ( 12050 PWs)   bands (ev):

   -67.5540 -67.5432 -34.6189 -34.5495 -34.2427 -34.1039 -33.9397 -33.8330
   -19.3161 -19.3099 -19.3062 -19.2996 -19.2889 -19.2848 -19.2736 -19.2700
   -19.2594 -19.2540 -19.2333 -19.2286 -19.2118 -19.2108 -11.0986  -7.1699
    -5.1869  -4.8052  -3.4186  -3.2926  -1.7810   1.4045   2.0468   2.3046
     3.1936   4.7882   5.7546   6.3326

          k = 0.0819 0.0473 0.0000 ( 11916 PWs)   bands (ev):

   -67.6205 -67.5899 -34.5949 -34.1253 -33.7708 -33.7274 -33.7267 -33.6799
   -19.3172 -19.3048 -19.2949 -19.2933 -19.2887 -19.2865 -19.2743 -19.2727
   -19.2670 -19.2649 -19.2618 -19.2560 -19.1899 -19.1893 -12.7270  -8.1447
    -5.3300  -3.5582  -3.3965  -3.1846  -1.0741  -0.0493   0.5236   1.8673
     2.1770   2.9482   3.2773   4.0996

          k = 0.0819 0.1418 0.0000 ( 11951 PWs)   bands (ev):

   -67.6120 -67.5832 -34.5673 -34.1259 -33.8672 -33.8445 -33.7473 -33.7082
   -19.3142 -19.3040 -19.2973 -19.2943 -19.2883 -19.2843 -19.2774 -19.2727
   -19.2678 -19.2640 -19.2554 -19.2502 -19.1962 -19.1958 -12.4720  -7.7404
    -5.4415  -3.8151  -3.6711  -2.9989  -0.7616  -0.6399   0.8625   1.6431
     1.7933   2.9874   3.5561   4.4375

          k = 0.0820 0.2363 0.0000 ( 11984 PWs)   bands (ev):

   -67.5972 -67.5719 -34.5213 -34.1523 -34.0233 -34.0031 -33.8069 -33.7518
   -19.3098 -19.3030 -19.3015 -19.2959 -19.2882 -19.2820 -19.2808 -19.2715
   -19.2691 -19.2620 -19.2441 -19.2397 -19.2068 -19.2064 -12.0490  -7.0819
    -5.6027  -4.3210  -3.8603  -2.8060  -1.3785  -0.1541   0.7329   1.9287
     2.2251   2.7671   3.9292   5.0372

          k = 0.0820 0.3308 0.0000 ( 12032 PWs)   bands (ev):

   -67.5796 -67.5592 -34.4834 -34.2950 -34.1740 -34.0767 -33.8767 -33.7999
   -19.3091 -19.3063 -19.3006 -19.2968 -19.2913 -19.2820 -19.2801 -19.2707
   -19.2667 -19.2593 -19.2310 -19.2276 -19.2189 -19.2174 -11.5996  -6.6539
    -5.5517  -4.6474  -4.0175  -2.8187  -1.8255   0.4992   0.8018   2.1813
     2.8354   3.4000   4.0662   5.7705

          k = 0.0820 0.4254 0.0000 ( 12054 PWs)   bands (ev):

   -67.5638 -67.5487 -34.5171 -34.4458 -34.2479 -34.0950 -33.9339 -33.8419
   -19.3123 -19.3082 -19.3026 -19.2973 -19.2906 -19.2836 -19.2779 -19.2701
   -19.2626 -19.2568 -19.2288 -19.2259 -19.2191 -19.2169 -11.2548  -6.8017
    -5.1829  -4.7689  -4.0243  -3.0204  -1.8288   0.8149   1.5598   2.0084
     3.6477   3.9394   4.7726   6.2821

          k = 0.0820 0.5199 0.0000 ( 12062 PWs)   bands (ev):

   -67.5540 -67.5432 -34.5898 -34.5224 -34.2403 -34.1101 -33.9654 -33.8664
   -19.3147 -19.3085 -19.3050 -19.2996 -19.2883 -19.2851 -19.2751 -19.2699
   -19.2602 -19.2552 -19.2342 -19.2302 -19.2120 -19.2108 -11.0783  -6.9844
    -5.0995  -4.7722  -3.7862  -3.2480  -1.6715   1.1729   1.6659   2.2511
     3.9626   4.4270   5.7402   6.2655

          k = 0.0818-0.5199 0.0000 ( 12067 PWs)   bands (ev):

   -67.5540 -67.5432 -34.5896 -34.5223 -34.2403 -34.1102 -33.9656 -33.8665
   -19.3147 -19.3085 -19.3050 -19.2997 -19.2883 -19.2852 -19.2752 -19.2699
   -19.2602 -19.2552 -19.2343 -19.2302 -19.2120 -19.2108 -11.0785  -6.9841
    -5.0993  -4.7721  -3.7824  -3.2525  -1.6708   1.1734   1.6658   2.2517
     3.9616   4.4276   5.7400   6.2659

          k = 0.0818-0.4253 0.0000 ( 12058 PWs)   bands (ev):

   -67.5638 -67.5487 -34.5167 -34.4454 -34.2478 -34.0951 -33.9343 -33.8420
   -19.3123 -19.3082 -19.3025 -19.2975 -19.2907 -19.2836 -19.2780 -19.2701
   -19.2625 -19.2568 -19.2288 -19.2259 -19.2191 -19.2169 -11.2553  -6.8011
    -5.1838  -4.7675  -4.0193  -3.0262  -1.8277   0.8155   1.5636   2.0062
     3.6433   3.9389   4.7714   6.2804

          k = 0.0819-0.3308 0.0000 ( 12032 PWs)   bands (ev):

   -67.5796 -67.5592 -34.4833 -34.2943 -34.1734 -34.0768 -33.8772 -33.8001
   -19.3090 -19.3062 -19.3004 -19.2970 -19.2913 -19.2820 -19.2803 -19.2705
   -19.2666 -19.2593 -19.2310 -19.2276 -19.2189 -19.2174 -11.6002  -6.6536
    -5.5532  -4.6450  -4.0135  -2.8218  -1.8252   0.4962   0.8079   2.1802
     2.8291   3.3982   4.0652   5.7720

          k = 0.0819-0.2363 0.0000 ( 11982 PWs)   bands (ev):

   -67.5972 -67.5719 -34.5214 -34.1518 -34.0232 -34.0023 -33.8076 -33.7520
   -19.3099 -19.3030 -19.3015 -19.2960 -19.2880 -19.2822 -19.2810 -19.2712
   -19.2690 -19.2621 -19.2441 -19.2396 -19.2068 -19.2064 -12.0495  -7.0823
    -5.6045  -4.3186  -3.8578  -2.8045  -1.3803  -0.1523   0.7299   1.9294
     2.2267   2.7614   3.9248   5.0377

          k = 0.0819-0.1418 0.0000 ( 11951 PWs)   bands (ev):

   -67.6120 -67.5833 -34.5673 -34.1258 -33.8663 -33.8442 -33.7479 -33.7083
   -19.3143 -19.3040 -19.2974 -19.2942 -19.2879 -19.2846 -19.2777 -19.2724
   -19.2675 -19.2643 -19.2554 -19.2501 -19.1962 -19.1958 -12.4723  -7.7407
    -5.4434  -3.8155  -3.6692  -2.9940  -0.7603  -0.6447   0.8649   1.6376
     1.7975   2.9842   3.5501   4.4369

          k = 0.0819-0.0472 0.0000 ( 11914 PWs)   bands (ev):

   -67.6205 -67.5899 -34.5949 -34.1253 -33.7702 -33.7275 -33.7270 -33.6800
   -19.3172 -19.3049 -19.2950 -19.2932 -19.2884 -19.2868 -19.2746 -19.2724
   -19.2666 -19.2652 -19.2618 -19.2560 -19.1899 -19.1893 -12.7271  -8.1449
    -5.3308  -3.5599  -3.3980  -3.1787  -1.0736  -0.0566   0.5310   1.8673
     2.1777   2.9344   3.2834   4.1003

          k = 0.1638 0.0946 0.0000 ( 11960 PWs)   bands (ev):

   -67.6080 -67.5802 -34.5545 -34.1293 -33.9264 -33.8787 -33.7716 -33.7081
   -19.3130 -19.3035 -19.2991 -19.2937 -19.2888 -19.2831 -19.2789 -19.2724
   -19.2687 -19.2631 -19.2524 -19.2475 -19.1991 -19.1986 -12.3565  -7.5652
    -5.4914  -4.0463  -3.4814  -3.1219  -1.0202  -0.4082   1.1109   1.3093
     2.0850   2.8039   3.6220   4.5695

          k = 0.1639 0.1891 0.0000 ( 11976 PWs)   bands (ev):

   -67.5971 -67.5719 -34.5211 -34.1526 -34.0244 -34.0025 -33.8071 -33.7519
   -19.3095 -19.3030 -19.3016 -19.2959 -19.2884 -19.2817 -19.2810 -19.2715
   -19.2694 -19.2617 -19.2441 -19.2397 -19.2068 -19.2064 -12.0485  -7.0809
    -5.5969  -4.3243  -3.8652  -2.8140  -1.3780  -0.1491   0.7401   1.9252
     2.2265   2.7756   3.9267   5.0381

          k = 0.1639 0.2836 0.0000 ( 12041 PWs)   bands (ev):

   -67.5819 -67.5608 -34.4832 -34.2389 -34.1599 -34.0680 -33.8726 -33.8276
   -19.3050 -19.3040 -19.3036 -19.2987 -19.2896 -19.2823 -19.2814 -19.2713
   -19.2668 -19.2602 -19.2329 -19.2293 -19.2173 -19.2170 -11.6484  -6.4376
    -5.7023  -4.6419  -4.2323  -2.5362  -1.7016   0.0500   0.4231   2.2049
     3.0305   3.1925   4.4676   5.6434

          k = 0.1639 0.3781 0.0000 ( 12065 PWs)   bands (ev):

   -67.5662 -67.5502 -34.4780 -34.3645 -34.2414 -34.0945 -33.9567 -33.8978
   -19.3084 -19.3060 -19.3017 -19.2962 -19.2922 -19.2841 -19.2798 -19.2710
   -19.2627 -19.2591 -19.2283 -19.2271 -19.2210 -19.2184 -11.2808  -6.2222
    -5.4786  -4.8132  -4.3949  -2.6575  -1.6953  -0.1984   1.1990   2.1584
     3.6282   4.2010   4.8688   6.2953

          k = 0.1639 0.4726 0.0000 ( 12082 PWs)   bands (ev):

   -67.5539 -67.5432 -34.5225 -34.4547 -34.2396 -34.1298 -34.0151 -33.9467
   -19.3120 -19.3054 -19.3025 -19.2981 -19.2883 -19.2862 -19.2784 -19.2699
   -19.2612 -19.2581 -19.2360 -19.2335 -19.2123 -19.2109 -11.0372  -6.4643
    -4.9403  -4.8780  -4.4151  -3.0371  -1.4650   0.0137   1.9695   2.3005
     3.8168   4.5244   5.4130   6.3420

          k = 0.1639 0.5672 0.0000 ( 12047 PWs)   bands (ev):

   -67.5490 -67.5411 -34.5494 -34.4838 -34.2218 -34.1565 -34.0314 -33.9650
   -19.3131 -19.3035 -19.3034 -19.3007 -19.2874 -19.2857 -19.2773 -19.2697
   -19.2612 -19.2574 -19.2388 -19.2357 -19.2089 -19.2081 -10.9540  -6.5746
    -4.9090  -4.7386  -4.3199  -3.2877  -1.3254   0.2173   2.2084   2.4528
     4.0482   4.4373   5.5730   6.1073

          k = 0.1638-0.4726 0.0000 ( 12082 PWs)   bands (ev):

   -67.5540 -67.5432 -34.5218 -34.4541 -34.2395 -34.1302 -34.0156 -33.9467
   -19.3119 -19.3053 -19.3025 -19.2982 -19.2885 -19.2863 -19.2783 -19.2698
   -19.2612 -19.2580 -19.2360 -19.2335 -19.2123 -19.2109 -11.0379  -6.4632
    -4.9433  -4.8749  -4.4102  -3.0421  -1.4638   0.0143   1.9735   2.2971
     3.8192   4.5146   5.4143   6.3426

          k = 0.1638-0.3781 0.0000 ( 12067 PWs)   bands (ev):

   -67.5663 -67.5503 -34.4774 -34.3633 -34.2411 -34.0947 -33.9576 -33.8980
   -19.3083 -19.3057 -19.3017 -19.2964 -19.2924 -19.2842 -19.2798 -19.2709
   -19.2626 -19.2591 -19.2283 -19.2271 -19.2210 -19.2184 -11.2819  -6.2211
    -5.4812  -4.8089  -4.3902  -2.6622  -1.6931  -0.2004   1.2045   2.1534
     3.6265   4.1940   4.8642   6.2988

          k = 0.1638-0.2835 0.0000 ( 12041 PWs)   bands (ev):

   -67.5820 -67.5608 -34.4832 -34.2375 -34.1593 -34.0679 -33.8734 -33.8279
   -19.3049 -19.3039 -19.3037 -19.2990 -19.2895 -19.2825 -19.2815 -19.2710
   -19.2666 -19.2603 -19.2328 -19.2292 -19.2173 -19.2171 -11.6494  -6.4383
    -5.7053  -4.6367  -4.2276  -2.5357  -1.7014   0.0422   0.4291   2.2017
     3.0249   3.1904   4.4609   5.6496

          k = 0.1638-0.1890 0.0000 ( 11982 PWs)   bands (ev):

   -67.5972 -67.5719 -34.5213 -34.1521 -34.0234 -34.0022 -33.8077 -33.7521
   -19.3097 -19.3028 -19.3018 -19.2959 -19.2881 -19.2821 -19.2813 -19.2711
   -19.2691 -19.2620 -19.2441 -19.2397 -19.2068 -19.2064 -12.0492  -7.0819
    -5.6012  -4.3206  -3.8604  -2.8090  -1.3800  -0.1495   0.7339   1.9275
     2.2274   2.7663   3.9230   5.0383

          k = 0.1638-0.0945 0.0000 ( 11958 PWs)   bands (ev):

   -67.6080 -67.5802 -34.5546 -34.1292 -33.9257 -33.8785 -33.7719 -33.7082
   -19.3131 -19.3035 -19.2991 -19.2936 -19.2884 -19.2834 -19.2791 -19.2721
   -19.2683 -19.2634 -19.2524 -19.2474 -19.1991 -19.1986 -12.3568  -7.5658
    -5.4945  -4.0458  -3.4789  -3.1155  -1.0202  -0.4131   1.1168   1.3042
     2.0867   2.7911   3.6261   4.5693

          k = 0.1638 0.0000 0.0000 ( 11951 PWs)   bands (ev):

   -67.6120 -67.5832 -34.5671 -34.1261 -33.8681 -33.8446 -33.7466 -33.7082
   -19.3141 -19.3039 -19.2976 -19.2939 -19.2885 -19.2842 -19.2776 -19.2726
   -19.2680 -19.2638 -19.2554 -19.2502 -19.1962 -19.1958 -12.4717  -7.7401
    -5.4387  -3.8148  -3.6733  -3.0052  -0.7633  -0.6343   0.8597   1.6511
     1.7880   2.9906   3.5637   4.4380

          k = 0.2458 0.1418 0.0000 ( 12006 PWs)   bands (ev):

   -67.5906 -67.5671 -34.5046 -34.2073 -34.0802 -34.0535 -33.8297 -33.7490
   -19.3100 -19.3043 -19.3008 -19.2949 -19.2908 -19.2812 -19.2808 -19.2704
   -19.2702 -19.2604 -19.2393 -19.2354 -19.2112 -19.2099 -11.8822  -6.9401
    -5.6166  -4.4876  -3.5851  -3.1457  -1.6642   0.3101   1.1601   1.8786
     2.5152   2.6681   3.7419   5.2636

          k = 0.2458 0.2363 0.0000 ( 12034 PWs)   bands (ev):

   -67.5794 -67.5591 -34.4833 -34.2958 -34.1743 -34.0770 -33.8771 -33.8001
   -19.3092 -19.3057 -19.2998 -19.2972 -19.2917 -19.2818 -19.2807 -19.2712
   -19.2668 -19.2590 -19.2310 -19.2276 -19.2189 -19.2172 -11.5983  -6.6492
    -5.5455  -4.6560  -4.0240  -2.8351  -1.8241   0.5168   0.8106   2.1915
     2.8358   3.3943   4.0681   5.7664

          k = 0.2458 0.3309 0.0000 ( 12068 PWs)   bands (ev):

   -67.5661 -67.5502 -34.4783 -34.3652 -34.2410 -34.0946 -33.9574 -33.8977
   -19.3091 -19.3053 -19.3007 -19.2963 -19.2928 -19.2841 -19.2800 -19.2714
   -19.2628 -19.2589 -19.2284 -19.2270 -19.2210 -19.2184 -11.2800  -6.2161
    -5.4835  -4.8144  -4.3977  -2.6671  -1.6957  -0.1871   1.2040   2.1628
     3.6282   4.1986   4.8716   6.2905

          k = 0.2458 0.4254 0.0000 ( 12077 PWs)   bands (ev):

   -67.5538 -67.5432 -34.4845 -34.3999 -34.2616 -34.1278 -34.0460 -33.9962
   -19.3104 -19.3058 -19.2974 -19.2946 -19.2933 -19.2872 -19.2792 -19.2701
   -19.2609 -19.2604 -19.2364 -19.2356 -19.2124 -19.2110 -11.0158  -5.7805
    -5.6165  -4.7575  -4.5448  -2.8696  -1.2713  -0.6075   1.8905   2.4432
     3.6599   4.5618   5.2361   6.6156

          k = 0.2458 0.5199 0.0000 ( 12055 PWs)   bands (ev):

   -67.5458 -67.5401 -34.4755 -34.4108 -34.2640 -34.1956 -34.0785 -34.0537
   -19.3118 -19.3031 -19.2995 -19.2955 -19.2895 -19.2865 -19.2807 -19.2682
   -19.2625 -19.2606 -19.2415 -19.2402 -19.2072 -19.2065 -10.8683  -5.9522
    -5.1565  -4.7398  -4.6323  -3.1636  -0.9571  -0.4827   2.5499   2.7579
     3.4929   4.1596   5.1528   6.3085

          k = 0.2459 0.6144 0.0000 ( 12059 PWs)   bands (ev):

   -67.5458 -67.5401 -34.4748 -34.4102 -34.2640 -34.1963 -34.0797 -34.0527
   -19.3117 -19.3030 -19.2996 -19.2955 -19.2896 -19.2868 -19.2805 -19.2681
   -19.2626 -19.2605 -19.2415 -19.2402 -19.2072 -19.2065 -10.8688  -5.9509
    -5.1565  -4.7398  -4.6302  -3.1652  -0.9566  -0.4826   2.5528   2.7537
     3.4967   4.1517   5.1532   6.3074

          k = 0.2457-0.4253 0.0000 ( 12075 PWs)   bands (ev):

   -67.5539 -67.5432 -34.4833 -34.3981 -34.2622 -34.1284 -34.0470 -33.9959
   -19.3101 -19.3057 -19.2974 -19.2947 -19.2938 -19.2873 -19.2791 -19.2699
   -19.2609 -19.2603 -19.2364 -19.2356 -19.2124 -19.2109 -11.0170  -5.7786
    -5.6168  -4.7554  -4.5407  -2.8723  -1.2686  -0.6107   1.8940   2.4369
     3.6626   4.5486   5.2359   6.6124

          k = 0.2457-0.3308 0.0000 ( 12067 PWs)   bands (ev):

   -67.5662 -67.5502 -34.4776 -34.3635 -34.2410 -34.0947 -33.9580 -33.8980
   -19.3087 -19.3054 -19.3012 -19.2964 -19.2928 -19.2842 -19.2800 -19.2710
   -19.2626 -19.2590 -19.2283 -19.2270 -19.2210 -19.2184 -11.2814  -6.2181
    -5.4836  -4.8096  -4.3919  -2.6673  -1.6932  -0.1943   1.2072   2.1557
     3.6265   4.1926   4.8658   6.2960

          k = 0.2457-0.2363 0.0000 ( 12036 PWs)   bands (ev):

   -67.5795 -67.5591 -34.4832 -34.2947 -34.1736 -34.0769 -33.8775 -33.8003
   -19.3091 -19.3060 -19.2999 -19.2973 -19.2916 -19.2819 -19.2807 -19.2707
   -19.2666 -19.2592 -19.2310 -19.2276 -19.2189 -19.2173 -11.5995  -6.6515
    -5.5495  -4.6498  -4.0171  -2.8307  -1.8242   0.5061   0.8124   2.1858
     2.8294   3.3950   4.0661   5.7698

          k = 0.2457-0.1417 0.0000 ( 12008 PWs)   bands (ev):

   -67.5907 -67.5672 -34.5048 -34.2069 -34.0792 -34.0536 -33.8298 -33.7490
   -19.3103 -19.3044 -19.3007 -19.2949 -19.2906 -19.2814 -19.2809 -19.2701
   -19.2699 -19.2606 -19.2393 -19.2354 -19.2112 -19.2099 -11.8829  -6.9418
    -5.6214  -4.4832  -3.5804  -3.1386  -1.6649   0.3058   1.1516   1.8809
     2.5035   2.6711   3.7447   5.2644

          k = 0.2457-0.0472 0.0000 ( 11980 PWs)   bands (ev):

   -67.5971 -67.5719 -34.5211 -34.1532 -34.0238 -34.0037 -33.8064 -33.7518
   -19.3096 -19.3028 -19.3019 -19.2956 -19.2885 -19.2819 -19.2809 -19.2715
   -19.2693 -19.2618 -19.2441 -19.2397 -19.2068 -19.2064 -12.0482  -7.0813
    -5.5967  -4.3261  -3.8657  -2.8128  -1.3759  -0.1541   0.7410   1.9261
     2.2246   2.7786   3.9330   5.0367

          k = 0.2458 0.0473 0.0000 ( 11983 PWs)   bands (ev):

   -67.5970 -67.5719 -34.5210 -34.1533 -34.0247 -34.0032 -33.8064 -33.7518
   -19.3094 -19.3029 -19.3019 -19.2956 -19.2886 -19.2816 -19.2811 -19.2716
   -19.2695 -19.2617 -19.2441 -19.2398 -19.2068 -19.2064 -12.0479  -7.0807
    -5.5943  -4.3276  -3.8679  -2.8164  -1.3757  -0.1519   0.7443   1.9245
     2.2253   2.7822   3.9323   5.0372

          k = 0.3277 0.1891 0.0000 ( 12052 PWs)   bands (ev):

   -67.5727 -67.5546 -34.4927 -34.3876 -34.2237 -34.0844 -33.8857 -33.7910
   -19.3123 -19.3078 -19.2991 -19.2968 -19.2930 -19.2818 -19.2793 -19.2709
   -19.2653 -19.2572 -19.2260 -19.2232 -19.2226 -19.2198 -11.4569  -6.8568
    -5.3754  -4.7101  -3.6476  -3.2638  -1.9279   1.1251   1.4934   2.0845
     2.6751   3.7690   3.9012   5.9938

          k = 0.3277 0.2836 0.0000 ( 12058 PWs)   bands (ev):

   -67.5634 -67.5486 -34.5182 -34.4473 -34.2463 -34.0962 -33.9347 -33.8423
   -19.3130 -19.3073 -19.3019 -19.2973 -19.2910 -19.2836 -19.2785 -19.2709
   -19.2625 -19.2565 -19.2287 -19.2256 -19.2191 -19.2170 -11.2525  -6.7965
    -5.1784  -4.7798  -4.0314  -3.0398  -1.8265   0.8384   1.5703   2.0224
     3.6462   3.9399   4.7722   6.2716

          k = 0.3277 0.3781 0.0000 ( 12080 PWs)   bands (ev):

   -67.5537 -67.5432 -34.5236 -34.4563 -34.2377 -34.1302 -34.0164 -33.9465
   -19.3126 -19.3049 -19.3016 -19.2980 -19.2887 -19.2863 -19.2787 -19.2706
   -19.2613 -19.2578 -19.2360 -19.2333 -19.2123 -19.2110 -11.0352  -6.4609
    -4.9468  -4.8801  -4.4176  -3.0491  -1.4656   0.0286   1.9801   2.3105
     3.8186   4.5198   5.4142   6.3521

          k = 0.3277 0.4727 0.0000 ( 12051 PWs)   bands (ev):

   -67.5456 -67.5402 -34.4767 -34.4122 -34.2631 -34.1940 -34.0800 -34.0531
   -19.3121 -19.3029 -19.2996 -19.2945 -19.2895 -19.2871 -19.2808 -19.2685
   -19.2627 -19.2602 -19.2415 -19.2401 -19.2072 -19.2065 -10.8671  -5.9517
    -5.1606  -4.7447  -4.6288  -3.1678  -0.9606  -0.4745   2.5587   2.7627
     3.4918   4.1595   5.1514   6.3104

          k = 0.3278 0.5672 0.0000 ( 12019 PWs)   bands (ev):

   -67.5410 -67.5407 -34.3968 -34.3565 -34.3557 -34.2442 -34.0952 -34.0927
   -19.3117 -19.3007 -19.3007 -19.2915 -19.2877 -19.2863 -19.2859 -19.2650
   -19.2637 -19.2633 -19.2432 -19.2431 -19.2050 -19.2050 -10.8035  -5.4532
    -5.4494  -4.9274  -4.5729  -3.1943  -0.6497  -0.6443   2.9487   2.9502
     3.4857   3.4932   4.8777   6.6679

          k = 0.3278 0.6617 0.0000 ( 12053 PWs)   bands (ev):

   -67.5457 -67.5402 -34.4755 -34.4106 -34.2638 -34.1955 -34.0804 -34.0525
   -19.3119 -19.3029 -19.2996 -19.2950 -19.2896 -19.2872 -19.2806 -19.2682
   -19.2627 -19.2603 -19.2415 -19.2401 -19.2072 -19.2065 -10.8681  -5.9510
    -5.1587  -4.7423  -4.6287  -3.1672  -0.9585  -0.4782   2.5577   2.7562
     3.4960   4.1520   5.1526   6.3078

          k = 0.3276-0.3780 0.0000 ( 12082 PWs)   bands (ev):

   -67.5538 -67.5432 -34.5225 -34.4546 -34.2387 -34.1303 -34.0163 -33.9467
   -19.3123 -19.3050 -19.3020 -19.2982 -19.2888 -19.2864 -19.2786 -19.2701
   -19.2612 -19.2578 -19.2359 -19.2334 -19.2123 -19.2109 -11.0367  -6.4618
    -4.9468  -4.8761  -4.4119  -3.0481  -1.4639   0.0223   1.9790   2.3025
     3.8203   4.5121   5.4149   6.3474

          k = 0.3276-0.2835 0.0000 ( 12060 PWs)   bands (ev):

   -67.5636 -67.5487 -34.5174 -34.4459 -34.2471 -34.0956 -33.9347 -33.8423
   -19.3127 -19.3077 -19.3020 -19.2974 -19.2910 -19.2837 -19.2784 -19.2704
   -19.2624 -19.2566 -19.2287 -19.2257 -19.2191 -19.2169 -11.2540  -6.7988
    -5.1812  -4.7737  -4.0232  -3.0364  -1.8260   0.8285   1.5688   2.0140
     3.6422   3.9392   4.7711   6.2738

          k = 0.3276-0.1890 0.0000 ( 12050 PWs)   bands (ev):

   -67.5729 -67.5546 -34.4924 -34.3867 -34.2239 -34.0839 -33.8857 -33.7909
   -19.3122 -19.3081 -19.2993 -19.2969 -19.2929 -19.2820 -19.2791 -19.2704
   -19.2653 -19.2573 -19.2260 -19.2232 -19.2226 -19.2199 -11.4580  -6.8597
    -5.3790  -4.7044  -3.6417  -3.2560  -1.9284   1.1166   1.4847   2.0747
     2.6766   3.7703   3.9034   5.9952

          k = 0.3276-0.0945 0.0000 ( 12034 PWs)   bands (ev):

   -67.5794 -67.5591 -34.4834 -34.2963 -34.1746 -34.0769 -33.8764 -33.7999
   -19.3092 -19.3062 -19.3004 -19.2965 -19.2917 -19.2821 -19.2802 -19.2710
   -19.2667 -19.2591 -19.2310 -19.2277 -19.2188 -19.2173 -11.5982  -6.6521
    -5.5461  -4.6554  -4.0253  -2.8247  -1.8249   0.5127   0.7985   2.1889
     2.8435   3.3997   4.0675   5.7662

          k = 0.3277 0.0001 0.0000 ( 12045 PWs)   bands (ev):

   -67.5818 -67.5608 -34.4831 -34.2408 -34.1602 -34.0682 -33.8719 -33.8273
   -19.3051 -19.3043 -19.3035 -19.2982 -19.2898 -19.2821 -19.2814 -19.2715
   -19.2669 -19.2601 -19.2329 -19.2293 -19.2173 -19.2170 -11.6472  -6.4372
    -5.6984  -4.6486  -4.2375  -2.5377  -1.7019   0.0599   0.4150   2.2094
     3.0375   3.1962   4.4754   5.6351

          k = 0.3277 0.0946 0.0000 ( 12040 PWs)   bands (ev):

   -67.5794 -67.5591 -34.4834 -34.2967 -34.1747 -34.0771 -33.8766 -33.7999
   -19.3092 -19.3059 -19.3003 -19.2966 -19.2918 -19.2817 -19.2806 -19.2713
   -19.2668 -19.2590 -19.2310 -19.2277 -19.2188 -19.2172 -11.5976  -6.6495
    -5.5437  -4.6591  -4.0283  -2.8322  -1.8245   0.5204   0.8028   2.1935
     2.8437   3.3973   4.0686   5.7643

          k = 0.4096 0.2364 0.0000 ( 12064 PWs)   bands (ev):

   -67.5589 -67.5460 -34.5737 -34.5093 -34.2498 -34.0984 -33.9258 -33.8222
   -19.3156 -19.3090 -19.3035 -19.2987 -19.2898 -19.2840 -19.2764 -19.2707
   -19.2610 -19.2547 -19.2304 -19.2261 -19.2158 -19.2142 -11.1849  -7.0690
    -5.1898  -4.7919  -3.4756  -3.3872  -1.8400   1.5216   1.8170   2.1435
     3.1265   4.3141   5.1216   6.1758

          k = 0.4096 0.3309 0.0000 ( 12066 PWs)   bands (ev):

   -67.5535 -67.5432 -34.5915 -34.5248 -34.2367 -34.1125 -33.9662 -33.8668
   -19.3155 -19.3074 -19.3046 -19.2996 -19.2882 -19.2853 -19.2760 -19.2708
   -19.2601 -19.2549 -19.2342 -19.2298 -19.2120 -19.2109 -11.0750  -6.9817
    -5.0968  -4.7838  -3.7955  -3.2630  -1.6693   1.1938   1.6762   2.2710
     3.9643   4.4278   5.7472   6.2642

          k = 0.4097 0.4254 0.0000 ( 12043 PWs)   bands (ev):

   -67.5486 -67.5411 -34.5515 -34.4863 -34.2182 -34.1577 -34.0327 -33.9647
   -19.3138 -19.3034 -19.3023 -19.3005 -19.2873 -19.2856 -19.2780 -19.2705
   -19.2612 -19.2571 -19.2387 -19.2354 -19.2088 -19.2081 -10.9509  -6.5740
    -4.9109  -4.7479  -4.3248  -3.2948  -1.3270   0.2304   2.2181   2.4700
     4.0432   4.4461   5.5690   6.1143

          k = 0.4097 0.5199 0.0000 ( 12051 PWs)   bands (ev):

   -67.5455 -67.5402 -34.4775 -34.4131 -34.2621 -34.1939 -34.0794 -34.0535
   -19.3122 -19.3032 -19.2993 -19.2946 -19.2894 -19.2868 -19.2810 -19.2686
   -19.2626 -19.2604 -19.2415 -19.2400 -19.2072 -19.2065 -10.8663  -5.9534
    -5.1605  -4.7453  -4.6308  -3.1658  -0.9615  -0.4747   2.5546   2.7688
     3.4867   4.1687   5.1520   6.3120

          k = 0.4097 0.6145 0.0000 ( 12046 PWs)   bands (ev):

   -67.5456 -67.5402 -34.4771 -34.4122 -34.2627 -34.1946 -34.0785 -34.0540
   -19.3120 -19.3032 -19.2993 -19.2950 -19.2894 -19.2865 -19.2810 -19.2684
   -19.2625 -19.2605 -19.2414 -19.2401 -19.2072 -19.2065 -10.8669  -5.9539
    -5.1585  -4.7429  -4.6328  -3.1636  -0.9599  -0.4785   2.5506   2.7664
     3.4872   4.1691   5.1527   6.3102

          k = 0.4097 0.7090 0.0000 ( 12047 PWs)   bands (ev):

   -67.5488 -67.5411 -34.5507 -34.4848 -34.2200 -34.1571 -34.0321 -33.9649
   -19.3135 -19.3035 -19.3028 -19.3005 -19.2873 -19.2858 -19.2777 -19.2700
   -19.2612 -19.2571 -19.2387 -19.2356 -19.2089 -19.2081 -10.9522  -6.5747
    -4.9098  -4.7440  -4.3230  -3.2909  -1.3260   0.2242   2.2132   2.4624
     4.0451   4.4425   5.5710   6.1105

          k = 0.4095-0.3308 0.0000 ( 12058 PWs)   bands (ev):

   -67.5538 -67.5432 -34.5907 -34.5232 -34.2385 -34.1113 -33.9660 -33.8668
   -19.3151 -19.3080 -19.3047 -19.2996 -19.2883 -19.2853 -19.2756 -19.2703
   -19.2602 -19.2549 -19.2341 -19.2300 -19.2120 -19.2108 -11.0766  -6.9831
    -5.0978  -4.7787  -3.7879  -3.2598  -1.6692   1.1847   1.6709   2.2626
     3.9622   4.4280   5.7439   6.2648

          k = 0.4095-0.2362 0.0000 ( 12060 PWs)   bands (ev):

   -67.5591 -67.5461 -34.5730 -34.5079 -34.2513 -34.0974 -33.9256 -33.8220
   -19.3153 -19.3094 -19.3038 -19.2987 -19.2899 -19.2840 -19.2760 -19.2702
   -19.2610 -19.2547 -19.2304 -19.2262 -19.2158 -19.2142 -11.1863  -7.0712
    -5.1920  -4.7864  -3.4701  -3.3790  -1.8409   1.5161   1.8006   2.1360
     3.1300   4.3126   5.1211   6.1788

          k = 0.4096-0.1417 0.0000 ( 12058 PWs)   bands (ev):

   -67.5635 -67.5487 -34.5182 -34.4468 -34.2471 -34.0956 -33.9340 -33.8421
   -19.3127 -19.3079 -19.3025 -19.2969 -19.2908 -19.2836 -19.2782 -19.2705
   -19.2626 -19.2566 -19.2287 -19.2257 -19.2191 -19.2170 -11.2529  -6.8002
    -5.1792  -4.7768  -4.0335  -3.0248  -1.8286   0.8268   1.5600   2.0195
     3.6517   3.9401   4.7744   6.2782

          k = 0.4096-0.0472 0.0000 ( 12065 PWs)   bands (ev):

   -67.5660 -67.5502 -34.4789 -34.3664 -34.2410 -34.0947 -33.9563 -33.8975
   -19.3089 -19.3060 -19.3011 -19.2956 -19.2927 -19.2839 -19.2799 -19.2713
   -19.2628 -19.2590 -19.2283 -19.2270 -19.2210 -19.2185 -11.2790  -6.2206
    -5.4785  -4.8190  -4.4018  -2.6574  -1.6987  -0.1898   1.1941   2.1684
     3.6301   4.2086   4.8762   6.2881

          k = 0.4096 0.0473 0.0000 ( 12065 PWs)   bands (ev):

   -67.5660 -67.5502 -34.4790 -34.3668 -34.2407 -34.0948 -33.9566 -33.8974
   -19.3091 -19.3058 -19.3007 -19.2958 -19.2929 -19.2839 -19.2801 -19.2715
   -19.2629 -19.2589 -19.2283 -19.2269 -19.2210 -19.2185 -11.2787  -6.2175
    -5.4809  -4.8196  -4.4029  -2.6620  -1.6990  -0.1846   1.1964   2.1704
     3.6301   4.2076   4.8774   6.2862

          k = 0.4096 0.1419 0.0000 ( 12062 PWs)   bands (ev):

   -67.5634 -67.5486 -34.5186 -34.4478 -34.2462 -34.0963 -33.9343 -33.8422
   -19.3130 -19.3074 -19.3023 -19.2969 -19.2909 -19.2836 -19.2785 -19.2710
   -19.2626 -19.2565 -19.2287 -19.2256 -19.2191 -19.2170 -11.2519  -6.7973
    -5.1773  -4.7816  -4.0367  -3.0340  -1.8280   0.8374   1.5654   2.0258
     3.6513   3.9401   4.7743   6.2743

          k =-0.4915-0.2837 0.0000 ( 12050 PWs)   bands (ev):

   -67.5535 -67.5432 -34.6208 -34.5521 -34.2386 -34.1068 -33.9403 -33.8337
   -19.3168 -19.3088 -19.3059 -19.2995 -19.2887 -19.2850 -19.2745 -19.2709
   -19.2593 -19.2538 -19.2332 -19.2281 -19.2118 -19.2108 -11.0948  -7.1673
    -5.1837  -4.8175  -3.4375  -3.3024  -1.7769   1.4155   2.0836   2.3231
     3.1836   4.7905   5.7638   6.3246

          k =-0.4915-0.1891 0.0000 ( 12058 PWs)   bands (ev):

   -67.5535 -67.5432 -34.5917 -34.5250 -34.2366 -34.1125 -33.9661 -33.8668
   -19.3155 -19.3074 -19.3048 -19.2994 -19.2881 -19.2853 -19.2759 -19.2708
   -19.2601 -19.2549 -19.2342 -19.2298 -19.2120 -19.2109 -11.0747  -6.9820
    -5.0970  -4.7840  -3.7993  -3.2587  -1.6701   1.1930   1.6764   2.2704
     3.9654   4.4267   5.7477   6.2653

          k =-0.4915-0.0946 0.0000 ( 12078 PWs)   bands (ev):

   -67.5536 -67.5432 -34.5244 -34.4572 -34.2371 -34.1303 -34.0160 -33.9463
   -19.3126 -19.3053 -19.3016 -19.2977 -19.2884 -19.2862 -19.2788 -19.2706
   -19.2613 -19.2578 -19.2359 -19.2333 -19.2123 -19.2110 -11.0342  -6.4624
    -4.9436  -4.8837  -4.4230  -3.0438  -1.4675   0.0276   1.9748   2.3156
     3.8151   4.5311   5.4140   6.3524

          k =-0.4915-0.0001 0.0000 ( 12081 PWs)   bands (ev):

   -67.5536 -67.5432 -34.4858 -34.4020 -34.2601 -34.1277 -34.0454 -33.9961
   -19.3106 -19.3061 -19.2968 -19.2947 -19.2934 -19.2869 -19.2794 -19.2703
   -19.2607 -19.2605 -19.2363 -19.2355 -19.2125 -19.2110 -11.0141  -5.7839
    -5.6159  -4.7596  -4.5500  -2.8662  -1.2756  -0.6036   1.8853   2.4523
     3.6559   4.5773   5.2381   6.6203

          k =-0.4915 0.0944 0.0000 ( 12082 PWs)   bands (ev):

   -67.5537 -67.5432 -34.5240 -34.4562 -34.2382 -34.1300 -34.0153 -33.9465
   -19.3124 -19.3055 -19.3021 -19.2977 -19.2883 -19.2862 -19.2786 -19.2702
   -19.2613 -19.2579 -19.2359 -19.2334 -19.2123 -19.2110 -11.0351  -6.4643
    -4.9405  -4.8828  -4.4222  -3.0378  -1.4669   0.0207   1.9696   2.3110
     3.8145   4.5331   5.4134   6.3471

          k =-0.4915 0.1890 0.0000 ( 12060 PWs)   bands (ev):

   -67.5537 -67.5432 -34.5911 -34.5236 -34.2383 -34.1114 -33.9658 -33.8667
   -19.3151 -19.3080 -19.3050 -19.2994 -19.2883 -19.2853 -19.2756 -19.2704
   -19.2602 -19.2549 -19.2341 -19.2300 -19.2120 -19.2108 -11.0761  -6.9838
    -5.0981  -4.7791  -3.7955  -3.2510  -1.6707   1.1834   1.6711   2.2614
     3.9644   4.4264   5.7447   6.2651

          k =-0.4916-0.8508 0.0000 ( 12050 PWs)   bands (ev):

   -67.5537 -67.5432 -34.6200 -34.5506 -34.2407 -34.1054 -33.9401 -33.8334
   -19.3165 -19.3094 -19.3061 -19.2995 -19.2889 -19.2850 -19.2741 -19.2704
   -19.2594 -19.2538 -19.2332 -19.2283 -19.2118 -19.2108 -11.0964  -7.1691
    -5.1851  -4.8123  -3.4296  -3.2969  -1.7782   1.4098   2.0677   2.3140
     3.1875   4.7894   5.7598   6.3274

     the Fermi energy is     0.8184 ev

!    total energy              =   -1375.69283565 Ry
     estimated scf accuracy    <          5.1E-13 Ry
     smearing contrib. (-TS)   =      -0.00000388 Ry
     internal energy E=F+TS    =   -1375.69283177 Ry

     The total energy is F=E-TS. E is the sum of the following terms:
     one-electron contribution =  -11616.35926148 Ry
     hartree contribution      =    5838.23445027 Ry
     xc contribution           =    -140.29953126 Ry
     ewald contribution        =    4542.73151070 Ry

     convergence has been achieved in  19 iterations

     negative rho (up, down):  5.048E-03 0.000E+00

     Forces acting on atoms (cartesian axes, Ry/au):

     atom    1 type  2   force =    -0.00045310    0.00025680   -0.00000087
     atom    2 type  1   force =     0.00002891    0.00026942   -0.00055935
     atom    3 type  1   force =     0.00010515   -0.00034242    0.00055820
     atom    4 type  3   force =     0.00026928   -0.00055902   -0.00007663
     atom    5 type  3   force =     0.00004976    0.00037522    0.00007865

     Total force =     0.001280     Total SCF correction =     0.000003


     Computing stress (Cartesian axis) and pressure


     negative rho (up, down):  5.048E-03 0.000E+00
          total   stress  (Ry/bohr**3)                   (kbar)     P=       -3.20
  -0.00002280   0.00000012   0.00000075           -3.35        0.02        0.11
   0.00000012  -0.00002001  -0.00000384            0.02       -2.94       -0.56
   0.00000075  -0.00000384  -0.00002253            0.11       -0.56       -3.31


     Writing output data file /scratch/as3359/Ta2CH2-VCrelax/Ta.save/
 
     init_run     :     11.63s CPU      6.49s WALL (       1 calls)
     electrons    :    468.40s CPU    239.65s WALL (       1 calls)
     forces       :      3.66s CPU      1.89s WALL (       1 calls)
     stress       :     13.29s CPU      6.82s WALL (       1 calls)

     Called by init_run:
     wfcinit      :      8.65s CPU      4.46s WALL (       1 calls)
     potinit      :      0.69s CPU      0.35s WALL (       1 calls)
     hinit0       :      1.88s CPU      1.37s WALL (       1 calls)

     Called by electrons:
     c_bands      :    391.41s CPU    198.49s WALL (      19 calls)
     sum_band     :     68.07s CPU     35.73s WALL (      19 calls)
     v_of_rho     :      1.20s CPU      0.64s WALL (      20 calls)
     newd         :      7.56s CPU      4.72s WALL (      20 calls)
     mix_rho      :      0.43s CPU      0.23s WALL (      19 calls)

     Called by c_bands:
     init_us_2    :      9.14s CPU      4.59s WALL (    3034 calls)
     cegterg      :    361.90s CPU    183.53s WALL (    1406 calls)

     Called by *egterg:
     cdiaghg      :     18.21s CPU      9.33s WALL (    8058 calls)
     h_psi        :    279.26s CPU    141.92s WALL (    8132 calls)
     s_psi        :     12.12s CPU      6.08s WALL (    8132 calls)
     g_psi        :      1.85s CPU      0.93s WALL (    6652 calls)

     Called by h_psi:
     h_psi:calbec :     11.96s CPU      6.03s WALL (    8132 calls)
     vloc_psi     :    249.83s CPU    127.11s WALL (    8132 calls)
     add_vuspsi   :     14.77s CPU      7.42s WALL (    8132 calls)

     General routines
     calbec       :     16.10s CPU      8.12s WALL (    9908 calls)
     fft          :      0.58s CPU      0.32s WALL (     245 calls)
     ffts         :      0.05s CPU      0.02s WALL (      19 calls)
     fftw         :    262.33s CPU    133.47s WALL (  309938 calls)
 
     Parallel routines
 
     PWSCF        :   8m19.54s CPU   4m17.44s WALL

 
   This run was terminated on:  14: 9:57   7Apr2022            

=------------------------------------------------------------------------------=
   JOB DONE.
=------------------------------------------------------------------------------=
