
     Program PWSCF v.6.8 starts on  7Apr2022 at 15:15: 1 

     This program is part of the open-source Quantum ESPRESSO suite
     for quantum simulation of materials; please cite
         "P. Giannozzi et al., J. Phys.:Condens. Matter 21 395502 (2009);
         "P. Giannozzi et al., J. Phys.:Condens. Matter 29 465901 (2017);
         "P. Giannozzi et al., J. Chem. Phys. 152 154105 (2020);
          URL http://www.quantum-espresso.org", 
     in publications or presentations arising from this work. More details at
     http://www.quantum-espresso.org/quote

     Parallel version (MPI & OpenMP), running on       4 processor cores
     Number of MPI processes:                 2
     Threads/MPI process:                     2

     MPI processes distributed on     1 nodes
     R & G space division:  proc/nbgrp/npool/nimage =       2
     124030 MiB available memory on the printing compute node when the environment starts
 
     Reading input from Ta2CH2.scf.110.in

     Current dimensions of program PWSCF are:
     Max number of different atomic species (ntypx) = 10
     Max number of k-points (npk) =  40000
     Max angular momentum in pseudopotentials (lmaxx) =  4
     file Ta.pbesol-spfn-rrkjus_psl.1.0.0.UPF: wavefunction(s)  5S 5P renormalized

     Subspace diagonalization in iterative solution of the eigenvalue problem:
     a serial algorithm will be used

 
     Parallelization info
     --------------------
     sticks:   dense  smooth     PW     G-vecs:    dense   smooth      PW
     Min         477     477    150               119383   119383   20254
     Max         478     478    151               119438   119438   20267
     Sum         955     955    301               238821   238821   40521
 
     Using Slab Decomposition
 


     bravais-lattice index     =            0
     lattice parameter (alat)  =       5.5500  a.u.
     unit-cell volume          =    1533.2393 (a.u.)^3
     number of atoms/cell      =            5
     number of atomic types    =            3
     number of electrons       =        60.00
     number of Kohn-Sham states=           36
     kinetic-energy cutoff     =     110.0000  Ry
     charge density cutoff     =     440.0000  Ry
     scf convergence threshold =      1.0E-12
     mixing beta               =       0.7000
     number of iterations used =            8  plain     mixing
     Exchange-correlation= PBESOL
                           (   1   4  10   8   0   0   0)

     celldm(1)=   5.550000  celldm(2)=   0.000000  celldm(3)=   0.000000
     celldm(4)=   0.000000  celldm(5)=   0.000000  celldm(6)=   0.000000

     crystal axes: (cart. coord. in units of alat)
               a(1) = (   1.017295  -0.000177   0.000000 )  
               a(2) = (  -0.508801   0.881714   0.000000 )  
               a(3) = (   0.000000   0.000000  10.000000 )  

     reciprocal axes: (cart. coord. in units 2 pi/alat)
               b(1) = (  0.983098  0.567305  0.000000 )  
               b(2) = (  0.000198  1.134269  0.000000 )  
               b(3) = (  0.000000  0.000000  0.100000 )  


     PseudoPot. # 1 for Ta read from file:
     /shared/home/as3359/pseudo/Ta.pbesol-spfn-rrkjus_psl.1.0.0.UPF
     MD5 check sum: f099565ffaca9b150a52e9412a28e20b
     Pseudo is Ultrasoft + core correction, Zval = 27.0
     Generated using &quot;atomic&quot; code by A. Dal Corso  v.6.3
     Using radial grid of 1273 points,  8 beta functions with: 
                l(1) =   0
                l(2) =   0
                l(3) =   1
                l(4) =   1
                l(5) =   2
                l(6) =   2
                l(7) =   3
                l(8) =   3
     Q(r) pseudized with 0 coefficients 


     PseudoPot. # 2 for C  read from file:
     /shared/home/as3359/pseudo/C.pbesol-n-rrkjus_psl.1.0.0.UPF
     MD5 check sum: 05995be603a8a7c99da3dc4413f31573
     Pseudo is Ultrasoft + core correction, Zval =  4.0
     Generated using &quot;atomic&quot; code by A. Dal Corso  v.6.3MaX
     Using radial grid of 1073 points,  4 beta functions with: 
                l(1) =   0
                l(2) =   0
                l(3) =   1
                l(4) =   1
     Q(r) pseudized with 0 coefficients 


     PseudoPot. # 3 for H  read from file:
     /shared/home/as3359/pseudo/H.pbesol-rrkjus_psl.0.1.UPF
     MD5 check sum: 1dbb1a5c48b1283557b8117eb856a7ca
     Pseudo is Ultrasoft, Zval =  1.0
     Generated using "atomic" code by A. Dal Corso  v.5.0.2 svn rev. 9415
     Using radial grid of  929 points,  2 beta functions with: 
                l(1) =   0
                l(2) =   0
     Q(r) pseudized with 0 coefficients 


     atomic species   valence    mass     pseudopotential
        Ta            27.00   180.94788     Ta( 1.00)
        C              4.00    12.01070     C ( 1.00)
        H              1.00     1.00000     H ( 1.00)

     No symmetry found



   Cartesian axes

     site n.     atom                  positions (alat units)
         1           C   tau(   1) = (   0.0000000   0.0000000   0.0000000  )
         2           Ta  tau(   2) = (   0.5088008   0.2948413  -0.4364511  )
         3           Ta  tau(   3) = (  -0.0007447   0.5869407   0.4364532  )
         4           H   tau(   4) = (  -0.0017928  -0.0015314   0.8341930  )
         5           H   tau(   5) = (   0.0002769   0.0024412  -0.8341930  )

     number of k points=    74  Marzari-Vanderbilt smearing, width (Ry)=  0.0010
                       cart. coord. in units 2pi/alat
        k(    1) = (   0.0000000   0.0000000   0.0000000), wk =   0.0138889
        k(    2) = (   0.0000165   0.0945224   0.0000000), wk =   0.0277778
        k(    3) = (   0.0000329   0.1890448   0.0000000), wk =   0.0277778
        k(    4) = (   0.0000494   0.2835672   0.0000000), wk =   0.0277778
        k(    5) = (   0.0000659   0.3780896   0.0000000), wk =   0.0277778
        k(    6) = (   0.0000823   0.4726120   0.0000000), wk =   0.0277778
        k(    7) = (  -0.0000988  -0.5671343   0.0000000), wk =   0.0138889
        k(    8) = (   0.0819248   0.0472755   0.0000000), wk =   0.0277778
        k(    9) = (   0.0819413   0.1417978   0.0000000), wk =   0.0277778
        k(   10) = (   0.0819577   0.2363202   0.0000000), wk =   0.0277778
        k(   11) = (   0.0819742   0.3308426   0.0000000), wk =   0.0277778
        k(   12) = (   0.0819907   0.4253650   0.0000000), wk =   0.0277778
        k(   13) = (   0.0820071   0.5198874   0.0000000), wk =   0.0277778
        k(   14) = (   0.0818260  -0.5198589   0.0000000), wk =   0.0277778
        k(   15) = (   0.0818425  -0.4253365   0.0000000), wk =   0.0277778
        k(   16) = (   0.0818590  -0.3308141   0.0000000), wk =   0.0277778
        k(   17) = (   0.0818754  -0.2362917   0.0000000), wk =   0.0277778
        k(   18) = (   0.0818919  -0.1417693   0.0000000), wk =   0.0277778
        k(   19) = (   0.0819084  -0.0472469   0.0000000), wk =   0.0277778
        k(   20) = (   0.1638496   0.0945509   0.0000000), wk =   0.0277778
        k(   21) = (   0.1638661   0.1890733   0.0000000), wk =   0.0277778
        k(   22) = (   0.1638826   0.2835957   0.0000000), wk =   0.0277778
        k(   23) = (   0.1638990   0.3781181   0.0000000), wk =   0.0277778
        k(   24) = (   0.1639155   0.4726405   0.0000000), wk =   0.0277778
        k(   25) = (   0.1639319   0.5671629   0.0000000), wk =   0.0277778
        k(   26) = (   0.1637508  -0.4725834   0.0000000), wk =   0.0277778
        k(   27) = (   0.1637673  -0.3780610   0.0000000), wk =   0.0277778
        k(   28) = (   0.1637838  -0.2835386   0.0000000), wk =   0.0277778
        k(   29) = (   0.1638002  -0.1890163   0.0000000), wk =   0.0277778
        k(   30) = (   0.1638167  -0.0944939   0.0000000), wk =   0.0277778
        k(   31) = (   0.1638332   0.0000285   0.0000000), wk =   0.0277778
        k(   32) = (   0.2457744   0.1418264   0.0000000), wk =   0.0277778
        k(   33) = (   0.2457909   0.2363488   0.0000000), wk =   0.0277778
        k(   34) = (   0.2458074   0.3308711   0.0000000), wk =   0.0277778
        k(   35) = (   0.2458238   0.4253935   0.0000000), wk =   0.0277778
        k(   36) = (   0.2458403   0.5199159   0.0000000), wk =   0.0277778
        k(   37) = (   0.2458568   0.6144383   0.0000000), wk =   0.0277778
        k(   38) = (   0.2456757  -0.4253080   0.0000000), wk =   0.0277778
        k(   39) = (   0.2456921  -0.3307856   0.0000000), wk =   0.0277778
        k(   40) = (   0.2457086  -0.2362632   0.0000000), wk =   0.0277778
        k(   41) = (   0.2457251  -0.1417408   0.0000000), wk =   0.0277778
        k(   42) = (   0.2457415  -0.0472184   0.0000000), wk =   0.0277778
        k(   43) = (   0.2457580   0.0473040   0.0000000), wk =   0.0277778
        k(   44) = (   0.3276993   0.1891018   0.0000000), wk =   0.0277778
        k(   45) = (   0.3277157   0.2836242   0.0000000), wk =   0.0277778
        k(   46) = (   0.3277322   0.3781466   0.0000000), wk =   0.0277778
        k(   47) = (   0.3277486   0.4726690   0.0000000), wk =   0.0277778
        k(   48) = (   0.3277651   0.5671914   0.0000000), wk =   0.0277778
        k(   49) = (   0.3277816   0.6617138   0.0000000), wk =   0.0277778
        k(   50) = (   0.3276005  -0.3780325   0.0000000), wk =   0.0277778
        k(   51) = (   0.3276169  -0.2835101   0.0000000), wk =   0.0277778
        k(   52) = (   0.3276334  -0.1889877   0.0000000), wk =   0.0277778
        k(   53) = (   0.3276499  -0.0944653   0.0000000), wk =   0.0277778
        k(   54) = (   0.3276663   0.0000570   0.0000000), wk =   0.0277778
        k(   55) = (   0.3276828   0.0945794   0.0000000), wk =   0.0277778
        k(   56) = (   0.4096241   0.2363773   0.0000000), wk =   0.0277778
        k(   57) = (   0.4096405   0.3308997   0.0000000), wk =   0.0277778
        k(   58) = (   0.4096570   0.4254221   0.0000000), wk =   0.0277778
        k(   59) = (   0.4096735   0.5199445   0.0000000), wk =   0.0277778
        k(   60) = (   0.4096899   0.6144668   0.0000000), wk =   0.0277778
        k(   61) = (   0.4097064   0.7089892   0.0000000), wk =   0.0277778
        k(   62) = (   0.4095253  -0.3307571   0.0000000), wk =   0.0277778
        k(   63) = (   0.4095418  -0.2362347   0.0000000), wk =   0.0277778
        k(   64) = (   0.4095582  -0.1417123   0.0000000), wk =   0.0277778
        k(   65) = (   0.4095747  -0.0471899   0.0000000), wk =   0.0277778
        k(   66) = (   0.4095911   0.0473325   0.0000000), wk =   0.0277778
        k(   67) = (   0.4096076   0.1418549   0.0000000), wk =   0.0277778
        k(   68) = (  -0.4915489  -0.2836527   0.0000000), wk =   0.0138889
        k(   69) = (  -0.4915324  -0.1891303   0.0000000), wk =   0.0277778
        k(   70) = (  -0.4915160  -0.0946080   0.0000000), wk =   0.0277778
        k(   71) = (  -0.4914995  -0.0000856   0.0000000), wk =   0.0277778
        k(   72) = (  -0.4914830   0.0944368   0.0000000), wk =   0.0277778
        k(   73) = (  -0.4914666   0.1889592   0.0000000), wk =   0.0277778
        k(   74) = (  -0.4916477  -0.8507871   0.0000000), wk =   0.0138889

     Dense  grid:   238821 G-vectors     FFT dimensions: (  40,  40, 375)

     Estimated max dynamical RAM per process >       1.74 GB

     Estimated total dynamical RAM >       3.48 GB

     Initial potential from superposition of free atoms

     starting charge   59.99840, renormalised to   60.00000

     negative rho (up, down):  4.004E-04 0.000E+00
     Starting wfcs are   40 randomized atomic wfcs

     total cpu time spent up to now is       16.1 secs

     Self-consistent Calculation

     iteration #  1     ecut=   110.00 Ry     beta= 0.70
     Davidson diagonalization with overlap
     ethr =  1.00E-02,  avg # of iterations =  2.0

     negative rho (up, down):  9.659E-05 0.000E+00

     total cpu time spent up to now is       45.2 secs

     total energy              =   -1375.12132586 Ry
     estimated scf accuracy    <       1.04931470 Ry

     iteration #  2     ecut=   110.00 Ry     beta= 0.70
     Davidson diagonalization with overlap
     ethr =  1.75E-03,  avg # of iterations =  7.3

     negative rho (up, down):  8.689E-05 0.000E+00

     total cpu time spent up to now is       85.4 secs

     total energy              =   -1374.71238051 Ry
     estimated scf accuracy    <       5.43588941 Ry

     iteration #  3     ecut=   110.00 Ry     beta= 0.70
     Davidson diagonalization with overlap
     ethr =  1.75E-03,  avg # of iterations =  4.8

     negative rho (up, down):  9.978E-05 0.000E+00

     total cpu time spent up to now is      121.1 secs

     total energy              =   -1375.66719546 Ry
     estimated scf accuracy    <       0.23055425 Ry

     iteration #  4     ecut=   110.00 Ry     beta= 0.70
     Davidson diagonalization with overlap
     ethr =  3.84E-04,  avg # of iterations =  2.3

     negative rho (up, down):  9.752E-05 0.000E+00

     total cpu time spent up to now is      150.6 secs

     total energy              =   -1375.69439390 Ry
     estimated scf accuracy    <       0.02881625 Ry

     iteration #  5     ecut=   110.00 Ry     beta= 0.70
     Davidson diagonalization with overlap
     ethr =  4.80E-05,  avg # of iterations = 10.7

     negative rho (up, down):  9.996E-05 0.000E+00

     total cpu time spent up to now is      190.3 secs

     total energy              =   -1375.67740061 Ry
     estimated scf accuracy    <       0.40557853 Ry

     iteration #  6     ecut=   110.00 Ry     beta= 0.70
     Davidson diagonalization with overlap
     ethr =  4.80E-05,  avg # of iterations = 11.0

     negative rho (up, down):  1.207E-04 0.000E+00

     total cpu time spent up to now is      228.8 secs

     total energy              =   -1375.69963651 Ry
     estimated scf accuracy    <       0.00567622 Ry

     iteration #  7     ecut=   110.00 Ry     beta= 0.70
     Davidson diagonalization with overlap
     c_bands:  1 eigenvalues not converged
     c_bands:  1 eigenvalues not converged
     c_bands:  1 eigenvalues not converged
     ethr =  9.46E-06,  avg # of iterations =  6.4

     negative rho (up, down):  1.314E-04 0.000E+00

     total cpu time spent up to now is      263.8 secs

     total energy              =   -1375.70042297 Ry
     estimated scf accuracy    <       0.00021428 Ry

     iteration #  8     ecut=   110.00 Ry     beta= 0.70
     Davidson diagonalization with overlap
     ethr =  3.57E-07,  avg # of iterations =  6.4

     negative rho (up, down):  1.398E-04 0.000E+00

     total cpu time spent up to now is      299.9 secs

     total energy              =   -1375.70046919 Ry
     estimated scf accuracy    <       0.00001071 Ry

     iteration #  9     ecut=   110.00 Ry     beta= 0.70
     Davidson diagonalization with overlap
     ethr =  1.79E-08,  avg # of iterations =  3.5

     negative rho (up, down):  1.407E-04 0.000E+00

     total cpu time spent up to now is      331.4 secs

     total energy              =   -1375.70047066 Ry
     estimated scf accuracy    <       0.00000438 Ry

     iteration # 10     ecut=   110.00 Ry     beta= 0.70
     Davidson diagonalization with overlap
     ethr =  7.30E-09,  avg # of iterations =  2.0

     negative rho (up, down):  1.411E-04 0.000E+00

     total cpu time spent up to now is      362.0 secs

     total energy              =   -1375.70047106 Ry
     estimated scf accuracy    <       0.00000066 Ry

     iteration # 11     ecut=   110.00 Ry     beta= 0.70
     Davidson diagonalization with overlap
     ethr =  1.10E-09,  avg # of iterations =  2.8

     negative rho (up, down):  1.411E-04 0.000E+00

     total cpu time spent up to now is      394.2 secs

     total energy              =   -1375.70047120 Ry
     estimated scf accuracy    <       0.00000006 Ry

     iteration # 12     ecut=   110.00 Ry     beta= 0.70
     Davidson diagonalization with overlap
     ethr =  1.08E-10,  avg # of iterations =  2.3

     negative rho (up, down):  1.411E-04 0.000E+00

     total cpu time spent up to now is      422.7 secs

     total energy              =   -1375.70047120 Ry
     estimated scf accuracy    <       0.00000003 Ry

     iteration # 13     ecut=   110.00 Ry     beta= 0.70
     Davidson diagonalization with overlap
     ethr =  4.56E-11,  avg # of iterations =  2.0

     negative rho (up, down):  1.411E-04 0.000E+00

     total cpu time spent up to now is      450.9 secs

     total energy              =   -1375.70047120 Ry
     estimated scf accuracy    <          5.2E-09 Ry

     iteration # 14     ecut=   110.00 Ry     beta= 0.70
     Davidson diagonalization with overlap
     ethr =  8.61E-12,  avg # of iterations =  3.8

     negative rho (up, down):  1.411E-04 0.000E+00

     total cpu time spent up to now is      481.2 secs

     total energy              =   -1375.70047120 Ry
     estimated scf accuracy    <          1.8E-10 Ry

     iteration # 15     ecut=   110.00 Ry     beta= 0.70
     Davidson diagonalization with overlap
     ethr =  3.02E-13,  avg # of iterations =  4.0

     negative rho (up, down):  1.411E-04 0.000E+00

     total cpu time spent up to now is      513.7 secs

     total energy              =   -1375.70047120 Ry
     estimated scf accuracy    <          2.0E-10 Ry

     iteration # 16     ecut=   110.00 Ry     beta= 0.70
     Davidson diagonalization with overlap
     ethr =  3.02E-13,  avg # of iterations =  1.6

     negative rho (up, down):  1.411E-04 0.000E+00

     total cpu time spent up to now is      539.6 secs

     total energy              =   -1375.70047120 Ry
     estimated scf accuracy    <          6.4E-11 Ry

     iteration # 17     ecut=   110.00 Ry     beta= 0.70
     Davidson diagonalization with overlap
     ethr =  1.06E-13,  avg # of iterations =  2.4

     negative rho (up, down):  1.411E-04 0.000E+00

     total cpu time spent up to now is      567.6 secs

     total energy              =   -1375.70047120 Ry
     estimated scf accuracy    <          1.1E-12 Ry

     iteration # 18     ecut=   110.00 Ry     beta= 0.70
     Davidson diagonalization with overlap
     ethr =  1.00E-13,  avg # of iterations =  1.0

     negative rho (up, down):  1.411E-04 0.000E+00

     total cpu time spent up to now is      592.4 secs

     End of self-consistent calculation

          k = 0.0000 0.0000 0.0000 ( 29893 PWs)   bands (ev):

   -67.6110 -67.5794 -34.5973 -34.1139 -33.6992 -33.6978 -33.6591 -33.6589
   -19.2566 -19.2426 -19.2235 -19.2230 -19.2228 -19.2227 -19.2017 -19.2016
   -19.2004 -19.1998 -19.1992 -19.1931 -19.1191 -19.1184 -12.8533  -8.3512
    -5.2552  -3.4730  -3.2166  -3.2018  -1.2334   0.3192   0.3392   2.4914
     2.5032   2.9051   2.9379   3.4863

          k = 0.0000 0.0945 0.0000 ( 29955 PWs)   bands (ev):

   -67.6065 -67.5759 -34.5825 -34.1128 -33.7581 -33.7163 -33.7159 -33.6684
   -19.2550 -19.2419 -19.2246 -19.2231 -19.2228 -19.2215 -19.2038 -19.2018
   -19.2005 -19.1997 -19.1958 -19.1898 -19.1226 -19.1219 -12.7140  -8.1325
    -5.3202  -3.5512  -3.3890  -3.1607  -1.0618  -0.0556   0.5495   1.8787
     2.1875   2.9297   3.3019   4.1833

          k = 0.0000 0.1890 0.0000 ( 30001 PWs)   bands (ev):

   -67.5941 -67.5662 -34.5423 -34.1166 -33.9137 -33.8668 -33.7607 -33.6966
   -19.2508 -19.2404 -19.2285 -19.2233 -19.2225 -19.2176 -19.2089 -19.2025
   -19.2020 -19.1981 -19.1861 -19.1809 -19.1316 -19.1311 -12.3440  -7.5538
    -5.4875  -4.0336  -3.4654  -3.0963  -1.0093  -0.4088   1.1332   1.3096
     2.0978   2.7898   3.6417   4.9281

          k = 0.0000 0.2836 0.0000 ( 29926 PWs)   bands (ev):

   -67.5768 -67.5532 -34.4926 -34.1943 -34.0669 -34.0417 -33.8183 -33.7373
   -19.2476 -19.2374 -19.2337 -19.2244 -19.2222 -19.2140 -19.2135 -19.2044
   -19.2015 -19.1953 -19.1728 -19.1686 -19.1437 -19.1425 -11.8707  -6.9309
    -5.6166  -4.4657  -3.5647  -3.1181  -1.6554   0.3112   1.1532   1.8929
     2.5014   2.6841   3.7583   5.5170

          k = 0.0001 0.3781 0.0000 ( 29868 PWs)   bands (ev):

   -67.5590 -67.5406 -34.4800 -34.3744 -34.2122 -34.0711 -33.8740 -33.7792
   -19.2480 -19.2382 -19.2331 -19.2263 -19.2256 -19.2139 -19.2123 -19.2052
   -19.1989 -19.1918 -19.1592 -19.1561 -19.1551 -19.1524 -11.4465  -6.8504
    -5.3722  -4.6853  -3.6248  -3.2348  -1.9186   1.1162   1.4873   2.0733
     2.6878   3.7808   3.9155   6.0504

          k = 0.0001 0.4726 0.0000 ( 29832 PWs)   bands (ev):

   -67.5453 -67.5320 -34.5603 -34.4953 -34.2406 -34.0839 -33.9138 -33.8101
   -19.2498 -19.2405 -19.2339 -19.2281 -19.2261 -19.2137 -19.2111 -19.2052
   -19.1955 -19.1889 -19.1630 -19.1587 -19.1489 -19.1470 -11.1755  -7.0608
    -5.1834  -4.7674  -3.4536  -3.3575  -1.8318   1.5215   1.7910   2.1379
     3.1447   4.3192   5.1290   6.1962

          k =-0.0001-0.5671 0.0000 ( 29818 PWs)   bands (ev):

   -67.5400 -67.5292 -34.6074 -34.5379 -34.2305 -34.0914 -33.9282 -33.8215
   -19.2507 -19.2410 -19.2356 -19.2289 -19.2254 -19.2145 -19.2094 -19.2053
   -19.1940 -19.1878 -19.1657 -19.1608 -19.1450 -19.1438 -11.0859  -7.1579
    -5.1756  -4.7935  -3.4076  -3.2812  -1.7696   1.4150   2.0583   2.3146
     3.2027   4.7970   5.7626   6.3424

          k = 0.0819 0.0473 0.0000 ( 29969 PWs)   bands (ev):

   -67.6065 -67.5759 -34.5824 -34.1128 -33.7593 -33.7160 -33.7153 -33.6685
   -19.2549 -19.2419 -19.2247 -19.2232 -19.2229 -19.2212 -19.2037 -19.2019
   -19.2012 -19.1991 -19.1958 -19.1899 -19.1226 -19.1219 -12.7138  -8.1323
    -5.3182  -3.5473  -3.3856  -3.1741  -1.0632  -0.0393   0.5332   1.8785
     2.1863   2.9618   3.2863   4.1698

          k = 0.0819 0.1418 0.0000 ( 29977 PWs)   bands (ev):

   -67.5980 -67.5692 -34.5548 -34.1135 -33.8557 -33.8331 -33.7358 -33.6967
   -19.2518 -19.2409 -19.2267 -19.2250 -19.2216 -19.2188 -19.2070 -19.2026
   -19.2019 -19.1984 -19.1892 -19.1837 -19.1288 -19.1283 -12.4588  -7.7279
    -5.4299  -3.8039  -3.6603  -2.9882  -0.7506  -0.6297   0.8722   1.6531
     1.8056   2.9992   3.5717   4.8265

          k = 0.0820 0.2363 0.0000 ( 29930 PWs)   bands (ev):

   -67.5831 -67.5579 -34.5089 -34.1402 -34.0116 -33.9916 -33.7955 -33.7404
   -19.2473 -19.2393 -19.2311 -19.2262 -19.2208 -19.2150 -19.2121 -19.2038
   -19.2021 -19.1965 -19.1777 -19.1731 -19.1393 -19.1389 -12.0359  -7.0696
    -5.5912  -4.3094  -3.8494  -2.7952  -1.3679  -0.1434   0.7433   1.9401
     2.2362   2.7777   3.9440   5.3228

          k = 0.0820 0.3308 0.0000 ( 29879 PWs)   bands (ev):

   -67.5656 -67.5451 -34.4711 -34.2834 -34.1623 -34.0644 -33.8652 -33.7884
   -19.2456 -19.2358 -19.2355 -19.2279 -19.2218 -19.2153 -19.2124 -19.2052
   -19.1999 -19.1938 -19.1643 -19.1608 -19.1512 -19.1497 -11.5866  -6.6420
    -5.5399  -4.6357  -4.0066  -2.8078  -1.8146   0.5098   0.8126   2.1930
     2.8454   3.4093   4.0766   5.9321

          k = 0.0820 0.4254 0.0000 ( 29835 PWs)   bands (ev):

   -67.5497 -67.5346 -34.5054 -34.4342 -34.2359 -34.0826 -33.9225 -33.8305
   -19.2471 -19.2390 -19.2331 -19.2281 -19.2252 -19.2142 -19.2124 -19.2053
   -19.1968 -19.1910 -19.1612 -19.1582 -19.1522 -19.1499 -11.2420  -6.7898
    -5.1713  -4.7571  -4.0133  -3.0094  -1.8176   0.8258   1.5701   2.0187
     3.6577   3.9488   4.7817   6.2964

          k = 0.0820 0.5199 0.0000 ( 29825 PWs)   bands (ev):

   -67.5399 -67.5292 -34.5783 -34.5108 -34.2280 -34.0977 -33.9539 -33.8549
   -19.2487 -19.2402 -19.2345 -19.2288 -19.2249 -19.2148 -19.2108 -19.2052
   -19.1948 -19.1891 -19.1666 -19.1624 -19.1451 -19.1438 -11.0656  -6.9723
    -5.0881  -4.7605  -3.7751  -3.2368  -1.6602   1.1840   1.6762   2.2606
     3.9725   4.4362   5.7495   6.2758

          k = 0.0818-0.5199 0.0000 ( 29823 PWs)   bands (ev):

   -67.5400 -67.5292 -34.5781 -34.5107 -34.2280 -34.0978 -33.9541 -33.8550
   -19.2487 -19.2402 -19.2344 -19.2289 -19.2249 -19.2148 -19.2108 -19.2052
   -19.1948 -19.1891 -19.1666 -19.1624 -19.1451 -19.1438 -11.0658  -6.9721
    -5.0880  -4.7603  -3.7713  -3.2413  -1.6596   1.1845   1.6762   2.2612
     3.9714   4.4368   5.7492   6.2758

          k = 0.0818-0.4253 0.0000 ( 29837 PWs)   bands (ev):

   -67.5497 -67.5346 -34.5050 -34.4338 -34.2358 -34.0827 -33.9228 -33.8306
   -19.2471 -19.2390 -19.2329 -19.2281 -19.2253 -19.2140 -19.2129 -19.2053
   -19.1967 -19.1910 -19.1612 -19.1582 -19.1522 -19.1499 -11.2425  -6.7892
    -5.1722  -4.7557  -4.0083  -3.0152  -1.8164   0.8264   1.5740   2.0166
     3.6533   3.9482   4.7805   6.2946

          k = 0.0819-0.3308 0.0000 ( 29883 PWs)   bands (ev):

   -67.5656 -67.5451 -34.4710 -34.2827 -34.1618 -34.0645 -33.8657 -33.7886
   -19.2455 -19.2357 -19.2354 -19.2278 -19.2218 -19.2153 -19.2127 -19.2051
   -19.1998 -19.1938 -19.1643 -19.1607 -19.1513 -19.1497 -11.5872  -6.6417
    -5.5415  -4.6332  -4.0026  -2.8109  -1.8143   0.5068   0.8187   2.1919
     2.8391   3.4075   4.0757   5.9344

          k = 0.0819-0.2363 0.0000 ( 29940 PWs)   bands (ev):

   -67.5832 -67.5579 -34.5090 -34.1397 -34.0115 -33.9907 -33.7961 -33.7406
   -19.2473 -19.2393 -19.2311 -19.2261 -19.2206 -19.2153 -19.2122 -19.2036
   -19.2019 -19.1966 -19.1777 -19.1730 -19.1393 -19.1389 -12.0363  -7.0700
    -5.5930  -4.3071  -3.8469  -2.7937  -1.3698  -0.1416   0.7404   1.9408
     2.2377   2.7720   3.9395   5.3274

          k = 0.0819-0.1418 0.0000 ( 29979 PWs)   bands (ev):

   -67.5980 -67.5692 -34.5549 -34.1134 -33.8548 -33.8328 -33.7364 -33.6969
   -19.2519 -19.2409 -19.2268 -19.2248 -19.2214 -19.2191 -19.2071 -19.2024
   -19.2016 -19.1987 -19.1892 -19.1837 -19.1288 -19.1283 -12.4591  -7.7283
    -5.4318  -3.8043  -3.6584  -2.9834  -0.7493  -0.6344   0.8746   1.6476
     1.8098   2.9960   3.5655   4.8345

          k = 0.0819-0.0472 0.0000 ( 29965 PWs)   bands (ev):

   -67.6065 -67.5759 -34.5824 -34.1128 -33.7587 -33.7160 -33.7156 -33.6686
   -19.2549 -19.2419 -19.2247 -19.2231 -19.2229 -19.2214 -19.2038 -19.2018
   -19.2009 -19.1994 -19.1958 -19.1898 -19.1226 -19.1219 -12.7139  -8.1324
    -5.3190  -3.5490  -3.3872  -3.1681  -1.0626  -0.0466   0.5406   1.8785
     2.1870   2.9479   3.2924   4.1760

          k = 0.1638 0.0946 0.0000 ( 30002 PWs)   bands (ev):

   -67.5940 -67.5661 -34.5420 -34.1169 -33.9149 -33.8672 -33.7602 -33.6967
   -19.2505 -19.2403 -19.2287 -19.2231 -19.2230 -19.2173 -19.2087 -19.2031
   -19.2022 -19.1976 -19.1861 -19.1809 -19.1316 -19.1311 -12.3433  -7.5528
    -5.4798  -4.0350  -3.4706  -3.1113  -1.0097  -0.3974   1.1205   1.3211
     2.0943   2.8193   3.6308   4.9205

          k = 0.1639 0.1891 0.0000 ( 29938 PWs)   bands (ev):

   -67.5831 -67.5578 -34.5087 -34.1404 -34.0128 -33.9909 -33.7956 -33.7405
   -19.2469 -19.2394 -19.2311 -19.2262 -19.2210 -19.2148 -19.2120 -19.2042
   -19.2022 -19.1963 -19.1777 -19.1731 -19.1394 -19.1388 -12.0353  -7.0686
    -5.5855  -4.3128  -3.8543  -2.8032  -1.3674  -0.1384   0.7506   1.9366
     2.2376   2.7862   3.9415   5.3185

          k = 0.1639 0.2836 0.0000 ( 29923 PWs)   bands (ev):

   -67.5679 -67.5468 -34.4708 -34.2272 -34.1483 -34.0559 -33.8611 -33.8162
   -19.2415 -19.2392 -19.2336 -19.2296 -19.2202 -19.2152 -19.2133 -19.2053
   -19.2001 -19.1948 -19.1661 -19.1625 -19.1497 -19.1494 -11.6354  -6.4255
    -5.6908  -4.6303  -4.2212  -2.5253  -1.6908   0.0604   0.4337   2.2171
     3.0403   3.2025   4.4841   5.7289

          k = 0.1639 0.3781 0.0000 ( 29800 PWs)   bands (ev):

   -67.5521 -67.5362 -34.4660 -34.3529 -34.2295 -34.0822 -33.9452 -33.8863
   -19.2416 -19.2361 -19.2352 -19.2303 -19.2226 -19.2157 -19.2136 -19.2057
   -19.1968 -19.1936 -19.1606 -19.1595 -19.1541 -19.1515 -11.2680  -6.2104
    -5.4668  -4.8017  -4.3836  -2.6464  -1.6843  -0.1879   1.2091   2.1693
     3.6378   4.2114   4.8798   6.3379

          k = 0.1639 0.4726 0.0000 ( 29804 PWs)   bands (ev):

   -67.5399 -67.5292 -34.5109 -34.4431 -34.2274 -34.1176 -34.0034 -33.9352
   -19.2439 -19.2372 -19.2340 -19.2276 -19.2247 -19.2161 -19.2136 -19.2050
   -19.1958 -19.1922 -19.1682 -19.1658 -19.1454 -19.1439 -11.0245  -6.4523
    -4.9284  -4.8666  -4.4038  -3.0261  -1.4539   0.0244   1.9794   2.3104
     3.8264   4.5343   5.4228   6.3565

          k = 0.1639 0.5672 0.0000 ( 29796 PWs)   bands (ev):

   -67.5350 -67.5270 -34.5380 -34.4722 -34.2096 -34.1445 -34.0196 -33.9535
   -19.2449 -19.2375 -19.2327 -19.2300 -19.2229 -19.2167 -19.2130 -19.2047
   -19.1959 -19.1915 -19.1711 -19.1680 -19.1421 -19.1412 -10.9414  -6.5626
    -4.8976  -4.7268  -4.3085  -3.2767  -1.3143   0.2281   2.2185   2.4621
     4.0579   4.4468   5.5831   6.1199

          k = 0.1638-0.4726 0.0000 ( 29793 PWs)   bands (ev):

   -67.5399 -67.5292 -34.5102 -34.4425 -34.2274 -34.1180 -34.0039 -33.9352
   -19.2438 -19.2372 -19.2337 -19.2278 -19.2249 -19.2161 -19.2138 -19.2049
   -19.1957 -19.1922 -19.1683 -19.1658 -19.1454 -19.1439 -11.0252  -6.4512
    -4.9315  -4.8635  -4.3989  -3.0310  -1.4527   0.0250   1.9835   2.3070
     3.8288   4.5245   5.4240   6.3572

          k = 0.1638-0.3781 0.0000 ( 29802 PWs)   bands (ev):

   -67.5522 -67.5362 -34.4654 -34.3517 -34.2293 -34.0824 -33.9461 -33.8865
   -19.2415 -19.2361 -19.2350 -19.2306 -19.2226 -19.2156 -19.2140 -19.2055
   -19.1966 -19.1936 -19.1606 -19.1594 -19.1541 -19.1515 -11.2690  -6.2093
    -5.4693  -4.7974  -4.3789  -2.6511  -1.6822  -0.1899   1.2147   2.1643
     3.6361   4.2044   4.8751   6.3415

          k = 0.1638-0.2835 0.0000 ( 29925 PWs)   bands (ev):

   -67.5680 -67.5468 -34.4708 -34.2258 -34.1477 -34.0557 -33.8620 -33.8165
   -19.2416 -19.2391 -19.2336 -19.2297 -19.2200 -19.2154 -19.2137 -19.2050
   -19.1998 -19.1949 -19.1661 -19.1624 -19.1497 -19.1494 -11.6363  -6.4262
    -5.6937  -4.6251  -4.2165  -2.5247  -1.6906   0.0525   0.4397   2.2140
     3.0347   3.2004   4.4773   5.7377

          k = 0.1638-0.1890 0.0000 ( 29946 PWs)   bands (ev):

   -67.5831 -67.5579 -34.5088 -34.1399 -34.0118 -33.9906 -33.7962 -33.7407
   -19.2471 -19.2394 -19.2311 -19.2261 -19.2208 -19.2152 -19.2122 -19.2038
   -19.2020 -19.1965 -19.1777 -19.1730 -19.1393 -19.1388 -12.0360  -7.0696
    -5.5897  -4.3090  -3.8495  -2.7982  -1.3694  -0.1387   0.7444   1.9389
     2.2384   2.7769   3.9378   5.3250

          k = 0.1638-0.0945 0.0000 ( 30002 PWs)   bands (ev):

   -67.5940 -67.5662 -34.5421 -34.1168 -33.9142 -33.8670 -33.7605 -33.6967
   -19.2507 -19.2403 -19.2287 -19.2231 -19.2228 -19.2175 -19.2089 -19.2028
   -19.2020 -19.1978 -19.1861 -19.1809 -19.1316 -19.1311 -12.3436  -7.5534
    -5.4830  -4.0345  -3.4681  -3.1048  -1.0097  -0.4023   1.1263   1.3160
     2.0959   2.8064   3.6349   4.9240

          k = 0.1638 0.0000 0.0000 ( 29979 PWs)   bands (ev):

   -67.5980 -67.5692 -34.5547 -34.1137 -33.8566 -33.8332 -33.7352 -33.6968
   -19.2518 -19.2408 -19.2269 -19.2250 -19.2216 -19.2187 -19.2071 -19.2028
   -19.2019 -19.1982 -19.1892 -19.1838 -19.1288 -19.1283 -12.4585  -7.7277
    -5.4271  -3.8037  -3.6624  -2.9945  -0.7524  -0.6240   0.8694   1.6611
     1.8003   3.0024   3.5795   4.8160

          k = 0.2458 0.1418 0.0000 ( 29930 PWs)   bands (ev):

   -67.5766 -67.5531 -34.4922 -34.1955 -34.0685 -34.0415 -33.8183 -33.7376
   -19.2470 -19.2375 -19.2338 -19.2241 -19.2229 -19.2140 -19.2130 -19.2051
   -19.2018 -19.1949 -19.1728 -19.1686 -19.1437 -19.1423 -11.8691  -6.9280
    -5.6050  -4.4759  -3.5743  -3.1349  -1.6535   0.3208   1.1719   1.8880
     2.5279   2.6772   3.7507   5.5092

          k = 0.2458 0.2363 0.0000 ( 29885 PWs)   bands (ev):

   -67.5654 -67.5451 -34.4710 -34.2842 -34.1626 -34.0648 -33.8657 -33.7887
   -19.2451 -19.2362 -19.2351 -19.2278 -19.2220 -19.2153 -19.2124 -19.2057
   -19.2001 -19.1936 -19.1643 -19.1608 -19.1513 -19.1496 -11.5853  -6.6373
    -5.5338  -4.6442  -4.0131  -2.8242  -1.8132   0.5274   0.8213   2.2032
     2.8458   3.4036   4.0786   5.9229

          k = 0.2458 0.3309 0.0000 ( 29818 PWs)   bands (ev):

   -67.5520 -67.5362 -34.4663 -34.3536 -34.2291 -34.0824 -33.9459 -33.8862
   -19.2417 -19.2359 -19.2347 -19.2307 -19.2227 -19.2154 -19.2140 -19.2060
   -19.1969 -19.1935 -19.1607 -19.1593 -19.1541 -19.1515 -11.2672  -6.2043
    -5.4716  -4.8029  -4.3865  -2.6560  -1.6847  -0.1765   1.2141   2.1737
     3.6378   4.2090   4.8825   6.3327

          k = 0.2458 0.4254 0.0000 ( 29843 PWs)   bands (ev):

   -67.5397 -67.5292 -34.4727 -34.3883 -34.2496 -34.1157 -34.0344 -33.9845
   -19.2412 -19.2350 -19.2311 -19.2302 -19.2250 -19.2166 -19.2151 -19.2049
   -19.1953 -19.1948 -19.1687 -19.1678 -19.1456 -19.1439 -11.0031  -5.7684
    -5.6048  -4.7461  -4.5333  -2.8585  -1.2602  -0.5969   1.9001   2.4535
     3.6696   4.5717   5.2453   6.6382

          k = 0.2458 0.5199 0.0000 ( 29859 PWs)   bands (ev):

   -67.5317 -67.5261 -34.4640 -34.3991 -34.2521 -34.1837 -34.0666 -34.0418
   -19.2422 -19.2324 -19.2310 -19.2287 -19.2233 -19.2188 -19.2164 -19.2030
   -19.1971 -19.1950 -19.1737 -19.1725 -19.1404 -19.1397 -10.8557  -5.9402
    -5.1447  -4.7281  -4.6209  -3.1527  -0.9461  -0.4719   2.5592   2.7675
     3.5029   4.1694   5.1624   6.3210

          k = 0.2459 0.6144 0.0000 ( 29859 PWs)   bands (ev):

   -67.5318 -67.5261 -34.4632 -34.3985 -34.2521 -34.1845 -34.0678 -34.0409
   -19.2421 -19.2322 -19.2310 -19.2288 -19.2236 -19.2189 -19.2163 -19.2030
   -19.1971 -19.1949 -19.1738 -19.1725 -19.1404 -19.1397 -10.8562  -5.9389
    -5.1448  -4.7281  -4.6188  -3.1543  -0.9456  -0.4718   2.5621   2.7633
     3.5067   4.1616   5.1628   6.3212

          k = 0.2457-0.4253 0.0000 ( 29849 PWs)   bands (ev):

   -67.5399 -67.5292 -34.4716 -34.3866 -34.2502 -34.1163 -34.0354 -33.9843
   -19.2409 -19.2348 -19.2311 -19.2306 -19.2251 -19.2168 -19.2151 -19.2047
   -19.1954 -19.1946 -19.1687 -19.1678 -19.1456 -19.1439 -11.0043  -5.7665
    -5.6052  -4.7441  -4.5291  -2.8613  -1.2576  -0.6001   1.9037   2.4472
     3.6724   4.5585   5.2451   6.6348

          k = 0.2457-0.3308 0.0000 ( 29812 PWs)   bands (ev):

   -67.5522 -67.5362 -34.4656 -34.3519 -34.2292 -34.0824 -33.9465 -33.8865
   -19.2414 -19.2360 -19.2348 -19.2307 -19.2227 -19.2155 -19.2142 -19.2057
   -19.1967 -19.1935 -19.1606 -19.1594 -19.1541 -19.1515 -11.2685  -6.2063
    -5.4717  -4.7981  -4.3806  -2.6562  -1.6822  -0.1837   1.2174   2.1666
     3.6361   4.2030   4.8767   6.3383

          k = 0.2457-0.2363 0.0000 ( 29881 PWs)   bands (ev):

   -67.5655 -67.5451 -34.4709 -34.2831 -34.1620 -34.0646 -33.8661 -33.7888
   -19.2452 -19.2359 -19.2354 -19.2278 -19.2219 -19.2154 -19.2127 -19.2053
   -19.1998 -19.1937 -19.1643 -19.1607 -19.1513 -19.1496 -11.5865  -6.6396
    -5.5377  -4.6381  -4.0062  -2.8198  -1.8133   0.5167   0.8232   2.1975
     2.8393   3.4043   4.0766   5.9294

          k = 0.2457-0.1417 0.0000 ( 29924 PWs)   bands (ev):

   -67.5767 -67.5531 -34.4923 -34.1950 -34.0675 -34.0417 -33.8184 -33.7375
   -19.2472 -19.2374 -19.2338 -19.2242 -19.2225 -19.2141 -19.2133 -19.2047
   -19.2016 -19.1951 -19.1728 -19.1686 -19.1437 -19.1424 -11.8698  -6.9297
    -5.6097  -4.4715  -3.5697  -3.1277  -1.6542   0.3166   1.1634   1.8903
     2.5163   2.6803   3.7535   5.5127

          k = 0.2457-0.0472 0.0000 ( 29938 PWs)   bands (ev):

   -67.5830 -67.5578 -34.5086 -34.1411 -34.0121 -33.9921 -33.7949 -33.7403
   -19.2470 -19.2393 -19.2313 -19.2262 -19.2209 -19.2148 -19.2121 -19.2041
   -19.2022 -19.1963 -19.1777 -19.1731 -19.1393 -19.1388 -12.0351  -7.0690
    -5.5852  -4.3146  -3.8548  -2.8020  -1.3653  -0.1433   0.7514   1.9376
     2.2357   2.7891   3.9478   5.3143

          k = 0.2458 0.0473 0.0000 ( 29936 PWs)   bands (ev):

   -67.5830 -67.5578 -34.5085 -34.1411 -34.0130 -33.9916 -33.7950 -33.7404
   -19.2469 -19.2394 -19.2312 -19.2262 -19.2210 -19.2147 -19.2121 -19.2043
   -19.2023 -19.1962 -19.1777 -19.1731 -19.1393 -19.1388 -12.0348  -7.0684
    -5.5828  -4.3160  -3.8570  -2.8056  -1.3651  -0.1412   0.7547   1.9359
     2.2364   2.7928   3.9471   5.3123

          k = 0.3277 0.1891 0.0000 ( 29876 PWs)   bands (ev):

   -67.5587 -67.5405 -34.4806 -34.3760 -34.2119 -34.0720 -33.8743 -33.7796
   -19.2477 -19.2382 -19.2327 -19.2262 -19.2259 -19.2143 -19.2121 -19.2060
   -19.1990 -19.1916 -19.1592 -19.1562 -19.1551 -19.1521 -11.4440  -6.8450
    -5.3636  -4.6983  -3.6367  -3.2529  -1.9168   1.1358   1.5050   2.0954
     2.6843   3.7779   3.9100   6.0430

          k = 0.3277 0.2836 0.0000 ( 29832 PWs)   bands (ev):

   -67.5494 -67.5346 -34.5064 -34.4356 -34.2343 -34.0838 -33.9232 -33.8309
   -19.2470 -19.2388 -19.2324 -19.2280 -19.2256 -19.2142 -19.2130 -19.2060
   -19.1967 -19.1908 -19.1612 -19.1579 -19.1522 -19.1499 -11.2397  -6.7847
    -5.1667  -4.7680  -4.0204  -3.0287  -1.8153   0.8493   1.5806   2.0328
     3.6562   3.9492   4.7812   6.2856

          k = 0.3277 0.3781 0.0000 ( 29802 PWs)   bands (ev):

   -67.5396 -67.5292 -34.5120 -34.4447 -34.2255 -34.1180 -34.0048 -33.9350
   -19.2444 -19.2364 -19.2334 -19.2275 -19.2252 -19.2159 -19.2142 -19.2055
   -19.1958 -19.1921 -19.1683 -19.1655 -19.1454 -19.1439 -11.0225  -6.4490
    -4.9349  -4.8687  -4.4063  -3.0380  -1.4545   0.0393   1.9900   2.3204
     3.8282   4.5297   5.4239   6.3669

          k = 0.3277 0.4727 0.0000 ( 29854 PWs)   bands (ev):

   -67.5315 -67.5262 -34.4651 -34.4005 -34.2513 -34.1822 -34.0682 -34.0412
   -19.2426 -19.2322 -19.2302 -19.2286 -19.2239 -19.2187 -19.2167 -19.2033
   -19.1973 -19.1948 -19.1738 -19.1723 -19.1404 -19.1397 -10.8544  -5.9397
    -5.1489  -4.7330  -4.6173  -3.1569  -0.9495  -0.4638   2.5680   2.7723
     3.5018   4.1693   5.1609   6.3241

          k = 0.3278 0.5672 0.0000 ( 29886 PWs)   bands (ev):

   -67.5269 -67.5267 -34.3854 -34.3447 -34.3439 -34.2328 -34.0832 -34.0806
   -19.2419 -19.2301 -19.2301 -19.2235 -19.2231 -19.2216 -19.2205 -19.1999
   -19.1983 -19.1980 -19.1755 -19.1754 -19.1384 -19.1384 -10.7909  -5.4413
    -5.4375  -4.9156  -4.5616  -3.1834  -0.6388  -0.6335   2.9578   2.9593
     3.4959   3.5034   4.8874   6.6300

          k = 0.3278 0.6617 0.0000 ( 29854 PWs)   bands (ev):

   -67.5317 -67.5261 -34.4640 -34.3990 -34.2519 -34.1836 -34.0685 -34.0407
   -19.2422 -19.2321 -19.2306 -19.2288 -19.2239 -19.2188 -19.2165 -19.2031
   -19.1973 -19.1947 -19.1738 -19.1724 -19.1404 -19.1397 -10.8554  -5.9389
    -5.1470  -4.7306  -4.6172  -3.1563  -0.9475  -0.4675   2.5670   2.7658
     3.5060   4.1618   5.1622   6.3215

          k = 0.3276-0.3780 0.0000 ( 29795 PWs)   bands (ev):

   -67.5398 -67.5292 -34.5109 -34.4430 -34.2266 -34.1181 -34.0047 -33.9352
   -19.2440 -19.2369 -19.2334 -19.2278 -19.2251 -19.2160 -19.2141 -19.2052
   -19.1958 -19.1920 -19.1682 -19.1656 -19.1454 -19.1438 -11.0240  -6.4498
    -4.9349  -4.8646  -4.4006  -3.0370  -1.4528   0.0330   1.9889   2.3125
     3.8299   4.5219   5.4247   6.3621

          k = 0.3276-0.2835 0.0000 ( 29831 PWs)   bands (ev):

   -67.5496 -67.5346 -34.5056 -34.4343 -34.2351 -34.0833 -33.9233 -33.8309
   -19.2469 -19.2389 -19.2326 -19.2281 -19.2256 -19.2141 -19.2132 -19.2056
   -19.1967 -19.1909 -19.1612 -19.1580 -19.1522 -19.1499 -11.2412  -6.7869
    -5.1696  -4.7619  -4.0122  -3.0254  -1.8148   0.8393   1.5791   2.0244
     3.6522   3.9485   4.7802   6.2877

          k = 0.3276-0.1890 0.0000 ( 29874 PWs)   bands (ev):

   -67.5588 -67.5406 -34.4803 -34.3751 -34.2121 -34.0715 -33.8742 -33.7795
   -19.2477 -19.2382 -19.2329 -19.2262 -19.2257 -19.2141 -19.2122 -19.2056
   -19.1989 -19.1917 -19.1592 -19.1562 -19.1550 -19.1522 -11.4451  -6.8479
    -5.3672  -4.6926  -3.6308  -3.2451  -1.9172   1.1273   1.4963   2.0856
     2.6858   3.7792   3.9122   6.0457

          k = 0.3276-0.0945 0.0000 ( 29879 PWs)   bands (ev):

   -67.5654 -67.5451 -34.4711 -34.2846 -34.1629 -34.0646 -33.8649 -33.7885
   -19.2452 -19.2360 -19.2354 -19.2279 -19.2218 -19.2153 -19.2123 -19.2055
   -19.2001 -19.1937 -19.1643 -19.1608 -19.1512 -19.1496 -11.5852  -6.6402
    -5.5344  -4.6437  -4.0144  -2.8138  -1.8140   0.5232   0.8092   2.2006
     2.8535   3.4090   4.0780   5.9242

          k = 0.3277 0.0001 0.0000 ( 29919 PWs)   bands (ev):

   -67.5678 -67.5467 -34.4708 -34.2290 -34.1486 -34.0560 -33.8604 -33.8159
   -19.2412 -19.2393 -19.2339 -19.2295 -19.2203 -19.2151 -19.2131 -19.2054
   -19.2003 -19.1947 -19.1662 -19.1625 -19.1496 -19.1494 -11.6342  -6.4251
    -5.6869  -4.6370  -4.2264  -2.5268  -1.6911   0.0702   0.4256   2.2216
     3.0472   3.2062   4.4921   5.7174

          k = 0.3277 0.0946 0.0000 ( 29879 PWs)   bands (ev):

   -67.5653 -67.5450 -34.4711 -34.2850 -34.1630 -34.0648 -33.8651 -33.7885
   -19.2451 -19.2361 -19.2352 -19.2279 -19.2219 -19.2153 -19.2123 -19.2057
   -19.2002 -19.1936 -19.1643 -19.1608 -19.1512 -19.1496 -11.5846  -6.6376
    -5.5320  -4.6474  -4.0173  -2.8213  -1.8136   0.5310   0.8135   2.2053
     2.8537   3.4066   4.0791   5.9200

          k = 0.4096 0.2364 0.0000 ( 29830 PWs)   bands (ev):

   -67.5448 -67.5320 -34.5621 -34.4976 -34.2376 -34.0860 -33.9144 -33.8107
   -19.2498 -19.2403 -19.2334 -19.2278 -19.2263 -19.2136 -19.2118 -19.2060
   -19.1954 -19.1889 -19.1629 -19.1583 -19.1489 -19.1470 -11.1721  -7.0570
    -5.1784  -4.7802  -3.4644  -3.3762  -1.8286   1.5320   1.8286   2.1536
     3.1356   4.3230   5.1300   6.1877

          k = 0.4096 0.3309 0.0000 ( 29829 PWs)   bands (ev):

   -67.5395 -67.5292 -34.5800 -34.5132 -34.2245 -34.1001 -33.9547 -33.8554
   -19.2489 -19.2397 -19.2341 -19.2286 -19.2249 -19.2148 -19.2115 -19.2060
   -19.1948 -19.1890 -19.1666 -19.1620 -19.1451 -19.1438 -11.0623  -6.9696
    -5.0855  -4.7721  -3.7844  -3.2518  -1.6580   1.2048   1.6865   2.2805
     3.9742   4.4370   5.7564   6.2744

          k = 0.4097 0.4254 0.0000 ( 29802 PWs)   bands (ev):

   -67.5345 -67.5271 -34.5400 -34.4746 -34.2060 -34.1456 -34.0210 -33.9532
   -19.2455 -19.2366 -19.2326 -19.2297 -19.2228 -19.2166 -19.2136 -19.2054
   -19.1960 -19.1914 -19.1710 -19.1676 -19.1420 -19.1412 -10.9383  -6.5620
    -4.8995  -4.7361  -4.3134  -3.2838  -1.3159   0.2412   2.2282   2.4793
     4.0530   4.4556   5.5792   6.1268

          k = 0.4097 0.5199 0.0000 ( 29858 PWs)   bands (ev):

   -67.5314 -67.5262 -34.4659 -34.4015 -34.2503 -34.1820 -34.0675 -34.0417
   -19.2426 -19.2324 -19.2301 -19.2285 -19.2235 -19.2186 -19.2168 -19.2034
   -19.1972 -19.1949 -19.1738 -19.1723 -19.1404 -19.1397 -10.8537  -5.9414
    -5.1487  -4.7336  -4.6194  -3.1550  -0.9505  -0.4640   2.5639   2.7784
     3.4968   4.1786   5.1615   6.3256

          k = 0.4097 0.6145 0.0000 ( 29865 PWs)   bands (ev):

   -67.5315 -67.5262 -34.4655 -34.4005 -34.2508 -34.1828 -34.0666 -34.0421
   -19.2424 -19.2325 -19.2305 -19.2285 -19.2233 -19.2187 -19.2167 -19.2032
   -19.1971 -19.1950 -19.1737 -19.1724 -19.1404 -19.1397 -10.8542  -5.9419
    -5.1468  -4.7312  -4.6214  -3.1528  -0.9489  -0.4677   2.5599   2.7760
     3.4972   4.1789   5.1623   6.3240

          k = 0.4097 0.7090 0.0000 ( 29796 PWs)   bands (ev):

   -67.5347 -67.5271 -34.5392 -34.4732 -34.2078 -34.1450 -34.0204 -33.9534
   -19.2451 -19.2371 -19.2327 -19.2298 -19.2228 -19.2167 -19.2134 -19.2051
   -19.1960 -19.1914 -19.1710 -19.1678 -19.1421 -19.1411 -10.9396  -6.5627
    -4.8984  -4.7322  -4.3116  -3.2799  -1.3149   0.2350   2.2233   2.4717
     4.0549   4.4521   5.5811   6.1231

          k = 0.4095-0.3308 0.0000 ( 29829 PWs)   bands (ev):

   -67.5397 -67.5292 -34.5791 -34.5116 -34.2263 -34.0990 -33.9546 -33.8553
   -19.2486 -19.2400 -19.2342 -19.2288 -19.2249 -19.2149 -19.2113 -19.2056
   -19.1948 -19.1890 -19.1666 -19.1622 -19.1451 -19.1438 -11.0639  -6.9711
    -5.0865  -4.7670  -3.7767  -3.2486  -1.6579   1.1958   1.6812   2.2721
     3.9721   4.4372   5.7532   6.2746

          k = 0.4095-0.2362 0.0000 ( 29830 PWs)   bands (ev):

   -67.5450 -67.5320 -34.5614 -34.4963 -34.2391 -34.0850 -33.9142 -33.8105
   -19.2497 -19.2405 -19.2337 -19.2280 -19.2262 -19.2137 -19.2115 -19.2056
   -19.1955 -19.1889 -19.1629 -19.1585 -19.1489 -19.1470 -11.1736  -7.0593
    -5.1806  -4.7747  -3.4589  -3.3680  -1.8296   1.5266   1.8121   2.1461
     3.1391   4.3215   5.1295   6.1907

          k = 0.4096-0.1417 0.0000 ( 29830 PWs)   bands (ev):

   -67.5495 -67.5346 -34.5065 -34.4352 -34.2351 -34.0833 -33.9225 -33.8306
   -19.2470 -19.2390 -19.2330 -19.2279 -19.2252 -19.2143 -19.2125 -19.2057
   -19.1969 -19.1909 -19.1611 -19.1580 -19.1522 -19.1499 -11.2401  -6.7883
    -5.1675  -4.7650  -4.0225  -3.0138  -1.8174   0.8377   1.5704   2.0299
     3.6618   3.9494   4.7835   6.2924

          k = 0.4096-0.0472 0.0000 ( 29802 PWs)   bands (ev):

   -67.5520 -67.5362 -34.4668 -34.3548 -34.2291 -34.0824 -33.9448 -33.8860
   -19.2416 -19.2362 -19.2351 -19.2302 -19.2225 -19.2157 -19.2135 -19.2060
   -19.1971 -19.1936 -19.1606 -19.1594 -19.1541 -19.1515 -11.2661  -6.2088
    -5.4666  -4.8075  -4.3905  -2.6463  -1.6877  -0.1793   1.2042   2.1792
     3.6397   4.2190   4.8872   6.3304

          k = 0.4096 0.0473 0.0000 ( 29808 PWs)   bands (ev):

   -67.5519 -67.5361 -34.4669 -34.3552 -34.2288 -34.0825 -33.9451 -33.8859
   -19.2418 -19.2360 -19.2348 -19.2304 -19.2226 -19.2155 -19.2137 -19.2061
   -19.1971 -19.1935 -19.1606 -19.1593 -19.1541 -19.1515 -11.2658  -6.2057
    -5.4690  -4.8081  -4.3917  -2.6509  -1.6880  -0.1741   1.2066   2.1813
     3.6396   4.2181   4.8883   6.3284

          k = 0.4096 0.1419 0.0000 ( 29825 PWs)   bands (ev):

   -67.5493 -67.5346 -34.5069 -34.4362 -34.2341 -34.0839 -33.9228 -33.8307
   -19.2471 -19.2388 -19.2326 -19.2280 -19.2253 -19.2142 -19.2128 -19.2061
   -19.1968 -19.1909 -19.1612 -19.1579 -19.1522 -19.1499 -11.2391  -6.7855
    -5.1656  -4.7698  -4.0257  -3.0229  -1.8168   0.8483   1.5757   2.0361
     3.6613   3.9494   4.7833   6.2884

          k =-0.4915-0.2837 0.0000 ( 29830 PWs)   bands (ev):

   -67.5394 -67.5292 -34.6093 -34.5405 -34.2264 -34.0943 -33.9289 -33.8222
   -19.2508 -19.2406 -19.2353 -19.2286 -19.2254 -19.2145 -19.2102 -19.2062
   -19.1939 -19.1877 -19.1657 -19.1604 -19.1449 -19.1438 -11.0822  -7.1553
    -5.1724  -4.8059  -3.4266  -3.2910  -1.7655   1.4259   2.0952   2.3331
     3.1927   4.7992   5.7718   6.3351

          k =-0.4915-0.1891 0.0000 ( 29823 PWs)   bands (ev):

   -67.5395 -67.5292 -34.5802 -34.5134 -34.2243 -34.1001 -33.9546 -33.8553
   -19.2489 -19.2397 -19.2343 -19.2285 -19.2249 -19.2148 -19.2115 -19.2060
   -19.1948 -19.1890 -19.1666 -19.1620 -19.1451 -19.1438 -11.0620  -6.9700
    -5.0857  -4.7723  -3.7882  -3.2474  -1.6588   1.2040   1.6868   2.2799
     3.9753   4.4359   5.7570   6.2753

          k =-0.4915-0.0946 0.0000 ( 29817 PWs)   bands (ev):

   -67.5395 -67.5292 -34.5128 -34.4456 -34.2250 -34.1181 -34.0043 -33.9348
   -19.2444 -19.2365 -19.2338 -19.2272 -19.2250 -19.2158 -19.2141 -19.2056
   -19.1959 -19.1921 -19.1682 -19.1655 -19.1454 -19.1439 -11.0215  -6.4504
    -4.9317  -4.8723  -4.4117  -3.0327  -1.4563   0.0383   1.9847   2.3255
     3.8248   4.5410   5.4237   6.3670

          k =-0.4915-0.0001 0.0000 ( 29855 PWs)   bands (ev):

   -67.5396 -67.5292 -34.4741 -34.3904 -34.2480 -34.1156 -34.0339 -33.9845
   -19.2415 -19.2352 -19.2306 -19.2301 -19.2250 -19.2163 -19.2152 -19.2051
   -19.1953 -19.1950 -19.1686 -19.1677 -19.1456 -19.1439 -11.0014  -5.7717
    -5.6043  -4.7483  -4.5384  -2.8552  -1.2646  -0.5930   1.8950   2.4627
     3.6657   4.5873   5.2473   6.6430

          k =-0.4915 0.0944 0.0000 ( 29822 PWs)   bands (ev):

   -67.5396 -67.5292 -34.5124 -34.4445 -34.2260 -34.1178 -34.0037 -33.9351
   -19.2441 -19.2369 -19.2340 -19.2272 -19.2248 -19.2160 -19.2138 -19.2053
   -19.1959 -19.1922 -19.1682 -19.1656 -19.1454 -19.1439 -11.0224  -6.4524
    -4.9287  -4.8713  -4.4110  -3.0267  -1.4558   0.0314   1.9795   2.3210
     3.8242   4.5430   5.4232   6.3617

          k =-0.4915 0.1890 0.0000 ( 29829 PWs)   bands (ev):

   -67.5397 -67.5292 -34.5795 -34.5120 -34.2261 -34.0990 -33.9543 -33.8552
   -19.2487 -19.2400 -19.2345 -19.2286 -19.2248 -19.2149 -19.2111 -19.2057
   -19.1949 -19.1890 -19.1666 -19.1622 -19.1451 -19.1438 -11.0634  -6.9718
    -5.0868  -4.7673  -3.7844  -3.2398  -1.6594   1.1945   1.6814   2.2709
     3.9742   4.4355   5.7540   6.2754

          k =-0.4916-0.8508 0.0000 ( 29830 PWs)   bands (ev):

   -67.5397 -67.5292 -34.6085 -34.5390 -34.2284 -34.0929 -33.9287 -33.8220
   -19.2506 -19.2409 -19.2355 -19.2287 -19.2254 -19.2145 -19.2099 -19.2058
   -19.1940 -19.1877 -19.1657 -19.1606 -19.1450 -19.1438 -11.0838  -7.1571
    -5.1738  -4.8007  -3.4186  -3.2855  -1.7669   1.4203   2.0793   2.3239
     3.1966   4.7982   5.7678   6.3379

     the Fermi energy is     0.8292 ev

!    total energy              =   -1375.70047120 Ry
     estimated scf accuracy    <          9.0E-13 Ry
     smearing contrib. (-TS)   =      -0.00000370 Ry
     internal energy E=F+TS    =   -1375.70046750 Ry

     The total energy is F=E-TS. E is the sum of the following terms:
     one-electron contribution =  -11616.53078612 Ry
     hartree contribution      =    5838.41197096 Ry
     xc contribution           =    -140.31316308 Ry
     ewald contribution        =    4542.73151073 Ry

     convergence has been achieved in  18 iterations

     negative rho (up, down):  1.411E-04 0.000E+00

     Forces acting on atoms (cartesian axes, Ry/au):

     atom    1 type  2   force =    -0.00045458    0.00025794   -0.00000095
     atom    2 type  1   force =     0.00003893    0.00027322   -0.00020258
     atom    3 type  1   force =     0.00009910   -0.00034900    0.00020181
     atom    4 type  3   force =     0.00026906   -0.00055473   -0.00005779
     atom    5 type  3   force =     0.00004750    0.00037257    0.00005951

     Total force =     0.001044     Total SCF correction =     0.000010


     Computing stress (Cartesian axis) and pressure


     negative rho (up, down):  1.411E-04 0.000E+00
          total   stress  (Ry/bohr**3)                   (kbar)     P=        0.14
   0.00000019   0.00000012   0.00000076            0.03        0.02        0.11
   0.00000012   0.00000297  -0.00000378            0.02        0.44       -0.56
   0.00000076  -0.00000378  -0.00000031            0.11       -0.56       -0.05


     Writing output data file /scratch/as3359/Ta2CH2-VCrelax/Ta.save/
 
     init_run     :     29.03s CPU     15.90s WALL (       1 calls)
     electrons    :   1129.68s CPU    576.37s WALL (       1 calls)
     forces       :      9.20s CPU      4.75s WALL (       1 calls)
     stress       :     37.17s CPU     19.13s WALL (       1 calls)

     Called by init_run:
     wfcinit      :     22.43s CPU     11.47s WALL (       1 calls)
     potinit      :      1.76s CPU      0.89s WALL (       1 calls)
     hinit0       :      3.71s CPU      2.77s WALL (       1 calls)

     Called by electrons:
     c_bands      :    932.50s CPU    471.59s WALL (      18 calls)
     sum_band     :    174.74s CPU     91.09s WALL (      18 calls)
     v_of_rho     :      3.48s CPU      1.93s WALL (      19 calls)
     newd         :     18.58s CPU     11.61s WALL (      19 calls)
     mix_rho      :      1.31s CPU      0.71s WALL (      18 calls)

     Called by c_bands:
     init_us_2    :     23.43s CPU     11.73s WALL (    2886 calls)
     cegterg      :    864.89s CPU    437.48s WALL (    1332 calls)

     Called by *egterg:
     cdiaghg      :     16.27s CPU      8.33s WALL (    6976 calls)
     h_psi        :    691.84s CPU    350.58s WALL (    7050 calls)
     s_psi        :     36.48s CPU     18.27s WALL (    7050 calls)
     g_psi        :      4.01s CPU      2.01s WALL (    5644 calls)

     Called by h_psi:
     h_psi:calbec :     29.50s CPU     14.79s WALL (    7050 calls)
     vloc_psi     :    614.95s CPU    312.00s WALL (    7050 calls)
     add_vuspsi   :     41.43s CPU     20.76s WALL (    7050 calls)

     General routines
     calbec       :     42.20s CPU     21.18s WALL (    8752 calls)
     fft          :      1.74s CPU      0.89s WALL (     234 calls)
     ffts         :      0.11s CPU      0.06s WALL (      18 calls)
     fftw         :    629.12s CPU    319.57s WALL (  291510 calls)
 
     Parallel routines
 
     PWSCF        :  20m 9.26s CPU  10m19.97s WALL

 
   This run was terminated on:  15:25:21   7Apr2022            

=------------------------------------------------------------------------------=
   JOB DONE.
=------------------------------------------------------------------------------=
