
     Program PWSCF v.6.8 starts on 16Apr2022 at 22:29: 7 

     This program is part of the open-source Quantum ESPRESSO suite
     for quantum simulation of materials; please cite
         "P. Giannozzi et al., J. Phys.:Condens. Matter 21 395502 (2009);
         "P. Giannozzi et al., J. Phys.:Condens. Matter 29 465901 (2017);
         "P. Giannozzi et al., J. Chem. Phys. 152 154105 (2020);
          URL http://www.quantum-espresso.org", 
     in publications or presentations arising from this work. More details at
     http://www.quantum-espresso.org/quote

     Parallel version (MPI & OpenMP), running on       4 processor cores
     Number of MPI processes:                 2
     Threads/MPI process:                     2

     MPI processes distributed on     1 nodes
     R & G space division:  proc/nbgrp/npool/nimage =       2
     124916 MiB available memory on the printing compute node when the environment starts
 
     Reading input from Ta2CF2.scf.vcrelax1.in

     Current dimensions of program PWSCF are:
     Max number of different atomic species (ntypx) = 10
     Max number of k-points (npk) =  40000
     Max angular momentum in pseudopotentials (lmaxx) =  4

     File /scratch/as3359/Ta2CF2_loop/Ta.update deleted, as requested

     File /scratch/as3359/Ta2CF2_loop/Ta.bfgs deleted, as requested
     file Ta.pbesol-spfn-rrkjus_psl.1.0.0.UPF: wavefunction(s)  5S 5P renormalized
     file F.pbesol-n-rrkjus_psl.1.0.0.UPF: wavefunction(s)  2S renormalized

     Subspace diagonalization in iterative solution of the eigenvalue problem:
     a serial algorithm will be used

 
     Parallelization info
     --------------------
     sticks:   dense  smooth     PW     G-vecs:    dense   smooth      PW
     Min         807     324     99               159697    40518    6484
     Max         808     325    100               159712    40527    6489
     Sum        1615     649    199               319409    81045   12973
 
     Using Slab Decomposition
 


     bravais-lattice index     =            0
     lattice parameter (alat)  =       5.8997  a.u.
     unit-cell volume          =    1021.3620 (a.u.)^3
     number of atoms/cell      =            5
     number of atomic types    =            3
     number of electrons       =        72.00
     number of Kohn-Sham states=           36
     kinetic-energy cutoff     =      70.0000  Ry
     charge density cutoff     =     700.0000  Ry
     scf convergence threshold =      1.0E-12
     mixing beta               =       0.7000
     number of iterations used =            8  plain     mixing
     energy convergence thresh.=      1.0E-04
     force convergence thresh. =      1.0E-03
     press convergence thresh. =      5.0E-01
     Exchange-correlation= PBESOL
                           (   1   4  10   8   0   0   0)
     nstep                     =           50


     celldm(1)=   5.899700  celldm(2)=   0.000000  celldm(3)=   0.000000
     celldm(4)=   0.000000  celldm(5)=   0.000000  celldm(6)=   0.000000

     crystal axes: (cart. coord. in units of alat)
               a(1) = (   0.978372   0.000000   0.000000 )  
               a(2) = (  -0.489186   0.847295   0.000000 )  
               a(3) = (   0.000000   0.000000   6.000000 )  

     reciprocal axes: (cart. coord. in units 2 pi/alat)
               b(1) = (  1.022106  0.590113  0.000000 )  
               b(2) = (  0.000000  1.180226  0.000000 )  
               b(3) = (  0.000000  0.000000  0.166667 )  


     PseudoPot. # 1 for Ta read from file:
     /shared/home/as3359/pseudo/Ta.pbesol-spfn-rrkjus_psl.1.0.0.UPF
     MD5 check sum: f099565ffaca9b150a52e9412a28e20b
     Pseudo is Ultrasoft + core correction, Zval = 27.0
     Generated using &quot;atomic&quot; code by A. Dal Corso  v.6.3
     Using radial grid of 1273 points,  8 beta functions with: 
                l(1) =   0
                l(2) =   0
                l(3) =   1
                l(4) =   1
                l(5) =   2
                l(6) =   2
                l(7) =   3
                l(8) =   3
     Q(r) pseudized with 0 coefficients 


     PseudoPot. # 2 for C  read from file:
     /shared/home/as3359/pseudo/C.pbesol-n-rrkjus_psl.1.0.0.UPF
     MD5 check sum: 05995be603a8a7c99da3dc4413f31573
     Pseudo is Ultrasoft + core correction, Zval =  4.0
     Generated using &quot;atomic&quot; code by A. Dal Corso  v.6.3MaX
     Using radial grid of 1073 points,  4 beta functions with: 
                l(1) =   0
                l(2) =   0
                l(3) =   1
                l(4) =   1
     Q(r) pseudized with 0 coefficients 


     PseudoPot. # 3 for F  read from file:
     /shared/home/as3359/pseudo/F.pbesol-n-rrkjus_psl.1.0.0.UPF
     MD5 check sum: 56b7518b93d9f54031eb04610776f7c7
     Pseudo is Ultrasoft + core correction, Zval =  7.0
     Generated using &quot;atomic&quot; code by A. Dal Corso  v.6.3MaX
     Using radial grid of 1105 points,  4 beta functions with: 
                l(1) =   0
                l(2) =   0
                l(3) =   1
                l(4) =   1
     Q(r) pseudized with 0 coefficients 


     atomic species   valence    mass     pseudopotential
        Ta            27.00   180.94788     Ta( 1.00)
        C              4.00    12.01070     C ( 1.00)
        F              7.00    18.99840     F ( 1.00)

     No symmetry found



   Cartesian axes

     site n.     atom                  positions (alat units)
         1           Ta  tau(   1) = (  -0.0000396   0.5536731   0.1075568  )
         2           C   tau(   2) = (  -0.0073995  -0.0128155   0.4858425  )
         3           Ta  tau(   3) = (   0.4795126   0.2768053   0.8641252  )
         4           F   tau(   4) = (  -0.0029686   0.5490691   1.3617062  )
         5           F   tau(   5) = (   0.4769955   0.2719620  -0.3900244  )

     number of k points=    74
                       cart. coord. in units 2pi/alat
        k(    1) = (   0.0000000   0.0000000   0.0000000), wk =   0.0138889
        k(    2) = (   0.0000000   0.0983522   0.0000000), wk =   0.0277778
        k(    3) = (   0.0000000   0.1967044   0.0000000), wk =   0.0277778
        k(    4) = (   0.0000000   0.2950566   0.0000000), wk =   0.0277778
        k(    5) = (   0.0000000   0.3934088   0.0000000), wk =   0.0277778
        k(    6) = (   0.0000000   0.4917610   0.0000000), wk =   0.0277778
        k(    7) = (   0.0000000  -0.5901132   0.0000000), wk =   0.0138889
        k(    8) = (   0.0851755   0.1475283   0.0000000), wk =   0.0277778
        k(    9) = (   0.0851755   0.2458805   0.0000000), wk =   0.0277778
        k(   10) = (   0.0851755   0.3442327   0.0000000), wk =   0.0277778
        k(   11) = (   0.0851755   0.4425849   0.0000000), wk =   0.0277778
        k(   12) = (   0.0851755   0.5409371   0.0000000), wk =   0.0277778
        k(   13) = (   0.1703510   0.2950566   0.0000000), wk =   0.0277778
        k(   14) = (   0.1703510   0.3934088   0.0000000), wk =   0.0277778
        k(   15) = (   0.1703510   0.4917610   0.0000000), wk =   0.0277778
        k(   16) = (   0.1703510   0.5901132   0.0000000), wk =   0.0277778
        k(   17) = (   0.2555265   0.4425849   0.0000000), wk =   0.0277778
        k(   18) = (   0.2555265   0.5409371   0.0000000), wk =   0.0277778
        k(   19) = (   0.3407020   0.5901132   0.0000000), wk =   0.0277778
        k(   20) = (  -0.0851755   0.0491761   0.0000000), wk =   0.0277778
        k(   21) = (   0.0851755   0.0491761   0.0000000), wk =   0.0277778
        k(   22) = (  -0.1703510   0.0983522   0.0000000), wk =   0.0277778
        k(   23) = (   0.1703510   0.0983522   0.0000000), wk =   0.0277778
        k(   24) = (  -0.2555265   0.1475283   0.0000000), wk =   0.0277778
        k(   25) = (   0.2555265   0.1475283   0.0000000), wk =   0.0277778
        k(   26) = (  -0.3407020   0.1967044   0.0000000), wk =   0.0277778
        k(   27) = (   0.3407020   0.1967044   0.0000000), wk =   0.0277778
        k(   28) = (  -0.4258775   0.2458805   0.0000000), wk =   0.0277778
        k(   29) = (   0.4258775   0.2458805   0.0000000), wk =   0.0277778
        k(   30) = (   0.5110530  -0.2950566   0.0000000), wk =   0.0138889
        k(   31) = (  -0.5110530  -0.2950566   0.0000000), wk =   0.0138889
        k(   32) = (  -0.0851755   0.1475283   0.0000000), wk =   0.0277778
        k(   33) = (   0.1703510  -0.0000000   0.0000000), wk =   0.0277778
        k(   34) = (  -0.0851755   0.2458805   0.0000000), wk =   0.0277778
        k(   35) = (  -0.1703510   0.1967044   0.0000000), wk =   0.0277778
        k(   36) = (   0.2555265   0.0491761   0.0000000), wk =   0.0277778
        k(   37) = (  -0.1703510  -0.1967044   0.0000000), wk =   0.0277778
        k(   38) = (   0.2555265  -0.0491761   0.0000000), wk =   0.0277778
        k(   39) = (  -0.0851755   0.3442327   0.0000000), wk =   0.0277778
        k(   40) = (  -0.2555265   0.2458805   0.0000000), wk =   0.0277778
        k(   41) = (   0.3407020   0.0983522   0.0000000), wk =   0.0277778
        k(   42) = (  -0.2555265  -0.2458805   0.0000000), wk =   0.0277778
        k(   43) = (   0.3407020  -0.0983522   0.0000000), wk =   0.0277778
        k(   44) = (  -0.0851755   0.4425849   0.0000000), wk =   0.0277778
        k(   45) = (  -0.3407020   0.2950566   0.0000000), wk =   0.0277778
        k(   46) = (   0.4258775   0.1475283   0.0000000), wk =   0.0277778
        k(   47) = (  -0.3407020  -0.2950566   0.0000000), wk =   0.0277778
        k(   48) = (   0.4258775  -0.1475283   0.0000000), wk =   0.0277778
        k(   49) = (  -0.0851755   0.5409371   0.0000000), wk =   0.0277778
        k(   50) = (  -0.4258775   0.3442327   0.0000000), wk =   0.0277778
        k(   51) = (   0.5110530   0.1967044   0.0000000), wk =   0.0277778
        k(   52) = (  -0.4258775  -0.3442327   0.0000000), wk =   0.0277778
        k(   53) = (   0.5110530  -0.1967044   0.0000000), wk =   0.0277778
        k(   54) = (  -0.1703510   0.2950566   0.0000000), wk =   0.0277778
        k(   55) = (   0.3407020  -0.0000000   0.0000000), wk =   0.0277778
        k(   56) = (  -0.1703510   0.3934088   0.0000000), wk =   0.0277778
        k(   57) = (  -0.2555265   0.3442327   0.0000000), wk =   0.0277778
        k(   58) = (   0.4258775   0.0491761   0.0000000), wk =   0.0277778
        k(   59) = (  -0.2555265  -0.3442327   0.0000000), wk =   0.0277778
        k(   60) = (   0.4258775  -0.0491761   0.0000000), wk =   0.0277778
        k(   61) = (  -0.1703510   0.4917610   0.0000000), wk =   0.0277778
        k(   62) = (  -0.3407020   0.3934088   0.0000000), wk =   0.0277778
        k(   63) = (   0.5110530   0.0983522   0.0000000), wk =   0.0277778
        k(   64) = (  -0.3407020  -0.3934088   0.0000000), wk =   0.0277778
        k(   65) = (   0.5110530  -0.0983522   0.0000000), wk =   0.0277778
        k(   66) = (  -0.4258775   0.4425849   0.0000000), wk =   0.0277778
        k(   67) = (   0.5962286   0.1475283   0.0000000), wk =   0.0277778
        k(   68) = (  -0.2555265   0.4425849   0.0000000), wk =   0.0277778
        k(   69) = (   0.5110530  -0.0000000   0.0000000), wk =   0.0277778
        k(   70) = (  -0.2555265   0.5409371   0.0000000), wk =   0.0277778
        k(   71) = (  -0.3407020   0.4917610   0.0000000), wk =   0.0277778
        k(   72) = (   0.5962286   0.0491761   0.0000000), wk =   0.0277778
        k(   73) = (  -0.3407020  -0.4917610   0.0000000), wk =   0.0277778
        k(   74) = (   0.5962286  -0.0491761   0.0000000), wk =   0.0277778

     Dense  grid:   319409 G-vectors     FFT dimensions: (  50,  50, 300)

     Smooth grid:    81045 G-vectors     FFT dimensions: (  32,  32, 192)

     Estimated max dynamical RAM per process >       1.72 GB

     Estimated total dynamical RAM >       3.45 GB

     Initial potential from superposition of free atoms

     starting charge   71.99842, renormalised to   72.00000

     negative rho (up, down):  8.155E-05 0.000E+00
     Starting wfcs are   46 randomized atomic wfcs

     total cpu time spent up to now is       16.9 secs

     Self-consistent Calculation

     iteration #  1     ecut=    70.00 Ry     beta= 0.70
     Davidson diagonalization with overlap
     ethr =  1.00E-02,  avg # of iterations =  2.0

     negative rho (up, down):  9.822E-06 0.000E+00

     total cpu time spent up to now is       26.8 secs

     total energy              =   -1470.06823766 Ry
     estimated scf accuracy    <       1.22014863 Ry

     iteration #  2     ecut=    70.00 Ry     beta= 0.70
     Davidson diagonalization with overlap
     ethr =  1.69E-03,  avg # of iterations =  6.3

     negative rho (up, down):  3.161E-05 0.000E+00

     total cpu time spent up to now is       40.9 secs

     total energy              =   -1470.32273234 Ry
     estimated scf accuracy    <       2.26614601 Ry

     iteration #  3     ecut=    70.00 Ry     beta= 0.70
     Davidson diagonalization with overlap
     ethr =  1.69E-03,  avg # of iterations =  3.0

     negative rho (up, down):  3.113E-05 0.000E+00

     total cpu time spent up to now is       52.3 secs

     total energy              =   -1470.71662860 Ry
     estimated scf accuracy    <       0.11506682 Ry

     iteration #  4     ecut=    70.00 Ry     beta= 0.70
     Davidson diagonalization with overlap
     ethr =  1.60E-04,  avg # of iterations =  4.5

     negative rho (up, down):  5.521E-05 0.000E+00

     total cpu time spent up to now is       63.6 secs

     total energy              =   -1470.73523510 Ry
     estimated scf accuracy    <       0.01040860 Ry

     iteration #  5     ecut=    70.00 Ry     beta= 0.70
     Davidson diagonalization with overlap
     c_bands:  1 eigenvalues not converged
     c_bands:  1 eigenvalues not converged
     c_bands:  1 eigenvalues not converged
     c_bands:  1 eigenvalues not converged
     c_bands:  1 eigenvalues not converged
     c_bands:  1 eigenvalues not converged
     c_bands:  1 eigenvalues not converged
     c_bands:  1 eigenvalues not converged
     ethr =  1.45E-05,  avg # of iterations = 11.7

     negative rho (up, down):  7.033E-05 0.000E+00

     total cpu time spent up to now is       79.9 secs

     total energy              =   -1470.72877356 Ry
     estimated scf accuracy    <       0.20748097 Ry

     iteration #  6     ecut=    70.00 Ry     beta= 0.70
     Davidson diagonalization with overlap
     c_bands:  1 eigenvalues not converged
     c_bands:  1 eigenvalues not converged
     c_bands:  1 eigenvalues not converged
     ethr =  1.45E-05,  avg # of iterations = 10.8

     negative rho (up, down):  8.478E-05 0.000E+00

     total cpu time spent up to now is       93.7 secs

     total energy              =   -1470.73918588 Ry
     estimated scf accuracy    <       0.05281769 Ry

     iteration #  7     ecut=    70.00 Ry     beta= 0.70
     Davidson diagonalization with overlap
     c_bands:  1 eigenvalues not converged
     c_bands:  1 eigenvalues not converged
     ethr =  1.45E-05,  avg # of iterations =  8.1

     negative rho (up, down):  9.307E-05 0.000E+00

     total cpu time spent up to now is      105.8 secs

     total energy              =   -1470.74110585 Ry
     estimated scf accuracy    <       0.00217350 Ry

     iteration #  8     ecut=    70.00 Ry     beta= 0.70
     Davidson diagonalization with overlap
     c_bands:  1 eigenvalues not converged
     ethr =  3.02E-06,  avg # of iterations =  5.4

     negative rho (up, down):  9.084E-05 0.000E+00

     total cpu time spent up to now is      117.7 secs

     total energy              =   -1470.74134156 Ry
     estimated scf accuracy    <       0.00028657 Ry

     iteration #  9     ecut=    70.00 Ry     beta= 0.70
     Davidson diagonalization with overlap
     c_bands:  1 eigenvalues not converged
     ethr =  3.98E-07,  avg # of iterations =  6.8

     negative rho (up, down):  9.138E-05 0.000E+00

     total cpu time spent up to now is      130.3 secs

     total energy              =   -1470.74138315 Ry
     estimated scf accuracy    <       0.00010132 Ry

     iteration # 10     ecut=    70.00 Ry     beta= 0.70
     Davidson diagonalization with overlap
     ethr =  1.41E-07,  avg # of iterations =  4.0

     negative rho (up, down):  9.168E-05 0.000E+00

     total cpu time spent up to now is      141.5 secs

     total energy              =   -1470.74139077 Ry
     estimated scf accuracy    <       0.00001832 Ry

     iteration # 11     ecut=    70.00 Ry     beta= 0.70
     Davidson diagonalization with overlap
     c_bands:  1 eigenvalues not converged
     c_bands:  1 eigenvalues not converged
     c_bands:  1 eigenvalues not converged
     ethr =  2.54E-08,  avg # of iterations =  8.6

     negative rho (up, down):  9.163E-05 0.000E+00

     total cpu time spent up to now is      154.1 secs

     total energy              =   -1470.74139637 Ry
     estimated scf accuracy    <       0.00002043 Ry

     iteration # 12     ecut=    70.00 Ry     beta= 0.70
     Davidson diagonalization with overlap
     ethr =  2.54E-08,  avg # of iterations =  1.0

     negative rho (up, down):  9.163E-05 0.000E+00

     total cpu time spent up to now is      163.3 secs

     total energy              =   -1470.74139581 Ry
     estimated scf accuracy    <       0.00001910 Ry

     iteration # 13     ecut=    70.00 Ry     beta= 0.70
     Davidson diagonalization with overlap
     ethr =  2.54E-08,  avg # of iterations =  1.0

     negative rho (up, down):  9.164E-05 0.000E+00

     total cpu time spent up to now is      172.5 secs

     total energy              =   -1470.74139356 Ry
     estimated scf accuracy    <       0.00001627 Ry

     iteration # 14     ecut=    70.00 Ry     beta= 0.70
     Davidson diagonalization with overlap
     ethr =  2.26E-08,  avg # of iterations =  5.6

     negative rho (up, down):  9.171E-05 0.000E+00

     total cpu time spent up to now is      183.1 secs

     total energy              =   -1470.74139420 Ry
     estimated scf accuracy    <       0.00000078 Ry

     iteration # 15     ecut=    70.00 Ry     beta= 0.70
     Davidson diagonalization with overlap
     c_bands:  1 eigenvalues not converged
     c_bands:  1 eigenvalues not converged
     c_bands:  1 eigenvalues not converged
     c_bands:  1 eigenvalues not converged
     ethr =  1.08E-09,  avg # of iterations = 10.1

     negative rho (up, down):  9.170E-05 0.000E+00

     total cpu time spent up to now is      197.6 secs

     total energy              =   -1470.74139458 Ry
     estimated scf accuracy    <       0.00000878 Ry

     iteration # 16     ecut=    70.00 Ry     beta= 0.70
     Davidson diagonalization with overlap
     c_bands:  1 eigenvalues not converged
     ethr =  1.08E-09,  avg # of iterations =  7.4

     negative rho (up, down):  9.168E-05 0.000E+00

     total cpu time spent up to now is      209.0 secs

     total energy              =   -1470.74139479 Ry
     estimated scf accuracy    <       0.00000321 Ry

     iteration # 17     ecut=    70.00 Ry     beta= 0.70
     Davidson diagonalization with overlap
     c_bands:  1 eigenvalues not converged
     ethr =  1.08E-09,  avg # of iterations =  3.8

     negative rho (up, down):  9.167E-05 0.000E+00

     total cpu time spent up to now is      219.2 secs

     total energy              =   -1470.74139503 Ry
     estimated scf accuracy    <       0.00000198 Ry

     iteration # 18     ecut=    70.00 Ry     beta= 0.70
     Davidson diagonalization with overlap
     c_bands:  1 eigenvalues not converged
     ethr =  1.08E-09,  avg # of iterations =  1.5

     negative rho (up, down):  9.167E-05 0.000E+00

     total cpu time spent up to now is      228.5 secs

     total energy              =   -1470.74139514 Ry
     estimated scf accuracy    <       0.00000196 Ry

     iteration # 19     ecut=    70.00 Ry     beta= 0.70
     Davidson diagonalization with overlap
     c_bands:  1 eigenvalues not converged
     ethr =  1.08E-09,  avg # of iterations =  1.3

     negative rho (up, down):  9.167E-05 0.000E+00

     total cpu time spent up to now is      237.7 secs

     total energy              =   -1470.74139533 Ry
     estimated scf accuracy    <       0.00000182 Ry

     iteration # 20     ecut=    70.00 Ry     beta= 0.70
     Davidson diagonalization with overlap
     c_bands:  1 eigenvalues not converged
     ethr =  1.08E-09,  avg # of iterations =  7.6

     negative rho (up, down):  9.167E-05 0.000E+00

     total cpu time spent up to now is      250.8 secs

     total energy              =   -1470.74139585 Ry
     estimated scf accuracy    <       0.00000316 Ry

     iteration # 21     ecut=    70.00 Ry     beta= 0.70
     Davidson diagonalization with overlap
     c_bands:  1 eigenvalues not converged
     ethr =  1.08E-09,  avg # of iterations =  1.3

     negative rho (up, down):  9.168E-05 0.000E+00

     total cpu time spent up to now is      260.2 secs

     total energy              =   -1470.74139476 Ry
     estimated scf accuracy    <       0.00000666 Ry

     iteration # 22     ecut=    70.00 Ry     beta= 0.70
     Davidson diagonalization with overlap
     c_bands:  1 eigenvalues not converged
     c_bands:  1 eigenvalues not converged
     c_bands:  1 eigenvalues not converged
     ethr =  1.08E-09,  avg # of iterations =  7.6

     negative rho (up, down):  9.168E-05 0.000E+00

     total cpu time spent up to now is      272.2 secs

     total energy              =   -1470.74139520 Ry
     estimated scf accuracy    <       0.00000063 Ry

     iteration # 23     ecut=    70.00 Ry     beta= 0.70
     Davidson diagonalization with overlap
     ethr =  8.74E-10,  avg # of iterations =  2.0

     negative rho (up, down):  9.169E-05 0.000E+00

     total cpu time spent up to now is      281.8 secs

     total energy              =   -1470.74139519 Ry
     estimated scf accuracy    <       0.00000033 Ry

     iteration # 24     ecut=    70.00 Ry     beta= 0.70
     Davidson diagonalization with overlap
     ethr =  4.53E-10,  avg # of iterations =  5.8

     negative rho (up, down):  9.170E-05 0.000E+00

     total cpu time spent up to now is      292.6 secs

     total energy              =   -1470.74139519 Ry
     estimated scf accuracy    <       0.00000022 Ry

     iteration # 25     ecut=    70.00 Ry     beta= 0.70
     Davidson diagonalization with overlap
     c_bands:  1 eigenvalues not converged
     ethr =  3.03E-10,  avg # of iterations =  2.3

     negative rho (up, down):  9.169E-05 0.000E+00

     total cpu time spent up to now is      302.4 secs

     total energy              =   -1470.74139524 Ry
     estimated scf accuracy    <       0.00000172 Ry

     iteration # 26     ecut=    70.00 Ry     beta= 0.70
     Davidson diagonalization with overlap
     c_bands:  1 eigenvalues not converged
     ethr =  3.03E-10,  avg # of iterations =  1.4

     negative rho (up, down):  9.169E-05 0.000E+00

     total cpu time spent up to now is      311.9 secs

     total energy              =   -1470.74139506 Ry
     estimated scf accuracy    <       0.00000135 Ry

     iteration # 27     ecut=    70.00 Ry     beta= 0.70
     Davidson diagonalization with overlap
     c_bands:  1 eigenvalues not converged
     ethr =  3.03E-10,  avg # of iterations =  2.4

     negative rho (up, down):  9.169E-05 0.000E+00

     total cpu time spent up to now is      321.8 secs

     total energy              =   -1470.74139522 Ry
     estimated scf accuracy    <       0.00000023 Ry

     iteration # 28     ecut=    70.00 Ry     beta= 0.70
     Davidson diagonalization with overlap
     ethr =  3.03E-10,  avg # of iterations =  1.2

     negative rho (up, down):  9.169E-05 0.000E+00

     total cpu time spent up to now is      331.0 secs

     total energy              =   -1470.74139524 Ry
     estimated scf accuracy    <       0.00000014 Ry

     iteration # 29     ecut=    70.00 Ry     beta= 0.70
     Davidson diagonalization with overlap
     ethr =  1.93E-10,  avg # of iterations =  3.7

     negative rho (up, down):  9.169E-05 0.000E+00

     total cpu time spent up to now is      341.0 secs

     total energy              =   -1470.74139525 Ry
     estimated scf accuracy    <       0.00000002 Ry

     iteration # 30     ecut=    70.00 Ry     beta= 0.70
     Davidson diagonalization with overlap
     c_bands:  1 eigenvalues not converged
     c_bands:  1 eigenvalues not converged
     c_bands:  1 eigenvalues not converged
     c_bands:  1 eigenvalues not converged
     c_bands:  1 eigenvalues not converged
     ethr =  2.39E-11,  avg # of iterations =  8.0

     negative rho (up, down):  9.169E-05 0.000E+00

     total cpu time spent up to now is      352.4 secs

     total energy              =   -1470.74139528 Ry
     estimated scf accuracy    <       0.00000026 Ry

     iteration # 31     ecut=    70.00 Ry     beta= 0.70
     Davidson diagonalization with overlap
     ethr =  2.39E-11,  avg # of iterations =  2.0

     negative rho (up, down):  9.169E-05 0.000E+00

     total cpu time spent up to now is      362.1 secs

     total energy              =   -1470.74139528 Ry
     estimated scf accuracy    <       0.00000025 Ry

     iteration # 32     ecut=    70.00 Ry     beta= 0.70
     Davidson diagonalization with overlap
     c_bands:  1 eigenvalues not converged
     ethr =  2.39E-11,  avg # of iterations =  5.4

     negative rho (up, down):  9.170E-05 0.000E+00

     total cpu time spent up to now is      372.9 secs

     total energy              =   -1470.74139529 Ry
     estimated scf accuracy    <       0.00000026 Ry

     iteration # 33     ecut=    70.00 Ry     beta= 0.70
     Davidson diagonalization with overlap
     ethr =  2.39E-11,  avg # of iterations =  4.7

     negative rho (up, down):  9.170E-05 0.000E+00

     total cpu time spent up to now is      383.5 secs

     total energy              =   -1470.74139527 Ry
     estimated scf accuracy    <       0.00000026 Ry

     iteration # 34     ecut=    70.00 Ry     beta= 0.70
     Davidson diagonalization with overlap
     c_bands:  1 eigenvalues not converged
     ethr =  2.39E-11,  avg # of iterations =  2.7

     negative rho (up, down):  9.170E-05 0.000E+00

     total cpu time spent up to now is      393.4 secs

     total energy              =   -1470.74139527 Ry
     estimated scf accuracy    <       0.00000007 Ry

     iteration # 35     ecut=    70.00 Ry     beta= 0.70
     Davidson diagonalization with overlap
     c_bands:  1 eigenvalues not converged
     ethr =  2.39E-11,  avg # of iterations =  3.8

     negative rho (up, down):  9.170E-05 0.000E+00

     total cpu time spent up to now is      403.6 secs

     total energy              =   -1470.74139528 Ry
     estimated scf accuracy    <       0.00000007 Ry

     iteration # 36     ecut=    70.00 Ry     beta= 0.70
     Davidson diagonalization with overlap
     c_bands:  1 eigenvalues not converged
     ethr =  2.39E-11,  avg # of iterations =  3.7

     negative rho (up, down):  9.170E-05 0.000E+00

     total cpu time spent up to now is      414.1 secs

     total energy              =   -1470.74139528 Ry
     estimated scf accuracy    <       0.00000022 Ry

     iteration # 37     ecut=    70.00 Ry     beta= 0.70
     Davidson diagonalization with overlap
     ethr =  2.39E-11,  avg # of iterations =  1.3

     negative rho (up, down):  9.170E-05 0.000E+00

     total cpu time spent up to now is      423.5 secs

     total energy              =   -1470.74139530 Ry
     estimated scf accuracy    <       0.00000020 Ry

     iteration # 38     ecut=    70.00 Ry     beta= 0.70
     Davidson diagonalization with overlap
     c_bands:  1 eigenvalues not converged
     c_bands:  1 eigenvalues not converged
     ethr =  2.39E-11,  avg # of iterations =  2.6

     negative rho (up, down):  9.170E-05 0.000E+00

     total cpu time spent up to now is      433.5 secs

     total energy              =   -1470.74139515 Ry
     estimated scf accuracy    <       0.00000081 Ry

     iteration # 39     ecut=    70.00 Ry     beta= 0.70
     Davidson diagonalization with overlap
     c_bands:  1 eigenvalues not converged
     c_bands:  1 eigenvalues not converged
     c_bands:  1 eigenvalues not converged
     c_bands:  1 eigenvalues not converged
     c_bands:  1 eigenvalues not converged
     c_bands:  1 eigenvalues not converged
     ethr =  2.39E-11,  avg # of iterations = 10.1

     negative rho (up, down):  9.170E-05 0.000E+00

     total cpu time spent up to now is      447.9 secs

     total energy              =   -1470.74139516 Ry
     estimated scf accuracy    <       0.00000041 Ry

     iteration # 40     ecut=    70.00 Ry     beta= 0.70
     Davidson diagonalization with overlap
     c_bands:  1 eigenvalues not converged
     ethr =  2.39E-11,  avg # of iterations =  1.7

     negative rho (up, down):  9.170E-05 0.000E+00

     total cpu time spent up to now is      457.3 secs

     total energy              =   -1470.74139520 Ry
     estimated scf accuracy    <       0.00000027 Ry

     iteration # 41     ecut=    70.00 Ry     beta= 0.70
     Davidson diagonalization with overlap
     c_bands:  1 eigenvalues not converged
     ethr =  2.39E-11,  avg # of iterations =  2.8

     negative rho (up, down):  9.170E-05 0.000E+00

     total cpu time spent up to now is      467.1 secs

     total energy              =   -1470.74139523 Ry
     estimated scf accuracy    <       0.00000029 Ry

     iteration # 42     ecut=    70.00 Ry     beta= 0.70
     Davidson diagonalization with overlap
     c_bands:  1 eigenvalues not converged
     ethr =  2.39E-11,  avg # of iterations =  4.9

     negative rho (up, down):  9.170E-05 0.000E+00

     total cpu time spent up to now is      477.5 secs

     total energy              =   -1470.74139525 Ry
     estimated scf accuracy    <       0.00000035 Ry

     iteration # 43     ecut=    70.00 Ry     beta= 0.70
     Davidson diagonalization with overlap
     c_bands:  1 eigenvalues not converged
     ethr =  2.39E-11,  avg # of iterations =  1.6

     negative rho (up, down):  9.170E-05 0.000E+00

     total cpu time spent up to now is      487.1 secs

     total energy              =   -1470.74139525 Ry
     estimated scf accuracy    <       0.00000037 Ry

     iteration # 44     ecut=    70.00 Ry     beta= 0.70
     Davidson diagonalization with overlap
     c_bands:  1 eigenvalues not converged
     ethr =  2.39E-11,  avg # of iterations =  6.2

     negative rho (up, down):  9.169E-05 0.000E+00

     total cpu time spent up to now is      498.6 secs

     total energy              =   -1470.74139520 Ry
     estimated scf accuracy    <       0.00000047 Ry

     iteration # 45     ecut=    70.00 Ry     beta= 0.70
     Davidson diagonalization with overlap
     c_bands:  1 eigenvalues not converged
     c_bands:  1 eigenvalues not converged
     c_bands:  1 eigenvalues not converged
     c_bands:  1 eigenvalues not converged
     c_bands:  1 eigenvalues not converged
     c_bands:  1 eigenvalues not converged
     c_bands:  1 eigenvalues not converged
     c_bands:  1 eigenvalues not converged
     c_bands:  1 eigenvalues not converged
     ethr =  2.39E-11,  avg # of iterations = 12.3

     negative rho (up, down):  9.169E-05 0.000E+00

     total cpu time spent up to now is      514.8 secs

     total energy              =   -1470.74139530 Ry
     estimated scf accuracy    <       0.00000046 Ry

     iteration # 46     ecut=    70.00 Ry     beta= 0.70
     Davidson diagonalization with overlap
     c_bands:  1 eigenvalues not converged
     ethr =  2.39E-11,  avg # of iterations =  1.6

     negative rho (up, down):  9.169E-05 0.000E+00

     total cpu time spent up to now is      524.1 secs

     total energy              =   -1470.74139532 Ry
     estimated scf accuracy    <       0.00000050 Ry

     iteration # 47     ecut=    70.00 Ry     beta= 0.70
     Davidson diagonalization with overlap
     c_bands:  1 eigenvalues not converged
     ethr =  2.39E-11,  avg # of iterations =  2.2

     negative rho (up, down):  9.169E-05 0.000E+00

     total cpu time spent up to now is      533.7 secs

     total energy              =   -1470.74139532 Ry
     estimated scf accuracy    <       0.00000099 Ry

     iteration # 48     ecut=    70.00 Ry     beta= 0.70
     Davidson diagonalization with overlap
     ethr =  2.39E-11,  avg # of iterations =  2.7

     negative rho (up, down):  9.170E-05 0.000E+00

     total cpu time spent up to now is      543.6 secs

     total energy              =   -1470.74139533 Ry
     estimated scf accuracy    <       0.00000097 Ry

     iteration # 49     ecut=    70.00 Ry     beta= 0.70
     Davidson diagonalization with overlap
     ethr =  2.39E-11,  avg # of iterations =  1.3

     negative rho (up, down):  9.170E-05 0.000E+00

     total cpu time spent up to now is      553.1 secs

     total energy              =   -1470.74139533 Ry
     estimated scf accuracy    <       0.00000097 Ry

     iteration # 50     ecut=    70.00 Ry     beta= 0.70
     Davidson diagonalization with overlap
     ethr =  2.39E-11,  avg # of iterations =  1.9

     negative rho (up, down):  9.169E-05 0.000E+00

     total cpu time spent up to now is      562.7 secs

     total energy              =   -1470.74139520 Ry
     estimated scf accuracy    <       0.00000095 Ry

     iteration # 51     ecut=    70.00 Ry     beta= 0.70
     Davidson diagonalization with overlap
     c_bands:  1 eigenvalues not converged
     ethr =  2.39E-11,  avg # of iterations =  7.9

     negative rho (up, down):  9.170E-05 0.000E+00

     total cpu time spent up to now is      575.6 secs

     total energy              =   -1470.74139525 Ry
     estimated scf accuracy    <       0.00000004 Ry

     iteration # 52     ecut=    70.00 Ry     beta= 0.70
     Davidson diagonalization with overlap
     c_bands:  1 eigenvalues not converged
     ethr =  2.39E-11,  avg # of iterations =  2.5

     negative rho (up, down):  9.169E-05 0.000E+00

     total cpu time spent up to now is      585.6 secs

     total energy              =   -1470.74139526 Ry
     estimated scf accuracy    <       0.00000001 Ry

     iteration # 53     ecut=    70.00 Ry     beta= 0.70
     Davidson diagonalization with overlap
     c_bands:  1 eigenvalues not converged
     c_bands:  1 eigenvalues not converged
     ethr =  1.65E-11,  avg # of iterations =  5.8

     negative rho (up, down):  9.170E-05 0.000E+00

     total cpu time spent up to now is      596.4 secs

     total energy              =   -1470.74139527 Ry
     estimated scf accuracy    <       0.00000002 Ry

     iteration # 54     ecut=    70.00 Ry     beta= 0.70
     Davidson diagonalization with overlap
     c_bands:  1 eigenvalues not converged
     ethr =  1.65E-11,  avg # of iterations =  4.0

     negative rho (up, down):  9.170E-05 0.000E+00

     total cpu time spent up to now is      606.7 secs

     total energy              =   -1470.74139527 Ry
     estimated scf accuracy    <       0.00000006 Ry

     iteration # 55     ecut=    70.00 Ry     beta= 0.70
     Davidson diagonalization with overlap
     c_bands:  1 eigenvalues not converged
     ethr =  1.65E-11,  avg # of iterations =  2.0

     negative rho (up, down):  9.170E-05 0.000E+00

     total cpu time spent up to now is      616.5 secs

     total energy              =   -1470.74139527 Ry
     estimated scf accuracy    <       0.00000004 Ry

     iteration # 56     ecut=    70.00 Ry     beta= 0.70
     Davidson diagonalization with overlap
     c_bands:  1 eigenvalues not converged
     c_bands:  1 eigenvalues not converged
     ethr =  1.65E-11,  avg # of iterations =  3.4

     negative rho (up, down):  9.170E-05 0.000E+00

     total cpu time spent up to now is      626.5 secs

     total energy              =   -1470.74139527 Ry
     estimated scf accuracy    <       0.00000003 Ry

     iteration # 57     ecut=    70.00 Ry     beta= 0.70
     Davidson diagonalization with overlap
     c_bands:  1 eigenvalues not converged
     ethr =  1.65E-11,  avg # of iterations =  2.1

     negative rho (up, down):  9.170E-05 0.000E+00

     total cpu time spent up to now is      636.1 secs

     total energy              =   -1470.74139527 Ry
     estimated scf accuracy    <       0.00000002 Ry

     iteration # 58     ecut=    70.00 Ry     beta= 0.70
     Davidson diagonalization with overlap
     ethr =  1.65E-11,  avg # of iterations =  2.3

     negative rho (up, down):  9.170E-05 0.000E+00

     total cpu time spent up to now is      645.7 secs

     total energy              =   -1470.74139527 Ry
     estimated scf accuracy    <       0.00000001 Ry

     iteration # 59     ecut=    70.00 Ry     beta= 0.70
     Davidson diagonalization with overlap
     ethr =  1.65E-11,  avg # of iterations =  5.5

     negative rho (up, down):  9.170E-05 0.000E+00

     total cpu time spent up to now is      656.2 secs

     total energy              =   -1470.74139527 Ry
     estimated scf accuracy    <          3.1E-09 Ry

     iteration # 60     ecut=    70.00 Ry     beta= 0.70
     Davidson diagonalization with overlap
     c_bands:  1 eigenvalues not converged
     ethr =  4.30E-12,  avg # of iterations =  6.2

     negative rho (up, down):  9.170E-05 0.000E+00

     total cpu time spent up to now is      667.4 secs

     total energy              =   -1470.74139527 Ry
     estimated scf accuracy    <       0.00000015 Ry

     iteration # 61     ecut=    70.00 Ry     beta= 0.70
     Davidson diagonalization with overlap
     ethr =  4.30E-12,  avg # of iterations =  1.2

     negative rho (up, down):  9.170E-05 0.000E+00

     total cpu time spent up to now is      676.8 secs

     total energy              =   -1470.74139527 Ry
     estimated scf accuracy    <       0.00000014 Ry

     iteration # 62     ecut=    70.00 Ry     beta= 0.70
     Davidson diagonalization with overlap
     ethr =  4.30E-12,  avg # of iterations =  1.0

     negative rho (up, down):  9.170E-05 0.000E+00

     total cpu time spent up to now is      686.0 secs

     total energy              =   -1470.74139527 Ry
     estimated scf accuracy    <       0.00000014 Ry

     iteration # 63     ecut=    70.00 Ry     beta= 0.70
     Davidson diagonalization with overlap
     ethr =  4.30E-12,  avg # of iterations =  1.0

     negative rho (up, down):  9.170E-05 0.000E+00

     total cpu time spent up to now is      695.1 secs

     total energy              =   -1470.74139528 Ry
     estimated scf accuracy    <       0.00000014 Ry

     iteration # 64     ecut=    70.00 Ry     beta= 0.70
     Davidson diagonalization with overlap
     ethr =  4.30E-12,  avg # of iterations =  1.1

     negative rho (up, down):  9.170E-05 0.000E+00

     total cpu time spent up to now is      704.3 secs

     total energy              =   -1470.74139529 Ry
     estimated scf accuracy    <       0.00000016 Ry

     iteration # 65     ecut=    70.00 Ry     beta= 0.70
     Davidson diagonalization with overlap
     c_bands:  1 eigenvalues not converged
     ethr =  4.30E-12,  avg # of iterations =  5.7

     negative rho (up, down):  9.170E-05 0.000E+00

     total cpu time spent up to now is      715.4 secs

     total energy              =   -1470.74139526 Ry
     estimated scf accuracy    <       0.00000055 Ry

     iteration # 66     ecut=    70.00 Ry     beta= 0.70
     Davidson diagonalization with overlap
     c_bands:  1 eigenvalues not converged
     c_bands:  1 eigenvalues not converged
     ethr =  4.30E-12,  avg # of iterations =  5.1

     negative rho (up, down):  9.170E-05 0.000E+00

     total cpu time spent up to now is      727.2 secs

     total energy              =   -1470.74139526 Ry
     estimated scf accuracy    <       0.00000034 Ry

     iteration # 67     ecut=    70.00 Ry     beta= 0.70
     Davidson diagonalization with overlap
     c_bands:  1 eigenvalues not converged
     ethr =  4.30E-12,  avg # of iterations =  1.6

     negative rho (up, down):  9.170E-05 0.000E+00

     total cpu time spent up to now is      736.8 secs

     total energy              =   -1470.74139531 Ry
     estimated scf accuracy    <       0.00000028 Ry

     iteration # 68     ecut=    70.00 Ry     beta= 0.70
     Davidson diagonalization with overlap
     c_bands:  1 eigenvalues not converged
     c_bands:  1 eigenvalues not converged
     ethr =  4.30E-12,  avg # of iterations =  8.6

     negative rho (up, down):  9.170E-05 0.000E+00

     total cpu time spent up to now is      750.4 secs

     total energy              =   -1470.74139534 Ry
     estimated scf accuracy    <       0.00000045 Ry

     iteration # 69     ecut=    70.00 Ry     beta= 0.70
     Davidson diagonalization with overlap
     c_bands:  1 eigenvalues not converged
     c_bands:  1 eigenvalues not converged
     c_bands:  1 eigenvalues not converged
     ethr =  4.30E-12,  avg # of iterations =  6.9

     negative rho (up, down):  9.170E-05 0.000E+00

     total cpu time spent up to now is      762.4 secs

     total energy              =   -1470.74139538 Ry
     estimated scf accuracy    <       0.00000068 Ry

     iteration # 70     ecut=    70.00 Ry     beta= 0.70
     Davidson diagonalization with overlap
     c_bands:  1 eigenvalues not converged
     ethr =  4.30E-12,  avg # of iterations =  7.4

     negative rho (up, down):  9.170E-05 0.000E+00

     total cpu time spent up to now is      774.9 secs

     total energy              =   -1470.74139522 Ry
     estimated scf accuracy    <       0.00000256 Ry

     iteration # 71     ecut=    70.00 Ry     beta= 0.70
     Davidson diagonalization with overlap
     c_bands:  1 eigenvalues not converged
     c_bands:  1 eigenvalues not converged
     c_bands:  1 eigenvalues not converged
     c_bands:  1 eigenvalues not converged
     c_bands:  1 eigenvalues not converged
     c_bands:  1 eigenvalues not converged
     c_bands:  1 eigenvalues not converged
     c_bands:  1 eigenvalues not converged
     ethr =  4.30E-12,  avg # of iterations = 10.9

     negative rho (up, down):  9.170E-05 0.000E+00

     total cpu time spent up to now is      790.3 secs

     total energy              =   -1470.74139527 Ry
     estimated scf accuracy    <       0.00000095 Ry

     iteration # 72     ecut=    70.00 Ry     beta= 0.70
     Davidson diagonalization with overlap
     c_bands:  1 eigenvalues not converged
     ethr =  4.30E-12,  avg # of iterations =  1.6

     negative rho (up, down):  9.170E-05 0.000E+00

     total cpu time spent up to now is      799.7 secs

     total energy              =   -1470.74139519 Ry
     estimated scf accuracy    <       0.00000099 Ry

     iteration # 73     ecut=    70.00 Ry     beta= 0.70
     Davidson diagonalization with overlap
     c_bands:  1 eigenvalues not converged
     ethr =  4.30E-12,  avg # of iterations =  8.6

     negative rho (up, down):  9.170E-05 0.000E+00

     total cpu time spent up to now is      813.4 secs

     total energy              =   -1470.74139502 Ry
     estimated scf accuracy    <       0.00000070 Ry

     iteration # 74     ecut=    70.00 Ry     beta= 0.70
     Davidson diagonalization with overlap
     c_bands:  1 eigenvalues not converged
     c_bands:  1 eigenvalues not converged
     c_bands:  1 eigenvalues not converged
     c_bands:  1 eigenvalues not converged
     c_bands:  1 eigenvalues not converged
     c_bands:  1 eigenvalues not converged
     c_bands:  1 eigenvalues not converged
     c_bands:  1 eigenvalues not converged
     c_bands:  1 eigenvalues not converged
     c_bands:  1 eigenvalues not converged
     c_bands:  1 eigenvalues not converged
     c_bands:  1 eigenvalues not converged
     c_bands:  1 eigenvalues not converged
     ethr =  4.30E-12,  avg # of iterations = 13.5

     negative rho (up, down):  9.169E-05 0.000E+00

     total cpu time spent up to now is      832.2 secs

     total energy              =   -1470.74139512 Ry
     estimated scf accuracy    <       0.00000003 Ry

     iteration # 75     ecut=    70.00 Ry     beta= 0.70
     Davidson diagonalization with overlap
     c_bands:  1 eigenvalues not converged
     c_bands:  1 eigenvalues not converged
     c_bands:  1 eigenvalues not converged
     c_bands:  1 eigenvalues not converged
     c_bands:  1 eigenvalues not converged
     c_bands:  1 eigenvalues not converged
     c_bands:  1 eigenvalues not converged
     c_bands:  1 eigenvalues not converged
     ethr =  4.30E-12,  avg # of iterations = 11.1

     negative rho (up, down):  9.170E-05 0.000E+00

     total cpu time spent up to now is      847.5 secs

     total energy              =   -1470.74139524 Ry
     estimated scf accuracy    <       0.00000060 Ry

     iteration # 76     ecut=    70.00 Ry     beta= 0.70
     Davidson diagonalization with overlap
     c_bands:  1 eigenvalues not converged
     c_bands:  1 eigenvalues not converged
     c_bands:  1 eigenvalues not converged
     ethr =  4.30E-12,  avg # of iterations =  9.3

     negative rho (up, down):  9.170E-05 0.000E+00

     total cpu time spent up to now is      861.8 secs

     total energy              =   -1470.74139527 Ry
     estimated scf accuracy    <       0.00000038 Ry

     iteration # 77     ecut=    70.00 Ry     beta= 0.70
     Davidson diagonalization with overlap
     c_bands:  1 eigenvalues not converged
     c_bands:  1 eigenvalues not converged
     ethr =  4.30E-12,  avg # of iterations =  3.0

     negative rho (up, down):  9.170E-05 0.000E+00

     total cpu time spent up to now is      871.7 secs

     total energy              =   -1470.74139527 Ry
     estimated scf accuracy    <       0.00000015 Ry

     iteration # 78     ecut=    70.00 Ry     beta= 0.70
     Davidson diagonalization with overlap
     c_bands:  1 eigenvalues not converged
     ethr =  4.30E-12,  avg # of iterations =  2.9

     negative rho (up, down):  9.170E-05 0.000E+00

     total cpu time spent up to now is      881.4 secs

     total energy              =   -1470.74139527 Ry
     estimated scf accuracy    <       0.00000013 Ry

     iteration # 79     ecut=    70.00 Ry     beta= 0.70
     Davidson diagonalization with overlap
     c_bands:  1 eigenvalues not converged
     ethr =  4.30E-12,  avg # of iterations =  2.9

     negative rho (up, down):  9.170E-05 0.000E+00

     total cpu time spent up to now is      891.2 secs

     total energy              =   -1470.74139527 Ry
     estimated scf accuracy    <       0.00000007 Ry

     iteration # 80     ecut=    70.00 Ry     beta= 0.70
     Davidson diagonalization with overlap
     c_bands:  1 eigenvalues not converged
     ethr =  4.30E-12,  avg # of iterations =  1.6

     negative rho (up, down):  9.170E-05 0.000E+00

     total cpu time spent up to now is      900.5 secs

     total energy              =   -1470.74139527 Ry
     estimated scf accuracy    <       0.00000007 Ry

     iteration # 81     ecut=    70.00 Ry     beta= 0.70
     Davidson diagonalization with overlap
     c_bands:  1 eigenvalues not converged
     ethr =  4.30E-12,  avg # of iterations =  1.6

     negative rho (up, down):  9.170E-05 0.000E+00

     total cpu time spent up to now is      910.2 secs

     total energy              =   -1470.74139527 Ry
     estimated scf accuracy    <       0.00000005 Ry

     iteration # 82     ecut=    70.00 Ry     beta= 0.70
     Davidson diagonalization with overlap
     ethr =  4.30E-12,  avg # of iterations =  1.2

     negative rho (up, down):  9.170E-05 0.000E+00

     total cpu time spent up to now is      919.8 secs

     total energy              =   -1470.74139527 Ry
     estimated scf accuracy    <       0.00000006 Ry

     iteration # 83     ecut=    70.00 Ry     beta= 0.70
     Davidson diagonalization with overlap
     c_bands:  1 eigenvalues not converged
     ethr =  4.30E-12,  avg # of iterations =  6.0

     negative rho (up, down):  9.170E-05 0.000E+00

     total cpu time spent up to now is      931.1 secs

     total energy              =   -1470.74139527 Ry
     estimated scf accuracy    <          5.2E-09 Ry

     iteration # 84     ecut=    70.00 Ry     beta= 0.70
     Davidson diagonalization with overlap
     c_bands:  1 eigenvalues not converged
     c_bands:  1 eigenvalues not converged
     ethr =  4.30E-12,  avg # of iterations =  8.3

     negative rho (up, down):  9.170E-05 0.000E+00

     total cpu time spent up to now is      944.9 secs

     total energy              =   -1470.74139527 Ry
     estimated scf accuracy    <       0.00000003 Ry

     iteration # 85     ecut=    70.00 Ry     beta= 0.70
     Davidson diagonalization with overlap
     c_bands:  1 eigenvalues not converged
     ethr =  4.30E-12,  avg # of iterations =  2.1

     negative rho (up, down):  9.170E-05 0.000E+00

     total cpu time spent up to now is      954.6 secs

     total energy              =   -1470.74139527 Ry
     estimated scf accuracy    <       0.00000007 Ry

     iteration # 86     ecut=    70.00 Ry     beta= 0.70
     Davidson diagonalization with overlap
     c_bands:  1 eigenvalues not converged
     c_bands:  1 eigenvalues not converged
     c_bands:  1 eigenvalues not converged
     ethr =  4.30E-12,  avg # of iterations =  7.5

     negative rho (up, down):  9.170E-05 0.000E+00

     total cpu time spent up to now is      966.3 secs

     total energy              =   -1470.74139528 Ry
     estimated scf accuracy    <       0.00000004 Ry

     iteration # 87     ecut=    70.00 Ry     beta= 0.70
     Davidson diagonalization with overlap
     c_bands:  1 eigenvalues not converged
     ethr =  4.30E-12,  avg # of iterations =  2.2

     negative rho (up, down):  9.170E-05 0.000E+00

     total cpu time spent up to now is      976.1 secs

     total energy              =   -1470.74139527 Ry
     estimated scf accuracy    <       0.00000012 Ry

     iteration # 88     ecut=    70.00 Ry     beta= 0.70
     Davidson diagonalization with overlap
     ethr =  4.30E-12,  avg # of iterations =  1.4

     negative rho (up, down):  9.170E-05 0.000E+00

     total cpu time spent up to now is      985.5 secs

     total energy              =   -1470.74139527 Ry
     estimated scf accuracy    <       0.00000012 Ry

     iteration # 89     ecut=    70.00 Ry     beta= 0.70
     Davidson diagonalization with overlap
     ethr =  4.30E-12,  avg # of iterations =  1.1

     negative rho (up, down):  9.170E-05 0.000E+00

     total cpu time spent up to now is      994.7 secs

     total energy              =   -1470.74139527 Ry
     estimated scf accuracy    <       0.00000011 Ry

     iteration # 90     ecut=    70.00 Ry     beta= 0.70
     Davidson diagonalization with overlap
     c_bands:  1 eigenvalues not converged
     ethr =  4.30E-12,  avg # of iterations =  1.6

     negative rho (up, down):  9.170E-05 0.000E+00

     total cpu time spent up to now is     1004.3 secs

     total energy              =   -1470.74139527 Ry
     estimated scf accuracy    <       0.00000002 Ry

     iteration # 91     ecut=    70.00 Ry     beta= 0.70
     Davidson diagonalization with overlap
     ethr =  4.30E-12,  avg # of iterations =  1.4

     negative rho (up, down):  9.170E-05 0.000E+00

     total cpu time spent up to now is     1013.9 secs

     total energy              =   -1470.74139528 Ry
     estimated scf accuracy    <       0.00000001 Ry

     iteration # 92     ecut=    70.00 Ry     beta= 0.70
     Davidson diagonalization with overlap
     c_bands:  1 eigenvalues not converged
     c_bands:  1 eigenvalues not converged
     ethr =  4.30E-12,  avg # of iterations =  4.8

     negative rho (up, down):  9.170E-05 0.000E+00

     total cpu time spent up to now is     1026.0 secs

     total energy              =   -1470.74139528 Ry
     estimated scf accuracy    <       0.00000022 Ry

     iteration # 93     ecut=    70.00 Ry     beta= 0.70
     Davidson diagonalization with overlap
     ethr =  4.30E-12,  avg # of iterations =  1.3

     negative rho (up, down):  9.170E-05 0.000E+00

     total cpu time spent up to now is     1035.5 secs

     total energy              =   -1470.74139527 Ry
     estimated scf accuracy    <       0.00000020 Ry

     iteration # 94     ecut=    70.00 Ry     beta= 0.70
     Davidson diagonalization with overlap
     c_bands:  1 eigenvalues not converged
     c_bands:  1 eigenvalues not converged
     c_bands:  1 eigenvalues not converged
     ethr =  4.30E-12,  avg # of iterations =  4.7

     negative rho (up, down):  9.170E-05 0.000E+00

     total cpu time spent up to now is     1046.4 secs

     total energy              =   -1470.74139526 Ry
     estimated scf accuracy    <       0.00000006 Ry

     iteration # 95     ecut=    70.00 Ry     beta= 0.70
     Davidson diagonalization with overlap
     c_bands:  1 eigenvalues not converged
     c_bands:  1 eigenvalues not converged
     c_bands:  1 eigenvalues not converged
     ethr =  4.30E-12,  avg # of iterations =  9.2

     negative rho (up, down):  9.170E-05 0.000E+00

     total cpu time spent up to now is     1060.8 secs

     total energy              =   -1470.74139526 Ry
     estimated scf accuracy    <       0.00000002 Ry

     iteration # 96     ecut=    70.00 Ry     beta= 0.70
     Davidson diagonalization with overlap
     c_bands:  1 eigenvalues not converged
     ethr =  4.30E-12,  avg # of iterations =  2.3

     negative rho (up, down):  9.170E-05 0.000E+00

     total cpu time spent up to now is     1070.8 secs

     total energy              =   -1470.74139526 Ry
     estimated scf accuracy    <       0.00000042 Ry

     iteration # 97     ecut=    70.00 Ry     beta= 0.70
     Davidson diagonalization with overlap
     c_bands:  1 eigenvalues not converged
     c_bands:  1 eigenvalues not converged
     c_bands:  1 eigenvalues not converged
     ethr =  4.30E-12,  avg # of iterations =  8.2

     negative rho (up, down):  9.170E-05 0.000E+00

     total cpu time spent up to now is     1083.9 secs

     total energy              =   -1470.74139526 Ry
     estimated scf accuracy    <       0.00000032 Ry

     iteration # 98     ecut=    70.00 Ry     beta= 0.70
     Davidson diagonalization with overlap
     c_bands:  1 eigenvalues not converged
     ethr =  4.30E-12,  avg # of iterations =  1.3

     negative rho (up, down):  9.170E-05 0.000E+00

     total cpu time spent up to now is     1093.5 secs

     total energy              =   -1470.74139526 Ry
     estimated scf accuracy    <       0.00000021 Ry

     iteration # 99     ecut=    70.00 Ry     beta= 0.70
     Davidson diagonalization with overlap
     c_bands:  1 eigenvalues not converged
     ethr =  4.30E-12,  avg # of iterations =  1.3

     negative rho (up, down):  9.170E-05 0.000E+00

     total cpu time spent up to now is     1103.0 secs

     total energy              =   -1470.74139526 Ry
     estimated scf accuracy    <       0.00000021 Ry

     iteration #100     ecut=    70.00 Ry     beta= 0.70
     Davidson diagonalization with overlap
     c_bands:  1 eigenvalues not converged
     ethr =  4.30E-12,  avg # of iterations =  1.4

     negative rho (up, down):  9.170E-05 0.000E+00

     total cpu time spent up to now is     1112.6 secs

     total energy              =   -1470.74139526 Ry
     estimated scf accuracy    <       0.00000012 Ry

     End of self-consistent calculation

     convergence NOT achieved after 100 iterations: stopping

     Writing output data file /scratch/as3359/Ta2CF2_loop/Ta.save/
 
     init_run     :     26.53s CPU     16.67s WALL (       1 calls)
     electrons    :   2087.11s CPU   1095.77s WALL (       1 calls)

     Called by init_run:
     wfcinit      :      7.95s CPU      4.11s WALL (       1 calls)
     potinit      :      5.21s CPU      2.62s WALL (       1 calls)
     hinit0       :     12.01s CPU      9.04s WALL (       1 calls)

     Called by electrons:
     c_bands      :   1519.03s CPU    773.06s WALL (     100 calls)
     sum_band     :    416.98s CPU    229.74s WALL (     100 calls)
     v_of_rho     :     21.13s CPU     10.99s WALL (     101 calls)
     newd         :    124.81s CPU     79.38s WALL (     101 calls)
     mix_rho      :      4.21s CPU      2.16s WALL (     100 calls)

     Called by c_bands:
     init_us_2    :     38.91s CPU     19.54s WALL (   14874 calls)
     cegterg      :   1391.39s CPU    708.64s WALL (    7400 calls)

     Called by *egterg:
     cdiaghg      :     84.44s CPU     43.20s WALL (   39750 calls)
     h_psi        :   1059.31s CPU    540.88s WALL (   39824 calls)
     s_psi        :     51.79s CPU     26.02s WALL (   39824 calls)
     g_psi        :      6.65s CPU      3.35s WALL (   32350 calls)

     Called by h_psi:
     h_psi:calbec :     51.14s CPU     25.81s WALL (   39824 calls)
     vloc_psi     :    936.58s CPU    478.98s WALL (   39824 calls)
     add_vuspsi   :     61.92s CPU     31.13s WALL (   39824 calls)

     General routines
     calbec       :     66.98s CPU     33.82s WALL (   47224 calls)
     fft          :     23.49s CPU     12.00s WALL (    1313 calls)
     ffts         :      0.42s CPU      0.22s WALL (     201 calls)
     fftw         :   1006.20s CPU    514.43s WALL ( 1502104 calls)
     interpolate  :      1.25s CPU      0.64s WALL (     101 calls)
     davcio       :      0.01s CPU      0.10s WALL (      92 calls)
 
     Parallel routines
 
     PWSCF        :  35m13.93s CPU  18m33.25s WALL

 
   This run was terminated on:  22:47:41  16Apr2022            

=------------------------------------------------------------------------------=
   JOB DONE.
=------------------------------------------------------------------------------=
2
2
