
     Program PWSCF v.6.8 starts on 16Apr2022 at 21:34:14 

     This program is part of the open-source Quantum ESPRESSO suite
     for quantum simulation of materials; please cite
         "P. Giannozzi et al., J. Phys.:Condens. Matter 21 395502 (2009);
         "P. Giannozzi et al., J. Phys.:Condens. Matter 29 465901 (2017);
         "P. Giannozzi et al., J. Chem. Phys. 152 154105 (2020);
          URL http://www.quantum-espresso.org", 
     in publications or presentations arising from this work. More details at
     http://www.quantum-espresso.org/quote

     Parallel version (MPI & OpenMP), running on       4 processor cores
     Number of MPI processes:                 2
     Threads/MPI process:                     2

     MPI processes distributed on     1 nodes
     R & G space division:  proc/nbgrp/npool/nimage =       2
     124928 MiB available memory on the printing compute node when the environment starts
 
     Reading input from Ta2CF2.relax.in
Warning: card  &CELL ignored
Warning: card     CELL_DYNAMICS='BFGS', CELL_DOFREE ='2DXY' ignored
Warning: card  / ignored

     Current dimensions of program PWSCF are:
     Max number of different atomic species (ntypx) = 10
     Max number of k-points (npk) =  40000
     Max angular momentum in pseudopotentials (lmaxx) =  4

     File /scratch/as3359/Ta2CF2_loop/Ta.update deleted, as requested

     File /scratch/as3359/Ta2CF2_loop/Ta.bfgs deleted, as requested
     file Ta.pbesol-spfn-rrkjus_psl.1.0.0.UPF: wavefunction(s)  5S 5P renormalized
     file F.pbesol-n-rrkjus_psl.1.0.0.UPF: wavefunction(s)  2S renormalized

     Subspace diagonalization in iterative solution of the eigenvalue problem:
     a serial algorithm will be used

 
     Parallelization info
     --------------------
     sticks:   dense  smooth     PW     G-vecs:    dense   smooth      PW
     Min         807     324     99               159697    40518    6484
     Max         808     325    100               159712    40527    6489
     Sum        1615     649    199               319409    81045   12973
 
     Using Slab Decomposition
 


     bravais-lattice index     =            0
     lattice parameter (alat)  =       5.8997  a.u.
     unit-cell volume          =    1021.3620 (a.u.)^3
     number of atoms/cell      =            5
     number of atomic types    =            3
     number of electrons       =        72.00
     number of Kohn-Sham states=           43
     kinetic-energy cutoff     =      70.0000  Ry
     charge density cutoff     =     700.0000  Ry
     scf convergence threshold =      1.0E-12
     mixing beta               =       0.7000
     number of iterations used =            8  plain     mixing
     energy convergence thresh.=      1.0E-04
     force convergence thresh. =      1.0E-03
     Exchange-correlation= PBESOL
                           (   1   4  10   8   0   0   0)
     nstep                     =           50


     celldm(1)=   5.899700  celldm(2)=   0.000000  celldm(3)=   0.000000
     celldm(4)=   0.000000  celldm(5)=   0.000000  celldm(6)=   0.000000

     crystal axes: (cart. coord. in units of alat)
               a(1) = (   0.978372   0.000000   0.000000 )  
               a(2) = (  -0.489186   0.847295   0.000000 )  
               a(3) = (   0.000000   0.000000   6.000000 )  

     reciprocal axes: (cart. coord. in units 2 pi/alat)
               b(1) = (  1.022106  0.590113  0.000000 )  
               b(2) = (  0.000000  1.180226  0.000000 )  
               b(3) = (  0.000000  0.000000  0.166667 )  


     PseudoPot. # 1 for Ta read from file:
     /shared/home/as3359/pseudo/Ta.pbesol-spfn-rrkjus_psl.1.0.0.UPF
     MD5 check sum: f099565ffaca9b150a52e9412a28e20b
     Pseudo is Ultrasoft + core correction, Zval = 27.0
     Generated using &quot;atomic&quot; code by A. Dal Corso  v.6.3
     Using radial grid of 1273 points,  8 beta functions with: 
                l(1) =   0
                l(2) =   0
                l(3) =   1
                l(4) =   1
                l(5) =   2
                l(6) =   2
                l(7) =   3
                l(8) =   3
     Q(r) pseudized with 0 coefficients 


     PseudoPot. # 2 for C  read from file:
     /shared/home/as3359/pseudo/C.pbesol-n-rrkjus_psl.1.0.0.UPF
     MD5 check sum: 05995be603a8a7c99da3dc4413f31573
     Pseudo is Ultrasoft + core correction, Zval =  4.0
     Generated using &quot;atomic&quot; code by A. Dal Corso  v.6.3MaX
     Using radial grid of 1073 points,  4 beta functions with: 
                l(1) =   0
                l(2) =   0
                l(3) =   1
                l(4) =   1
     Q(r) pseudized with 0 coefficients 


     PseudoPot. # 3 for F  read from file:
     /shared/home/as3359/pseudo/F.pbesol-n-rrkjus_psl.1.0.0.UPF
     MD5 check sum: 56b7518b93d9f54031eb04610776f7c7
     Pseudo is Ultrasoft + core correction, Zval =  7.0
     Generated using &quot;atomic&quot; code by A. Dal Corso  v.6.3MaX
     Using radial grid of 1105 points,  4 beta functions with: 
                l(1) =   0
                l(2) =   0
                l(3) =   1
                l(4) =   1
     Q(r) pseudized with 0 coefficients 


     atomic species   valence    mass     pseudopotential
        Ta            27.00   180.94788     Ta( 1.00)
        C              4.00    12.01070     C ( 1.00)
        F              7.00    18.99840     F ( 1.00)

     No symmetry found



   Cartesian axes

     site n.     atom                  positions (alat units)
         1           Ta  tau(   1) = (   0.0000000   0.5462313   0.0508667  )
         2           C   tau(   2) = (   0.0000000   0.0000000   0.4857922  )
         3           Ta  tau(   3) = (   0.4730502   0.2731157   0.9208108  )
         4           F   tau(   4) = (   0.0000000   0.5462313   1.3760875  )
         5           F   tau(   5) = (   0.4730502   0.2731157  -0.4043509  )

     number of k points=    74  Marzari-Vanderbilt smearing, width (Ry)=  0.0010
                       cart. coord. in units 2pi/alat
        k(    1) = (   0.0000000   0.0000000   0.0000000), wk =   0.0138889
        k(    2) = (   0.0000000   0.0983522   0.0000000), wk =   0.0277778
        k(    3) = (   0.0000000   0.1967044   0.0000000), wk =   0.0277778
        k(    4) = (   0.0000000   0.2950566   0.0000000), wk =   0.0277778
        k(    5) = (   0.0000000   0.3934088   0.0000000), wk =   0.0277778
        k(    6) = (   0.0000000   0.4917610   0.0000000), wk =   0.0277778
        k(    7) = (   0.0000000  -0.5901132   0.0000000), wk =   0.0138889
        k(    8) = (   0.0851755   0.1475283   0.0000000), wk =   0.0277778
        k(    9) = (   0.0851755   0.2458805   0.0000000), wk =   0.0277778
        k(   10) = (   0.0851755   0.3442327   0.0000000), wk =   0.0277778
        k(   11) = (   0.0851755   0.4425849   0.0000000), wk =   0.0277778
        k(   12) = (   0.0851755   0.5409371   0.0000000), wk =   0.0277778
        k(   13) = (   0.1703510   0.2950566   0.0000000), wk =   0.0277778
        k(   14) = (   0.1703510   0.3934088   0.0000000), wk =   0.0277778
        k(   15) = (   0.1703510   0.4917610   0.0000000), wk =   0.0277778
        k(   16) = (   0.1703510   0.5901132   0.0000000), wk =   0.0277778
        k(   17) = (   0.2555265   0.4425849   0.0000000), wk =   0.0277778
        k(   18) = (   0.2555265   0.5409371   0.0000000), wk =   0.0277778
        k(   19) = (   0.3407020   0.5901132   0.0000000), wk =   0.0277778
        k(   20) = (  -0.0851755   0.0491761   0.0000000), wk =   0.0277778
        k(   21) = (   0.0851755   0.0491761   0.0000000), wk =   0.0277778
        k(   22) = (  -0.1703510   0.0983522   0.0000000), wk =   0.0277778
        k(   23) = (   0.1703510   0.0983522   0.0000000), wk =   0.0277778
        k(   24) = (  -0.2555265   0.1475283   0.0000000), wk =   0.0277778
        k(   25) = (   0.2555265   0.1475283   0.0000000), wk =   0.0277778
        k(   26) = (  -0.3407020   0.1967044   0.0000000), wk =   0.0277778
        k(   27) = (   0.3407020   0.1967044   0.0000000), wk =   0.0277778
        k(   28) = (  -0.4258775   0.2458805   0.0000000), wk =   0.0277778
        k(   29) = (   0.4258775   0.2458805   0.0000000), wk =   0.0277778
        k(   30) = (   0.5110530  -0.2950566   0.0000000), wk =   0.0138889
        k(   31) = (  -0.5110530  -0.2950566   0.0000000), wk =   0.0138889
        k(   32) = (  -0.0851755   0.1475283   0.0000000), wk =   0.0277778
        k(   33) = (   0.1703510  -0.0000000   0.0000000), wk =   0.0277778
        k(   34) = (  -0.0851755   0.2458805   0.0000000), wk =   0.0277778
        k(   35) = (  -0.1703510   0.1967044   0.0000000), wk =   0.0277778
        k(   36) = (   0.2555265   0.0491761   0.0000000), wk =   0.0277778
        k(   37) = (  -0.1703510  -0.1967044   0.0000000), wk =   0.0277778
        k(   38) = (   0.2555265  -0.0491761   0.0000000), wk =   0.0277778
        k(   39) = (  -0.0851755   0.3442327   0.0000000), wk =   0.0277778
        k(   40) = (  -0.2555265   0.2458805   0.0000000), wk =   0.0277778
        k(   41) = (   0.3407020   0.0983522   0.0000000), wk =   0.0277778
        k(   42) = (  -0.2555265  -0.2458805   0.0000000), wk =   0.0277778
        k(   43) = (   0.3407020  -0.0983522   0.0000000), wk =   0.0277778
        k(   44) = (  -0.0851755   0.4425849   0.0000000), wk =   0.0277778
        k(   45) = (  -0.3407020   0.2950566   0.0000000), wk =   0.0277778
        k(   46) = (   0.4258775   0.1475283   0.0000000), wk =   0.0277778
        k(   47) = (  -0.3407020  -0.2950566   0.0000000), wk =   0.0277778
        k(   48) = (   0.4258775  -0.1475283   0.0000000), wk =   0.0277778
        k(   49) = (  -0.0851755   0.5409371   0.0000000), wk =   0.0277778
        k(   50) = (  -0.4258775   0.3442327   0.0000000), wk =   0.0277778
        k(   51) = (   0.5110530   0.1967044   0.0000000), wk =   0.0277778
        k(   52) = (  -0.4258775  -0.3442327   0.0000000), wk =   0.0277778
        k(   53) = (   0.5110530  -0.1967044   0.0000000), wk =   0.0277778
        k(   54) = (  -0.1703510   0.2950566   0.0000000), wk =   0.0277778
        k(   55) = (   0.3407020  -0.0000000   0.0000000), wk =   0.0277778
        k(   56) = (  -0.1703510   0.3934088   0.0000000), wk =   0.0277778
        k(   57) = (  -0.2555265   0.3442327   0.0000000), wk =   0.0277778
        k(   58) = (   0.4258775   0.0491761   0.0000000), wk =   0.0277778
        k(   59) = (  -0.2555265  -0.3442327   0.0000000), wk =   0.0277778
        k(   60) = (   0.4258775  -0.0491761   0.0000000), wk =   0.0277778
        k(   61) = (  -0.1703510   0.4917610   0.0000000), wk =   0.0277778
        k(   62) = (  -0.3407020   0.3934088   0.0000000), wk =   0.0277778
        k(   63) = (   0.5110530   0.0983522   0.0000000), wk =   0.0277778
        k(   64) = (  -0.3407020  -0.3934088   0.0000000), wk =   0.0277778
        k(   65) = (   0.5110530  -0.0983522   0.0000000), wk =   0.0277778
        k(   66) = (  -0.4258775   0.4425849   0.0000000), wk =   0.0277778
        k(   67) = (   0.5962286   0.1475283   0.0000000), wk =   0.0277778
        k(   68) = (  -0.2555265   0.4425849   0.0000000), wk =   0.0277778
        k(   69) = (   0.5110530  -0.0000000   0.0000000), wk =   0.0277778
        k(   70) = (  -0.2555265   0.5409371   0.0000000), wk =   0.0277778
        k(   71) = (  -0.3407020   0.4917610   0.0000000), wk =   0.0277778
        k(   72) = (   0.5962286   0.0491761   0.0000000), wk =   0.0277778
        k(   73) = (  -0.3407020  -0.4917610   0.0000000), wk =   0.0277778
        k(   74) = (   0.5962286  -0.0491761   0.0000000), wk =   0.0277778

     Dense  grid:   319409 G-vectors     FFT dimensions: (  50,  50, 300)

     Smooth grid:    81045 G-vectors     FFT dimensions: (  32,  32, 192)

     Estimated max dynamical RAM per process >       1.75 GB

     Estimated total dynamical RAM >       3.50 GB

     Initial potential from superposition of free atoms

     starting charge   71.99842, renormalised to   72.00000

     negative rho (up, down):  7.789E-05 0.000E+00
     Starting wfcs are   46 randomized atomic wfcs

     total cpu time spent up to now is       10.9 secs

     Self-consistent Calculation

     iteration #  1     ecut=    70.00 Ry     beta= 0.70
     CG style diagonalization
     ethr =  1.00E-02,  avg # of iterations =  2.2

     total cpu time spent up to now is       28.4 secs

     total energy              =   -1470.01493342 Ry
     estimated scf accuracy    <       1.20528329 Ry

     iteration #  2     ecut=    70.00 Ry     beta= 0.70
     CG style diagonalization
     ethr =  1.67E-03,  avg # of iterations =  3.6

     total cpu time spent up to now is       51.5 secs

     total energy              =   -1469.69944566 Ry
     estimated scf accuracy    <       4.37846620 Ry

     iteration #  3     ecut=    70.00 Ry     beta= 0.70
     CG style diagonalization
     ethr =  1.67E-03,  avg # of iterations =  3.6

     negative rho (up, down):  1.170E-08 0.000E+00

     total cpu time spent up to now is       74.6 secs

     total energy              =   -1470.65765947 Ry
     estimated scf accuracy    <       0.34445059 Ry

     iteration #  4     ecut=    70.00 Ry     beta= 0.70
     CG style diagonalization
     ethr =  4.78E-04,  avg # of iterations =  3.5

     negative rho (up, down):  7.825E-08 0.000E+00

     total cpu time spent up to now is       96.8 secs

     total energy              =   -1470.72170645 Ry
     estimated scf accuracy    <       0.10787784 Ry

     iteration #  5     ecut=    70.00 Ry     beta= 0.70
     CG style diagonalization
     ethr =  1.50E-04,  avg # of iterations =  3.1

     negative rho (up, down):  6.378E-06 0.000E+00

     total cpu time spent up to now is      116.5 secs

     total energy              =   -1470.72676342 Ry
     estimated scf accuracy    <       0.15283291 Ry

     iteration #  6     ecut=    70.00 Ry     beta= 0.70
     CG style diagonalization
     ethr =  1.50E-04,  avg # of iterations =  3.0

     negative rho (up, down):  8.330E-05 0.000E+00

     total cpu time spent up to now is      135.7 secs

     total energy              =   -1470.73191053 Ry
     estimated scf accuracy    <       0.00397008 Ry

     iteration #  7     ecut=    70.00 Ry     beta= 0.70
     CG style diagonalization
     ethr =  5.51E-06,  avg # of iterations =  4.2

     negative rho (up, down):  9.048E-05 0.000E+00

     total cpu time spent up to now is      162.1 secs

     total energy              =   -1470.73368090 Ry
     estimated scf accuracy    <       0.00169096 Ry

     iteration #  8     ecut=    70.00 Ry     beta= 0.70
     CG style diagonalization
     ethr =  2.35E-06,  avg # of iterations =  4.2

     negative rho (up, down):  8.891E-05 0.000E+00

     total cpu time spent up to now is      189.0 secs

     total energy              =   -1470.73410784 Ry
     estimated scf accuracy    <       0.00128749 Ry

     iteration #  9     ecut=    70.00 Ry     beta= 0.70
     CG style diagonalization
     ethr =  1.79E-06,  avg # of iterations =  3.2

     negative rho (up, down):  8.218E-05 0.000E+00

     total cpu time spent up to now is      208.9 secs

     total energy              =   -1470.73384744 Ry
     estimated scf accuracy    <       0.00084994 Ry

     iteration # 10     ecut=    70.00 Ry     beta= 0.70
     CG style diagonalization
     ethr =  1.18E-06,  avg # of iterations =  3.3

     negative rho (up, down):  8.163E-05 0.000E+00

     total cpu time spent up to now is      229.6 secs

     total energy              =   -1470.73397664 Ry
     estimated scf accuracy    <       0.00003866 Ry

     iteration # 11     ecut=    70.00 Ry     beta= 0.70
     CG style diagonalization
     ethr =  5.37E-08,  avg # of iterations =  4.3

     negative rho (up, down):  8.266E-05 0.000E+00

     total cpu time spent up to now is      257.4 secs

     total energy              =   -1470.73402432 Ry
     estimated scf accuracy    <       0.00001541 Ry

     iteration # 12     ecut=    70.00 Ry     beta= 0.70
     CG style diagonalization
     ethr =  2.14E-08,  avg # of iterations =  3.8

     negative rho (up, down):  8.291E-05 0.000E+00

     total cpu time spent up to now is      280.7 secs

     total energy              =   -1470.73402528 Ry
     estimated scf accuracy    <       0.00000988 Ry

     iteration # 13     ecut=    70.00 Ry     beta= 0.70
     CG style diagonalization
     ethr =  1.37E-08,  avg # of iterations =  3.4

     negative rho (up, down):  8.484E-05 0.000E+00

     total cpu time spent up to now is      302.2 secs

     total energy              =   -1470.73402682 Ry
     estimated scf accuracy    <       0.00000160 Ry

     iteration # 14     ecut=    70.00 Ry     beta= 0.70
     CG style diagonalization
     ethr =  2.23E-09,  avg # of iterations =  4.3

     negative rho (up, down):  8.473E-05 0.000E+00

     total cpu time spent up to now is      329.3 secs

     total energy              =   -1470.73402788 Ry
     estimated scf accuracy    <       0.00000117 Ry

     iteration # 15     ecut=    70.00 Ry     beta= 0.70
     CG style diagonalization
     ethr =  1.63E-09,  avg # of iterations =  3.4

     negative rho (up, down):  8.455E-05 0.000E+00

     total cpu time spent up to now is      350.4 secs

     total energy              =   -1470.73402797 Ry
     estimated scf accuracy    <       0.00000092 Ry

     iteration # 16     ecut=    70.00 Ry     beta= 0.70
     CG style diagonalization
     ethr =  1.28E-09,  avg # of iterations =  3.3

     negative rho (up, down):  8.471E-05 0.000E+00

     total cpu time spent up to now is      371.1 secs

     total energy              =   -1470.73402805 Ry
     estimated scf accuracy    <       0.00000032 Ry

     iteration # 17     ecut=    70.00 Ry     beta= 0.70
     CG style diagonalization
     ethr =  4.42E-10,  avg # of iterations =  3.5

     negative rho (up, down):  8.478E-05 0.000E+00

     total cpu time spent up to now is      392.6 secs

     total energy              =   -1470.73402815 Ry
     estimated scf accuracy    <       0.00000004 Ry

     iteration # 18     ecut=    70.00 Ry     beta= 0.70
     CG style diagonalization
     ethr =  5.62E-11,  avg # of iterations =  4.5

     negative rho (up, down):  8.482E-05 0.000E+00

     total cpu time spent up to now is      420.0 secs

     total energy              =   -1470.73402823 Ry
     estimated scf accuracy    <          9.2E-09 Ry

     iteration # 19     ecut=    70.00 Ry     beta= 0.70
     CG style diagonalization
     ethr =  1.27E-11,  avg # of iterations =  4.7

     negative rho (up, down):  8.483E-05 0.000E+00

     total cpu time spent up to now is      448.8 secs

     total energy              =   -1470.73402825 Ry
     estimated scf accuracy    <          2.1E-09 Ry

     iteration # 20     ecut=    70.00 Ry     beta= 0.70
     CG style diagonalization
     c_bands:  1 eigenvalues not converged
     c_bands:  1 eigenvalues not converged
     c_bands:  1 eigenvalues not converged
     c_bands:  1 eigenvalues not converged
     c_bands:  1 eigenvalues not converged
     c_bands:  1 eigenvalues not converged
     c_bands:  1 eigenvalues not converged
     c_bands:  1 eigenvalues not converged
     ethr =  2.91E-12,  avg # of iterations =  4.7

     negative rho (up, down):  8.482E-05 0.000E+00

     total cpu time spent up to now is      477.6 secs

     total energy              =   -1470.73402827 Ry
     estimated scf accuracy    <          2.5E-10 Ry

     iteration # 21     ecut=    70.00 Ry     beta= 0.70
     CG style diagonalization
     c_bands:  1 eigenvalues not converged
     c_bands:  1 eigenvalues not converged
     c_bands:  1 eigenvalues not converged
     c_bands:  2 eigenvalues not converged
     c_bands:  1 eigenvalues not converged
     c_bands:  1 eigenvalues not converged
     c_bands:  1 eigenvalues not converged
     c_bands:  1 eigenvalues not converged
     c_bands:  1 eigenvalues not converged
     c_bands:  1 eigenvalues not converged
     c_bands:  1 eigenvalues not converged
     c_bands:  1 eigenvalues not converged
     c_bands:  1 eigenvalues not converged
     c_bands:  1 eigenvalues not converged
     c_bands:  1 eigenvalues not converged
     c_bands:  1 eigenvalues not converged
     c_bands:  1 eigenvalues not converged
     c_bands:  1 eigenvalues not converged
     ethr =  3.48E-13,  avg # of iterations =  5.8

     negative rho (up, down):  8.482E-05 0.000E+00

     total cpu time spent up to now is      513.3 secs

     total energy              =   -1470.73402828 Ry
     estimated scf accuracy    <          9.7E-11 Ry

     iteration # 22     ecut=    70.00 Ry     beta= 0.70
     CG style diagonalization
     c_bands:  1 eigenvalues not converged
     c_bands:  1 eigenvalues not converged
     c_bands:  1 eigenvalues not converged
     c_bands:  1 eigenvalues not converged
     c_bands:  1 eigenvalues not converged
     c_bands:  1 eigenvalues not converged
     c_bands:  1 eigenvalues not converged
     c_bands:  1 eigenvalues not converged
     ethr =  1.35E-13,  avg # of iterations =  4.8

     negative rho (up, down):  8.482E-05 0.000E+00

     total cpu time spent up to now is      542.5 secs

     total energy              =   -1470.73402828 Ry
     estimated scf accuracy    <          2.9E-11 Ry

     iteration # 23     ecut=    70.00 Ry     beta= 0.70
     CG style diagonalization
     c_bands:  1 eigenvalues not converged
     ethr =  1.00E-13,  avg # of iterations =  3.9

     negative rho (up, down):  8.482E-05 0.000E+00

     total cpu time spent up to now is      566.8 secs

     total energy              =   -1470.73402828 Ry
     estimated scf accuracy    <          1.3E-12 Ry

     iteration # 24     ecut=    70.00 Ry     beta= 0.70
     CG style diagonalization
     c_bands:  1 eigenvalues not converged
     ethr =  1.00E-13,  avg # of iterations =  3.4

     negative rho (up, down):  8.481E-05 0.000E+00

     total cpu time spent up to now is      587.8 secs

     total energy              =   -1470.73402828 Ry
     estimated scf accuracy    <          3.0E-12 Ry

     iteration # 25     ecut=    70.00 Ry     beta= 0.70
     CG style diagonalization
     ethr =  1.00E-13,  avg # of iterations =  3.2

     negative rho (up, down):  8.482E-05 0.000E+00

     total cpu time spent up to now is      608.2 secs

     total energy              =   -1470.73402828 Ry
     estimated scf accuracy    <          1.8E-12 Ry

     iteration # 26     ecut=    70.00 Ry     beta= 0.70
     CG style diagonalization
     ethr =  1.00E-13,  avg # of iterations =  3.2

     negative rho (up, down):  8.481E-05 0.000E+00

     total cpu time spent up to now is      627.8 secs

     End of self-consistent calculation

          k = 0.0000 0.0000 0.0000 ( 10193 PWs)   bands (ev):

   -64.6952 -64.6796 -31.5322 -31.2452 -30.8419 -30.8381 -30.8194 -30.8146
   -21.6288 -21.6078 -16.3573 -16.3557 -16.3546 -16.3520 -16.3415 -16.3403
   -16.3336 -16.3316 -16.3223 -16.3201 -16.3154 -16.3125 -16.2649 -16.2644
    -8.7462  -4.7442  -3.4718  -3.0437  -2.9574  -2.9513  -2.8640  -1.2196
     1.1584   1.2123   2.3455   3.8411   3.9070   5.3732   5.7088   5.8447
     5.9812   6.0566   6.1757

          k = 0.0000 0.0984 0.0000 ( 10153 PWs)   bands (ev):

   -64.6919 -64.6768 -31.5179 -31.2408 -30.8887 -30.8683 -30.8530 -30.8248
   -21.6132 -21.5952 -16.3578 -16.3560 -16.3520 -16.3499 -16.3410 -16.3394
   -16.3344 -16.3325 -16.3228 -16.3209 -16.3134 -16.3106 -16.2676 -16.2672
    -8.6484  -4.6056  -3.5580  -3.0668  -3.0333  -2.9504  -2.9288  -1.1505
     0.8060   1.1758   2.4949   3.6198   4.0439   5.2875   5.5151   5.7611
     5.8652   6.2958   6.6509

          k = 0.0000 0.1967 0.0000 ( 10113 PWs)   bands (ev):

   -64.6830 -64.6691 -31.4781 -31.2342 -31.0191 -30.9990 -30.8868 -30.8504
   -21.5733 -21.5622 -16.3590 -16.3529 -16.3490 -16.3451 -16.3398 -16.3377
   -16.3364 -16.3334 -16.3259 -16.3218 -16.3074 -16.3052 -16.2750 -16.2746
    -8.3809  -4.2631  -3.6864  -3.4062  -3.0670  -3.0248  -2.9770  -1.0338
     0.0552   1.1133   2.4869   3.4783   4.5787   4.9451   5.2950   5.9113
     6.1293   6.6418   7.4726

          k = 0.0000 0.2951 0.0000 ( 10107 PWs)   bands (ev):

   -64.6706 -64.6588 -31.4239 -31.2737 -31.1814 -31.1342 -30.9312 -30.8862
   -21.5243 -21.5206 -16.3590 -16.3494 -16.3459 -16.3426 -16.3393 -16.3382
   -16.3356 -16.3315 -16.3300 -16.3223 -16.2991 -16.2975 -16.2846 -16.2835
    -8.0101  -4.0024  -3.7173  -3.6803  -3.3684  -3.0777  -3.0353  -0.9406
    -0.6524   1.0356   1.9190   4.1425   4.7624   5.2903   5.4347   6.3570
     6.6353   6.9217   8.2310

          k = 0.0000 0.3934 0.0000 ( 10075 PWs)   bands (ev):

   -64.6581 -64.6487 -31.4267 -31.3870 -31.3147 -31.1558 -30.9746 -30.9224
   -21.4830 -21.4804 -16.3583 -16.3488 -16.3441 -16.3433 -16.3391 -16.3385
   -16.3336 -16.3310 -16.3284 -16.3221 -16.2936 -16.2915 -16.2906 -16.2894
    -7.6175  -4.1816  -3.9223  -3.6966  -3.4736  -3.1489  -3.0902  -1.2386
    -0.7248   0.9529   1.3657   4.5007   5.2855   5.8624   6.4564   7.0058
     7.1522   7.2070   8.6601

          k = 0.0000 0.4918 0.0000 ( 10102 PWs)   bands (ev):

   -64.6486 -64.6416 -31.5434 -31.4850 -31.2917 -31.1556 -31.0058 -30.9490
   -21.4573 -21.4520 -16.3576 -16.3497 -16.3452 -16.3442 -16.3392 -16.3384
   -16.3318 -16.3292 -16.3263 -16.3211 -16.2996 -16.2962 -16.2847 -16.2836
    -7.2888  -4.5326  -4.2239  -3.6036  -3.3837  -3.2122  -3.1319  -1.6099
    -0.5298   0.8474   1.0400   4.3552   6.4566   6.8350   7.1709   7.4193
     7.6172   8.0014   8.6525

          k = 0.0000-0.5901 0.0000 ( 10114 PWs)   bands (ev):

   -64.6450 -64.6391 -31.5879 -31.5271 -31.2728 -31.1566 -31.0171 -30.9587
   -21.4484 -21.4422 -16.3575 -16.3495 -16.3466 -16.3450 -16.3391 -16.3379
   -16.3311 -16.3284 -16.3256 -16.3205 -16.3017 -16.2978 -16.2824 -16.2814
    -7.1483  -4.7335  -4.2902  -3.6033  -3.3000  -3.2366  -3.1477  -1.7699
    -0.4386   0.7644   0.9690   4.2953   6.9836   7.1822   7.7059   7.8857
     7.9054   8.3240   8.3977

          k = 0.0852 0.1475 0.0000 ( 10135 PWs)   bands (ev):

   -64.6858 -64.6715 -31.4914 -31.2343 -30.9687 -30.9651 -30.8750 -30.8470
   -21.5857 -21.5723 -16.3590 -16.3535 -16.3492 -16.3470 -16.3404 -16.3375
   -16.3351 -16.3348 -16.3239 -16.3225 -16.3094 -16.3069 -16.2725 -16.2724
    -8.4647  -4.3635  -3.6512  -3.2873  -3.0469  -3.0419  -2.9597  -1.0543
     0.3026   1.0677   2.7156   3.3062   4.3833   5.0680   5.2562   5.9763
     6.1474   6.2500   7.3656

          k = 0.0852 0.2459 0.0000 ( 10109 PWs)   bands (ev):

   -64.6752 -64.6625 -31.4443 -31.2402 -31.1169 -31.0921 -30.9208 -30.8854
   -21.5414 -21.5349 -16.3595 -16.3504 -16.3459 -16.3429 -16.3403 -16.3370
   -16.3357 -16.3341 -16.3278 -16.3229 -16.3022 -16.3003 -16.2811 -16.2807
    -8.1449  -4.0143  -3.7177  -3.6156  -3.2924  -3.0751  -2.9916  -0.9489
    -0.3725   0.8188   2.5844   3.4672   4.6474   5.3498   5.4033   6.0689
     6.3421   6.7156   8.2557

          k = 0.0852 0.3442 0.0000 ( 10105 PWs)   bands (ev):

   -64.6628 -64.6523 -31.3965 -31.3353 -31.2690 -31.1531 -30.9740 -30.9284
   -21.4959 -21.4945 -16.3592 -16.3484 -16.3435 -16.3428 -16.3399 -16.3363
   -16.3345 -16.3318 -16.3294 -16.3232 -16.2938 -16.2925 -16.2906 -16.2893
    -7.7632  -4.0049  -3.7575  -3.7123  -3.5421  -3.1346  -3.0768  -1.0157
    -0.7820   0.5569   2.1289   4.2718   4.6461   5.5291   6.3449   6.6763
     6.7883   7.1525   8.8365

          k = 0.0852 0.4426 0.0000 ( 10092 PWs)   bands (ev):

   -64.6517 -64.6437 -31.4801 -31.4300 -31.3049 -31.1568 -31.0185 -30.9658
   -21.4636 -21.4595 -16.3585 -16.3489 -16.3441 -16.3424 -16.3397 -16.3373
   -16.3321 -16.3303 -16.3272 -16.3224 -16.2984 -16.2958 -16.2865 -16.2855
    -7.4006  -4.2775  -4.1246  -3.6153  -3.4612  -3.1934  -3.1534  -1.4428
    -0.6079   0.3233   1.7997   4.5260   5.3601   6.1090   6.9248   7.3741
     7.5193   7.8706   8.9219

          k = 0.0852 0.5409 0.0000 ( 10099 PWs)   bands (ev):

   -64.6450 -64.6391 -31.5606 -31.5026 -31.2726 -31.1593 -31.0428 -30.9877
   -21.4464 -21.4408 -16.3580 -16.3488 -16.3457 -16.3439 -16.3398 -16.3368
   -16.3311 -16.3293 -16.3255 -16.3211 -16.3025 -16.2991 -16.2825 -16.2816
    -7.1552  -4.5937  -4.2604  -3.5666  -3.3919  -3.2341  -3.1802  -1.7045
    -0.4605   0.1853   1.6330   4.4165   6.4062   6.9413   7.0908   7.4444
     8.0733   8.5047   9.1265

          k = 0.1704 0.2951 0.0000 ( 10108 PWs)   bands (ev):

   -64.6645 -64.6537 -31.3996 -31.2936 -31.2437 -31.1465 -30.9814 -30.9466
   -21.5008 -21.4990 -16.3594 -16.3482 -16.3434 -16.3416 -16.3405 -16.3354
   -16.3352 -16.3327 -16.3292 -16.3237 -16.2949 -16.2935 -16.2895 -16.2890
    -7.8120  -3.8690  -3.7469  -3.6848  -3.5945  -3.1955  -3.0172  -0.8481
    -0.8296   0.2997   3.1309   3.1313   4.6494   5.5703   6.2055   6.5771
     6.6496   7.1582   9.2413

          k = 0.1704 0.3934 0.0000 ( 10088 PWs)   bands (ev):

   -64.6534 -64.6450 -31.4091 -31.3837 -31.3043 -31.1586 -31.0521 -31.0089
   -21.4658 -21.4630 -16.3592 -16.3478 -16.3426 -16.3417 -16.3391 -16.3367
   -16.3327 -16.3318 -16.3270 -16.3238 -16.2980 -16.2968 -16.2876 -16.2867
    -7.4563  -4.0449  -4.0146  -3.5975  -3.4951  -3.3132  -3.1279  -1.2842
    -0.6706  -0.1027   2.7754   3.9758   4.8123   5.5063   6.5648   7.4112
     7.7008   7.8512   9.4529

          k = 0.1704 0.4918 0.0000 ( 10090 PWs)   bands (ev):

   -64.6450 -64.6391 -31.4915 -31.4463 -31.2723 -31.1711 -31.0996 -31.0557
   -21.4425 -21.4381 -16.3590 -16.3475 -16.3433 -16.3414 -16.3398 -16.3363
   -16.3320 -16.3300 -16.3251 -16.3225 -16.3041 -16.3019 -16.2825 -16.2818
    -7.1660  -4.2947  -4.1663  -3.5170  -3.4671  -3.3825  -3.2040  -1.5684
    -0.5273  -0.3483   2.5339   4.7378   5.0853   5.9949   6.8514   7.3798
     8.1478   8.8317   9.6094

          k = 0.1704 0.5901 0.0000 ( 10096 PWs)   bands (ev):

   -64.6416 -64.6371 -31.5247 -31.4718 -31.2506 -31.1844 -31.1097 -31.0749
   -21.4345 -21.4298 -16.3584 -16.3460 -16.3449 -16.3431 -16.3398 -16.3359
   -16.3316 -16.3301 -16.3241 -16.3212 -16.3063 -16.3037 -16.2806 -16.2801
    -7.0428  -4.4203  -4.2071  -3.5068  -3.4458  -3.4314  -3.2011  -1.6625
    -0.5092  -0.3932   2.4460   4.6717   5.8294   6.4328   6.9036   7.1526
     7.8482   8.9128  10.1118

          k = 0.2555 0.4426 0.0000 ( 10096 PWs)   bands (ev):

   -64.6450 -64.6391 -31.4356 -31.4197 -31.2752 -31.1739 -31.1458 -31.0916
   -21.4404 -21.4368 -16.3594 -16.3471 -16.3413 -16.3399 -16.3385 -16.3385
   -16.3327 -16.3297 -16.3243 -16.3241 -16.3047 -16.3036 -16.2825 -16.2819
    -7.1702  -4.1637  -4.0719  -3.4909  -3.4644  -3.4221  -3.3086  -1.4852
    -0.6672  -0.4805   3.4463   3.9454   5.2507   5.2814   6.7374   7.3818
     8.2000   8.9572   9.7920

          k = 0.2555 0.5409 0.0000 ( 10086 PWs)   bands (ev):

   -64.6396 -64.6361 -31.4494 -31.4150 -31.2673 -31.2257 -31.1765 -31.1377
   -21.4261 -21.4227 -16.3592 -16.3456 -16.3419 -16.3406 -16.3389 -16.3360
   -16.3341 -16.3291 -16.3235 -16.3224 -16.3088 -16.3074 -16.2796 -16.2793
    -6.9926  -4.1583  -4.0768  -3.6549  -3.5218  -3.3802  -3.3428  -1.5349
    -0.9348  -0.4375   3.4116   4.9282   5.1017   5.7948   6.6046   6.9847
     7.9294   8.6587  10.1337

          k = 0.3407 0.5901 0.0000 ( 10014 PWs)   bands (ev):

   -64.6368 -64.6357 -31.3772 -31.3737 -31.3511 -31.2700 -31.1833 -31.1664
   -21.4198 -21.4182 -16.3586 -16.3437 -16.3431 -16.3406 -16.3383 -16.3358
   -16.3350 -16.3293 -16.3222 -16.3220 -16.3105 -16.3097 -16.2786 -16.2785
    -6.9249  -4.0235  -3.9374  -3.7472  -3.7458  -3.3512  -3.3500  -1.3246
    -1.3075  -0.4419   3.8965   5.2109   5.2143   5.4308   6.4589   6.4898
     8.1203   8.2533  10.2727

          k =-0.0852 0.0492 0.0000 ( 10153 PWs)   bands (ev):

   -64.6919 -64.6768 -31.5172 -31.2413 -30.8904 -30.8666 -30.8503 -30.8281
   -21.6130 -21.5952 -16.3581 -16.3556 -16.3535 -16.3489 -16.3406 -16.3395
   -16.3349 -16.3317 -16.3237 -16.3201 -16.3133 -16.3106 -16.2677 -16.2673
    -8.6499  -4.6022  -3.5758  -3.1165  -3.0047  -2.9486  -2.8735  -1.1600
     0.8310   1.1205   2.4740   3.6115   4.0922   5.4353   5.5190   5.7272
     5.7971   6.1924   6.7347

          k = 0.0852 0.0492 0.0000 ( 10153 PWs)   bands (ev):

   -64.6919 -64.6768 -31.5179 -31.2408 -30.8887 -30.8683 -30.8531 -30.8248
   -21.6133 -21.5952 -16.3578 -16.3560 -16.3521 -16.3499 -16.3410 -16.3393
   -16.3344 -16.3325 -16.3228 -16.3209 -16.3134 -16.3106 -16.2676 -16.2673
    -8.6484  -4.6056  -3.5580  -3.0669  -3.0332  -2.9503  -2.9289  -1.1505
     0.8060   1.1758   2.4949   3.6199   4.0439   5.2876   5.5150   5.7609
     5.8652   6.2959   6.6508

          k =-0.1704 0.0984 0.0000 ( 10113 PWs)   bands (ev):

   -64.6828 -64.6692 -31.4755 -31.2370 -31.0184 -30.9997 -30.8855 -30.8527
   -21.5726 -21.5623 -16.3593 -16.3533 -16.3505 -16.3447 -16.3390 -16.3373
   -16.3370 -16.3318 -16.3275 -16.3203 -16.3074 -16.3053 -16.2750 -16.2749
    -8.3861  -4.2472  -3.7157  -3.4612  -3.0631  -2.9579  -2.9051  -1.0667
     0.0526   1.0293   2.3909   3.5644   4.6284   5.0730   5.3768   5.8745
     6.1200   6.5044   7.5189

          k = 0.1704 0.0984 0.0000 ( 10113 PWs)   bands (ev):

   -64.6830 -64.6691 -31.4781 -31.2342 -31.0190 -30.9990 -30.8869 -30.8504
   -21.5733 -21.5622 -16.3590 -16.3529 -16.3491 -16.3450 -16.3398 -16.3377
   -16.3364 -16.3334 -16.3259 -16.3218 -16.3074 -16.3052 -16.2749 -16.2746
    -8.3809  -4.2631  -3.6863  -3.4063  -3.0670  -3.0246  -2.9771  -1.0338
     0.0551   1.1133   2.4869   3.4783   4.5787   4.9452   5.2950   5.9113
     6.1293   6.6418   7.4726

          k =-0.2555 0.1475 0.0000 ( 10107 PWs)   bands (ev):

   -64.6704 -64.6590 -31.4187 -31.2813 -31.1842 -31.1299 -30.9306 -30.8877
   -21.5237 -21.5208 -16.3592 -16.3505 -16.3471 -16.3454 -16.3387 -16.3354
   -16.3338 -16.3321 -16.3300 -16.3206 -16.2991 -16.2977 -16.2848 -16.2843
    -8.0186  -3.9847  -3.7551  -3.6970  -3.3566  -2.9962  -2.9566  -0.9898
    -0.6947   0.9230   1.8360   4.2408   4.8705   5.4366   5.4687   6.3517
     6.6233   6.7931   8.2279

          k = 0.2555 0.1475 0.0000 ( 10107 PWs)   bands (ev):

   -64.6706 -64.6588 -31.4239 -31.2737 -31.1814 -31.1342 -30.9313 -30.8862
   -21.5243 -21.5205 -16.3590 -16.3495 -16.3459 -16.3426 -16.3393 -16.3382
   -16.3356 -16.3315 -16.3300 -16.3223 -16.2991 -16.2975 -16.2846 -16.2836
    -8.0101  -4.0024  -3.7171  -3.6805  -3.3684  -3.0777  -3.0353  -0.9405
    -0.6525   1.0356   1.9190   4.1425   4.7625   5.2903   5.4347   6.3570
     6.6353   6.9217   8.2309

          k =-0.3407 0.1967 0.0000 ( 10075 PWs)   bands (ev):

   -64.6576 -64.6491 -31.4334 -31.3874 -31.3098 -31.1548 -30.9744 -30.9235
   -21.4840 -21.4803 -16.3579 -16.3502 -16.3471 -16.3448 -16.3391 -16.3372
   -16.3313 -16.3297 -16.3277 -16.3208 -16.2938 -16.2924 -16.2909 -16.2899
    -7.6246  -4.1918  -3.9303  -3.6872  -3.4505  -3.0637  -3.0091  -1.2587
    -0.8390   0.8044   1.3192   4.6302   5.3796   6.0087   6.4871   6.9070
     7.1348   7.2102   8.6435

          k = 0.3407 0.1967 0.0000 ( 10075 PWs)   bands (ev):

   -64.6581 -64.6487 -31.4267 -31.3870 -31.3147 -31.1558 -30.9746 -30.9224
   -21.4831 -21.4804 -16.3583 -16.3489 -16.3441 -16.3433 -16.3391 -16.3385
   -16.3335 -16.3310 -16.3284 -16.3221 -16.2936 -16.2915 -16.2906 -16.2894
    -7.6175  -4.1815  -3.9224  -3.6965  -3.4736  -3.1489  -3.0901  -1.2386
    -0.7249   0.9529   1.3658   4.5008   5.2855   5.8624   6.4564   7.0058
     7.1522   7.2070   8.6602

          k =-0.4259 0.2459 0.0000 ( 10102 PWs)   bands (ev):

   -64.6477 -64.6423 -31.5496 -31.4932 -31.2737 -31.1606 -31.0059 -30.9498
   -21.4587 -21.4530 -16.3562 -16.3522 -16.3478 -16.3446 -16.3397 -16.3377
   -16.3290 -16.3278 -16.3259 -16.3204 -16.2997 -16.2972 -16.2849 -16.2840
    -7.2879  -4.5482  -4.2327  -3.5711  -3.3603  -3.1265  -3.0493  -1.6484
    -0.6472   0.6502   1.0446   4.4896   6.6070   6.9031   7.0527   7.4360
     7.6785   8.0017   8.6924

          k = 0.4259 0.2459 0.0000 ( 10102 PWs)   bands (ev):

   -64.6486 -64.6416 -31.5433 -31.4850 -31.2917 -31.1556 -31.0058 -30.9490
   -21.4573 -21.4520 -16.3576 -16.3497 -16.3452 -16.3442 -16.3391 -16.3384
   -16.3318 -16.3292 -16.3263 -16.3211 -16.2996 -16.2963 -16.2846 -16.2836
    -7.2888  -4.5326  -4.2240  -3.6036  -3.3837  -3.2122  -3.1319  -1.6100
    -0.5299   0.8474   1.0400   4.3553   6.4566   6.8350   7.1708   7.4194
     7.6172   8.0014   8.6525

          k = 0.5111-0.2951 0.0000 ( 10114 PWs)   bands (ev):

   -64.6438 -64.6401 -31.5938 -31.5362 -31.2494 -31.1663 -31.0173 -30.9595
   -21.4498 -21.4438 -16.3554 -16.3530 -16.3487 -16.3448 -16.3396 -16.3376
   -16.3282 -16.3273 -16.3253 -16.3202 -16.3017 -16.2987 -16.2827 -16.2819
    -7.1410  -4.7582  -4.2942  -3.5712  -3.2675  -3.1504  -3.0646  -1.8178
    -0.5551   0.5636   0.9783   4.4319   7.0866   7.0984   7.7926   7.8813
     7.9475   8.3472   8.5085

          k =-0.5111-0.2951 0.0000 ( 10114 PWs)   bands (ev):

   -64.6450 -64.6391 -31.5878 -31.5272 -31.2728 -31.1566 -31.0172 -30.9587
   -21.4484 -21.4422 -16.3575 -16.3495 -16.3466 -16.3450 -16.3391 -16.3379
   -16.3311 -16.3285 -16.3256 -16.3205 -16.3017 -16.2978 -16.2824 -16.2815
    -7.1483  -4.7335  -4.2903  -3.6034  -3.3000  -3.2367  -3.1477  -1.7699
    -0.4387   0.7644   0.9690   4.2953   6.9836   7.1821   7.7060   7.8856
     7.9054   8.3242   8.3978

          k =-0.0852 0.1475 0.0000 ( 10135 PWs)   bands (ev):

   -64.6858 -64.6716 -31.4895 -31.2361 -30.9725 -30.9622 -30.8720 -30.8499
   -21.5852 -21.5724 -16.3587 -16.3544 -16.3508 -16.3457 -16.3396 -16.3381
   -16.3367 -16.3323 -16.3258 -16.3206 -16.3093 -16.3070 -16.2728 -16.2725
    -8.4680  -4.3534  -3.6773  -3.3422  -3.0487  -2.9713  -2.9032  -1.0785
     0.3126   0.9915   2.6659   3.3024   4.4297   5.2181   5.4427   5.8385
     6.0657   6.1299   7.4988

          k = 0.1704-0.0000 0.0000 ( 10135 PWs)   bands (ev):

   -64.6858 -64.6716 -31.4895 -31.2361 -30.9724 -30.9624 -30.8721 -30.8499
   -21.5852 -21.5724 -16.3587 -16.3544 -16.3508 -16.3457 -16.3396 -16.3381
   -16.3367 -16.3322 -16.3258 -16.3207 -16.3093 -16.3070 -16.2728 -16.2725
    -8.4680  -4.3534  -3.6773  -3.3423  -3.0488  -2.9710  -2.9034  -1.0785
     0.3126   0.9916   2.6659   3.3024   4.4297   5.2183   5.4426   5.8382
     6.0659   6.1301   7.4989

          k =-0.0852 0.2459 0.0000 ( 10109 PWs)   bands (ev):

   -64.6751 -64.6626 -31.4417 -31.2447 -31.1180 -31.0914 -30.9182 -30.8865
   -21.5411 -21.5353 -16.3586 -16.3514 -16.3473 -16.3420 -16.3401 -16.3383
   -16.3361 -16.3317 -16.3292 -16.3213 -16.3021 -16.3004 -16.2814 -16.2808
    -8.1468  -4.0021  -3.7315  -3.6410  -3.2763  -3.0421  -2.9512  -0.9826
    -0.3728   0.7717   2.5789   3.3736   4.6856   5.3954   5.5419   6.0585
     6.2993   6.6792   8.3463

          k =-0.1704 0.1967 0.0000 ( 10109 PWs)   bands (ev):

   -64.6750 -64.6627 -31.4397 -31.2476 -31.1178 -31.0905 -30.9183 -30.8873
   -21.5407 -21.5354 -16.3589 -16.3517 -16.3478 -16.3438 -16.3393 -16.3365
   -16.3358 -16.3316 -16.3296 -16.3206 -16.3021 -16.3005 -16.2813 -16.2812
    -8.1508  -3.9871  -3.7450  -3.6670  -3.2709  -2.9995  -2.9220  -1.0044
    -0.3842   0.7299   2.4661   3.4954   4.7431   5.4742   5.5701   6.0489
     6.2201   6.6549   8.3423

          k = 0.2555 0.0492 0.0000 ( 10109 PWs)   bands (ev):

   -64.6751 -64.6626 -31.4417 -31.2447 -31.1179 -31.0915 -30.9183 -30.8865
   -21.5411 -21.5353 -16.3586 -16.3514 -16.3473 -16.3420 -16.3401 -16.3383
   -16.3361 -16.3317 -16.3292 -16.3213 -16.3021 -16.3004 -16.2814 -16.2808
    -8.1468  -4.0021  -3.7314  -3.6411  -3.2763  -3.0420  -2.9513  -0.9826
    -0.3729   0.7718   2.5789   3.3736   4.6856   5.3953   5.5420   6.0585
     6.2993   6.6792   8.3466

          k =-0.1704-0.1967 0.0000 ( 10109 PWs)   bands (ev):

   -64.6752 -64.6625 -31.4443 -31.2402 -31.1169 -31.0921 -30.9208 -30.8854
   -21.5414 -21.5349 -16.3595 -16.3504 -16.3459 -16.3429 -16.3403 -16.3370
   -16.3357 -16.3341 -16.3278 -16.3229 -16.3022 -16.3003 -16.2811 -16.2807
    -8.1449  -4.0143  -3.7176  -3.6156  -3.2924  -3.0751  -2.9916  -0.9489
    -0.3725   0.8187   2.5844   3.4672   4.6475   5.3498   5.4032   6.0689
     6.3421   6.7156   8.2559

          k = 0.2555-0.0492 0.0000 ( 10109 PWs)   bands (ev):

   -64.6750 -64.6627 -31.4397 -31.2476 -31.1178 -31.0906 -30.9183 -30.8873
   -21.5407 -21.5354 -16.3589 -16.3517 -16.3478 -16.3438 -16.3393 -16.3365
   -16.3358 -16.3316 -16.3296 -16.3206 -16.3021 -16.3005 -16.2813 -16.2812
    -8.1508  -3.9871  -3.7449  -3.6670  -3.2709  -2.9993  -2.9221  -1.0044
    -0.3842   0.7300   2.4661   3.4954   4.7431   5.4742   5.5702   6.0488
     6.2202   6.6549   8.3424

          k =-0.0852 0.3442 0.0000 ( 10105 PWs)   bands (ev):

   -64.6626 -64.6525 -31.3950 -31.3395 -31.2691 -31.1529 -30.9715 -30.9288
   -21.4964 -21.4949 -16.3579 -16.3484 -16.3455 -16.3423 -16.3402 -16.3375
   -16.3345 -16.3326 -16.3283 -16.3214 -16.2939 -16.2926 -16.2909 -16.2894
    -7.7604  -4.0051  -3.7575  -3.7093  -3.5408  -3.1146  -3.0586  -1.0175
    -0.8074   0.5532   2.1092   4.1692   4.6662   5.4167   6.5106   6.6093
     6.9343   7.1787   8.8625

          k =-0.2555 0.2459 0.0000 ( 10105 PWs)   bands (ev):

   -64.6624 -64.6527 -31.3931 -31.3418 -31.2719 -31.1498 -30.9724 -30.9293
   -21.4967 -21.4946 -16.3580 -16.3495 -16.3464 -16.3449 -16.3394 -16.3361
   -16.3331 -16.3313 -16.3283 -16.3207 -16.2939 -16.2928 -16.2909 -16.2902
    -7.7676  -4.0179  -3.7695  -3.7009  -3.5232  -3.0533  -3.0046  -1.0169
    -0.8943   0.4833   2.0057   4.2931   4.7502   5.5854   6.4916   6.5244
     6.9124   7.1440   8.8481

          k = 0.3407 0.0984 0.0000 ( 10105 PWs)   bands (ev):

   -64.6626 -64.6525 -31.3950 -31.3395 -31.2691 -31.1529 -30.9715 -30.9288
   -21.4964 -21.4949 -16.3579 -16.3484 -16.3456 -16.3423 -16.3402 -16.3375
   -16.3345 -16.3326 -16.3283 -16.3214 -16.2939 -16.2926 -16.2909 -16.2894
    -7.7604  -4.0051  -3.7577  -3.7091  -3.5408  -3.1146  -3.0586  -1.0174
    -0.8076   0.5532   2.1091   4.1692   4.6662   5.4167   6.5106   6.6093
     6.9342   7.1787   8.8621

          k =-0.2555-0.2459 0.0000 ( 10105 PWs)   bands (ev):

   -64.6628 -64.6523 -31.3965 -31.3353 -31.2690 -31.1531 -30.9740 -30.9284
   -21.4960 -21.4944 -16.3591 -16.3484 -16.3435 -16.3429 -16.3399 -16.3363
   -16.3345 -16.3318 -16.3294 -16.3232 -16.2938 -16.2925 -16.2906 -16.2893
    -7.7632  -4.0050  -3.7576  -3.7121  -3.5421  -3.1346  -3.0767  -1.0156
    -0.7822   0.5569   2.1289   4.2718   4.6461   5.5291   6.3449   6.6763
     6.7884   7.1525   8.8363

          k = 0.3407-0.0984 0.0000 ( 10105 PWs)   bands (ev):

   -64.6624 -64.6527 -31.3931 -31.3418 -31.2719 -31.1498 -30.9724 -30.9293
   -21.4967 -21.4946 -16.3580 -16.3495 -16.3464 -16.3449 -16.3394 -16.3361
   -16.3331 -16.3313 -16.3283 -16.3207 -16.2939 -16.2928 -16.2909 -16.2902
    -7.7676  -4.0179  -3.7696  -3.7008  -3.5232  -3.0533  -3.0046  -1.0170
    -0.8944   0.4833   2.0056   4.2931   4.7502   5.5854   6.4916   6.5246
     6.9124   7.1439   8.8484

          k =-0.0852 0.4426 0.0000 ( 10092 PWs)   bands (ev):

   -64.6515 -64.6439 -31.4823 -31.4324 -31.3009 -31.1585 -31.0162 -30.9660
   -21.4642 -21.4600 -16.3573 -16.3487 -16.3446 -16.3429 -16.3407 -16.3376
   -16.3331 -16.3307 -16.3262 -16.3210 -16.2985 -16.2960 -16.2866 -16.2856
    -7.3935  -4.2820  -4.1166  -3.6171  -3.4698  -3.1832  -3.1440  -1.4329
    -0.6287   0.3437   1.7770   4.5187   5.2572   6.0107   6.9066   7.3466
     7.7003   8.0179   8.9408

          k =-0.3407 0.2951 0.0000 ( 10092 PWs)   bands (ev):

   -64.6510 -64.6443 -31.4878 -31.4375 -31.2903 -31.1587 -31.0178 -30.9662
   -21.4651 -21.4604 -16.3565 -16.3511 -16.3464 -16.3440 -16.3403 -16.3373
   -16.3306 -16.3285 -16.3263 -16.3205 -16.2985 -16.2969 -16.2868 -16.2859
    -7.3977  -4.2911  -4.1347  -3.5917  -3.4395  -3.1095  -3.0829  -1.4672
    -0.7221   0.2599   1.6784   4.6306   5.3806   6.1599   6.8210   7.3988
     7.6101   8.0047   8.9582

          k = 0.4259 0.1475 0.0000 ( 10092 PWs)   bands (ev):

   -64.6515 -64.6439 -31.4823 -31.4324 -31.3009 -31.1585 -31.0162 -30.9660
   -21.4642 -21.4600 -16.3572 -16.3487 -16.3447 -16.3429 -16.3407 -16.3376
   -16.3331 -16.3307 -16.3261 -16.3210 -16.2985 -16.2960 -16.2866 -16.2856
    -7.3935  -4.2820  -4.1166  -3.6172  -3.4698  -3.1832  -3.1440  -1.4329
    -0.6288   0.3438   1.7769   4.5187   5.2572   6.0107   6.9066   7.3466
     7.7004   8.0179   8.9409

          k =-0.3407-0.2951 0.0000 ( 10092 PWs)   bands (ev):

   -64.6517 -64.6437 -31.4801 -31.4300 -31.3049 -31.1568 -31.0185 -30.9658
   -21.4635 -21.4595 -16.3585 -16.3489 -16.3441 -16.3425 -16.3397 -16.3373
   -16.3321 -16.3303 -16.3272 -16.3224 -16.2983 -16.2958 -16.2865 -16.2855
    -7.4006  -4.2774  -4.1246  -3.6153  -3.4612  -3.1934  -3.1534  -1.4428
    -0.6080   0.3233   1.7997   4.5260   5.3601   6.1090   6.9247   7.3741
     7.5193   7.8706   8.9217

          k = 0.4259-0.1475 0.0000 ( 10092 PWs)   bands (ev):

   -64.6510 -64.6443 -31.4878 -31.4375 -31.2903 -31.1587 -31.0178 -30.9662
   -21.4651 -21.4604 -16.3565 -16.3511 -16.3464 -16.3440 -16.3403 -16.3372
   -16.3306 -16.3285 -16.3263 -16.3206 -16.2985 -16.2969 -16.2868 -16.2860
    -7.3977  -4.2911  -4.1347  -3.5917  -3.4395  -3.1095  -3.0829  -1.4672
    -0.7221   0.2599   1.6784   4.6306   5.3805   6.1599   6.8210   7.3989
     7.6102   8.0047   8.9583

          k =-0.0852 0.5409 0.0000 ( 10099 PWs)   bands (ev):

   -64.6449 -64.6391 -31.5614 -31.5034 -31.2708 -31.1606 -31.0418 -30.9878
   -21.4467 -21.4410 -16.3575 -16.3487 -16.3455 -16.3446 -16.3399 -16.3371
   -16.3316 -16.3292 -16.3251 -16.3206 -16.3026 -16.2991 -16.2825 -16.2816
    -7.1508  -4.5986  -4.2553  -3.5675  -3.4007  -3.2313  -3.1736  -1.6995
    -0.4681   0.1978   1.6235   4.4091   6.3509   6.8823   7.0974   7.4204
     8.1240   8.5837   9.1912

          k =-0.4259 0.3442 0.0000 ( 10099 PWs)   bands (ev):

   -64.6439 -64.6400 -31.5671 -31.5117 -31.2509 -31.1669 -31.0434 -30.9878
   -21.4479 -21.4425 -16.3552 -16.3526 -16.3475 -16.3441 -16.3403 -16.3370
   -16.3288 -16.3280 -16.3248 -16.3203 -16.3025 -16.3000 -16.2827 -16.2820
    -7.1448  -4.6207  -4.2678  -3.5357  -3.3524  -3.1501  -3.1189  -1.7459
    -0.5695   0.1157   1.5217   4.5228   6.4760   6.9527   7.0323   7.4605
     8.1106   8.6030   9.2558

          k = 0.5111 0.1967 0.0000 ( 10099 PWs)   bands (ev):

   -64.6449 -64.6391 -31.5614 -31.5034 -31.2708 -31.1606 -31.0418 -30.9877
   -21.4467 -21.4411 -16.3575 -16.3487 -16.3455 -16.3446 -16.3399 -16.3371
   -16.3316 -16.3293 -16.3251 -16.3206 -16.3026 -16.2992 -16.2825 -16.2816
    -7.1508  -4.5985  -4.2553  -3.5676  -3.4007  -3.2313  -3.1737  -1.6996
    -0.4682   0.1978   1.6235   4.4091   6.3509   6.8823   7.0973   7.4204
     8.1241   8.5837   9.1913

          k =-0.4259-0.3442 0.0000 ( 10099 PWs)   bands (ev):

   -64.6450 -64.6391 -31.5606 -31.5026 -31.2726 -31.1593 -31.0428 -30.9877
   -21.4464 -21.4408 -16.3580 -16.3488 -16.3457 -16.3439 -16.3397 -16.3368
   -16.3311 -16.3294 -16.3255 -16.3211 -16.3025 -16.2991 -16.2824 -16.2816
    -7.1552  -4.5937  -4.2605  -3.5666  -3.3919  -3.2340  -3.1803  -1.7045
    -0.4606   0.1853   1.6330   4.4165   6.4062   6.9413   7.0907   7.4444
     8.0734   8.5048   9.1267

          k = 0.5111-0.1967 0.0000 ( 10099 PWs)   bands (ev):

   -64.6439 -64.6400 -31.5671 -31.5117 -31.2509 -31.1669 -31.0434 -30.9878
   -21.4479 -21.4425 -16.3552 -16.3526 -16.3475 -16.3441 -16.3403 -16.3370
   -16.3288 -16.3280 -16.3248 -16.3203 -16.3025 -16.3000 -16.2827 -16.2820
    -7.1448  -4.6207  -4.2678  -3.5357  -3.3524  -3.1501  -3.1188  -1.7459
    -0.5695   0.1157   1.5217   4.5228   6.4759   6.9527   7.0323   7.4604
     8.1107   8.6030   9.2559

          k =-0.1704 0.2951 0.0000 ( 10108 PWs)   bands (ev):

   -64.6642 -64.6539 -31.3952 -31.3042 -31.2440 -31.1439 -30.9782 -30.9472
   -21.5012 -21.4998 -16.3576 -16.3492 -16.3456 -16.3434 -16.3403 -16.3363
   -16.3343 -16.3330 -16.3282 -16.3208 -16.2950 -16.2938 -16.2900 -16.2894
    -7.8116  -3.8887  -3.7544  -3.6662  -3.5794  -3.1387  -2.9761  -0.9040
    -0.8404   0.2583   2.9763   3.1331   4.7534   5.4736   6.2117   6.6782
     6.8034   7.1557   9.3529

          k = 0.3407-0.0000 0.0000 ( 10108 PWs)   bands (ev):

   -64.6642 -64.6539 -31.3952 -31.3042 -31.2440 -31.1439 -30.9782 -30.9472
   -21.5012 -21.4998 -16.3576 -16.3492 -16.3456 -16.3434 -16.3403 -16.3363
   -16.3343 -16.3330 -16.3282 -16.3208 -16.2950 -16.2938 -16.2900 -16.2894
    -7.8116  -3.8887  -3.7545  -3.6661  -3.5794  -3.1386  -2.9761  -0.9038
    -0.8407   0.2583   2.9764   3.1331   4.7534   5.4735   6.2118   6.6786
     6.8031   7.1557   9.3483

          k =-0.1704 0.3934 0.0000 ( 10088 PWs)   bands (ev):

   -64.6531 -64.6453 -31.4145 -31.3903 -31.2957 -31.1602 -31.0481 -31.0088
   -21.4672 -21.4638 -16.3568 -16.3472 -16.3446 -16.3437 -16.3397 -16.3378
   -16.3335 -16.3315 -16.3261 -16.3206 -16.2985 -16.2971 -16.2878 -16.2869
    -7.4460  -4.0534  -4.0093  -3.5967  -3.4938  -3.2761  -3.1110  -1.2715
    -0.7183  -0.1042   2.7509   3.8414   4.8617   5.3788   6.5514   7.4380
     7.8461   8.0424   9.4758

          k =-0.2555 0.3442 0.0000 ( 10088 PWs)   bands (ev):

   -64.6529 -64.6455 -31.4178 -31.3904 -31.2936 -31.1580 -31.0506 -31.0080
   -21.4675 -21.4639 -16.3565 -16.3489 -16.3451 -16.3432 -16.3405 -16.3374
   -16.3324 -16.3302 -16.3263 -16.3204 -16.2983 -16.2976 -16.2878 -16.2871
    -7.4484  -4.0618  -4.0197  -3.5863  -3.4786  -3.2385  -3.0904  -1.2889
    -0.7537  -0.1294   2.6307   3.9642   4.8771   5.4852   6.4981   7.4514
     7.8043   8.0453   9.4953

          k = 0.4259 0.0492 0.0000 ( 10088 PWs)   bands (ev):

   -64.6531 -64.6453 -31.4144 -31.3904 -31.2957 -31.1602 -31.0482 -31.0088
   -21.4671 -21.4639 -16.3568 -16.3472 -16.3446 -16.3437 -16.3396 -16.3378
   -16.3335 -16.3315 -16.3261 -16.3206 -16.2985 -16.2971 -16.2878 -16.2870
    -7.4460  -4.0533  -4.0094  -3.5967  -3.4937  -3.2761  -3.1110  -1.2715
    -0.7184  -0.1041   2.7508   3.8414   4.8617   5.3788   6.5514   7.4380
     7.8462   8.0424   9.4776

          k =-0.2555-0.3442 0.0000 ( 10088 PWs)   bands (ev):

   -64.6534 -64.6450 -31.4091 -31.3837 -31.3043 -31.1586 -31.0521 -31.0089
   -21.4658 -21.4630 -16.3592 -16.3478 -16.3426 -16.3417 -16.3390 -16.3367
   -16.3326 -16.3318 -16.3270 -16.3238 -16.2980 -16.2968 -16.2876 -16.2867
    -7.4563  -4.0451  -4.0145  -3.5975  -3.4951  -3.3132  -3.1279  -1.2842
    -0.6706  -0.1026   2.7754   3.9758   4.8123   5.5063   6.5648   7.4112
     7.7007   7.8512   9.4526

          k = 0.4259-0.0492 0.0000 ( 10088 PWs)   bands (ev):

   -64.6529 -64.6455 -31.4177 -31.3905 -31.2936 -31.1580 -31.0506 -31.0080
   -21.4674 -21.4639 -16.3565 -16.3489 -16.3451 -16.3433 -16.3405 -16.3374
   -16.3324 -16.3301 -16.3263 -16.3204 -16.2983 -16.2976 -16.2878 -16.2871
    -7.4484  -4.0616  -4.0199  -3.5863  -3.4786  -3.2385  -3.0904  -1.2890
    -0.7538  -0.1293   2.6307   3.9641   4.8771   5.4852   6.4981   7.4514
     7.8044   8.0451   9.4957

          k =-0.1704 0.4918 0.0000 ( 10090 PWs)   bands (ev):

   -64.6447 -64.6393 -31.4951 -31.4501 -31.2642 -31.1756 -31.0958 -31.0559
   -21.4434 -21.4389 -16.3573 -16.3468 -16.3441 -16.3428 -16.3408 -16.3371
   -16.3320 -16.3303 -16.3246 -16.3206 -16.3044 -16.3021 -16.2826 -16.2819
    -7.1530  -4.3102  -4.1558  -3.5230  -3.4693  -3.3723  -3.1916  -1.5524
    -0.5503  -0.3381   2.5198   4.6872   5.0166   5.9142   6.8593   7.4063
     8.2058   8.9630   9.7113

          k =-0.3407 0.3934 0.0000 ( 10090 PWs)   bands (ev):

   -64.6442 -64.6398 -31.4996 -31.4553 -31.2540 -31.1722 -31.1026 -31.0541
   -21.4440 -21.4398 -16.3559 -16.3501 -16.3446 -16.3427 -16.3414 -16.3370
   -16.3306 -16.3287 -16.3245 -16.3205 -16.3041 -16.3029 -16.2827 -16.2822
    -7.1499  -4.3254  -4.1804  -3.4836  -3.4420  -3.3085  -3.1725  -1.5896
    -0.5969  -0.3816   2.3962   4.7572   5.0955   6.0337   6.8029   7.4166
     8.1937   8.9647   9.7633

          k = 0.5111 0.0984 0.0000 ( 10090 PWs)   bands (ev):

   -64.6447 -64.6393 -31.4950 -31.4501 -31.2642 -31.1756 -31.0958 -31.0559
   -21.4433 -21.4390 -16.3573 -16.3468 -16.3442 -16.3429 -16.3408 -16.3371
   -16.3320 -16.3303 -16.3246 -16.3206 -16.3044 -16.3021 -16.2826 -16.2819
    -7.1530  -4.3102  -4.1558  -3.5231  -3.4692  -3.3723  -3.1917  -1.5524
    -0.5505  -0.3379   2.5198   4.6872   5.0166   5.9142   6.8593   7.4064
     8.2059   8.9629   9.7151

          k =-0.3407-0.3934 0.0000 ( 10090 PWs)   bands (ev):

   -64.6450 -64.6391 -31.4915 -31.4463 -31.2723 -31.1711 -31.0996 -31.0557
   -21.4424 -21.4381 -16.3590 -16.3476 -16.3434 -16.3414 -16.3398 -16.3363
   -16.3320 -16.3300 -16.3251 -16.3225 -16.3041 -16.3019 -16.2825 -16.2818
    -7.1660  -4.2948  -4.1662  -3.5170  -3.4671  -3.3825  -3.2041  -1.5684
    -0.5275  -0.3481   2.5339   4.7378   5.0853   5.9949   6.8514   7.3798
     8.1477   8.8317   9.6111

          k = 0.5111-0.0984 0.0000 ( 10090 PWs)   bands (ev):

   -64.6442 -64.6398 -31.4996 -31.4553 -31.2540 -31.1722 -31.1026 -31.0541
   -21.4440 -21.4399 -16.3559 -16.3501 -16.3446 -16.3427 -16.3414 -16.3370
   -16.3306 -16.3286 -16.3245 -16.3205 -16.3040 -16.3029 -16.2827 -16.2822
    -7.1499  -4.3254  -4.1805  -3.4837  -3.4419  -3.3085  -3.1725  -1.5896
    -0.5969  -0.3816   2.3962   4.7572   5.0955   6.0337   6.8029   7.4166
     8.1939   8.9656   9.7636

          k =-0.4259 0.4426 0.0000 ( 10096 PWs)   bands (ev):

   -64.6406 -64.6381 -31.5310 -31.4800 -31.2307 -31.1851 -31.1180 -31.0727
   -21.4355 -21.4316 -16.3559 -16.3502 -16.3453 -16.3426 -16.3411 -16.3363
   -16.3301 -16.3285 -16.3235 -16.3206 -16.3060 -16.3046 -16.2809 -16.2804
    -7.0285  -4.4547  -4.2265  -3.4634  -3.3966  -3.3694  -3.1802  -1.7014
    -0.5205  -0.4800   2.3163   4.7115   5.8696   6.5755   6.8496   7.1475
     7.8503   9.0116  10.1509

          k = 0.5962 0.1475 0.0000 ( 10096 PWs)   bands (ev):

   -64.6416 -64.6371 -31.5246 -31.4719 -31.2506 -31.1844 -31.1097 -31.0749
   -21.4345 -21.4298 -16.3584 -16.3461 -16.3449 -16.3431 -16.3398 -16.3359
   -16.3315 -16.3301 -16.3241 -16.3212 -16.3063 -16.3037 -16.2806 -16.2801
    -7.0428  -4.4203  -4.2071  -3.5068  -3.4456  -3.4316  -3.2012  -1.6626
    -0.5096  -0.3929   2.4460   4.6717   5.8294   6.4328   6.9036   7.1526
     7.8483   8.9129  10.1117

          k =-0.2555 0.4426 0.0000 ( 10096 PWs)   bands (ev):

   -64.6445 -64.6395 -31.4451 -31.4267 -31.2592 -31.1768 -31.1438 -31.0911
   -21.4419 -21.4382 -16.3568 -16.3469 -16.3431 -16.3428 -16.3402 -16.3383
   -16.3316 -16.3298 -16.3245 -16.3204 -16.3050 -16.3041 -16.2827 -16.2822
    -7.1522  -4.1825  -4.0836  -3.4643  -3.4480  -3.4058  -3.2875  -1.4760
    -0.6621  -0.5363   3.3763   3.8560   5.2007   5.3066   6.7275   7.4234
     8.2618   9.1073   9.8838

          k = 0.5111-0.0000 0.0000 ( 10096 PWs)   bands (ev):

   -64.6445 -64.6395 -31.4449 -31.4268 -31.2592 -31.1768 -31.1439 -31.0911
   -21.4418 -21.4383 -16.3568 -16.3469 -16.3431 -16.3429 -16.3402 -16.3383
   -16.3316 -16.3298 -16.3245 -16.3204 -16.3050 -16.3041 -16.2827 -16.2822
    -7.1522  -4.1824  -4.0837  -3.4644  -3.4480  -3.4056  -3.2875  -1.4761
    -0.6621  -0.5362   3.3764   3.8559   5.2007   5.3066   6.7274   7.4234
     8.2619   9.1069   9.8812

          k =-0.2555 0.5409 0.0000 ( 10086 PWs)   bands (ev):

   -64.6393 -64.6363 -31.4537 -31.4189 -31.2549 -31.2306 -31.1734 -31.1402
   -21.4266 -21.4235 -16.3582 -16.3444 -16.3434 -16.3416 -16.3397 -16.3371
   -16.3322 -16.3300 -16.3232 -16.3211 -16.3090 -16.3075 -16.2797 -16.2794
    -6.9823  -4.1689  -4.0874  -3.6425  -3.5111  -3.3873  -3.3289  -1.5272
    -0.9289  -0.4573   3.4065   4.7679   5.1505   5.7834   6.6465   7.0210
     7.9051   8.7461  10.1781

          k =-0.3407 0.4918 0.0000 ( 10086 PWs)   bands (ev):

   -64.6388 -64.6369 -31.4581 -31.4228 -31.2517 -31.2190 -31.1767 -31.1437
   -21.4268 -21.4244 -16.3573 -16.3464 -16.3429 -16.3415 -16.3410 -16.3366
   -16.3320 -16.3291 -16.3229 -16.3209 -16.3085 -16.3082 -16.2798 -16.2795
    -6.9756  -4.1983  -4.1016  -3.5885  -3.4823  -3.3763  -3.3373  -1.5499
    -0.9185  -0.4914   3.3023   4.8509   5.0937   5.9022   6.6299   7.0167
     7.8858   8.8073  10.1667

          k = 0.5962 0.0492 0.0000 ( 10086 PWs)   bands (ev):

   -64.6393 -64.6363 -31.4536 -31.4189 -31.2549 -31.2306 -31.1734 -31.1402
   -21.4265 -21.4235 -16.3582 -16.3444 -16.3435 -16.3416 -16.3397 -16.3371
   -16.3322 -16.3300 -16.3232 -16.3211 -16.3089 -16.3075 -16.2797 -16.2794
    -6.9823  -4.1690  -4.0873  -3.6423  -3.5113  -3.3874  -3.3288  -1.5272
    -0.9289  -0.4573   3.4065   4.7679   5.1505   5.7834   6.6465   7.0210
     7.9052   8.7461  10.1782

          k =-0.3407-0.4918 0.0000 ( 10086 PWs)   bands (ev):

   -64.6396 -64.6361 -31.4493 -31.4150 -31.2673 -31.2257 -31.1765 -31.1377
   -21.4260 -21.4228 -16.3592 -16.3456 -16.3420 -16.3406 -16.3389 -16.3360
   -16.3342 -16.3291 -16.3235 -16.3224 -16.3088 -16.3074 -16.2796 -16.2793
    -6.9926  -4.1585  -4.0766  -3.6548  -3.5219  -3.3802  -3.3428  -1.5349
    -0.9349  -0.4375   3.4116   4.9282   5.1017   5.7948   6.6046   6.9847
     7.9294   8.6587  10.1336

          k = 0.5962-0.0492 0.0000 ( 10086 PWs)   bands (ev):

   -64.6388 -64.6369 -31.4581 -31.4228 -31.2517 -31.2190 -31.1768 -31.1437
   -21.4268 -21.4244 -16.3573 -16.3464 -16.3429 -16.3415 -16.3410 -16.3366
   -16.3320 -16.3291 -16.3229 -16.3209 -16.3085 -16.3082 -16.2798 -16.2795
    -6.9756  -4.1982  -4.1017  -3.5885  -3.4823  -3.3764  -3.3372  -1.5499
    -0.9185  -0.4914   3.3023   4.8508   5.0937   5.9022   6.6299   7.0168
     7.8858   8.8073  10.1668

     the Fermi energy is     4.6656 ev

!    total energy              =   -1470.73402828 Ry
     estimated scf accuracy    <          7.3E-13 Ry
     smearing contrib. (-TS)   =       0.00000842 Ry
     internal energy E=F+TS    =   -1470.73403670 Ry

     The total energy is F=E-TS. E is the sum of the following terms:
     one-electron contribution =   -7104.57486587 Ry
     hartree contribution      =    3595.95283849 Ry
     xc contribution           =    -157.64828631 Ry
     ewald contribution        =    2195.53627700 Ry

     convergence has been achieved in  26 iterations

     negative rho (up, down):  8.481E-05 0.000E+00

     Forces acting on atoms (cartesian axes, Ry/au):

     atom    1 type  1   force =     0.00243640    0.01391296    0.09030324
     atom    2 type  2   force =    -0.01508870   -0.02614335    0.00006831
     atom    3 type  1   force =     0.01082041    0.00906999   -0.09029301
     atom    4 type  3   force =    -0.00464547    0.00479086    0.00836932
     atom    5 type  3   force =     0.00647736   -0.00163047   -0.00844786

     Total force =     0.133597     Total SCF correction =     0.000007


     Computing stress (Cartesian axis) and pressure


     negative rho (up, down):  8.481E-05 0.000E+00
          total   stress  (Ry/bohr**3)                   (kbar)     P=      -48.95
  -0.00031192   0.00000281  -0.00003613          -45.89        0.41       -5.31
   0.00000281  -0.00030862   0.00002086            0.41      -45.40        3.07
  -0.00003613   0.00002086  -0.00037779           -5.31        3.07      -55.57


     BFGS Geometry Optimization
     Energy error            =      0.0E+00 Ry
     Gradient error          =      9.0E-02 Ry/Bohr

     number of scf cycles    =   1
     number of bfgs steps    =   0

     energy             new  =   -1470.7340282821 Ry

     new trust radius        =       0.0914012112 bohr
     new conv_thr            =            1.0E-12 Ry


ATOMIC_POSITIONS (alat)
Ta            0.0004129703        0.5485895489        0.0661731119
C            -0.0025575365       -0.0044313013        0.4858037785
Ta            0.4748842604        0.2746530654        0.9055061211
F            -0.0007874077        0.5470433510        1.3775061014
F             0.4741481135        0.2728393359       -0.4057828130



     Writing output data file /scratch/as3359/Ta2CF2_loop/Ta.save/
     NEW-OLD atomic charge density approx. for the potential

     negative rho (up, down):  1.034E-04 0.000E+00

     total cpu time spent up to now is      649.6 secs

     Self-consistent Calculation

     iteration #  1     ecut=    70.00 Ry     beta= 0.70
     CG style diagonalization
     c_bands:  3 eigenvalues not converged
     c_bands:  1 eigenvalues not converged
     c_bands:  1 eigenvalues not converged
     c_bands:  1 eigenvalues not converged
     c_bands:  1 eigenvalues not converged
     c_bands:  1 eigenvalues not converged
     c_bands:  1 eigenvalues not converged
     c_bands:  1 eigenvalues not converged
     c_bands:  1 eigenvalues not converged
     c_bands:  1 eigenvalues not converged
     c_bands:  2 eigenvalues not converged
     c_bands:  3 eigenvalues not converged
     c_bands:  3 eigenvalues not converged
     c_bands:  1 eigenvalues not converged
     c_bands:  2 eigenvalues not converged
     c_bands:  1 eigenvalues not converged
     c_bands:  2 eigenvalues not converged
     c_bands:  1 eigenvalues not converged
     c_bands:  1 eigenvalues not converged
     c_bands:  3 eigenvalues not converged
     c_bands:  2 eigenvalues not converged
     c_bands:  3 eigenvalues not converged
     c_bands:  2 eigenvalues not converged
     c_bands:  3 eigenvalues not converged
     c_bands:  1 eigenvalues not converged
     c_bands:  1 eigenvalues not converged
     c_bands:  2 eigenvalues not converged
     c_bands:  1 eigenvalues not converged
     c_bands:  1 eigenvalues not converged
     c_bands:  1 eigenvalues not converged
     c_bands:  1 eigenvalues not converged
     c_bands:  2 eigenvalues not converged
     c_bands:  2 eigenvalues not converged
     c_bands:  1 eigenvalues not converged
     c_bands:  1 eigenvalues not converged
     c_bands:  1 eigenvalues not converged
     c_bands:  2 eigenvalues not converged
     c_bands:  2 eigenvalues not converged
     c_bands:  2 eigenvalues not converged
     c_bands:  1 eigenvalues not converged
     c_bands:  1 eigenvalues not converged
     c_bands:  1 eigenvalues not converged
     c_bands:  1 eigenvalues not converged
     c_bands:  2 eigenvalues not converged
     c_bands:  1 eigenvalues not converged
     ethr =  1.00E-06,  avg # of iterations = 10.3

     negative rho (up, down):  8.903E-05 0.000E+00

     total cpu time spent up to now is      715.5 secs

     total energy              =   -1470.74533898 Ry
     estimated scf accuracy    <       0.00311930 Ry

     iteration #  2     ecut=    70.00 Ry     beta= 0.70
     CG style diagonalization
     ethr =  4.33E-06,  avg # of iterations =  4.4

     negative rho (up, down):  9.151E-05 0.000E+00

     total cpu time spent up to now is      742.7 secs

     total energy              =   -1470.74836721 Ry
     estimated scf accuracy    <       0.00333613 Ry

     iteration #  3     ecut=    70.00 Ry     beta= 0.70
     CG style diagonalization
     ethr =  4.33E-06,  avg # of iterations =  3.5

     negative rho (up, down):  9.336E-05 0.000E+00

     total cpu time spent up to now is      764.1 secs

     total energy              =   -1470.74884698 Ry
     estimated scf accuracy    <       0.00194297 Ry

     iteration #  4     ecut=    70.00 Ry     beta= 0.70
     CG style diagonalization
     ethr =  2.70E-06,  avg # of iterations =  3.3

     negative rho (up, down):  9.146E-05 0.000E+00

     total cpu time spent up to now is      784.3 secs

     total energy              =   -1470.74855915 Ry
     estimated scf accuracy    <       0.01889357 Ry

     iteration #  5     ecut=    70.00 Ry     beta= 0.70
     CG style diagonalization
     ethr =  2.70E-06,  avg # of iterations =  3.1

     negative rho (up, down):  8.843E-05 0.000E+00

     total cpu time spent up to now is      803.8 secs

     total energy              =   -1470.74937088 Ry
     estimated scf accuracy    <       0.00017617 Ry

     iteration #  6     ecut=    70.00 Ry     beta= 0.70
     CG style diagonalization
     ethr =  2.45E-07,  avg # of iterations =  3.3

     negative rho (up, down):  8.803E-05 0.000E+00

     total cpu time spent up to now is      824.1 secs

     total energy              =   -1470.74940701 Ry
     estimated scf accuracy    <       0.00000688 Ry

     iteration #  7     ecut=    70.00 Ry     beta= 0.70
     CG style diagonalization
     ethr =  9.55E-09,  avg # of iterations =  4.6

     negative rho (up, down):  8.798E-05 0.000E+00

     total cpu time spent up to now is      852.5 secs

     total energy              =   -1470.74941410 Ry
     estimated scf accuracy    <       0.00000179 Ry

     iteration #  8     ecut=    70.00 Ry     beta= 0.70
     CG style diagonalization
     ethr =  2.48E-09,  avg # of iterations =  5.1

     negative rho (up, down):  8.798E-05 0.000E+00

     total cpu time spent up to now is      883.7 secs

     total energy              =   -1470.74941683 Ry
     estimated scf accuracy    <       0.00000061 Ry

     iteration #  9     ecut=    70.00 Ry     beta= 0.70
     CG style diagonalization
     ethr =  8.46E-10,  avg # of iterations =  4.3

     negative rho (up, down):  8.798E-05 0.000E+00

     total cpu time spent up to now is      909.9 secs

     total energy              =   -1470.74941736 Ry
     estimated scf accuracy    <       0.00000013 Ry

     iteration # 10     ecut=    70.00 Ry     beta= 0.70
     CG style diagonalization
     ethr =  1.81E-10,  avg # of iterations =  4.3

     negative rho (up, down):  8.797E-05 0.000E+00

     total cpu time spent up to now is      936.3 secs

     total energy              =   -1470.74941748 Ry
     estimated scf accuracy    <       0.00000002 Ry

     iteration # 11     ecut=    70.00 Ry     beta= 0.70
     CG style diagonalization
     ethr =  2.95E-11,  avg # of iterations =  5.1

     negative rho (up, down):  8.797E-05 0.000E+00

     total cpu time spent up to now is      967.3 secs

     total energy              =   -1470.74941753 Ry
     estimated scf accuracy    <       0.00000001 Ry

     iteration # 12     ecut=    70.00 Ry     beta= 0.70
     CG style diagonalization
     ethr =  1.53E-11,  avg # of iterations =  4.2

     negative rho (up, down):  8.797E-05 0.000E+00

     total cpu time spent up to now is      992.5 secs

     total energy              =   -1470.74941754 Ry
     estimated scf accuracy    <          1.2E-09 Ry

     iteration # 13     ecut=    70.00 Ry     beta= 0.70
     CG style diagonalization
     ethr =  1.61E-12,  avg # of iterations =  5.5

     negative rho (up, down):  8.797E-05 0.000E+00

     total cpu time spent up to now is     1025.5 secs

     total energy              =   -1470.74941755 Ry
     estimated scf accuracy    <          3.2E-10 Ry

     iteration # 14     ecut=    70.00 Ry     beta= 0.70
     CG style diagonalization
     c_bands:  1 eigenvalues not converged
     ethr =  4.45E-13,  avg # of iterations =  4.6

     negative rho (up, down):  8.797E-05 0.000E+00

     total cpu time spent up to now is     1053.3 secs

     total energy              =   -1470.74941755 Ry
     estimated scf accuracy    <          1.5E-10 Ry

     iteration # 15     ecut=    70.00 Ry     beta= 0.70
     CG style diagonalization
     ethr =  2.08E-13,  avg # of iterations =  4.1

     negative rho (up, down):  8.797E-05 0.000E+00

     total cpu time spent up to now is     1077.9 secs

     total energy              =   -1470.74941755 Ry
     estimated scf accuracy    <          8.7E-10 Ry

     iteration # 16     ecut=    70.00 Ry     beta= 0.70
     CG style diagonalization
     ethr =  2.08E-13,  avg # of iterations =  3.7

     negative rho (up, down):  8.797E-05 0.000E+00

     total cpu time spent up to now is     1101.0 secs

     total energy              =   -1470.74941755 Ry
     estimated scf accuracy    <          6.0E-12 Ry

     iteration # 17     ecut=    70.00 Ry     beta= 0.70
     CG style diagonalization
     ethr =  1.00E-13,  avg # of iterations =  3.6

     negative rho (up, down):  8.797E-05 0.000E+00

     total cpu time spent up to now is     1123.5 secs

     total energy              =   -1470.74941755 Ry
     estimated scf accuracy    <          2.7E-12 Ry

     iteration # 18     ecut=    70.00 Ry     beta= 0.70
     CG style diagonalization
     ethr =  1.00E-13,  avg # of iterations =  3.3

     negative rho (up, down):  8.797E-05 0.000E+00

     total cpu time spent up to now is     1145.0 secs

     total energy              =   -1470.74941755 Ry
     estimated scf accuracy    <          1.3E-12 Ry

     iteration # 19     ecut=    70.00 Ry     beta= 0.70
     CG style diagonalization
     ethr =  1.00E-13,  avg # of iterations =  3.2

     negative rho (up, down):  8.797E-05 0.000E+00

     total cpu time spent up to now is     1165.5 secs

     End of self-consistent calculation

          k = 0.0000 0.0000 0.0000 ( 10193 PWs)   bands (ev):

   -64.9486 -64.9264 -31.8397 -31.4783 -31.0894 -31.0878 -31.0628 -31.0503
   -21.5223 -21.5001 -16.6128 -16.6101 -16.6062 -16.5996 -16.5894 -16.5880
   -16.5843 -16.5832 -16.5724 -16.5689 -16.5561 -16.5541 -16.5030 -16.5024
    -9.1975  -4.8666  -3.3606  -2.8915  -2.8230  -2.7679  -2.6955  -1.5031
     0.4970   0.5521   2.1398   3.4784   3.5244   5.2444   5.5819   5.6191
     5.6853   5.8057   5.9325

          k = 0.0000 0.0984 0.0000 ( 10153 PWs)   bands (ev):

   -64.9452 -64.9236 -31.8253 -31.4758 -31.1383 -31.1096 -31.1004 -31.0614
   -21.5066 -21.4874 -16.6115 -16.6110 -16.6040 -16.5984 -16.5897 -16.5882
   -16.5846 -16.5829 -16.5729 -16.5698 -16.5539 -16.5521 -16.5057 -16.5052
    -9.0980  -4.7132  -3.4600  -2.9008  -2.8778  -2.8136  -2.7550  -1.4451
     0.1761   0.5172   2.2689   3.2229   3.6770   5.0770   5.3683   5.5455
     5.6338   6.0613   6.4949

          k = 0.0000 0.1967 0.0000 ( 10113 PWs)   bands (ev):

   -64.9360 -64.9163 -31.7856 -31.4753 -31.2664 -31.2363 -31.1362 -31.0860
   -21.4659 -21.4541 -16.6120 -16.6079 -16.5998 -16.5953 -16.5917 -16.5891
   -16.5842 -16.5812 -16.5755 -16.5709 -16.5477 -16.5463 -16.5131 -16.5126
    -8.8277  -4.3291  -3.6094  -3.2544  -2.9389  -2.8779  -2.8027  -1.3669
    -0.5165   0.4626   2.1634   3.1215   4.2185   4.6958   5.1178   5.5993
     6.0921   6.4393   7.3553

          k = 0.0000 0.2951 0.0000 ( 10107 PWs)   bands (ev):

   -64.9232 -64.9064 -31.7328 -31.5265 -31.4149 -31.3737 -31.1823 -31.1205
   -21.4152 -21.4114 -16.6125 -16.6032 -16.5970 -16.5950 -16.5923 -16.5888
   -16.5830 -16.5796 -16.5783 -16.5710 -16.5391 -16.5381 -16.5228 -16.5218
    -8.4599  -4.0140  -3.6142  -3.5851  -3.3020  -2.9255  -2.8650  -1.3376
    -1.1142   0.4030   1.5252   3.8099   4.6163   4.9933   5.0665   6.0365
     6.6212   6.7398   8.1486

          k = 0.0000 0.3934 0.0000 ( 10075 PWs)   bands (ev):

   -64.9101 -64.8968 -31.7103 -31.6605 -31.5473 -31.4030 -31.2270 -31.1555
   -21.3718 -21.3691 -16.6125 -16.6010 -16.5974 -16.5945 -16.5925 -16.5881
   -16.5816 -16.5806 -16.5757 -16.5696 -16.5322 -16.5308 -16.5299 -16.5294
    -8.0836  -4.1665  -3.8619  -3.6375  -3.4039  -3.0051  -2.9239  -1.6293
    -1.1081   0.3500   0.9381   4.5155   4.8682   5.4666   6.0760   6.7497
     6.9985   7.0857   8.5451

          k = 0.0000 0.4918 0.0000 ( 10102 PWs)   bands (ev):

   -64.9001 -64.8901 -31.8023 -31.7416 -31.5607 -31.4097 -31.2591 -31.1814
   -21.3443 -21.3386 -16.6125 -16.6015 -16.5980 -16.5952 -16.5920 -16.5883
   -16.5802 -16.5792 -16.5740 -16.5677 -16.5385 -16.5353 -16.5242 -16.5234
    -7.7856  -4.5722  -4.1158  -3.5651  -3.3118  -3.0778  -2.9680  -1.9471
    -0.8933   0.3075   0.5518   4.4074   6.0173   6.4771   6.8979   7.1259
     7.4213   7.7442   8.4034

          k = 0.0000-0.5901 0.0000 ( 10114 PWs)   bands (ev):

   -64.8963 -64.8879 -31.8456 -31.7781 -31.5465 -31.4136 -31.2707 -31.1909
   -21.3346 -21.3280 -16.6126 -16.6009 -16.5994 -16.5962 -16.5910 -16.5885
   -16.5795 -16.5787 -16.5733 -16.5668 -16.5407 -16.5371 -16.5219 -16.5211
    -7.6653  -4.7696  -4.1799  -3.5672  -3.2238  -3.1066  -2.9847  -2.0997
    -0.7891   0.2834   0.4222   4.3576   6.6689   6.9754   7.3003   7.5532
     7.6171   7.9317   8.1328

          k = 0.0852 0.1475 0.0000 ( 10135 PWs)   bands (ev):

   -64.9390 -64.9186 -31.7988 -31.4729 -31.2176 -31.2090 -31.1194 -31.0819
   -21.4786 -21.4644 -16.6122 -16.6088 -16.6000 -16.5965 -16.5912 -16.5883
   -16.5854 -16.5817 -16.5727 -16.5726 -16.5498 -16.5481 -16.5107 -16.5104
    -8.9122  -4.4415  -3.5717  -3.1397  -2.8944  -2.8777  -2.8056  -1.3760
    -0.2904   0.4229   2.4668   2.8728   4.0282   4.8925   4.9661   5.8215
     5.9195   6.1143   7.2358

          k = 0.0852 0.2459 0.0000 ( 10109 PWs)   bands (ev):

   -64.9280 -64.9099 -31.7523 -31.4884 -31.3587 -31.3335 -31.1667 -31.1198
   -21.4330 -21.4262 -16.6128 -16.6047 -16.5960 -16.5954 -16.5915 -16.5894
   -16.5845 -16.5796 -16.5766 -16.5725 -16.5424 -16.5411 -16.5192 -16.5188
    -8.5928  -4.0436  -3.6510  -3.4762  -3.1868  -2.9084  -2.8387  -1.3140
    -0.8980   0.2088   2.1933   3.0976   4.4096   5.0510   5.1068   5.8530
     6.1967   6.6140   8.1747

          k = 0.0852 0.3442 0.0000 ( 10105 PWs)   bands (ev):

   -64.9150 -64.9002 -31.7061 -31.5908 -31.5007 -31.3962 -31.2225 -31.1616
   -21.3855 -21.3843 -16.6129 -16.6009 -16.5979 -16.5938 -16.5906 -16.5884
   -16.5823 -16.5806 -16.5765 -16.5717 -16.5338 -16.5328 -16.5289 -16.5276
    -8.2208  -3.9542  -3.6909  -3.6344  -3.4924  -2.9681  -2.9337  -1.4532
    -1.1706  -0.0130   1.6807   3.8875   4.5316   5.2227   5.9590   6.4721
     6.5788   7.0685   8.7614

          k = 0.0852 0.4426 0.0000 ( 10092 PWs)   bands (ev):

   -64.9034 -64.8921 -31.7443 -31.6965 -31.5640 -31.4083 -31.2689 -31.1980
   -21.3513 -21.3471 -16.6129 -16.6009 -16.5977 -16.5933 -16.5916 -16.5879
   -16.5811 -16.5797 -16.5749 -16.5694 -16.5369 -16.5345 -16.5262 -16.5255
    -7.8825  -4.2861  -4.0232  -3.5741  -3.3910  -3.0388  -3.0127  -1.8069
    -0.9830  -0.2137   1.3194   4.5319   4.9304   5.7516   6.6596   7.1326
     7.3391   7.5918   8.7586

          k = 0.0852 0.5409 0.0000 ( 10099 PWs)   bands (ev):

   -64.8963 -64.8879 -31.8191 -31.7556 -31.5453 -31.4172 -31.2941 -31.2193
   -21.3328 -21.3269 -16.6127 -16.6004 -16.5987 -16.5951 -16.5911 -16.5882
   -16.5803 -16.5787 -16.5732 -16.5675 -16.5414 -16.5382 -16.5219 -16.5212
    -7.6665  -4.6191  -4.1497  -3.5262  -3.3108  -3.0850  -3.0557  -2.0380
    -0.8150  -0.3345   1.1366   4.4503   5.9858   6.5795   6.8480   7.3044
     7.7374   8.2062   8.8275

          k = 0.1704 0.2951 0.0000 ( 10108 PWs)   bands (ev):

   -64.9168 -64.9015 -31.7094 -31.5474 -31.4829 -31.3875 -31.2246 -31.1809
   -21.3907 -21.3892 -16.6129 -16.6011 -16.5977 -16.5934 -16.5899 -16.5886
   -16.5833 -16.5804 -16.5757 -16.5733 -16.5349 -16.5340 -16.5277 -16.5272
    -8.2674  -3.7821  -3.6458  -3.6268  -3.5668  -3.0310  -2.8784  -1.3216
    -1.2163  -0.2598   2.6143   2.8077   4.4411   5.3724   5.9195   6.3447
     6.3729   7.0737   9.2110

          k = 0.1704 0.3934 0.0000 ( 10088 PWs)   bands (ev):

   -64.9052 -64.8933 -31.6969 -31.6431 -31.5561 -31.4069 -31.2951 -31.2419
   -21.3542 -21.3513 -16.6130 -16.6000 -16.5969 -16.5932 -16.5902 -16.5873
   -16.5822 -16.5805 -16.5739 -16.5718 -16.5364 -16.5351 -16.5274 -16.5268
    -7.9305  -3.9687  -3.9190  -3.5698  -3.4420  -3.1554  -3.0041  -1.6976
    -1.0529  -0.6311   2.3250   3.5391   4.6628   5.3050   6.3253   7.3252
     7.3731   7.5430   9.3559

          k = 0.1704 0.4918 0.0000 ( 10090 PWs)   bands (ev):

   -64.8963 -64.8879 -31.7533 -31.7045 -31.5442 -31.4289 -31.3431 -31.2870
   -21.3294 -21.3248 -16.6129 -16.5998 -16.5962 -16.5931 -16.5911 -16.5877
   -16.5826 -16.5783 -16.5728 -16.5693 -16.5426 -16.5406 -16.5219 -16.5215
    -7.6672  -4.2741  -4.0562  -3.4684  -3.3978  -3.2448  -3.0927  -1.9333
    -0.9146  -0.8367   2.0727   4.5861   4.7333   5.6996   6.5909   7.2958
     7.8285   8.5575   9.3761

          k = 0.1704 0.5901 0.0000 ( 10096 PWs)   bands (ev):

   -64.8926 -64.8862 -31.7831 -31.7262 -31.5216 -31.4503 -31.3550 -31.3048
   -21.3208 -21.3158 -16.6123 -16.5981 -16.5967 -16.5957 -16.5910 -16.5886
   -16.5819 -16.5778 -16.5717 -16.5680 -16.5450 -16.5425 -16.5200 -16.5195
    -7.5601  -4.4091  -4.0993  -3.4413  -3.3573  -3.3191  -3.1015  -2.0102
    -0.9765  -0.7876   1.9805   4.6323   5.3913   6.0549   6.6335   7.0580
     7.6121   8.6405   9.9612

          k = 0.2555 0.4426 0.0000 ( 10096 PWs)   bands (ev):

   -64.8963 -64.8879 -31.7086 -31.6715 -31.5542 -31.4253 -31.3801 -31.3265
   -21.3276 -21.3238 -16.6130 -16.5997 -16.5936 -16.5930 -16.5908 -16.5878
   -16.5839 -16.5780 -16.5721 -16.5708 -16.5431 -16.5419 -16.5219 -16.5216
    -7.6668  -4.0940  -3.9604  -3.4243  -3.3889  -3.3358  -3.2081  -1.8845
    -1.1210  -0.8858   3.0911   3.3995   5.0327   5.1373   6.4780   7.3054
     7.8823   8.6889   9.5928

          k = 0.2555 0.5409 0.0000 ( 10086 PWs)   bands (ev):

   -64.8904 -64.8854 -31.7118 -31.6729 -31.5457 -31.4761 -31.4082 -31.3816
   -21.3123 -21.3090 -16.6126 -16.5981 -16.5945 -16.5923 -16.5905 -16.5886
   -16.5852 -16.5766 -16.5711 -16.5693 -16.5473 -16.5458 -16.5188 -16.5186
    -7.5066  -4.0900  -3.9716  -3.5601  -3.4198  -3.3210  -3.2822  -1.9212
    -1.3977  -0.8029   3.0062   4.4487   4.9496   5.4749   6.3105   6.8820
     7.7229   8.4422  10.0564

          k = 0.3407 0.5901 0.0000 ( 10014 PWs)   bands (ev):

   -64.8871 -64.8856 -31.6445 -31.6299 -31.6176 -31.5062 -31.4281 -31.4198
   -21.3057 -21.3044 -16.6116 -16.5967 -16.5959 -16.5922 -16.5909 -16.5888
   -16.5858 -16.5757 -16.5696 -16.5694 -16.5490 -16.5482 -16.5176 -16.5176
    -7.4434  -3.8831  -3.8288  -3.6935  -3.6897  -3.2908  -3.2899  -1.7465
    -1.7291  -0.8016   3.5586   4.7210   4.8301   5.1211   6.3097   6.3453
     7.9560   8.0572  10.2522

          k =-0.0852 0.0492 0.0000 ( 10153 PWs)   bands (ev):

   -64.9452 -64.9237 -31.8247 -31.4766 -31.1352 -31.1056 -31.0982 -31.0707
   -21.5064 -21.4875 -16.6121 -16.6101 -16.6052 -16.5981 -16.5892 -16.5885
   -16.5839 -16.5833 -16.5739 -16.5689 -16.5538 -16.5521 -16.5058 -16.5052
    -9.0992  -4.7108  -3.4740  -2.9380  -2.8547  -2.8184  -2.7072  -1.4526
     0.2050   0.4632   2.2419   3.2315   3.7106   5.1999   5.3976   5.4647
     5.6294   5.9565   6.5671

          k = 0.0852 0.0492 0.0000 ( 10153 PWs)   bands (ev):

   -64.9452 -64.9236 -31.8253 -31.4758 -31.1383 -31.1096 -31.1004 -31.0614
   -21.5066 -21.4874 -16.6115 -16.6110 -16.6040 -16.5984 -16.5897 -16.5882
   -16.5846 -16.5829 -16.5729 -16.5698 -16.5539 -16.5521 -16.5057 -16.5052
    -9.0980  -4.7132  -3.4600  -2.9006  -2.8780  -2.8137  -2.7549  -1.4451
     0.1761   0.5172   2.2689   3.2230   3.6770   5.0771   5.3682   5.5454
     5.6339   6.0614   6.4949

          k =-0.1704 0.0984 0.0000 ( 10113 PWs)   bands (ev):

   -64.9358 -64.9164 -31.7833 -31.4795 -31.2577 -31.2327 -31.1394 -31.0937
   -21.4654 -21.4544 -16.6118 -16.6079 -16.6026 -16.5966 -16.5894 -16.5887
   -16.5825 -16.5819 -16.5776 -16.5687 -16.5475 -16.5462 -16.5133 -16.5129
    -8.8318  -4.3168  -3.6323  -3.2977  -2.9394  -2.8229  -2.7449  -1.3921
    -0.5164   0.3860   2.0668   3.2161   4.2523   4.8222   5.1777   5.5848
     6.0847   6.3168   7.4014

          k = 0.1704 0.0984 0.0000 ( 10113 PWs)   bands (ev):

   -64.9360 -64.9163 -31.7856 -31.4753 -31.2664 -31.2364 -31.1362 -31.0860
   -21.4659 -21.4541 -16.6120 -16.6079 -16.5998 -16.5953 -16.5917 -16.5891
   -16.5842 -16.5812 -16.5755 -16.5709 -16.5477 -16.5463 -16.5131 -16.5126
    -8.8277  -4.3291  -3.6094  -3.2544  -2.9389  -2.8781  -2.8025  -1.3669
    -0.5165   0.4625   2.1633   3.1215   4.2184   4.6958   5.1177   5.5993
     6.0921   6.4393   7.3553

          k =-0.2555 0.1475 0.0000 ( 10107 PWs)   bands (ev):

   -64.9229 -64.9067 -31.7283 -31.5339 -31.4088 -31.3665 -31.1864 -31.1272
   -21.4149 -21.4120 -16.6117 -16.6042 -16.5998 -16.5991 -16.5899 -16.5868
   -16.5813 -16.5802 -16.5788 -16.5683 -16.5388 -16.5380 -16.5230 -16.5227
    -8.4662  -3.9881  -3.6438  -3.6085  -3.2936  -2.8616  -2.8041  -1.3640
    -1.1665   0.3082   1.4425   3.9050   4.7443   5.0921   5.1069   6.0404
     6.5981   6.6412   8.1547

[...]
    -1.5304  -1.4462   0.0559   4.8604   4.9612   5.7588   6.4289   6.8999
     7.2454   7.6150   8.2250

          k = 0.5111-0.1967 0.0000 ( 10099 PWs)   bands (ev):

   -65.3609 -65.3459 -32.4252 -32.3331 -31.9640 -31.8882 -31.8012 -31.6860
   -21.1542 -21.1468 -17.0638 -17.0446 -17.0396 -17.0375 -17.0307 -17.0280
   -17.0250 -17.0197 -17.0185 -17.0041 -16.9919 -16.9851 -16.9715 -16.9705
    -8.7784  -4.9403  -3.9570  -3.4894  -3.2360  -2.8693  -2.8113  -2.5092
    -1.6003  -1.4980  -0.0088   4.9186   5.0391   5.8572   6.4232   6.9422
     7.2536   7.6318   8.3055

          k =-0.1704 0.2951 0.0000 ( 10108 PWs)   bands (ev):

   -65.3893 -65.3525 -32.3339 -32.0980 -31.9601 -31.7638 -31.7390 -31.6641
   -21.2163 -21.2157 -17.0624 -17.0492 -17.0413 -17.0397 -17.0370 -17.0300
   -17.0223 -17.0206 -17.0156 -17.0060 -16.9858 -16.9823 -16.9770 -16.9766
    -9.2375  -3.9584  -3.8574  -3.5132  -3.3618  -2.7502  -2.6218  -2.1400
    -2.0282  -1.5436   1.3943   2.0442   4.1464   4.9281   5.5138   5.8444
     6.1843   7.0963   9.1865

          k = 0.3407-0.0000 0.0000 ( 10108 PWs)   bands (ev):

   -65.3893 -65.3525 -32.3339 -32.0980 -31.9601 -31.7638 -31.7390 -31.6642
   -21.2162 -21.2158 -17.0624 -17.0492 -17.0413 -17.0397 -17.0370 -17.0300
   -17.0223 -17.0206 -17.0156 -17.0060 -16.9858 -16.9823 -16.9770 -16.9766
    -9.2375  -3.9584  -3.8574  -3.5132  -3.3618  -2.7502  -2.6218  -2.1400
    -2.0282  -1.5436   1.3943   2.0442   4.1464   4.9281   5.5139   5.8444
     6.1843   7.0963   9.1864

          k =-0.1704 0.3934 0.0000 ( 10088 PWs)   bands (ev):

   -65.3747 -65.3468 -32.3299 -32.2088 -32.0198 -31.8411 -31.7696 -31.7101
   -21.1781 -21.1738 -17.0609 -17.0456 -17.0423 -17.0394 -17.0323 -17.0267
   -17.0257 -17.0206 -17.0150 -17.0065 -16.9859 -16.9845 -16.9774 -16.9755
    -8.9503  -4.2261  -3.7486  -3.5159  -3.4541  -2.8813  -2.8075  -2.3125
    -1.8954  -1.7445   1.2257   2.4716   4.3956   5.0620   6.1202   6.6271
     6.9729   7.4535   9.3043

          k =-0.2555 0.3442 0.0000 ( 10088 PWs)   bands (ev):

   -65.3742 -65.3473 -32.3310 -32.2090 -32.0181 -31.8247 -31.7887 -31.7070
   -21.1785 -21.1740 -17.0612 -17.0451 -17.0424 -17.0390 -17.0319 -17.0269
   -17.0259 -17.0209 -17.0151 -17.0067 -16.9863 -16.9841 -16.9774 -16.9755
    -8.9511  -4.2133  -3.7686  -3.5191  -3.4464  -2.8479  -2.8090  -2.3331
    -1.9121  -1.7679   1.1653   2.5455   4.4289   5.1216   6.0978   6.6035
     6.9698   7.4526   9.3550

          k = 0.4259 0.0492 0.0000 ( 10088 PWs)   bands (ev):

   -65.3747 -65.3468 -32.3299 -32.2088 -32.0198 -31.8411 -31.7696 -31.7102
   -21.1781 -21.1738 -17.0609 -17.0456 -17.0423 -17.0394 -17.0323 -17.0267
   -17.0257 -17.0206 -17.0150 -17.0065 -16.9859 -16.9845 -16.9774 -16.9755
    -8.9503  -4.2261  -3.7486  -3.5159  -3.4541  -2.8814  -2.8075  -2.3125
    -1.8954  -1.7445   1.2257   2.4716   4.3956   5.0620   6.1202   6.6271
     6.9730   7.4535   9.3043

          k =-0.2555-0.3442 0.0000 ( 10088 PWs)   bands (ev):

   -65.3755 -65.3460 -32.3287 -32.2008 -32.0354 -31.8373 -31.7848 -31.6939
   -21.1769 -21.1733 -17.0607 -17.0457 -17.0432 -17.0396 -17.0325 -17.0269
   -17.0259 -17.0205 -17.0150 -17.0047 -16.9862 -16.9845 -16.9772 -16.9753
    -8.9587  -4.1959  -3.7624  -3.5161  -3.4440  -2.8917  -2.8170  -2.3267
    -1.8361  -1.7626   1.2437   2.5616   4.3512   5.1027   6.0560   6.5272
     6.9215   7.4186   9.2685

          k = 0.4259-0.0492 0.0000 ( 10088 PWs)   bands (ev):

   -65.3742 -65.3473 -32.3310 -32.2090 -32.0181 -31.8247 -31.7887 -31.7070
   -21.1785 -21.1740 -17.0612 -17.0451 -17.0424 -17.0390 -17.0319 -17.0269
   -17.0258 -17.0209 -17.0151 -17.0067 -16.9863 -16.9841 -16.9774 -16.9755
    -8.9511  -4.2133  -3.7686  -3.5191  -3.4464  -2.8479  -2.8090  -2.3331
    -1.9121  -1.7678   1.1653   2.5455   4.4289   5.1216   6.0978   6.6035
     6.9699   7.4526   9.3550

          k =-0.1704 0.4918 0.0000 ( 10090 PWs)   bands (ev):

   -65.3630 -65.3437 -32.3619 -32.2815 -32.0149 -31.9267 -31.7791 -31.7462
   -21.1504 -21.1445 -17.0602 -17.0442 -17.0423 -17.0366 -17.0316 -17.0281
   -17.0257 -17.0191 -17.0151 -17.0062 -16.9923 -16.9891 -16.9715 -16.9703
    -8.7564  -4.5110  -3.8688  -3.4332  -3.3881  -3.0316  -2.8937  -2.4227
    -1.9380  -1.6287   0.9853   3.4487   4.8135   5.0565   6.2209   7.1845
     7.3281   8.0363   9.0442

          k =-0.3407 0.3934 0.0000 ( 10090 PWs)   bands (ev):

   -65.3615 -65.3453 -32.3657 -32.2820 -32.0116 -31.9049 -31.8028 -31.7415
   -21.1510 -21.1454 -17.0606 -17.0436 -17.0412 -17.0362 -17.0316 -17.0281
   -17.0262 -17.0193 -17.0156 -17.0063 -16.9928 -16.9887 -16.9715 -16.9705
    -8.7536  -4.5154  -3.8925  -3.4213  -3.3731  -2.9870  -2.8878  -2.4669
    -1.9415  -1.6880   0.9166   3.5337   4.8208   5.1869   6.1826   7.1589
     7.3348   8.0466   9.1199

          k = 0.5111 0.0984 0.0000 ( 10090 PWs)   bands (ev):

   -65.3630 -65.3437 -32.3619 -32.2815 -32.0149 -31.9267 -31.7791 -31.7462
   -21.1503 -21.1445 -17.0602 -17.0442 -17.0423 -17.0366 -17.0316 -17.0281
   -17.0257 -17.0191 -17.0151 -17.0062 -16.9923 -16.9891 -16.9715 -16.9703
    -8.7564  -4.5110  -3.8688  -3.4332  -3.3881  -3.0316  -2.8937  -2.4228
    -1.9380  -1.6287   0.9853   3.4487   4.8135   5.0565   6.2209   7.1845
     7.3281   8.0363   9.0441

          k =-0.3407-0.3934 0.0000 ( 10090 PWs)   bands (ev):

   -65.3637 -65.3431 -32.3603 -32.2778 -32.0292 -31.9193 -31.7953 -31.7293
   -21.1497 -21.1440 -17.0601 -17.0447 -17.0419 -17.0371 -17.0320 -17.0286
   -17.0254 -17.0190 -17.0150 -17.0050 -16.9925 -16.9892 -16.9714 -16.9703
    -8.7646  -4.4880  -3.8824  -3.4336  -3.3648  -3.0242  -2.9090  -2.4414
    -1.9586  -1.5989   0.9980   3.5412   4.7683   5.1216   6.1664   7.1255
     7.2870   7.9647   9.0154

          k = 0.5111-0.0984 0.0000 ( 10090 PWs)   bands (ev):

   -65.3615 -65.3453 -32.3657 -32.2820 -32.0116 -31.9049 -31.8028 -31.7415
   -21.1510 -21.1454 -17.0606 -17.0436 -17.0412 -17.0362 -17.0316 -17.0281
   -17.0262 -17.0193 -17.0156 -17.0063 -16.9928 -16.9887 -16.9715 -16.9705
    -8.7536  -4.5154  -3.8925  -3.4213  -3.3731  -2.9870  -2.8878  -2.4669
    -1.9415  -1.6880   0.9166   3.5337   4.8208   5.1869   6.1826   7.1589
     7.3348   8.0466   9.1199

          k =-0.4259 0.4426 0.0000 ( 10096 PWs)   bands (ev):

   -65.3556 -65.3458 -32.3880 -32.3034 -31.9957 -31.9426 -31.8012 -31.7611
   -21.1409 -21.1354 -17.0604 -17.0440 -17.0379 -17.0376 -17.0303 -17.0288
   -17.0272 -17.0183 -17.0162 -17.0059 -16.9952 -16.9902 -16.9693 -16.9687
    -8.6840  -4.6392  -3.9450  -3.3801  -3.2787  -3.1121  -2.9101  -2.5112
    -2.0162  -1.5758   0.8267   4.3770   4.7890   5.3108   6.0581   6.9176
     7.4301   8.1344   9.8510

          k = 0.5962 0.1475 0.0000 ( 10096 PWs)   bands (ev):

   -65.3584 -65.3429 -32.3830 -32.3010 -31.9983 -31.9709 -31.7839 -31.7573
   -21.1400 -21.1339 -17.0600 -17.0450 -17.0396 -17.0377 -17.0304 -17.0290
   -17.0264 -17.0182 -17.0153 -17.0054 -16.9947 -16.9906 -16.9693 -16.9684
    -8.6927  -4.6176  -3.9267  -3.3945  -3.2916  -3.1497  -2.9241  -2.4652
    -2.0293  -1.4980   0.9023   4.3408   4.7839   5.1547   6.0833   6.9083
     7.4154   8.0554   9.5510

          k =-0.2555 0.4426 0.0000 ( 10096 PWs)   bands (ev):

   -65.3623 -65.3445 -32.3297 -32.2405 -32.0689 -31.8761 -31.8437 -31.7557
   -21.1492 -21.1445 -17.0584 -17.0433 -17.0421 -17.0377 -17.0307 -17.0289
   -17.0258 -17.0191 -17.0134 -17.0081 -16.9927 -16.9912 -16.9715 -16.9705
    -8.7419  -4.2089  -3.8166  -3.4345  -3.4161  -3.0901  -3.0468  -2.4500
    -2.0562  -1.7170   2.0337   2.2103   4.5959   5.0320   6.1035   7.2494
     7.3535   8.1917   9.4868

          k = 0.5111-0.0000 0.0000 ( 10096 PWs)   bands (ev):

   -65.3623 -65.3445 -32.3297 -32.2405 -32.0689 -31.8761 -31.8437 -31.7557
   -21.1492 -21.1445 -17.0584 -17.0433 -17.0421 -17.0377 -17.0307 -17.0289
   -17.0258 -17.0191 -17.0134 -17.0081 -16.9927 -16.9912 -16.9715 -16.9705
    -8.7419  -4.2089  -3.8166  -3.4344  -3.4161  -3.0901  -3.0468  -2.4500
    -2.0562  -1.7170   2.0337   2.2103   4.5959   5.0320   6.1035   7.2494
     7.3535   8.1917   9.4884

          k =-0.2555 0.5409 0.0000 ( 10086 PWs)   bands (ev):

   -65.3543 -65.3439 -32.3154 -32.2541 -32.1079 -31.9530 -31.8312 -31.7894
   -21.1315 -21.1278 -17.0572 -17.0431 -17.0398 -17.0354 -17.0329 -17.0289
   -17.0271 -17.0167 -17.0133 -17.0088 -16.9965 -16.9950 -16.9680 -16.9675
    -8.6316  -4.1822  -3.8358  -3.4511  -3.3279  -3.2346  -3.2065  -2.4830
    -2.2610  -1.5576   1.9908   3.2149   4.5872   4.9370   5.7701   6.7004
     7.6216   8.2400  10.0857

          k =-0.3407 0.4918 0.0000 ( 10086 PWs)   bands (ev):

   -65.3527 -65.3455 -32.3200 -32.2530 -32.1074 -31.9377 -31.8363 -31.7958
   -21.1317 -21.1286 -17.0575 -17.0422 -17.0396 -17.0356 -17.0328 -17.0288
   -17.0273 -17.0164 -17.0138 -17.0092 -16.9970 -16.9945 -16.9680 -16.9677
    -8.6276  -4.1963  -3.8572  -3.4141  -3.3237  -3.2215  -3.2119  -2.5091
    -2.2448  -1.5879   1.9133   3.2868   4.5617   5.0180   5.7538   6.7075
     7.6198   8.2868  10.0828

          k = 0.5962 0.0492 0.0000 ( 10086 PWs)   bands (ev):

   -65.3543 -65.3439 -32.3154 -32.2541 -32.1079 -31.9530 -31.8312 -31.7894
   -21.1315 -21.1279 -17.0572 -17.0431 -17.0398 -17.0354 -17.0329 -17.0289
   -17.0271 -17.0167 -17.0133 -17.0088 -16.9965 -16.9950 -16.9680 -16.9675
    -8.6316  -4.1822  -3.8358  -3.4511  -3.3279  -3.2346  -3.2065  -2.4830
    -2.2610  -1.5576   1.9908   3.2149   4.5872   4.9370   5.7701   6.7004
     7.6216   8.2400  10.0857

          k =-0.3407-0.4918 0.0000 ( 10086 PWs)   bands (ev):

   -65.3551 -65.3431 -32.3135 -32.2492 -32.1172 -31.9529 -31.8432 -31.7757
   -21.1312 -21.1273 -17.0572 -17.0434 -17.0397 -17.0359 -17.0332 -17.0291
   -17.0266 -17.0168 -17.0136 -17.0077 -16.9965 -16.9952 -16.9680 -16.9675
    -8.6375  -4.1579  -3.8356  -3.4471  -3.3135  -3.2531  -3.2225  -2.4834
    -2.2773  -1.5334   1.9950   3.3044   4.5016   4.9601   5.7766   6.6662
     7.5910   8.2029  10.0362

          k = 0.5962-0.0492 0.0000 ( 10086 PWs)   bands (ev):

   -65.3527 -65.3455 -32.3200 -32.2530 -32.1074 -31.9377 -31.8363 -31.7958
   -21.1317 -21.1286 -17.0575 -17.0422 -17.0396 -17.0356 -17.0328 -17.0288
   -17.0273 -17.0164 -17.0138 -17.0092 -16.9970 -16.9945 -16.9680 -16.9677
    -8.6276  -4.1963  -3.8572  -3.4141  -3.3237  -3.2215  -3.2118  -2.5091
    -2.2448  -1.5879   1.9133   3.2868   4.5617   5.0180   5.7538   6.7075
     7.6198   8.2868  10.0830

     the Fermi energy is     3.9409 ev

     WARNING: integrated charge=    72.00143550, expected=    72.00000000

!    total energy              =   -1470.78132881 Ry
     estimated scf accuracy    <          2.5E-13 Ry
     smearing contrib. (-TS)   =       0.00000117 Ry
     internal energy E=F+TS    =   -1470.78132999 Ry

     The total energy is F=E-TS. E is the sum of the following terms:
     one-electron contribution =   -7452.48123700 Ry
     hartree contribution      =    3768.39519150 Ry
     xc contribution           =    -157.82726115 Ry
     ewald contribution        =    2371.13197666 Ry

     convergence has been achieved in  20 iterations

     negative rho (up, down):  9.188E-05 0.000E+00

     Forces acting on atoms (cartesian axes, Ry/au):

     atom    1 type  1   force =    -0.01367465   -0.00090118   -0.00315754
     atom    2 type  2   force =     0.00783844    0.01358450    0.00001008
     atom    3 type  1   force =     0.00605933   -0.01229689    0.00315625
     atom    4 type  3   force =    -0.00061982    0.00010027   -0.04684954
     atom    5 type  3   force =     0.00039670   -0.00048669    0.04684074

     Total force =     0.070932     Total SCF correction =     0.000003


     Computing stress (Cartesian axis) and pressure


     negative rho (up, down):  9.188E-05 0.000E+00
          total   stress  (Ry/bohr**3)                   (kbar)     P=      -13.24
   0.00009195   0.00001685   0.00003799           13.53        2.48        5.59
   0.00001685   0.00011142  -0.00002194            2.48       16.39       -3.23
   0.00003799  -0.00002194  -0.00047346            5.59       -3.23      -69.65

     Energy error            =      4.5E-03 Ry
     Gradient error          =      4.7E-02 Ry/Bohr

     number of scf cycles    =   5
     number of bfgs steps    =   4

     energy             old  =   -1470.7768099442 Ry
     energy             new  =   -1470.7813288145 Ry

     CASE: energy            _new < energy            _old

     new trust radius        =       0.0369111295 bohr
     new conv_thr            =            4.5E-13 Ry


ATOMIC_POSITIONS (alat)
Ta           -0.0000396026        0.5536730805        0.1075567815
C            -0.0073995348       -0.0128155466        0.4858425135
Ta            0.4795126115        0.2768053259        0.8641251796
F            -0.0029686136        0.5490691066        1.3617061881
F             0.4769955395        0.2719620336       -0.3900243627



     Writing output data file /scratch/as3359/Ta2CF2_loop/Ta.save/
     NEW-OLD atomic charge density approx. for the potential

     negative rho (up, down):  8.863E-05 0.000E+00
     extrapolated charge   72.00144, renormalised to   72.00000

     total cpu time spent up to now is     2904.6 secs

     Self-consistent Calculation

     iteration #  1     ecut=    70.00 Ry     beta= 0.70
     CG style diagonalization
     ethr =  1.00E-06,  avg # of iterations =  5.1

     negative rho (up, down):  9.004E-05 0.000E+00

     total cpu time spent up to now is     2938.8 secs

     WARNING: integrated charge=    72.00003665, expected=    72.00000000

     total energy              =   -1470.78418241 Ry
     estimated scf accuracy    <       0.00027824 Ry

     iteration #  2     ecut=    70.00 Ry     beta= 0.70
     CG style diagonalization
     ethr =  3.86E-07,  avg # of iterations =  4.6

     negative rho (up, down):  9.063E-05 0.000E+00

     total cpu time spent up to now is     2967.2 secs

     WARNING: integrated charge=    72.00006911, expected=    72.00000000

     total energy              =   -1470.78487485 Ry
     estimated scf accuracy    <       0.00028820 Ry

     iteration #  3     ecut=    70.00 Ry     beta= 0.70
     CG style diagonalization
     ethr =  3.86E-07,  avg # of iterations =  3.8

     negative rho (up, down):  9.043E-05 0.000E+00

     total cpu time spent up to now is     2990.1 secs

     WARNING: integrated charge=    72.00007250, expected=    72.00000000

     total energy              =   -1470.78504712 Ry
     estimated scf accuracy    <       0.00006960 Ry

     iteration #  4     ecut=    70.00 Ry     beta= 0.70
     CG style diagonalization
     ethr =  9.67E-08,  avg # of iterations =  3.6

     negative rho (up, down):  9.049E-05 0.000E+00

     total cpu time spent up to now is     3012.5 secs

     WARNING: integrated charge=    72.00007373, expected=    72.00000000

     total energy              =   -1470.78506871 Ry
     estimated scf accuracy    <       0.00004989 Ry

     iteration #  5     ecut=    70.00 Ry     beta= 0.70
     CG style diagonalization
     ethr =  6.93E-08,  avg # of iterations =  3.2

     negative rho (up, down):  9.047E-05 0.000E+00

     total cpu time spent up to now is     3032.0 secs

     WARNING: integrated charge=    72.00007610, expected=    72.00000000

     total energy              =   -1470.78507353 Ry
     estimated scf accuracy    <       0.00018696 Ry

     iteration #  6     ecut=    70.00 Ry     beta= 0.70
     CG style diagonalization
     ethr =  6.93E-08,  avg # of iterations =  3.1

     negative rho (up, down):  9.037E-05 0.000E+00

     total cpu time spent up to now is     3050.8 secs

     WARNING: integrated charge=    72.00008050, expected=    72.00000000

     total energy              =   -1470.78508305 Ry
     estimated scf accuracy    <       0.00000279 Ry

     iteration #  7     ecut=    70.00 Ry     beta= 0.70
     CG style diagonalization
     ethr =  3.87E-09,  avg # of iterations =  4.2

     negative rho (up, down):  9.036E-05 0.000E+00

     total cpu time spent up to now is     3076.9 secs

     WARNING: integrated charge=    72.00008034, expected=    72.00000000

     total energy              =   -1470.78508457 Ry
     estimated scf accuracy    <       0.00000184 Ry

     iteration #  8     ecut=    70.00 Ry     beta= 0.70
     CG style diagonalization
     ethr =  2.56E-09,  avg # of iterations =  3.7

     negative rho (up, down):  9.036E-05 0.000E+00

     total cpu time spent up to now is     3099.5 secs

     WARNING: integrated charge=    72.00008024, expected=    72.00000000

     total energy              =   -1470.78508507 Ry
     estimated scf accuracy    <       0.00000041 Ry

     iteration #  9     ecut=    70.00 Ry     beta= 0.70
     CG style diagonalization
     ethr =  5.76E-10,  avg # of iterations =  4.0

     negative rho (up, down):  9.036E-05 0.000E+00

     total cpu time spent up to now is     3123.8 secs

     WARNING: integrated charge=    72.00008017, expected=    72.00000000

     total energy              =   -1470.78508544 Ry
     estimated scf accuracy    <       0.00000003 Ry

     iteration # 10     ecut=    70.00 Ry     beta= 0.70
     CG style diagonalization
     ethr =  4.56E-11,  avg # of iterations =  4.8

     negative rho (up, down):  9.036E-05 0.000E+00

     total cpu time spent up to now is     3152.7 secs

     WARNING: integrated charge=    72.00008020, expected=    72.00000000

     total energy              =   -1470.78508562 Ry
     estimated scf accuracy    <       0.00000002 Ry

     iteration # 11     ecut=    70.00 Ry     beta= 0.70
     CG style diagonalization
     ethr =  3.25E-11,  avg # of iterations =  3.8

     negative rho (up, down):  9.037E-05 0.000E+00

     total cpu time spent up to now is     3175.6 secs

     WARNING: integrated charge=    72.00008019, expected=    72.00000000

     total energy              =   -1470.78508563 Ry
     estimated scf accuracy    <          2.1E-09 Ry

     iteration # 12     ecut=    70.00 Ry     beta= 0.70
     CG style diagonalization
     ethr =  2.92E-12,  avg # of iterations =  4.8

     negative rho (up, down):  9.037E-05 0.000E+00

     total cpu time spent up to now is     3205.1 secs

     WARNING: integrated charge=    72.00008019, expected=    72.00000000

     total energy              =   -1470.78508563 Ry
     estimated scf accuracy    <          1.4E-09 Ry

     iteration # 13     ecut=    70.00 Ry     beta= 0.70
     CG style diagonalization
     ethr =  1.99E-12,  avg # of iterations =  3.9

     negative rho (up, down):  9.037E-05 0.000E+00

     total cpu time spent up to now is     3228.7 secs

     WARNING: integrated charge=    72.00008019, expected=    72.00000000

     total energy              =   -1470.78508563 Ry
     estimated scf accuracy    <          3.4E-10 Ry

     iteration # 14     ecut=    70.00 Ry     beta= 0.70
     CG style diagonalization
     ethr =  4.66E-13,  avg # of iterations =  4.4

     negative rho (up, down):  9.037E-05 0.000E+00

     total cpu time spent up to now is     3255.7 secs

     WARNING: integrated charge=    72.00008019, expected=    72.00000000

     total energy              =   -1470.78508564 Ry
     estimated scf accuracy    <          4.8E-11 Ry

     iteration # 15     ecut=    70.00 Ry     beta= 0.70
     CG style diagonalization
     ethr =  1.00E-13,  avg # of iterations =  4.8

     negative rho (up, down):  9.037E-05 0.000E+00

     total cpu time spent up to now is     3284.1 secs

     WARNING: integrated charge=    72.00008019, expected=    72.00000000

     total energy              =   -1470.78508564 Ry
     estimated scf accuracy    <          1.5E-09 Ry

     iteration # 16     ecut=    70.00 Ry     beta= 0.70
     CG style diagonalization

 %%%%%%%%%%%%%%%%%%%%%%%%%%%%%%%%%%%%%%%%%%%%%%%%%%%%%%%%%%%%%%%%%%%%%%%%%%%%%%
     Error in routine cdiaghg (47):
     S matrix not positive definite
 %%%%%%%%%%%%%%%%%%%%%%%%%%%%%%%%%%%%%%%%%%%%%%%%%%%%%%%%%%%%%%%%%%%%%%%%%%%%%%

     stopping ...
