
     Program PWSCF v.6.8 starts on 16Apr2022 at 13:57: 6 

     This program is part of the open-source Quantum ESPRESSO suite
     for quantum simulation of materials; please cite
         "P. Giannozzi et al., J. Phys.:Condens. Matter 21 395502 (2009);
         "P. Giannozzi et al., J. Phys.:Condens. Matter 29 465901 (2017);
         "P. Giannozzi et al., J. Chem. Phys. 152 154105 (2020);
          URL http://www.quantum-espresso.org", 
     in publications or presentations arising from this work. More details at
     http://www.quantum-espresso.org/quote

     Parallel version (MPI & OpenMP), running on       4 processor cores
     Number of MPI processes:                 2
     Threads/MPI process:                     2

     MPI processes distributed on     1 nodes
     R & G space division:  proc/nbgrp/npool/nimage =       2
     125265 MiB available memory on the printing compute node when the environment starts
 
     Reading input from MoS2.scf.in

     Current dimensions of program PWSCF are:
     Max number of different atomic species (ntypx) = 10
     Max number of k-points (npk) =  40000
     Max angular momentum in pseudopotentials (lmaxx) =  4
     file Mo.pbesol-spn-kjpaw_psl.1.0.0.UPF: wavefunction(s)  4S 4D renormalized
     file S.pbesol-nl-kjpaw_psl.1.0.0.UPF: wavefunction(s)  3S renormalized

     Subspace diagonalization in iterative solution of the eigenvalue problem:
     a serial algorithm will be used

 
     Parallelization info
     --------------------
     sticks:   dense  smooth     PW     G-vecs:    dense   smooth      PW
     Min         838     729    213               144365   114719   18124
     Max         839     730    218               144374   114728   18125
     Sum        1677    1459    431               288739   229447   36249
 
     Using Slab Decomposition
 


     bravais-lattice index     =            0
     lattice parameter (alat)  =       6.0720  a.u.
     unit-cell volume          =     924.7995 (a.u.)^3
     number of atoms/cell      =            3
     number of atomic types    =            2
     number of electrons       =        26.00
     number of Kohn-Sham states=           17
     kinetic-energy cutoff     =     150.0000  Ry
     charge density cutoff     =     700.0000  Ry
     scf convergence threshold =      1.0E-12
     mixing beta               =       0.7000
     number of iterations used =            8  plain     mixing
     Exchange-correlation= SLA  PW   PSX  PSC
                           (   1   4  10   8   0   0   0)

     celldm(1)=   6.072000  celldm(2)=   0.000000  celldm(3)=   0.000000
     celldm(4)=   0.000000  celldm(5)=   0.000000  celldm(6)=   0.000000

     crystal axes: (cart. coord. in units of alat)
               a(1) = (   0.976384  -0.000017   0.000000 )  
               a(2) = (  -0.487931   0.846187   0.000000 )  
               a(3) = (   0.000000   0.000000   5.000000 )  

     reciprocal axes: (cart. coord. in units 2 pi/alat)
               b(1) = (  1.024198  0.590577  0.000000 )  
               b(2) = (  0.000021  1.181785  0.000000 )  
               b(3) = (  0.000000  0.000000  0.200000 )  


     PseudoPot. # 1 for Mo read from file:
     /shared/home/as3359/pseudo/Mo.pbesol-spn-kjpaw_psl.1.0.0.UPF
     MD5 check sum: de57925cfc675213e43241dcc441eda8
     Pseudo is Projector augmented-wave + core cor, Zval = 14.0
     Generated using &quot;atomic&quot; code by A. Dal Corso  v.6.3
     Shape of augmentation charge: PSQ
     Using radial grid of 1229 points,  6 beta functions with: 
                l(1) =   0
                l(2) =   0
                l(3) =   1
                l(4) =   1
                l(5) =   2
                l(6) =   2
     Q(r) pseudized with 0 coefficients 


     PseudoPot. # 2 for S  read from file:
     /shared/home/as3359/pseudo/S.pbesol-nl-kjpaw_psl.1.0.0.UPF
     MD5 check sum: bf3db50ec3f960682bbc396f1aadd1dd
     Pseudo is Projector augmented-wave + core cor, Zval =  6.0
     Generated using &quot;atomic&quot; code by A. Dal Corso  v.6.3
     Shape of augmentation charge: PSQ
     Using radial grid of 1151 points,  4 beta functions with: 
                l(1) =   0
                l(2) =   0
                l(3) =   1
                l(4) =   1
     Q(r) pseudized with 0 coefficients 


     atomic species   valence    mass     pseudopotential
        Mo            14.00    95.94000     Mo( 1.00)
        S              6.00    32.06500     S ( 1.00)

     No symmetry found



   Cartesian axes

     site n.     atom                  positions (alat units)
         1           Mo  tau(   1) = (   0.0000000   0.0000000   1.6880765  )
         2           S   tau(   2) = (   0.4883508   0.2821722   2.1737857  )
         3           S   tau(   3) = (   0.4883508   0.2821722   1.2023670  )

     number of k points=   113  Marzari-Vanderbilt smearing, width (Ry)=  0.0010

     Number of k-points >= 100: set verbosity='high' to print them.

     Dense  grid:   288739 G-vectors     FFT dimensions: (  50,  50, 256)

     Smooth grid:   229447 G-vectors     FFT dimensions: (  48,  48, 240)

     Estimated max dynamical RAM per process >     964.84 MB

     Estimated total dynamical RAM >       1.88 GB

     Initial potential from superposition of free atoms

     starting charge   25.99914, renormalised to   26.00000

     negative rho (up, down):  3.788E-05 0.000E+00
     Starting wfcs are   18 randomized atomic wfcs
     Checking if some PAW data can be deallocated... 

     total cpu time spent up to now is       10.9 secs

     Self-consistent Calculation

     iteration #  1     ecut=   150.00 Ry     beta= 0.70
     Davidson diagonalization with overlap
     ethr =  1.00E-02,  avg # of iterations =  2.5

     Threshold (ethr) on eigenvalues was too large:
     Diagonalizing with lowered threshold

     Davidson diagonalization with overlap
     ethr =  3.60E-04,  avg # of iterations =  3.7

     negative rho (up, down):  4.331E-05 0.000E+00

     total cpu time spent up to now is       40.9 secs

     total energy              =    -489.69613066 Ry
     estimated scf accuracy    <       0.14084541 Ry

     iteration #  2     ecut=   150.00 Ry     beta= 0.70
     Davidson diagonalization with overlap
     ethr =  5.42E-04,  avg # of iterations =  3.0

     negative rho (up, down):  4.045E-05 0.000E+00

     total cpu time spent up to now is       57.3 secs

     total energy              =    -489.64354817 Ry
     estimated scf accuracy    <       0.57477088 Ry

     iteration #  3     ecut=   150.00 Ry     beta= 0.70
     Davidson diagonalization with overlap
     ethr =  5.42E-04,  avg # of iterations =  2.7

     negative rho (up, down):  4.177E-05 0.000E+00

     total cpu time spent up to now is       72.2 secs

     total energy              =    -489.74376936 Ry
     estimated scf accuracy    <       0.09359051 Ry

     iteration #  4     ecut=   150.00 Ry     beta= 0.70
     Davidson diagonalization with overlap
     ethr =  3.60E-04,  avg # of iterations =  1.5

     negative rho (up, down):  4.699E-05 0.000E+00

     total cpu time spent up to now is       84.3 secs

     total energy              =    -489.75753068 Ry
     estimated scf accuracy    <       0.00058902 Ry

     iteration #  5     ecut=   150.00 Ry     beta= 0.70
     Davidson diagonalization with overlap
     ethr =  2.27E-06,  avg # of iterations =  4.9

     negative rho (up, down):  4.770E-05 0.000E+00

     total cpu time spent up to now is      104.1 secs

     total energy              =    -489.75786436 Ry
     estimated scf accuracy    <       0.00071009 Ry

     iteration #  6     ecut=   150.00 Ry     beta= 0.70
     Davidson diagonalization with overlap
     ethr =  2.27E-06,  avg # of iterations =  2.0

     negative rho (up, down):  4.912E-05 0.000E+00

     total cpu time spent up to now is      116.9 secs

     total energy              =    -489.75791697 Ry
     estimated scf accuracy    <       0.00027430 Ry

     iteration #  7     ecut=   150.00 Ry     beta= 0.70
     Davidson diagonalization with overlap
     ethr =  1.05E-06,  avg # of iterations =  1.4

     negative rho (up, down):  5.094E-05 0.000E+00

     total cpu time spent up to now is      128.9 secs

     total energy              =    -489.75793869 Ry
     estimated scf accuracy    <       0.00001049 Ry

     iteration #  8     ecut=   150.00 Ry     beta= 0.70
     Davidson diagonalization with overlap
     ethr =  4.03E-08,  avg # of iterations =  4.2

     negative rho (up, down):  5.084E-05 0.000E+00

     total cpu time spent up to now is      146.4 secs

     total energy              =    -489.75794528 Ry
     estimated scf accuracy    <       0.00000490 Ry

     iteration #  9     ecut=   150.00 Ry     beta= 0.70
     Davidson diagonalization with overlap
     ethr =  1.88E-08,  avg # of iterations =  1.5

     negative rho (up, down):  5.087E-05 0.000E+00

     total cpu time spent up to now is      158.5 secs

     total energy              =    -489.75794494 Ry
     estimated scf accuracy    <       0.00000101 Ry

     iteration # 10     ecut=   150.00 Ry     beta= 0.70
     Davidson diagonalization with overlap
     ethr =  3.90E-09,  avg # of iterations =  3.0

     negative rho (up, down):  5.092E-05 0.000E+00

     total cpu time spent up to now is      173.0 secs

     total energy              =    -489.75794533 Ry
     estimated scf accuracy    <       0.00000009 Ry

     iteration # 11     ecut=   150.00 Ry     beta= 0.70
     Davidson diagonalization with overlap
     ethr =  3.47E-10,  avg # of iterations =  2.0

     negative rho (up, down):  5.093E-05 0.000E+00

     total cpu time spent up to now is      186.9 secs

     total energy              =    -489.75794534 Ry
     estimated scf accuracy    <          7.1E-09 Ry

     iteration # 12     ecut=   150.00 Ry     beta= 0.70
     Davidson diagonalization with overlap
     ethr =  2.74E-11,  avg # of iterations =  3.5

     negative rho (up, down):  5.093E-05 0.000E+00

     total cpu time spent up to now is      201.7 secs

     total energy              =    -489.75794534 Ry
     estimated scf accuracy    <          2.2E-11 Ry

     iteration # 13     ecut=   150.00 Ry     beta= 0.70
     Davidson diagonalization with overlap
     ethr =  1.00E-13,  avg # of iterations =  4.9

     negative rho (up, down):  5.093E-05 0.000E+00

     total cpu time spent up to now is      221.4 secs

     total energy              =    -489.75794534 Ry
     estimated scf accuracy    <          5.9E-12 Ry

     iteration # 14     ecut=   150.00 Ry     beta= 0.70
     Davidson diagonalization with overlap
     ethr =  1.00E-13,  avg # of iterations =  2.0

     negative rho (up, down):  5.093E-05 0.000E+00

     total cpu time spent up to now is      233.9 secs

     total energy              =    -489.75794534 Ry
     estimated scf accuracy    <          1.3E-11 Ry

     iteration # 15     ecut=   150.00 Ry     beta= 0.70
     Davidson diagonalization with overlap
     ethr =  1.00E-13,  avg # of iterations =  1.8

     negative rho (up, down):  5.093E-05 0.000E+00

     total cpu time spent up to now is      246.2 secs

     End of self-consistent calculation

     Number of k-points >= 100: set verbosity='high' to print the bands.

     the Fermi energy is     1.5201 ev

!    total energy              =    -489.75794534 Ry

     total all-electron energy =     -9688.215791 Ry
     estimated scf accuracy    <          5.3E-13 Ry
     smearing contrib. (-TS)   =       0.00000000 Ry
     internal energy E=F+TS    =    -489.75794534 Ry

     The total energy is F=E-TS. E is the sum of the following terms:
     one-electron contribution =    -813.90640716 Ry
     hartree contribution      =     410.77425734 Ry
     xc contribution           =     -29.52474066 Ry
     ewald contribution        =     255.78841210 Ry
     one-center paw contrib.   =    -312.88946696 Ry

     convergence has been achieved in  15 iterations

     negative rho (up, down):  5.093E-05 0.000E+00

     Forces acting on atoms (cartesian axes, Ry/au):

     atom    1 type  1   force =     0.00026865    0.00012901   -0.00000037
     atom    2 type  2   force =    -0.00013432   -0.00006451   -0.00032826
     atom    3 type  2   force =    -0.00013433   -0.00006450    0.00032863

     Total force =     0.000591     Total SCF correction =     0.000002


     Computing stress (Cartesian axis) and pressure


     negative rho (up, down):  5.093E-05 0.000E+00
          total   stress  (Ry/bohr**3)                   (kbar)     P=        0.63
   0.00000924  -0.00000085   0.00000000            1.36       -0.13        0.00
  -0.00000085   0.00000610   0.00000000           -0.13        0.90        0.00
   0.00000000   0.00000000  -0.00000256            0.00        0.00       -0.38


     Writing output data file /scratch/as3359/MoS2_bandsdos/Ta.save/
 
     init_run     :     18.51s CPU     10.51s WALL (       1 calls)
     electrons    :    461.60s CPU    235.48s WALL (       1 calls)
     forces       :      5.80s CPU      2.94s WALL (       1 calls)
     stress       :     18.81s CPU      9.55s WALL (       1 calls)

     Called by init_run:
     wfcinit      :     11.04s CPU      5.67s WALL (       1 calls)
     potinit      :      2.36s CPU      1.30s WALL (       1 calls)
     hinit0       :      4.36s CPU      3.13s WALL (       1 calls)

     Called by electrons:
     c_bands      :    376.01s CPU    190.73s WALL (      16 calls)
     sum_band     :     74.90s CPU     38.54s WALL (      16 calls)
     v_of_rho     :      2.46s CPU      1.37s WALL (      16 calls)
     newd         :      4.57s CPU      2.82s WALL (      16 calls)
     PAW_pot      :      3.04s CPU      1.56s WALL (      16 calls)
     mix_rho      :      0.79s CPU      0.50s WALL (      16 calls)

     Called by c_bands:
     init_us_2    :     13.21s CPU      6.63s WALL (    3955 calls)
     cegterg      :    352.49s CPU    178.82s WALL (    1808 calls)

     Called by *egterg:
     cdiaghg      :      3.73s CPU      1.91s WALL (    6723 calls)
     h_psi        :    307.06s CPU    156.01s WALL (    6949 calls)
     s_psi        :      6.64s CPU      3.34s WALL (    6949 calls)
     g_psi        :      2.79s CPU      1.40s WALL (    5028 calls)

     Called by h_psi:
     h_psi:calbec :      9.56s CPU      4.82s WALL (    6949 calls)
     vloc_psi     :    287.67s CPU    146.23s WALL (    6949 calls)
     add_vuspsi   :      7.08s CPU      3.56s WALL (    6949 calls)

     General routines
     calbec       :     13.40s CPU      6.76s WALL (    9322 calls)
     fft          :      1.87s CPU      1.22s WALL (     232 calls)
     ffts         :      0.13s CPU      0.07s WALL (      32 calls)
     fftw         :    291.17s CPU    148.18s WALL (  193712 calls)
     interpolate  :      0.22s CPU      0.12s WALL (      16 calls)
 
     Parallel routines
 
     PWSCF        :   8m28.15s CPU   4m21.88s WALL

 
   This run was terminated on:  14: 1:28  16Apr2022            

=------------------------------------------------------------------------------=
   JOB DONE.
=------------------------------------------------------------------------------=
