
     Program PWSCF v.6.8 starts on 16Apr2022 at 14: 1:29 

     This program is part of the open-source Quantum ESPRESSO suite
     for quantum simulation of materials; please cite
         "P. Giannozzi et al., J. Phys.:Condens. Matter 21 395502 (2009);
         "P. Giannozzi et al., J. Phys.:Condens. Matter 29 465901 (2017);
         "P. Giannozzi et al., J. Chem. Phys. 152 154105 (2020);
          URL http://www.quantum-espresso.org", 
     in publications or presentations arising from this work. More details at
     http://www.quantum-espresso.org/quote

     Parallel version (MPI & OpenMP), running on       4 processor cores
     Number of MPI processes:                 2
     Threads/MPI process:                     2

     MPI processes distributed on     1 nodes
     R & G space division:  proc/nbgrp/npool/nimage =       2
     124327 MiB available memory on the printing compute node when the environment starts
 
     Reading input from MoS2.nscf.in

     Current dimensions of program PWSCF are:
     Max number of different atomic species (ntypx) = 10
     Max number of k-points (npk) =  40000
     Max angular momentum in pseudopotentials (lmaxx) =  4

     Atomic positions and unit cell read from directory:
     /scratch/as3359/MoS2_bandsdos/Ta.save/
 
     file Mo.pbesol-spn-kjpaw_psl.1.0.0.UPF: wavefunction(s)  4S 4D renormalized
     file S.pbesol-nl-kjpaw_psl.1.0.0.UPF: wavefunction(s)  3S renormalized

     Subspace diagonalization in iterative solution of the eigenvalue problem:
     a serial algorithm will be used

 
     Parallelization info
     --------------------
     sticks:   dense  smooth     PW     G-vecs:    dense   smooth      PW
     Min         838     729    213               144365   114719   18124
     Max         839     730    218               144374   114728   18125
     Sum        1677    1459    431               288739   229447   36249
 
     Using Slab Decomposition
 


     bravais-lattice index     =            0
     lattice parameter (alat)  =       6.0720  a.u.
     unit-cell volume          =     924.7995 (a.u.)^3
     number of atoms/cell      =            3
     number of atomic types    =            2
     number of electrons       =        26.00
     number of Kohn-Sham states=           17
     kinetic-energy cutoff     =     150.0000  Ry
     charge density cutoff     =     700.0000  Ry
     Exchange-correlation= SLA  PW   PSX  PSC
                           (   1   4  10   8   0   0   0)

     celldm(1)=   6.072000  celldm(2)=   0.000000  celldm(3)=   0.000000
     celldm(4)=   0.000000  celldm(5)=   0.000000  celldm(6)=   0.000000

     crystal axes: (cart. coord. in units of alat)
               a(1) = (   0.976384  -0.000017   0.000000 )  
               a(2) = (  -0.487931   0.846187   0.000000 )  
               a(3) = (   0.000000   0.000000   5.000000 )  

     reciprocal axes: (cart. coord. in units 2 pi/alat)
               b(1) = (  1.024198  0.590577  0.000000 )  
               b(2) = (  0.000021  1.181785  0.000000 )  
               b(3) = (  0.000000  0.000000  0.200000 )  


     PseudoPot. # 1 for Mo read from file:
     /shared/home/as3359/pseudo/Mo.pbesol-spn-kjpaw_psl.1.0.0.UPF
     MD5 check sum: de57925cfc675213e43241dcc441eda8
     Pseudo is Projector augmented-wave + core cor, Zval = 14.0
     Generated using &quot;atomic&quot; code by A. Dal Corso  v.6.3
     Shape of augmentation charge: PSQ
     Using radial grid of 1229 points,  6 beta functions with: 
                l(1) =   0
                l(2) =   0
                l(3) =   1
                l(4) =   1
                l(5) =   2
                l(6) =   2
     Q(r) pseudized with 0 coefficients 


     PseudoPot. # 2 for S  read from file:
     /shared/home/as3359/pseudo/S.pbesol-nl-kjpaw_psl.1.0.0.UPF
     MD5 check sum: bf3db50ec3f960682bbc396f1aadd1dd
     Pseudo is Projector augmented-wave + core cor, Zval =  6.0
     Generated using &quot;atomic&quot; code by A. Dal Corso  v.6.3
     Shape of augmentation charge: PSQ
     Using radial grid of 1151 points,  4 beta functions with: 
                l(1) =   0
                l(2) =   0
                l(3) =   1
                l(4) =   1
     Q(r) pseudized with 0 coefficients 


     atomic species   valence    mass     pseudopotential
        Mo            14.00    95.94000     Mo( 1.00)
        S              6.00    32.06500     S ( 1.00)

     No symmetry found



   Cartesian axes

     site n.     atom                  positions (alat units)
         1           Mo  tau(   1) = (   0.0000000   0.0000000   1.6880765  )
         2           S   tau(   2) = (   0.4883508   0.2821722   2.1737857  )
         3           S   tau(   3) = (   0.4883508   0.2821722   1.2023670  )

     number of k points=   113  Marzari-Vanderbilt smearing, width (Ry)=  0.0010

     Number of k-points >= 100: set verbosity='high' to print them.

     Dense  grid:   288739 G-vectors     FFT dimensions: (  50,  50, 256)

     Smooth grid:   229447 G-vectors     FFT dimensions: (  48,  48, 240)

     Estimated max dynamical RAM per process >     475.83 MB

     Estimated total dynamical RAM >     951.66 MB

     The potential is recalculated from file :
     /scratch/as3359/MoS2_bandsdos/Ta.save/charge-density


     negative rho (up, down):  5.093E-05 0.000E+00
     Starting wfcs are   18 randomized atomic wfcs
     Checking if some PAW data can be deallocated... 

     Band Structure Calculation
     Davidson diagonalization with overlap

     ethr =  1.00E-13,  avg # of iterations = 35.5

     total cpu time spent up to now is      143.0 secs

     End of band structure calculation

     Number of k-points >= 100: set verbosity='high' to print the bands.

     the Fermi energy is     1.5201 ev
     (compare with:     1.5201 eV, computed in scf)

     Writing output data file /scratch/as3359/MoS2_bandsdos/Ta.save/
 
     init_run     :      5.70s CPU      3.83s WALL (       1 calls)
     electrons    :    273.37s CPU    138.82s WALL (       1 calls)

     Called by init_run:
     wfcinit      :      0.00s CPU      0.00s WALL (       1 calls)
     potinit      :      0.46s CPU      0.26s WALL (       1 calls)
     hinit0       :      4.35s CPU      3.08s WALL (       1 calls)

     Called by electrons:
     c_bands      :    273.36s CPU    138.82s WALL (       1 calls)
     v_of_rho     :      0.19s CPU      0.10s WALL (       1 calls)
     newd         :      0.42s CPU      0.25s WALL (       1 calls)
     PAW_pot      :      0.19s CPU      0.10s WALL (       1 calls)

     Called by c_bands:
     init_us_2    :      0.38s CPU      0.19s WALL (     113 calls)
     cegterg      :    260.97s CPU    132.39s WALL (     230 calls)

     Called by *egterg:
     cdiaghg      :      2.88s CPU      1.47s WALL (    4130 calls)
     h_psi        :    220.63s CPU    112.13s WALL (    4360 calls)
     s_psi        :      4.49s CPU      2.27s WALL (    4360 calls)
     g_psi        :      2.90s CPU      1.46s WALL (    4017 calls)

     Called by h_psi:
     h_psi:calbec :      6.43s CPU      3.24s WALL (    4360 calls)
     vloc_psi     :    207.77s CPU    105.65s WALL (    4360 calls)
     add_vuspsi   :      4.77s CPU      2.40s WALL (    4360 calls)

     General routines
     calbec       :      6.40s CPU      3.23s WALL (    4360 calls)
     fft          :      0.87s CPU      0.63s WALL (      13 calls)
     ffts         :      0.00s CPU      0.00s WALL (       1 calls)
     fftw         :    176.77s CPU     89.99s WALL (  113690 calls)
     interpolate  :      0.01s CPU      0.01s WALL (       1 calls)
     davcio       :      0.29s CPU      0.28s WALL (     226 calls)
 
     Parallel routines
 
     PWSCF        :   4m42.98s CPU   2m26.45s WALL

 
   This run was terminated on:  14: 3:56  16Apr2022            

=------------------------------------------------------------------------------=
   JOB DONE.
=------------------------------------------------------------------------------=
