
     Program BANDS v.6.8 starts on 16Apr2022 at 14:15:58 

     This program is part of the open-source Quantum ESPRESSO suite
     for quantum simulation of materials; please cite
         "P. Giannozzi et al., J. Phys.:Condens. Matter 21 395502 (2009);
         "P. Giannozzi et al., J. Phys.:Condens. Matter 29 465901 (2017);
         "P. Giannozzi et al., J. Chem. Phys. 152 154105 (2020);
          URL http://www.quantum-espresso.org", 
     in publications or presentations arising from this work. More details at
     http://www.quantum-espresso.org/quote

     Parallel version (MPI & OpenMP), running on       4 processor cores
     Number of MPI processes:                 2
     Threads/MPI process:                     2

     MPI processes distributed on     1 nodes
     R & G space division:  proc/nbgrp/npool/nimage =       2
     121611 MiB available memory on the printing compute node when the environment starts
 

     Reading xml data from directory:

     /scratch/as3359/MoS2_bandsdos/Ta.save/
     file Mo.pbesol-spn-kjpaw_psl.1.0.0.UPF: wavefunction(s)  4S 4D renormalized
     file S.pbesol-nl-kjpaw_psl.1.0.0.UPF: wavefunction(s)  3S renormalized

     IMPORTANT: XC functional enforced from input :
     Exchange-correlation= PBESOL
                           (   1   4  10   8   0   0   0)
     Any further DFT definition will be discarded
     Please, verify this is what you really want

 
     Parallelization info
     --------------------
     sticks:   dense  smooth     PW     G-vecs:    dense   smooth      PW
     Min         838     729    210               144365   114719   16984
     Max         839     730    211               144374   114728   16985
     Sum        1677    1459    421               288739   229447   33969
 
     Using Slab Decomposition
 

     negative rho (up, down):  5.093E-05 0.000E+00
     Reading collected, re-writing distributed wavefunctions
     high-symmetry point:  0.0000 0.0000 0.0000   x coordinate   0.0000
     high-symmetry point:  0.6828-0.0002 0.0000   x coordinate   0.6828
     high-symmetry point:  0.5121-0.2956 0.0000   x coordinate   1.0240
     high-symmetry point:  0.0000 0.0000 0.0000   x coordinate   1.6152

     Plottable bands (eV) written to file MoS2.Bandx.dat.gnu
     Bands written to file MoS2.Bandx.dat

 **************************************************************************

                    xk=(   0.00000,   0.00000,   0.00000  )

     point group C_1 (1)    
     there are  1 classes
     the character table:

       E    
A      1.00

     the symmetry operations in each class and the name of the first element:

     E        1
                                                                 

     Band symmetry, C_1 (1)     point group:

     e(  1 -  1) =    -60.34875  eV     1   --> A              
     e(  2 -  2) =    -34.55337  eV     1   --> A              
     e(  3 -  3) =    -34.28563  eV     1   --> A              
     e(  4 -  4) =    -34.28431  eV     1   --> A              
     e(  5 -  5) =    -13.85514  eV     1   --> A              
     e(  6 -  6) =    -12.50354  eV     1   --> A              
     e(  7 -  7) =     -5.41428  eV     1   --> A              
     e(  8 -  8) =     -2.23455  eV     1   --> A              
     e(  9 -  9) =     -2.22584  eV     1   --> A              
     e( 10 - 10) =     -1.49382  eV     1   --> A              
     e( 11 - 11) =     -1.07354  eV     1   --> A              
     e( 12 - 12) =     -1.06710  eV     1   --> A              
     e( 13 - 13) =      0.27896  eV     1   --> A              
     e( 14 - 14) =      3.27364  eV     1   --> A              
     e( 15 - 15) =      3.27925  eV     1   --> A              
     e( 16 - 16) =      3.53761  eV     1   --> A              
     e( 17 - 17) =      3.54509  eV     1   --> A              
     e( 18 - 18) =      5.75713  eV     1   --> A              
     e( 19 - 19) =      6.20005  eV     1   --> A              
     e( 20 - 20) =      6.71932  eV     1   --> A              
     e( 21 - 21) =      7.42912  eV     1   --> A              
     e( 22 - 22) =      9.19446  eV     1   --> A              
     e( 23 - 23) =      9.52583  eV     1   --> A              
     e( 24 - 24) =     10.81664  eV     1   --> A              
     e( 25 - 25) =     11.20512  eV     1   --> A              
     e( 26 - 26) =     11.21854  eV     1   --> A              
     e( 27 - 27) =     13.21459  eV     1   --> A              
     e( 28 - 28) =     13.22969  eV     1   --> A              
     e( 29 - 29) =     13.35506  eV     1   --> A              
     e( 30 - 30) =     13.85149  eV     1   --> A              
     e( 31 - 31) =     15.59119  eV     1   --> A              
     e( 32 - 32) =     16.54360  eV     1   --> A              
     e( 33 - 33) =     16.55115  eV     1   --> A              
     e( 34 - 34) =     16.60552  eV     1   --> A              
     e( 35 - 35) =     16.87460  eV     1   --> A              
     e( 36 - 36) =     16.88085  eV     1   --> A              
     e( 37 - 37) =     18.94044  eV     1   --> A              
     e( 38 - 38) =     19.77907  eV     1   --> A              
     e( 39 - 39) =     20.38963  eV     1   --> A              
     e( 40 - 40) =     21.29233  eV     1   --> A              
     e( 41 - 41) =     23.60079  eV     1   --> A              
     e( 42 - 42) =     23.61654  eV     1   --> A              

 **************************************************************************

 **************************************************************************

                    xk=(   0.02276,  -0.00001,   0.00000  )

     Band symmetry, C_1 (1)     point group:

     e(  1 -  1) =    -60.34859  eV     1   --> A              
     e(  2 -  2) =    -34.55304  eV     1   --> A              
     e(  3 -  3) =    -34.28617  eV     1   --> A              
     e(  4 -  4) =    -34.28579  eV     1   --> A              
     e(  5 -  5) =    -13.84920  eV     1   --> A              
     e(  6 -  6) =    -12.50108  eV     1   --> A              
     e(  7 -  7) =     -5.40745  eV     1   --> A              
     e(  8 -  8) =     -2.24043  eV     1   --> A              
     e(  9 -  9) =     -2.22750  eV     1   --> A              
     e( 10 - 10) =     -1.53663  eV     1   --> A              
     e( 11 - 11) =     -1.08345  eV     1   --> A              
     e( 12 - 12) =     -1.03268  eV     1   --> A              
     e( 13 - 13) =      0.27718  eV     1   --> A              
     e( 14 - 14) =      3.26687  eV     1   --> A              
     e( 15 - 15) =      3.28646  eV     1   --> A              
     e( 16 - 16) =      3.52517  eV     1   --> A              
     e( 17 - 17) =      3.53064  eV     1   --> A              
     e( 18 - 18) =      5.76736  eV     1   --> A              
     e( 19 - 19) =      6.20750  eV     1   --> A              
     e( 20 - 20) =      6.74541  eV     1   --> A              
     e( 21 - 21) =      7.43913  eV     1   --> A              
     e( 22 - 22) =      9.20252  eV     1   --> A              
     e( 23 - 23) =      9.55291  eV     1   --> A              
     e( 24 - 24) =     10.80837  eV     1   --> A              
     e( 25 - 25) =     11.21505  eV     1   --> A              
     e( 26 - 26) =     11.22584  eV     1   --> A              
     e( 27 - 27) =     13.17375  eV     1   --> A              
     e( 28 - 28) =     13.21658  eV     1   --> A              
     e( 29 - 29) =     13.35590  eV     1   --> A              
     e( 30 - 30) =     13.85828  eV     1   --> A              
     e( 31 - 31) =     15.59032  eV     1   --> A              
     e( 32 - 32) =     16.49861  eV     1   --> A              
     e( 33 - 33) =     16.55307  eV     1   --> A              
     e( 34 - 34) =     16.68079  eV     1   --> A              
     e( 35 - 35) =     16.85375  eV     1   --> A              
     e( 36 - 36) =     16.88165  eV     1   --> A              
     e( 37 - 37) =     18.96216  eV     1   --> A              
     e( 38 - 38) =     19.80439  eV     1   --> A              
     e( 39 - 39) =     20.43521  eV     1   --> A              
     e( 40 - 40) =     21.28945  eV     1   --> A              
     e( 41 - 41) =     23.57592  eV     1   --> A              
     e( 42 - 42) =     23.61975  eV     1   --> A              

 **************************************************************************

 **************************************************************************

                    xk=(   0.04552,  -0.00001,   0.00000  )

     Band symmetry, C_1 (1)     point group:

     e(  1 -  1) =    -60.34809  eV     1   --> A              
     e(  2 -  2) =    -34.55207  eV     1   --> A              
     e(  3 -  3) =    -34.29090  eV     1   --> A              
     e(  4 -  4) =    -34.28707  eV     1   --> A              
     e(  5 -  5) =    -13.83144  eV     1   --> A              
     e(  6 -  6) =    -12.49373  eV     1   --> A              
     e(  7 -  7) =     -5.38709  eV     1   --> A              
     e(  8 -  8) =     -2.28090  eV     1   --> A              
     e(  9 -  9) =     -2.20909  eV     1   --> A              
     e( 10 - 10) =     -1.63817  eV     1   --> A              
     e( 11 - 11) =     -1.11343  eV     1   --> A              
     e( 12 - 12) =     -0.95600  eV     1   --> A              
     e( 13 - 13) =      0.27153  eV     1   --> A              
     e( 14 - 14) =      3.23731  eV     1   --> A              
     e( 15 - 15) =      3.31863  eV     1   --> A              
     e( 16 - 16) =      3.46845  eV     1   --> A              
     e( 17 - 17) =      3.50941  eV     1   --> A              
     e( 18 - 18) =      5.79707  eV     1   --> A              
     e( 19 - 19) =      6.22979  eV     1   --> A              
     e( 20 - 20) =      6.82178  eV     1   --> A              
     e( 21 - 21) =      7.46967  eV     1   --> A              
     e( 22 - 22) =      9.22566  eV     1   --> A              
     e( 23 - 23) =      9.63312  eV     1   --> A              
     e( 24 - 24) =     10.78137  eV     1   --> A              
     e( 25 - 25) =     11.21406  eV     1   --> A              
     e( 26 - 26) =     11.28178  eV     1   --> A              
     e( 27 - 27) =     13.02107  eV     1   --> A              
     e( 28 - 28) =     13.22131  eV     1   --> A              
     e( 29 - 29) =     13.35622  eV     1   --> A              
     e( 30 - 30) =     13.87724  eV     1   --> A              
     e( 31 - 31) =     15.58731  eV     1   --> A              
     e( 32 - 32) =     16.37654  eV     1   --> A              
     e( 33 - 33) =     16.57270  eV     1   --> A              
     e( 34 - 34) =     16.79040  eV     1   --> A              
     e( 35 - 35) =     16.87721  eV     1   --> A              
     e( 36 - 36) =     16.88658  eV     1   --> A              
     e( 37 - 37) =     19.02725  eV     1   --> A              
     e( 38 - 38) =     19.86821  eV     1   --> A              
     e( 39 - 39) =     20.57397  eV     1   --> A              
     e( 40 - 40) =     21.28074  eV     1   --> A              
     e( 41 - 41) =     23.46802  eV     1   --> A              
     e( 42 - 42) =     23.66645  eV     1   --> A              

 **************************************************************************

 **************************************************************************

                    xk=(   0.06828,  -0.00002,   0.00000  )

     Band symmetry, C_1 (1)     point group:

     e(  1 -  1) =    -60.34726  eV     1   --> A              
     e(  2 -  2) =    -34.55047  eV     1   --> A              
     e(  3 -  3) =    -34.29896  eV     1   --> A              
     e(  4 -  4) =    -34.28892  eV     1   --> A              
     e(  5 -  5) =    -13.80199  eV     1   --> A              
     e(  6 -  6) =    -12.48154  eV     1   --> A              
     e(  7 -  7) =     -5.35363  eV     1   --> A              
     e(  8 -  8) =     -2.34662  eV     1   --> A              
     e(  9 -  9) =     -2.17831  eV     1   --> A              
     e( 10 - 10) =     -1.76574  eV     1   --> A              
     e( 11 - 11) =     -1.16392  eV     1   --> A              
     e( 12 - 12) =     -0.86917  eV     1   --> A              
     e( 13 - 13) =      0.26112  eV     1   --> A              
     e( 14 - 14) =      3.19249  eV     1   --> A              
     e( 15 - 15) =      3.37167  eV     1   --> A              
     e( 16 - 16) =      3.38133  eV     1   --> A              
     e( 17 - 17) =      3.47469  eV     1   --> A              
     e( 18 - 18) =      5.84389  eV     1   --> A              
     e( 19 - 19) =      6.26680  eV     1   --> A              
     e( 20 - 20) =      6.94242  eV     1   --> A              
     e( 21 - 21) =      7.52282  eV     1   --> A              
     e( 22 - 22) =      9.26199  eV     1   --> A              
     e( 23 - 23) =      9.76245  eV     1   --> A              
     e( 24 - 24) =     10.73237  eV     1   --> A              
     e( 25 - 25) =     11.21918  eV     1   --> A              
     e( 26 - 26) =     11.37506  eV     1   --> A              
     e( 27 - 27) =     12.80207  eV     1   --> A              
     e( 28 - 28) =     13.22777  eV     1   --> A              
     e( 29 - 29) =     13.35048  eV     1   --> A              
     e( 30 - 30) =     13.90641  eV     1   --> A              
     e( 31 - 31) =     15.58103  eV     1   --> A              
     e( 32 - 32) =     16.20589  eV     1   --> A              
     e( 33 - 33) =     16.60314  eV     1   --> A              
     e( 34 - 34) =     16.68293  eV     1   --> A              
     e( 35 - 35) =     16.90231  eV     1   --> A              
     e( 36 - 36) =     17.16867  eV     1   --> A              
     e( 37 - 37) =     19.13522  eV     1   --> A              
     e( 38 - 38) =     19.95050  eV     1   --> A              
     e( 39 - 39) =     20.80180  eV     1   --> A              
     e( 40 - 40) =     21.26559  eV     1   --> A              
     e( 41 - 41) =     23.30882  eV     1   --> A              
     e( 42 - 42) =     23.68797  eV     1   --> A              

 **************************************************************************

 **************************************************************************

                    xk=(   0.09104,  -0.00003,   0.00000  )

     Band symmetry, C_1 (1)     point group:

     e(  1 -  1) =    -60.34613  eV     1   --> A              
     e(  2 -  2) =    -34.54827  eV     1   --> A              
     e(  3 -  3) =    -34.31003  eV     1   --> A              
     e(  4 -  4) =    -34.29152  eV     1   --> A              
     e(  5 -  5) =    -13.76109  eV     1   --> A              
     e(  6 -  6) =    -12.46461  eV     1   --> A              
     e(  7 -  7) =     -5.30780  eV     1   --> A              
     e(  8 -  8) =     -2.43443  eV     1   --> A              
     e(  9 -  9) =     -2.13582  eV     1   --> A              
     e( 10 - 10) =     -1.90434  eV     1   --> A              
     e( 11 - 11) =     -1.23547  eV     1   --> A              
     e( 12 - 12) =     -0.78616  eV     1   --> A              
     e( 13 - 13) =      0.24450  eV     1   --> A              
     e( 14 - 14) =      3.13869  eV     1   --> A              
     e( 15 - 15) =      3.27273  eV     1   --> A              
     e( 16 - 16) =      3.42734  eV     1   --> A              
     e( 17 - 17) =      3.44397  eV     1   --> A              
     e( 18 - 18) =      5.90552  eV     1   --> A              
     e( 19 - 19) =      6.31832  eV     1   --> A              
     e( 20 - 20) =      7.09629  eV     1   --> A              
     e( 21 - 21) =      7.60362  eV     1   --> A              
     e( 22 - 22) =      9.31017  eV     1   --> A              
     e( 23 - 23) =      9.93290  eV     1   --> A              
     e( 24 - 24) =     10.66233  eV     1   --> A              
     e( 25 - 25) =     11.23604  eV     1   --> A              
     e( 26 - 26) =     11.50117  eV     1   --> A              
     e( 27 - 27) =     12.54706  eV     1   --> A              
     e( 28 - 28) =     13.23348  eV     1   --> A              
     e( 29 - 29) =     13.33278  eV     1   --> A              
     e( 30 - 30) =     13.94497  eV     1   --> A              
     e( 31 - 31) =     15.56974  eV     1   --> A              
     e( 32 - 32) =     16.01389  eV     1   --> A              
     e( 33 - 33) =     16.53095  eV     1   --> A              
     e( 34 - 34) =     16.64427  eV     1   --> A              
     e( 35 - 35) =     16.93694  eV     1   --> A              
     e( 36 - 36) =     17.52598  eV     1   --> A              
     e( 37 - 37) =     19.28453  eV     1   --> A              
     e( 38 - 38) =     20.04345  eV     1   --> A              
     e( 39 - 39) =     21.09873  eV     1   --> A              
     e( 40 - 40) =     21.24175  eV     1   --> A              
     e( 41 - 41) =     23.09625  eV     1   --> A              
     e( 42 - 42) =     23.13798  eV     1   --> A              

 **************************************************************************

 **************************************************************************

                    xk=(   0.11380,  -0.00004,   0.00000  )

     Band symmetry, C_1 (1)     point group:

     e(  1 -  1) =    -60.34470  eV     1   --> A              
     e(  2 -  2) =    -34.54548  eV     1   --> A              
     e(  3 -  3) =    -34.32388  eV     1   --> A              
     e(  4 -  4) =    -34.29486  eV     1   --> A              
     e(  5 -  5) =    -13.70908  eV     1   --> A              
     e(  6 -  6) =    -12.44308  eV     1   --> A              
     e(  7 -  7) =     -5.25063  eV     1   --> A              
     e(  8 -  8) =     -2.54056  eV     1   --> A              
     e(  9 -  9) =     -2.08237  eV     1   --> A              
     e( 10 - 10) =     -2.04709  eV     1   --> A              
     e( 11 - 11) =     -1.32849  eV     1   --> A              
     e( 12 - 12) =     -0.71248  eV     1   --> A              
     e( 13 - 13) =      0.21982  eV     1   --> A              
     e( 14 - 14) =      3.08261  eV     1   --> A              
     e( 15 - 15) =      3.15191  eV     1   --> A              
     e( 16 - 16) =      3.36881  eV     1   --> A              
     e( 17 - 17) =      3.53354  eV     1   --> A              
     e( 18 - 18) =      5.98040  eV     1   --> A              
     e( 19 - 19) =      6.38411  eV     1   --> A              
     e( 20 - 20) =      7.26588  eV     1   --> A              
     e( 21 - 21) =      7.72244  eV     1   --> A              
     e( 22 - 22) =      9.36939  eV     1   --> A              
     e( 23 - 23) =     10.13266  eV     1   --> A              
     e( 24 - 24) =     10.57684  eV     1   --> A              
     e( 25 - 25) =     11.26536  eV     1   --> A              
     e( 26 - 26) =     11.65329  eV     1   --> A              
     e( 27 - 27) =     12.28019  eV     1   --> A              
     e( 28 - 28) =     13.23461  eV     1   --> A              
     e( 29 - 29) =     13.30040  eV     1   --> A              
     e( 30 - 30) =     13.99284  eV     1   --> A              
     e( 31 - 31) =     15.55022  eV     1   --> A              
     e( 32 - 32) =     15.82607  eV     1   --> A              
     e( 33 - 33) =     16.33780  eV     1   --> A              
     e( 34 - 34) =     16.69524  eV     1   --> A              
     e( 35 - 35) =     16.99732  eV     1   --> A              
     e( 36 - 36) =     17.92498  eV     1   --> A              
     e( 37 - 37) =     19.47198  eV     1   --> A              
     e( 38 - 38) =     20.14950  eV     1   --> A              
     e( 39 - 39) =     21.20280  eV     1   --> A              
     e( 40 - 40) =     21.43312  eV     1   --> A              
     e( 41 - 41) =     22.58807  eV     1   --> A              
     e( 42 - 42) =     22.77657  eV     1   --> A              

 **************************************************************************

 **************************************************************************

                    xk=(   0.13656,  -0.00004,   0.00000  )

     Band symmetry, C_1 (1)     point group:

     e(  1 -  1) =    -60.34299  eV     1   --> A              
     e(  2 -  2) =    -34.54216  eV     1   --> A              
     e(  3 -  3) =    -34.34024  eV     1   --> A              
     e(  4 -  4) =    -34.29894  eV     1   --> A              
     e(  5 -  5) =    -13.64637  eV     1   --> A              
     e(  6 -  6) =    -12.41712  eV     1   --> A              
     e(  7 -  7) =     -5.18357  eV     1   --> A              
     e(  8 -  8) =     -2.66072  eV     1   --> A              
     e(  9 -  9) =     -2.19007  eV     1   --> A              
     e( 10 - 10) =     -2.01902  eV     1   --> A              
     e( 11 - 11) =     -1.44287  eV     1   --> A              
     e( 12 - 12) =     -0.65047  eV     1   --> A              
     e( 13 - 13) =      0.18499  eV     1   --> A              
     e( 14 - 14) =      3.02730  eV     1   --> A              
     e( 15 - 15) =      3.03050  eV     1   --> A              
     e( 16 - 16) =      3.30127  eV     1   --> A              
     e( 17 - 17) =      3.63794  eV     1   --> A              
     e( 18 - 18) =      6.06776  eV     1   --> A              
     e( 19 - 19) =      6.46388  eV     1   --> A              
     e( 20 - 20) =      7.42981  eV     1   --> A              
     e( 21 - 21) =      7.89319  eV     1   --> A              
     e( 22 - 22) =      9.43883  eV     1   --> A              
     e( 23 - 23) =     10.34560  eV     1   --> A              
     e( 24 - 24) =     10.48280  eV     1   --> A              
     e( 25 - 25) =     11.30523  eV     1   --> A              
     e( 26 - 26) =     11.82098  eV     1   --> A              
     e( 27 - 27) =     12.02179  eV     1   --> A              
     e( 28 - 28) =     13.22601  eV     1   --> A              
     e( 29 - 29) =     13.25737  eV     1   --> A              
     e( 30 - 30) =     14.05070  eV     1   --> A              
     e( 31 - 31) =     15.51372  eV     1   --> A              
     e( 32 - 32) =     15.66385  eV     1   --> A              
     e( 33 - 33) =     16.11517  eV     1   --> A              
     e( 34 - 34) =     16.75482  eV     1   --> A              
     e( 35 - 35) =     17.08747  eV     1   --> A              
     e( 36 - 36) =     18.34645  eV     1   --> A              
     e( 37 - 37) =     19.69202  eV     1   --> A              
     e( 38 - 38) =     20.27344  eV     1   --> A              
     e( 39 - 39) =     21.13330  eV     1   --> A              
     e( 40 - 40) =     21.74360  eV     1   --> A              
     e( 41 - 41) =     22.06244  eV     1   --> A              
     e( 42 - 42) =     22.26237  eV     1   --> A              

 **************************************************************************

 **************************************************************************

                    xk=(   0.15932,  -0.00005,   0.00000  )

     Band symmetry, C_1 (1)     point group:

     e(  1 -  1) =    -60.34103  eV     1   --> A              
     e(  2 -  2) =    -34.53835  eV     1   --> A              
     e(  3 -  3) =    -34.35881  eV     1   --> A              
     e(  4 -  4) =    -34.30378  eV     1   --> A              
     e(  5 -  5) =    -13.57347  eV     1   --> A              
     e(  6 -  6) =    -12.38695  eV     1   --> A              
     e(  7 -  7) =     -5.10849  eV     1   --> A              
     e(  8 -  8) =     -2.79023  eV     1   --> A              
     e(  9 -  9) =     -2.33064  eV     1   --> A              
     e( 10 - 10) =     -1.94726  eV     1   --> A              
     e( 11 - 11) =     -1.57778  eV     1   --> A              
     e( 12 - 12) =     -0.60107  eV     1   --> A              
     e( 13 - 13) =      0.13805  eV     1   --> A              
     e( 14 - 14) =      2.90584  eV     1   --> A              
     e( 15 - 15) =      2.98745  eV     1   --> A              
     e( 16 - 16) =      3.22779  eV     1   --> A              
     e( 17 - 17) =      3.75430  eV     1   --> A              
     e( 18 - 18) =      6.16732  eV     1   --> A              
     e( 19 - 19) =      6.55731  eV     1   --> A              
     e( 20 - 20) =      7.57674  eV     1   --> A              
     e( 21 - 21) =      8.11985  eV     1   --> A              
     e( 22 - 22) =      9.51724  eV     1   --> A              
     e( 23 - 23) =     10.38588  eV     1   --> A              
     e( 24 - 24) =     10.54756  eV     1   --> A              
     e( 25 - 25) =     11.35261  eV     1   --> A              
     e( 26 - 26) =     11.79511  eV     1   --> A              
     e( 27 - 27) =     11.98785  eV     1   --> A              
     e( 28 - 28) =     13.20219  eV     1   --> A              
     e( 29 - 29) =     13.21804  eV     1   --> A              
     e( 30 - 30) =     14.12071  eV     1   --> A              
     e( 31 - 31) =     15.43213  eV     1   --> A              
     e( 32 - 32) =     15.54365  eV     1   --> A              
     e( 33 - 33) =     15.89651  eV     1   --> A              
     e( 34 - 34) =     16.82145  eV     1   --> A              
     e( 35 - 35) =     17.20834  eV     1   --> A              
     e( 36 - 36) =     18.77317  eV     1   --> A              
     e( 37 - 37) =     19.93553  eV     1   --> A              
     e( 38 - 38) =     20.41771  eV     1   --> A              
     e( 39 - 39) =     21.00262  eV     1   --> A              
     e( 40 - 40) =     21.54491  eV     1   --> A              
     e( 41 - 41) =     21.71571  eV     1   --> A              
     e( 42 - 42) =     21.82194  eV     1   --> A              

 **************************************************************************

 **************************************************************************

                    xk=(   0.18208,  -0.00006,   0.00000  )

     Band symmetry, C_1 (1)     point group:

     e(  1 -  1) =    -60.33885  eV     1   --> A              
     e(  2 -  2) =    -34.53410  eV     1   --> A              
     e(  3 -  3) =    -34.37922  eV     1   --> A              
     e(  4 -  4) =    -34.30938  eV     1   --> A              
     e(  5 -  5) =    -13.49099  eV     1   --> A              
     e(  6 -  6) =    -12.35280  eV     1   --> A              
     e(  7 -  7) =     -5.02784  eV     1   --> A              
     e(  8 -  8) =     -2.92414  eV     1   --> A              
     e(  9 -  9) =     -2.46700  eV     1   --> A              
     e( 10 - 10) =     -1.86918  eV     1   --> A              
     e( 11 - 11) =     -1.73144  eV     1   --> A              
     e( 12 - 12) =     -0.56455  eV     1   --> A              
     e( 13 - 13) =      0.07775  eV     1   --> A              
     e( 14 - 14) =      2.79249  eV     1   --> A              
     e( 15 - 15) =      2.95702  eV     1   --> A              
     e( 16 - 16) =      3.15252  eV     1   --> A              
     e( 17 - 17) =      3.87946  eV     1   --> A              
     e( 18 - 18) =      6.27900  eV     1   --> A              
     e( 19 - 19) =      6.66399  eV     1   --> A              
     e( 20 - 20) =      7.71188  eV     1   --> A              
     e( 21 - 21) =      8.39008  eV     1   --> A              
     e( 22 - 22) =      9.60272  eV     1   --> A              
     e( 23 - 23) =     10.28962  eV     1   --> A              
     e( 24 - 24) =     10.69632  eV     1   --> A              
     e( 25 - 25) =     11.40369  eV     1   --> A              
     e( 26 - 26) =     11.63866  eV     1   --> A              
     e( 27 - 27) =     12.12846  eV     1   --> A              
     e( 28 - 28) =     13.15976  eV     1   --> A              
     e( 29 - 29) =     13.20983  eV     1   --> A              
     e( 30 - 30) =     14.20667  eV     1   --> A              
     e( 31 - 31) =     15.24774  eV     1   --> A              
     e( 32 - 32) =     15.47501  eV     1   --> A              
     e( 33 - 33) =     15.74700  eV     1   --> A              
     e( 34 - 34) =     16.89346  eV     1   --> A              
     e( 35 - 35) =     17.35849  eV     1   --> A              
     e( 36 - 36) =     19.18703  eV     1   --> A              
     e( 37 - 37) =     20.18283  eV     1   --> A              
     e( 38 - 38) =     20.56242  eV     1   --> A              
     e( 39 - 39) =     20.77700  eV     1   --> A              
     e( 40 - 40) =     21.09507  eV     1   --> A              
     e( 41 - 41) =     21.18125  eV     1   --> A              
     e( 42 - 42) =     21.47459  eV     1   --> A              

 **************************************************************************

 **************************************************************************

                    xk=(   0.20484,  -0.00006,   0.00000  )

     Band symmetry, C_1 (1)     point group:

     e(  1 -  1) =    -60.33648  eV     1   --> A              
     e(  2 -  2) =    -34.52948  eV     1   --> A              
     e(  3 -  3) =    -34.40108  eV     1   --> A              
     e(  4 -  4) =    -34.31573  eV     1   --> A              
     e(  5 -  5) =    -13.39962  eV     1   --> A              
     e(  6 -  6) =    -12.31498  eV     1   --> A              
     e(  7 -  7) =     -4.94485  eV     1   --> A              
     e(  8 -  8) =     -3.05716  eV     1   --> A              
     e(  9 -  9) =     -2.59799  eV     1   --> A              
     e( 10 - 10) =     -1.90102  eV     1   --> A              
     e( 11 - 11) =     -1.78773  eV     1   --> A              
     e( 12 - 12) =     -0.54083  eV     1   --> A              
     e( 13 - 13) =      0.00413  eV     1   --> A              
     e( 14 - 14) =      2.68988  eV     1   --> A              
     e( 15 - 15) =      2.94128  eV     1   --> A              
     e( 16 - 16) =      3.08075  eV     1   --> A              
     e( 17 - 17) =      4.01008  eV     1   --> A              
     e( 18 - 18) =      6.40275  eV     1   --> A              
     e( 19 - 19) =      6.78342  eV     1   --> A              
     e( 20 - 20) =      7.84447  eV     1   --> A              
     e( 21 - 21) =      8.68749  eV     1   --> A              
     e( 22 - 22) =      9.69215  eV     1   --> A              
     e( 23 - 23) =     10.19552  eV     1   --> A              
     e( 24 - 24) =     10.73418  eV     1   --> A              
     e( 25 - 25) =     11.45357  eV     1   --> A              
     e( 26 - 26) =     11.60571  eV     1   --> A              
     e( 27 - 27) =     12.21401  eV     1   --> A              
     e( 28 - 28) =     13.10039  eV     1   --> A              
     e( 29 - 29) =     13.26583  eV     1   --> A              
     e( 30 - 30) =     14.31304  eV     1   --> A              
     e( 31 - 31) =     14.95878  eV     1   --> A              
     e( 32 - 32) =     15.45861  eV     1   --> A              
     e( 33 - 33) =     15.67888  eV     1   --> A              
     e( 34 - 34) =     16.96940  eV     1   --> A              
     e( 35 - 35) =     17.53491  eV     1   --> A              
     e( 36 - 36) =     19.56752  eV     1   --> A              
     e( 37 - 37) =     20.28815  eV     1   --> A              
     e( 38 - 38) =     20.47825  eV     1   --> A              
     e( 39 - 39) =     20.52799  eV     1   --> A              
     e( 40 - 40) =     20.72198  eV     1   --> A              
     e( 41 - 41) =     20.83045  eV     1   --> A              
     e( 42 - 42) =     21.14413  eV     1   --> A              

 **************************************************************************

 **************************************************************************

                    xk=(   0.22760,  -0.00007,   0.00000  )

     Band symmetry, C_1 (1)     point group:

     e(  1 -  1) =    -60.33395  eV     1   --> A              
     e(  2 -  2) =    -34.52454  eV     1   --> A              
     e(  3 -  3) =    -34.42400  eV     1   --> A              
     e(  4 -  4) =    -34.32284  eV     1   --> A              
     e(  5 -  5) =    -13.30014  eV     1   --> A              
     e(  6 -  6) =    -12.27379  eV     1   --> A              
     e(  7 -  7) =     -4.86371  eV     1   --> A              
     e(  8 -  8) =     -3.18346  eV     1   --> A              
     e(  9 -  9) =     -2.72332  eV     1   --> A              
     e( 10 - 10) =     -2.08256  eV     1   --> A              
     e( 11 - 11) =     -1.70703  eV     1   --> A              
     e( 12 - 12) =     -0.52971  eV     1   --> A              
     e( 13 - 13) =     -0.08076  eV     1   --> A              
     e( 14 - 14) =      2.59839  eV     1   --> A              
     e( 15 - 15) =      2.94093  eV     1   --> A              
     e( 16 - 16) =      3.01856  eV     1   --> A              
     e( 17 - 17) =      4.14273  eV     1   --> A              
     e( 18 - 18) =      6.53849  eV     1   --> A              
     e( 19 - 19) =      6.91500  eV     1   --> A              
     e( 20 - 20) =      7.98037  eV     1   --> A              
     e( 21 - 21) =      8.99823  eV     1   --> A              
     e( 22 - 22) =      9.78027  eV     1   --> A              
     e( 23 - 23) =     10.10373  eV     1   --> A              
     e( 24 - 24) =     10.66303  eV     1   --> A              
     e( 25 - 25) =     11.49602  eV     1   --> A              
     e( 26 - 26) =     11.69177  eV     1   --> A              
     e( 27 - 27) =     12.23865  eV     1   --> A              
     e( 28 - 28) =     13.03186  eV     1   --> A              
     e( 29 - 29) =     13.39344  eV     1   --> A              
     e( 30 - 30) =     14.44284  eV     1   --> A              
     e( 31 - 31) =     14.62493  eV     1   --> A              
     e( 32 - 32) =     15.48599  eV     1   --> A              
     e( 33 - 33) =     15.64995  eV     1   --> A              
     e( 34 - 34) =     17.04875  eV     1   --> A              
     e( 35 - 35) =     17.73362  eV     1   --> A              
     e( 36 - 36) =     19.87404  eV     1   --> A              
     e( 37 - 37) =     19.94630  eV     1   --> A              
     e( 38 - 38) =     20.10934  eV     1   --> A              
     e( 39 - 39) =     20.13375  eV     1   --> A              
     e( 40 - 40) =     20.45325  eV     1   --> A              
     e( 41 - 41) =     20.81822  eV     1   --> A              
     e( 42 - 42) =     21.19491  eV     1   --> A              

 **************************************************************************

 **************************************************************************

                    xk=(   0.25036,  -0.00008,   0.00000  )

     Band symmetry, C_1 (1)     point group:

     e(  1 -  1) =    -60.33129  eV     1   --> A              
     e(  2 -  2) =    -34.51935  eV     1   --> A              
     e(  3 -  3) =    -34.44754  eV     1   --> A              
     e(  4 -  4) =    -34.33070  eV     1   --> A              
     e(  5 -  5) =    -13.19344  eV     1   --> A              
     e(  6 -  6) =    -12.22961  eV     1   --> A              
     e(  7 -  7) =     -4.78985  eV     1   --> A              
     e(  8 -  8) =     -3.29649  eV     1   --> A              
     e(  9 -  9) =     -2.84399  eV     1   --> A              
     e( 10 - 10) =     -2.27064  eV     1   --> A              
     e( 11 - 11) =     -1.63283  eV     1   --> A              
     e( 12 - 12) =     -0.53093  eV     1   --> A              
     e( 13 - 13) =     -0.17238  eV     1   --> A              
     e( 14 - 14) =      2.51724  eV     1   --> A              
     e( 15 - 15) =      2.95563  eV     1   --> A              
     e( 16 - 16) =      2.97176  eV     1   --> A              
     e( 17 - 17) =      4.27403  eV     1   --> A              
     e( 18 - 18) =      6.68602  eV     1   --> A              
     e( 19 - 19) =      7.05801  eV     1   --> A              
     e( 20 - 20) =      8.12248  eV     1   --> A              
     e( 21 - 21) =      9.30758  eV     1   --> A              
     e( 22 - 22) =      9.85738  eV     1   --> A              
     e( 23 - 23) =     10.01625  eV     1   --> A              
     e( 24 - 24) =     10.55579  eV     1   --> A              
     e( 25 - 25) =     11.52458  eV     1   --> A              
     e( 26 - 26) =     11.82709  eV     1   --> A              
     e( 27 - 27) =     12.23022  eV     1   --> A              
     e( 28 - 28) =     12.96569  eV     1   --> A              
     e( 29 - 29) =     13.54141  eV     1   --> A              
     e( 30 - 30) =     14.30968  eV     1   --> A              
     e( 31 - 31) =     14.59577  eV     1   --> A              
     e( 32 - 32) =     15.54114  eV     1   --> A              
     e( 33 - 33) =     15.64143  eV     1   --> A              
     e( 34 - 34) =     17.13314  eV     1   --> A              
     e( 35 - 35) =     17.94990  eV     1   --> A              
     e( 36 - 36) =     19.50639  eV     1   --> A              
     e( 37 - 37) =     19.62097  eV     1   --> A              
     e( 38 - 38) =     19.68778  eV     1   --> A              
     e( 39 - 39) =     19.99046  eV     1   --> A              
     e( 40 - 40) =     20.23637  eV     1   --> A              
     e( 41 - 41) =     20.81681  eV     1   --> A              
     e( 42 - 42) =     21.04969  eV     1   --> A              

 **************************************************************************

 **************************************************************************

                    xk=(   0.27312,  -0.00008,   0.00000  )

     Band symmetry, C_1 (1)     point group:

     e(  1 -  1) =    -60.32854  eV     1   --> A              
     e(  2 -  2) =    -34.51399  eV     1   --> A              
     e(  3 -  3) =    -34.47128  eV     1   --> A              
     e(  4 -  4) =    -34.33931  eV     1   --> A              
     e(  5 -  5) =    -13.08049  eV     1   --> A              
     e(  6 -  6) =    -12.18284  eV     1   --> A              
     e(  7 -  7) =     -4.72991  eV     1   --> A              
     e(  8 -  8) =     -3.38897  eV     1   --> A              
     e(  9 -  9) =     -2.96320  eV     1   --> A              
     e( 10 - 10) =     -2.45767  eV     1   --> A              
     e( 11 - 11) =     -1.57301  eV     1   --> A              
     e( 12 - 12) =     -0.54423  eV     1   --> A              
     e( 13 - 13) =     -0.26343  eV     1   --> A              
     e( 14 - 14) =      2.44627  eV     1   --> A              
     e( 15 - 15) =      2.94424  eV     1   --> A              
     e( 16 - 16) =      2.98426  eV     1   --> A              
     e( 17 - 17) =      4.40074  eV     1   --> A              
     e( 18 - 18) =      6.84498  eV     1   --> A              
     e( 19 - 19) =      7.21160  eV     1   --> A              
     e( 20 - 20) =      8.27208  eV     1   --> A              
     e( 21 - 21) =      9.57823  eV     1   --> A              
     e( 22 - 22) =      9.90629  eV     1   --> A              
     e( 23 - 23) =      9.95766  eV     1   --> A              
     e( 24 - 24) =     10.47367  eV     1   --> A              
     e( 25 - 25) =     11.53663  eV     1   --> A              
     e( 26 - 26) =     11.96462  eV     1   --> A              
     e( 27 - 27) =     12.22017  eV     1   --> A              
     e( 28 - 28) =     12.91320  eV     1   --> A              
     e( 29 - 29) =     13.53687  eV     1   --> A              
     e( 30 - 30) =     14.17410  eV     1   --> A              
     e( 31 - 31) =     14.76734  eV     1   --> A              
     e( 32 - 32) =     15.60221  eV     1   --> A              
     e( 33 - 33) =     15.65228  eV     1   --> A              
     e( 34 - 34) =     17.22746  eV     1   --> A              
     e( 35 - 35) =     18.17741  eV     1   --> A              
     e( 36 - 36) =     19.05325  eV     1   --> A              
     e( 37 - 37) =     19.14418  eV     1   --> A              
     e( 38 - 38) =     19.34473  eV     1   --> A              
     e( 39 - 39) =     19.54450  eV     1   --> A              
     e( 40 - 40) =     20.42105  eV     1   --> A              
     e( 41 - 41) =     20.47777  eV     1   --> A              
     e( 42 - 42) =     20.69883  eV     1   --> A              

 **************************************************************************

 **************************************************************************

                    xk=(   0.29588,  -0.00009,   0.00000  )

     Band symmetry, C_1 (1)     point group:

     e(  1 -  1) =    -60.32574  eV     1   --> A              
     e(  2 -  2) =    -34.50852  eV     1   --> A              
     e(  3 -  3) =    -34.49481  eV     1   --> A              
     e(  4 -  4) =    -34.34865  eV     1   --> A              
     e(  5 -  5) =    -12.96239  eV     1   --> A              
     e(  6 -  6) =    -12.13389  eV     1   --> A              
     e(  7 -  7) =     -4.69086  eV     1   --> A              
     e(  8 -  8) =     -3.45374  eV     1   --> A              
     e(  9 -  9) =     -3.08774  eV     1   --> A              
     e( 10 - 10) =     -2.63268  eV     1   --> A              
     e( 11 - 11) =     -1.53748  eV     1   --> A              
     e( 12 - 12) =     -0.56935  eV     1   --> A              
     e( 13 - 13) =     -0.34415  eV     1   --> A              
     e( 14 - 14) =      2.38739  eV     1   --> A              
     e( 15 - 15) =      2.93683  eV     1   --> A              
     e( 16 - 16) =      3.02517  eV     1   --> A              
     e( 17 - 17) =      4.51992  eV     1   --> A              
     e( 18 - 18) =      7.01483  eV     1   --> A              
     e( 19 - 19) =      7.37480  eV     1   --> A              
     e( 20 - 20) =      8.42953  eV     1   --> A              
     e( 21 - 21) =      9.65965  eV     1   --> A              
     e( 22 - 22) =      9.90910  eV     1   --> A              
     e( 23 - 23) =     10.06558  eV     1   --> A              
     e( 24 - 24) =     10.45285  eV     1   --> A              
     e( 25 - 25) =     11.53822  eV     1   --> A              
     e( 26 - 26) =     12.08871  eV     1   --> A              
     e( 27 - 27) =     12.21938  eV     1   --> A              
     e( 28 - 28) =     12.88158  eV     1   --> A              
     e( 29 - 29) =     13.27887  eV     1   --> A              
     e( 30 - 30) =     14.31107  eV     1   --> A              
     e( 31 - 31) =     14.94812  eV     1   --> A              
     e( 32 - 32) =     15.64498  eV     1   --> A              
     e( 33 - 33) =     15.68944  eV     1   --> A              
     e( 34 - 34) =     17.33833  eV     1   --> A              
     e( 35 - 35) =     18.39032  eV     1   --> A              
     e( 36 - 36) =     18.61832  eV     1   --> A              
     e( 37 - 37) =     18.68994  eV     1   --> A              
     e( 38 - 38) =     19.02130  eV     1   --> A              
     e( 39 - 39) =     19.12995  eV     1   --> A              
     e( 40 - 40) =     20.00272  eV     1   --> A              
     e( 41 - 41) =     20.26478  eV     1   --> A              
     e( 42 - 42) =     20.69710  eV     1   --> A              

 **************************************************************************

 **************************************************************************

                    xk=(   0.31864,  -0.00010,   0.00000  )

     Band symmetry, C_1 (1)     point group:

     e(  1 -  1) =    -60.32292  eV     1   --> A              
     e(  2 -  2) =    -34.51770  eV     1   --> A              
     e(  3 -  3) =    -34.50302  eV     1   --> A              
     e(  4 -  4) =    -34.35872  eV     1   --> A              
     e(  5 -  5) =    -12.84030  eV     1   --> A              
     e(  6 -  6) =    -12.08325  eV     1   --> A              
     e(  7 -  7) =     -4.67757  eV     1   --> A              
     e(  8 -  8) =     -3.48615  eV     1   --> A              
     e(  9 -  9) =     -3.22767  eV     1   --> A              
     e( 10 - 10) =     -2.78177  eV     1   --> A              
     e( 11 - 11) =     -1.53652  eV     1   --> A              
     e( 12 - 12) =     -0.60597  eV     1   --> A              
     e( 13 - 13) =     -0.40435  eV     1   --> A              
     e( 14 - 14) =      2.34456  eV     1   --> A              
     e( 15 - 15) =      2.94739  eV     1   --> A              
     e( 16 - 16) =      3.07628  eV     1   --> A              
     e( 17 - 17) =      4.62909  eV     1   --> A              
     e( 18 - 18) =      7.19470  eV     1   --> A              
     e( 19 - 19) =      7.54655  eV     1   --> A              
     e( 20 - 20) =      8.59462  eV     1   --> A              
     e( 21 - 21) =      9.56376  eV     1   --> A              
     e( 22 - 22) =      9.87373  eV     1   --> A              
     e( 23 - 23) =     10.31505  eV     1   --> A              
     e( 24 - 24) =     10.49336  eV     1   --> A              
     e( 25 - 25) =     11.54165  eV     1   --> A              
     e( 26 - 26) =     12.20073  eV     1   --> A              
     e( 27 - 27) =     12.21320  eV     1   --> A              
     e( 28 - 28) =     12.87159  eV     1   --> A              
     e( 29 - 29) =     12.96851  eV     1   --> A              
     e( 30 - 30) =     14.52549  eV     1   --> A              
     e( 31 - 31) =     15.11920  eV     1   --> A              
     e( 32 - 32) =     15.65526  eV     1   --> A              
     e( 33 - 33) =     15.76321  eV     1   --> A              
     e( 34 - 34) =     17.46435  eV     1   --> A              
     e( 35 - 35) =     18.14318  eV     1   --> A              
     e( 36 - 36) =     18.22672  eV     1   --> A              
     e( 37 - 37) =     18.64596  eV     1   --> A              
     e( 38 - 38) =     18.68074  eV     1   --> A              
     e( 39 - 39) =     18.84382  eV     1   --> A              
     e( 40 - 40) =     19.58567  eV     1   --> A              
     e( 41 - 41) =     19.85172  eV     1   --> A              
     e( 42 - 42) =     20.86345  eV     1   --> A              

 **************************************************************************

 **************************************************************************

                    xk=(   0.34140,  -0.00011,   0.00000  )

     Band symmetry, C_1 (1)     point group:

     e(  1 -  1) =    -60.32012  eV     1   --> A              
     e(  2 -  2) =    -34.53956  eV     1   --> A              
     e(  3 -  3) =    -34.49756  eV     1   --> A              
     e(  4 -  4) =    -34.36948  eV     1   --> A              
     e(  5 -  5) =    -12.71555  eV     1   --> A              
     e(  6 -  6) =    -12.03141  eV     1   --> A              
     e(  7 -  7) =     -4.69000  eV     1   --> A              
     e(  8 -  8) =     -3.48685  eV     1   --> A              
     e(  9 -  9) =     -3.38966  eV     1   --> A              
     e( 10 - 10) =     -2.89478  eV     1   --> A              
     e( 11 - 11) =     -1.57649  eV     1   --> A              
     e( 12 - 12) =     -0.65369  eV     1   --> A              
     e( 13 - 13) =     -0.43749  eV     1   --> A              
     e( 14 - 14) =      2.32258  eV     1   --> A              
     e( 15 - 15) =      2.97195  eV     1   --> A              
     e( 16 - 16) =      3.13516  eV     1   --> A              
     e( 17 - 17) =      4.72645  eV     1   --> A              
     e( 18 - 18) =      7.38324  eV     1   --> A              
     e( 19 - 19) =      7.72564  eV     1   --> A              
     e( 20 - 20) =      8.76647  eV     1   --> A              
     e( 21 - 21) =      9.42066  eV     1   --> A              
     e( 22 - 22) =      9.82952  eV     1   --> A              
     e( 23 - 23) =     10.56167  eV     1   --> A              
     e( 24 - 24) =     10.57075  eV     1   --> A              
     e( 25 - 25) =     11.55378  eV     1   --> A              
     e( 26 - 26) =     12.16180  eV     1   --> A              
     e( 27 - 27) =     12.31009  eV     1   --> A              
     e( 28 - 28) =     12.72969  eV     1   --> A              
     e( 29 - 29) =     12.87819  eV     1   --> A              
     e( 30 - 30) =     14.73181  eV     1   --> A              
     e( 31 - 31) =     15.23030  eV     1   --> A              
     e( 32 - 32) =     15.66194  eV     1   --> A              
     e( 33 - 33) =     15.87839  eV     1   --> A              
     e( 34 - 34) =     17.57416  eV     1   --> A              
     e( 35 - 35) =     17.72772  eV     1   --> A              
     e( 36 - 36) =     17.80373  eV     1   --> A              
     e( 37 - 37) =     18.25012  eV     1   --> A              
     e( 38 - 38) =     18.68723  eV     1   --> A              
     e( 39 - 39) =     18.87202  eV     1   --> A              
     e( 40 - 40) =     19.20397  eV     1   --> A              
     e( 41 - 41) =     19.47461  eV     1   --> A              
     e( 42 - 42) =     20.74927  eV     1   --> A              

 **************************************************************************

 **************************************************************************

                    xk=(   0.36416,  -0.00011,   0.00000  )

     Band symmetry, C_1 (1)     point group:

     e(  1 -  1) =    -60.31738  eV     1   --> A              
     e(  2 -  2) =    -34.56004  eV     1   --> A              
     e(  3 -  3) =    -34.49220  eV     1   --> A              
     e(  4 -  4) =    -34.38092  eV     1   --> A              
     e(  5 -  5) =    -12.58953  eV     1   --> A              
     e(  6 -  6) =    -11.97891  eV     1   --> A              
     e(  7 -  7) =     -4.72246  eV     1   --> A              
     e(  8 -  8) =     -3.57009  eV     1   --> A              
     e(  9 -  9) =     -3.46238  eV     1   --> A              
     e( 10 - 10) =     -2.97231  eV     1   --> A              
     e( 11 - 11) =     -1.65608  eV     1   --> A              
     e( 12 - 12) =     -0.71198  eV     1   --> A              
     e( 13 - 13) =     -0.44414  eV     1   --> A              
     e( 14 - 14) =      2.32540  eV     1   --> A              
     e( 15 - 15) =      3.00587  eV     1   --> A              
     e( 16 - 16) =      3.19907  eV     1   --> A              
     e( 17 - 17) =      4.81115  eV     1   --> A              
     e( 18 - 18) =      7.57822  eV     1   --> A              
     e( 19 - 19) =      7.91073  eV     1   --> A              
     e( 20 - 20) =      8.94289  eV     1   --> A              
     e( 21 - 21) =      9.25801  eV     1   --> A              
     e( 22 - 22) =      9.79847  eV     1   --> A              
     e( 23 - 23) =     10.66748  eV     1   --> A              
     e( 24 - 24) =     10.75727  eV     1   --> A              
     e( 25 - 25) =     11.55587  eV     1   --> A              
     e( 26 - 26) =     12.06245  eV     1   --> A              
     e( 27 - 27) =     12.42689  eV     1   --> A              
     e( 28 - 28) =     12.62794  eV     1   --> A              
     e( 29 - 29) =     12.89436  eV     1   --> A              
     e( 30 - 30) =     14.90932  eV     1   --> A              
     e( 31 - 31) =     15.19644  eV     1   --> A              
     e( 32 - 32) =     15.74455  eV     1   --> A              
     e( 33 - 33) =     16.01460  eV     1   --> A              
     e( 34 - 34) =     17.32567  eV     1   --> A              
     e( 35 - 35) =     17.41982  eV     1   --> A              
     e( 36 - 36) =     17.59135  eV     1   --> A              
     e( 37 - 37) =     17.87909  eV     1   --> A              
     e( 38 - 38) =     18.67356  eV     1   --> A              
     e( 39 - 39) =     18.71760  eV     1   --> A              
     e( 40 - 40) =     19.00116  eV     1   --> A              
     e( 41 - 41) =     19.31341  eV     1   --> A              
     e( 42 - 42) =     20.52004  eV     1   --> A              

 **************************************************************************

 **************************************************************************

                    xk=(   0.38692,  -0.00012,   0.00000  )

     Band symmetry, C_1 (1)     point group:

     e(  1 -  1) =    -60.31473  eV     1   --> A              
     e(  2 -  2) =    -34.57879  eV     1   --> A              
     e(  3 -  3) =    -34.48701  eV     1   --> A              
     e(  4 -  4) =    -34.39300  eV     1   --> A              
     e(  5 -  5) =    -12.46379  eV     1   --> A              
     e(  6 -  6) =    -11.92634  eV     1   --> A              
     e(  7 -  7) =     -4.76627  eV     1   --> A              
     e(  8 -  8) =     -3.75965  eV     1   --> A              
     e(  9 -  9) =     -3.42243  eV     1   --> A              
     e( 10 - 10) =     -3.02103  eV     1   --> A              
     e( 11 - 11) =     -1.76758  eV     1   --> A              
     e( 12 - 12) =     -0.78016  eV     1   --> A              
     e( 13 - 13) =     -0.43020  eV     1   --> A              
     e( 14 - 14) =      2.35467  eV     1   --> A              
     e( 15 - 15) =      3.04479  eV     1   --> A              
     e( 16 - 16) =      3.26492  eV     1   --> A              
     e( 17 - 17) =      4.88348  eV     1   --> A              
     e( 18 - 18) =      7.77554  eV     1   --> A              
     e( 19 - 19) =      8.10033  eV     1   --> A              
     e( 20 - 20) =      9.06876  eV     1   --> A              
     e( 21 - 21) =      9.13933  eV     1   --> A              
     e( 22 - 22) =      9.79175  eV     1   --> A              
     e( 23 - 23) =     10.77716  eV     1   --> A              
     e( 24 - 24) =     10.85031  eV     1   --> A              
     e( 25 - 25) =     11.51540  eV     1   --> A              
     e( 26 - 26) =     12.04778  eV     1   --> A              
     e( 27 - 27) =     12.55575  eV     1   --> A              
     e( 28 - 28) =     12.61926  eV     1   --> A              
     e( 29 - 29) =     12.91584  eV     1   --> A              
     e( 30 - 30) =     15.03679  eV     1   --> A              
     e( 31 - 31) =     15.06264  eV     1   --> A              
     e( 32 - 32) =     15.88655  eV     1   --> A              
     e( 33 - 33) =     16.09963  eV     1   --> A              
     e( 34 - 34) =     16.93184  eV     1   --> A              
     e( 35 - 35) =     17.12981  eV     1   --> A              
     e( 36 - 36) =     17.43897  eV     1   --> A              
     e( 37 - 37) =     17.57965  eV     1   --> A              
     e( 38 - 38) =     18.36421  eV     1   --> A              
     e( 39 - 39) =     18.70675  eV     1   --> A              
     e( 40 - 40) =     18.80284  eV     1   --> A              
     e( 41 - 41) =     19.50383  eV     1   --> A              
     e( 42 - 42) =     20.32931  eV     1   --> A              

 **************************************************************************

 **************************************************************************

                    xk=(   0.40967,  -0.00013,   0.00000  )

     Band symmetry, C_1 (1)     point group:

     e(  1 -  1) =    -60.31219  eV     1   --> A              
     e(  2 -  2) =    -34.59552  eV     1   --> A              
     e(  3 -  3) =    -34.48206  eV     1   --> A              
     e(  4 -  4) =    -34.40569  eV     1   --> A              
     e(  5 -  5) =    -12.33992  eV     1   --> A              
     e(  6 -  6) =    -11.87428  eV     1   --> A              
     e(  7 -  7) =     -4.81275  eV     1   --> A              
     e(  8 -  8) =     -3.95020  eV     1   --> A              
     e(  9 -  9) =     -3.37664  eV     1   --> A              
     e( 10 - 10) =     -3.04690  eV     1   --> A              
     e( 11 - 11) =     -1.90165  eV     1   --> A              
     e( 12 - 12) =     -0.85734  eV     1   --> A              
     e( 13 - 13) =     -0.40182  eV     1   --> A              
     e( 14 - 14) =      2.40841  eV     1   --> A              
     e( 15 - 15) =      3.08550  eV     1   --> A              
     e( 16 - 16) =      3.32933  eV     1   --> A              
     e( 17 - 17) =      4.94499  eV     1   --> A              
     e( 18 - 18) =      7.96651  eV     1   --> A              
     e( 19 - 19) =      8.29269  eV     1   --> A              
     e( 20 - 20) =      8.91042  eV     1   --> A              
     e( 21 - 21) =      9.30503  eV     1   --> A              
     e( 22 - 22) =      9.81491  eV     1   --> A              
     e( 23 - 23) =     10.78927  eV     1   --> A              
     e( 24 - 24) =     10.89898  eV     1   --> A              
     e( 25 - 25) =     11.50975  eV     1   --> A              
     e( 26 - 26) =     12.15630  eV     1   --> A              
     e( 27 - 27) =     12.64826  eV     1   --> A              
     e( 28 - 28) =     12.68854  eV     1   --> A              
     e( 29 - 29) =     12.94835  eV     1   --> A              
     e( 30 - 30) =     14.81599  eV     1   --> A              
     e( 31 - 31) =     15.20410  eV     1   --> A              
     e( 32 - 32) =     16.01898  eV     1   --> A              
     e( 33 - 33) =     16.02503  eV     1   --> A              
     e( 34 - 34) =     16.54825  eV     1   --> A              
     e( 35 - 35) =     16.98479  eV     1   --> A              
     e( 36 - 36) =     17.16929  eV     1   --> A              
     e( 37 - 37) =     17.35435  eV     1   --> A              
     e( 38 - 38) =     18.02585  eV     1   --> A              
     e( 39 - 39) =     18.44952  eV     1   --> A              
     e( 40 - 40) =     18.98350  eV     1   --> A              
     e( 41 - 41) =     19.73631  eV     1   --> A              
     e( 42 - 42) =     20.18343  eV     1   --> A              

 **************************************************************************

 **************************************************************************

                    xk=(   0.43243,  -0.00013,   0.00000  )

     Band symmetry, C_1 (1)     point group:

     e(  1 -  1) =    -60.30980  eV     1   --> A              
     e(  2 -  2) =    -34.60997  eV     1   --> A              
     e(  3 -  3) =    -34.47738  eV     1   --> A              
     e(  4 -  4) =    -34.41892  eV     1   --> A              
     e(  5 -  5) =    -12.21964  eV     1   --> A              
     e(  6 -  6) =    -11.82337  eV     1   --> A              
     e(  7 -  7) =     -4.85474  eV     1   --> A              
     e(  8 -  8) =     -4.13611  eV     1   --> A              
     e(  9 -  9) =     -3.33287  eV     1   --> A              
     e( 10 - 10) =     -3.05377  eV     1   --> A              
     e( 11 - 11) =     -2.05048  eV     1   --> A              
     e( 12 - 12) =     -0.94248  eV     1   --> A              
     e( 13 - 13) =     -0.36243  eV     1   --> A              
     e( 14 - 14) =      2.47987  eV     1   --> A              
     e( 15 - 15) =      3.12731  eV     1   --> A              
     e( 16 - 16) =      3.38868  eV     1   --> A              
     e( 17 - 17) =      4.99845  eV     1   --> A              
     e( 18 - 18) =      8.12862  eV     1   --> A              
     e( 19 - 19) =      8.48584  eV     1   --> A              
     e( 20 - 20) =      8.76758  eV     1   --> A              
     e( 21 - 21) =      9.46628  eV     1   --> A              
     e( 22 - 22) =      9.87087  eV     1   --> A              
     e( 23 - 23) =     10.63632  eV     1   --> A              
     e( 24 - 24) =     11.03389  eV     1   --> A              
     e( 25 - 25) =     11.57917  eV     1   --> A              
     e( 26 - 26) =     12.31756  eV     1   --> A              
     e( 27 - 27) =     12.70150  eV     1   --> A              
     e( 28 - 28) =     12.78730  eV     1   --> A              
     e( 29 - 29) =     13.02518  eV     1   --> A              
     e( 30 - 30) =     14.56711  eV     1   --> A              
     e( 31 - 31) =     15.33486  eV     1   --> A              
     e( 32 - 32) =     15.80074  eV     1   --> A              
     e( 33 - 33) =     16.07819  eV     1   --> A              
     e( 34 - 34) =     16.18489  eV     1   --> A              
     e( 35 - 35) =     16.89698  eV     1   --> A              
     e( 36 - 36) =     16.95156  eV     1   --> A              
     e( 37 - 37) =     17.11722  eV     1   --> A              
     e( 38 - 38) =     17.71130  eV     1   --> A              
     e( 39 - 39) =     18.31612  eV     1   --> A              
     e( 40 - 40) =     19.09742  eV     1   --> A              
     e( 41 - 41) =     19.94652  eV     1   --> A              
     e( 42 - 42) =     19.96017  eV     1   --> A              

 **************************************************************************

 **************************************************************************

                    xk=(   0.45519,  -0.00014,   0.00000  )

     Band symmetry, C_1 (1)     point group:

     e(  1 -  1) =    -60.30758  eV     1   --> A              
     e(  2 -  2) =    -34.62194  eV     1   --> A              
     e(  3 -  3) =    -34.47304  eV     1   --> A              
     e(  4 -  4) =    -34.43266  eV     1   --> A              
     e(  5 -  5) =    -12.10466  eV     1   --> A              
     e(  6 -  6) =    -11.77427  eV     1   --> A              
     e(  7 -  7) =     -4.88674  eV     1   --> A              
     e(  8 -  8) =     -4.31353  eV     1   --> A              
     e(  9 -  9) =     -3.29684  eV     1   --> A              
     e( 10 - 10) =     -3.04414  eV     1   --> A              
     e( 11 - 11) =     -2.20843  eV     1   --> A              
     e( 12 - 12) =     -1.03433  eV     1   --> A              
     e( 13 - 13) =     -0.31278  eV     1   --> A              
     e( 14 - 14) =      2.55626  eV     1   --> A              
     e( 15 - 15) =      3.17408  eV     1   --> A              
     e( 16 - 16) =      3.43941  eV     1   --> A              
     e( 17 - 17) =      5.04744  eV     1   --> A              
     e( 18 - 18) =      8.20358  eV     1   --> A              
     e( 19 - 19) =      8.67765  eV     1   --> A              
     e( 20 - 20) =      8.70323  eV     1   --> A              
     e( 21 - 21) =      9.58882  eV     1   --> A              
     e( 22 - 22) =      9.96106  eV     1   --> A              
     e( 23 - 23) =     10.51267  eV     1   --> A              
     e( 24 - 24) =     11.18240  eV     1   --> A              
     e( 25 - 25) =     11.68225  eV     1   --> A              
     e( 26 - 26) =     12.47560  eV     1   --> A              
     e( 27 - 27) =     12.79113  eV     1   --> A              
     e( 28 - 28) =     12.81794  eV     1   --> A              
     e( 29 - 29) =     13.17381  eV     1   --> A              
     e( 30 - 30) =     14.30926  eV     1   --> A              
     e( 31 - 31) =     15.37482  eV     1   --> A              
     e( 32 - 32) =     15.56914  eV     1   --> A              
     e( 33 - 33) =     15.88069  eV     1   --> A              
     e( 34 - 34) =     16.00016  eV     1   --> A              
     e( 35 - 35) =     16.73741  eV     1   --> A              
     e( 36 - 36) =     16.80941  eV     1   --> A              
     e( 37 - 37) =     16.91810  eV     1   --> A              
     e( 38 - 38) =     17.40887  eV     1   --> A              
     e( 39 - 39) =     18.33301  eV     1   --> A              
     e( 40 - 40) =     19.07020  eV     1   --> A              
     e( 41 - 41) =     19.71960  eV     1   --> A              
     e( 42 - 42) =     20.10674  eV     1   --> A              

 **************************************************************************

 **************************************************************************

                    xk=(   0.47795,  -0.00015,   0.00000  )

     Band symmetry, C_1 (1)     point group:

     e(  1 -  1) =    -60.30555  eV     1   --> A              
     e(  2 -  2) =    -34.63127  eV     1   --> A              
     e(  3 -  3) =    -34.46908  eV     1   --> A              
     e(  4 -  4) =    -34.44682  eV     1   --> A              
     e(  5 -  5) =    -11.99671  eV     1   --> A              
     e(  6 -  6) =    -11.72764  eV     1   --> A              
     e(  7 -  7) =     -4.90461  eV     1   --> A              
     e(  8 -  8) =     -4.47962  eV     1   --> A              
     e(  9 -  9) =     -3.27231  eV     1   --> A              
     e( 10 - 10) =     -3.01994  eV     1   --> A              
     e( 11 - 11) =     -2.37133  eV     1   --> A              
     e( 12 - 12) =     -1.13145  eV     1   --> A              
     e( 13 - 13) =     -0.25237  eV     1   --> A              
     e( 14 - 14) =      2.61856  eV     1   --> A              
     e( 15 - 15) =      3.23556  eV     1   --> A              
     e( 16 - 16) =      3.47841  eV     1   --> A              
     e( 17 - 17) =      5.09574  eV     1   --> A              
     e( 18 - 18) =      8.14763  eV     1   --> A              
     e( 19 - 19) =      8.74386  eV     1   --> A              
     e( 20 - 20) =      8.86599  eV     1   --> A              
     e( 21 - 21) =      9.65110  eV     1   --> A              
     e( 22 - 22) =     10.08572  eV     1   --> A              
     e( 23 - 23) =     10.50204  eV     1   --> A              
     e( 24 - 24) =     11.34321  eV     1   --> A              
     e( 25 - 25) =     11.79728  eV     1   --> A              
     e( 26 - 26) =     12.59512  eV     1   --> A              
     e( 27 - 27) =     12.80789  eV     1   --> A              
     e( 28 - 28) =     12.93384  eV     1   --> A              
     e( 29 - 29) =     13.35683  eV     1   --> A              
     e( 30 - 30) =     14.05831  eV     1   --> A              
     e( 31 - 31) =     15.14277  eV     1   --> A              
     e( 32 - 32) =     15.36885  eV     1   --> A              
     e( 33 - 33) =     15.80764  eV     1   --> A              
     e( 34 - 34) =     15.82652  eV     1   --> A              
     e( 35 - 35) =     16.51188  eV     1   --> A              
     e( 36 - 36) =     16.56436  eV     1   --> A              
     e( 37 - 37) =     16.91249  eV     1   --> A              
     e( 38 - 38) =     17.11606  eV     1   --> A              
     e( 39 - 39) =     18.42511  eV     1   --> A              
     e( 40 - 40) =     18.93752  eV     1   --> A              
     e( 41 - 41) =     19.51559  eV     1   --> A              
     e( 42 - 42) =     19.98687  eV     1   --> A              

 **************************************************************************

 **************************************************************************

                    xk=(   0.50071,  -0.00015,   0.00000  )

     Band symmetry, C_1 (1)     point group:

     e(  1 -  1) =    -60.30372  eV     1   --> A              
     e(  2 -  2) =    -34.63786  eV     1   --> A              
     e(  3 -  3) =    -34.46551  eV     1   --> A              
     e(  4 -  4) =    -34.46134  eV     1   --> A              
     e(  5 -  5) =    -11.89742  eV     1   --> A              
     e(  6 -  6) =    -11.68414  eV     1   --> A              
     e(  7 -  7) =     -4.90528  eV     1   --> A              
     e(  8 -  8) =     -4.63219  eV     1   --> A              
     e(  9 -  9) =     -3.26172  eV     1   --> A              
     e( 10 - 10) =     -2.98293  eV     1   --> A              
     e( 11 - 11) =     -2.53556  eV     1   --> A              
     e( 12 - 12) =     -1.23220  eV     1   --> A              
     e( 13 - 13) =     -0.18092  eV     1   --> A              
     e( 14 - 14) =      2.64721  eV     1   --> A              
     e( 15 - 15) =      3.32286  eV     1   --> A              
     e( 16 - 16) =      3.50360  eV     1   --> A              
     e( 17 - 17) =      5.14645  eV     1   --> A              
     e( 18 - 18) =      8.02765  eV     1   --> A              
     e( 19 - 19) =      8.78848  eV     1   --> A              
     e( 20 - 20) =      9.04904  eV     1   --> A              
     e( 21 - 21) =      9.69611  eV     1   --> A              
     e( 22 - 22) =     10.24373  eV     1   --> A              
     e( 23 - 23) =     10.61376  eV     1   --> A              
     e( 24 - 24) =     11.51199  eV     1   --> A              
     e( 25 - 25) =     11.91710  eV     1   --> A              
     e( 26 - 26) =     12.68086  eV     1   --> A              
     e( 27 - 27) =     12.77712  eV     1   --> A              
     e( 28 - 28) =     13.11449  eV     1   --> A              
     e( 29 - 29) =     13.52827  eV     1   --> A              
     e( 30 - 30) =     13.84266  eV     1   --> A              
     e( 31 - 31) =     14.85556  eV     1   --> A              
     e( 32 - 32) =     15.06772  eV     1   --> A              
     e( 33 - 33) =     15.57476  eV     1   --> A              
     e( 34 - 34) =     15.92831  eV     1   --> A              
     e( 35 - 35) =     16.28373  eV     1   --> A              
     e( 36 - 36) =     16.29700  eV     1   --> A              
     e( 37 - 37) =     16.84729  eV     1   --> A              
     e( 38 - 38) =     16.94165  eV     1   --> A              
     e( 39 - 39) =     18.49852  eV     1   --> A              
     e( 40 - 40) =     18.77027  eV     1   --> A              
     e( 41 - 41) =     19.31750  eV     1   --> A              
     e( 42 - 42) =     19.78932  eV     1   --> A              

 **************************************************************************

 **************************************************************************

                    xk=(   0.52347,  -0.00016,   0.00000  )

     Band symmetry, C_1 (1)     point group:

     e(  1 -  1) =    -60.30212  eV     1   --> A              
     e(  2 -  2) =    -34.64166  eV     1   --> A              
     e(  3 -  3) =    -34.47612  eV     1   --> A              
     e(  4 -  4) =    -34.46238  eV     1   --> A              
     e(  5 -  5) =    -11.80826  eV     1   --> A              
     e(  6 -  6) =    -11.64442  eV     1   --> A              
     e(  7 -  7) =     -4.88656  eV     1   --> A              
     e(  8 -  8) =     -4.76947  eV     1   --> A              
     e(  9 -  9) =     -3.26717  eV     1   --> A              
     e( 10 - 10) =     -2.93498  eV     1   --> A              
     e( 11 - 11) =     -2.69683  eV     1   --> A              
     e( 12 - 12) =     -1.33474  eV     1   --> A              
     e( 13 - 13) =     -0.09932  eV     1   --> A              
     e( 14 - 14) =      2.63371  eV     1   --> A              
     e( 15 - 15) =      3.43778  eV     1   --> A              
     e( 16 - 16) =      3.51440  eV     1   --> A              
     e( 17 - 17) =      5.20128  eV     1   --> A              
     e( 18 - 18) =      7.89874  eV     1   --> A              
     e( 19 - 19) =      8.75902  eV     1   --> A              
     e( 20 - 20) =      9.22536  eV     1   --> A              
     e( 21 - 21) =      9.80076  eV     1   --> A              
     e( 22 - 22) =     10.43238  eV     1   --> A              
     e( 23 - 23) =     10.80114  eV     1   --> A              
     e( 24 - 24) =     11.67960  eV     1   --> A              
     e( 25 - 25) =     12.03948  eV     1   --> A              
     e( 26 - 26) =     12.73335  eV     1   --> A              
     e( 27 - 27) =     12.74891  eV     1   --> A              
     e( 28 - 28) =     13.30646  eV     1   --> A              
     e( 29 - 29) =     13.52990  eV     1   --> A              
     e( 30 - 30) =     13.81227  eV     1   --> A              
     e( 31 - 31) =     14.58274  eV     1   --> A              
     e( 32 - 32) =     14.76010  eV     1   --> A              
     e( 33 - 33) =     15.34560  eV     1   --> A              
     e( 34 - 34) =     15.88755  eV     1   --> A              
     e( 35 - 35) =     16.03352  eV     1   --> A              
     e( 36 - 36) =     16.17486  eV     1   --> A              
     e( 37 - 37) =     16.65625  eV     1   --> A              
     e( 38 - 38) =     16.93721  eV     1   --> A              
     e( 39 - 39) =     18.50080  eV     1   --> A              
     e( 40 - 40) =     18.60516  eV     1   --> A              
     e( 41 - 41) =     19.11665  eV     1   --> A              
     e( 42 - 42) =     19.62706  eV     1   --> A              

 **************************************************************************

 **************************************************************************

                    xk=(   0.54623,  -0.00017,   0.00000  )

     Band symmetry, C_1 (1)     point group:

     e(  1 -  1) =    -60.30075  eV     1   --> A              
     e(  2 -  2) =    -34.64270  eV     1   --> A              
     e(  3 -  3) =    -34.49105  eV     1   --> A              
     e(  4 -  4) =    -34.45969  eV     1   --> A              
     e(  5 -  5) =    -11.73045  eV     1   --> A              
     e(  6 -  6) =    -11.60907  eV     1   --> A              
     e(  7 -  7) =     -4.89006  eV     1   --> A              
     e(  8 -  8) =     -4.84713  eV     1   --> A              
     e(  9 -  9) =     -3.29236  eV     1   --> A              
     e( 10 - 10) =     -2.87833  eV     1   --> A              
     e( 11 - 11) =     -2.84839  eV     1   --> A              
     e( 12 - 12) =     -1.43687  eV     1   --> A              
     e( 13 - 13) =     -0.01004  eV     1   --> A              
     e( 14 - 14) =      2.58349  eV     1   --> A              
     e( 15 - 15) =      3.51194  eV     1   --> A              
     e( 16 - 16) =      3.57040  eV     1   --> A              
     e( 17 - 17) =      5.26006  eV     1   --> A              
     e( 18 - 18) =      7.78151  eV     1   --> A              
     e( 19 - 19) =      8.66279  eV     1   --> A              
     e( 20 - 20) =      9.39351  eV     1   --> A              
     e( 21 - 21) =      9.97501  eV     1   --> A              
     e( 22 - 22) =     10.64723  eV     1   --> A              
     e( 23 - 23) =     11.02774  eV     1   --> A              
     e( 24 - 24) =     11.82935  eV     1   --> A              
     e( 25 - 25) =     12.16375  eV     1   --> A              
     e( 26 - 26) =     12.68253  eV     1   --> A              
     e( 27 - 27) =     12.80001  eV     1   --> A              
     e( 28 - 28) =     13.39216  eV     1   --> A              
     e( 29 - 29) =     13.49450  eV     1   --> A              
     e( 30 - 30) =     13.92604  eV     1   --> A              
     e( 31 - 31) =     14.33951  eV     1   --> A              
     e( 32 - 32) =     14.46609  eV     1   --> A              
     e( 33 - 33) =     15.14729  eV     1   --> A              
     e( 34 - 34) =     15.68587  eV     1   --> A              
     e( 35 - 35) =     15.78279  eV     1   --> A              
     e( 36 - 36) =     16.06769  eV     1   --> A              
     e( 37 - 37) =     16.66737  eV     1   --> A              
     e( 38 - 38) =     16.88631  eV     1   --> A              
     e( 39 - 39) =     18.43030  eV     1   --> A              
     e( 40 - 40) =     18.44782  eV     1   --> A              
     e( 41 - 41) =     18.91153  eV     1   --> A              
     e( 42 - 42) =     19.49741  eV     1   --> A              

 **************************************************************************

 **************************************************************************

                    xk=(   0.56899,  -0.00018,   0.00000  )

     Band symmetry, C_1 (1)     point group:

     e(  1 -  1) =    -60.29960  eV     1   --> A              
     e(  2 -  2) =    -34.64108  eV     1   --> A              
     e(  3 -  3) =    -34.50598  eV     1   --> A              
     e(  4 -  4) =    -34.45746  eV     1   --> A              
     e(  5 -  5) =    -11.66489  eV     1   --> A              
     e(  6 -  6) =    -11.57862  eV     1   --> A              
     e(  7 -  7) =     -4.99283  eV     1   --> A              
     e(  8 -  8) =     -4.78663  eV     1   --> A              
     e(  9 -  9) =     -3.34499  eV     1   --> A              
     e( 10 - 10) =     -2.97873  eV     1   --> A              
     e( 11 - 11) =     -2.81578  eV     1   --> A              
     e( 12 - 12) =     -1.53601  eV     1   --> A              
     e( 13 - 13) =      0.08278  eV     1   --> A              
     e( 14 - 14) =      2.50832  eV     1   --> A              
     e( 15 - 15) =      3.49885  eV     1   --> A              
     e( 16 - 16) =      3.70685  eV     1   --> A              
     e( 17 - 17) =      5.32085  eV     1   --> A              
     e( 18 - 18) =      7.68631  eV     1   --> A              
     e( 19 - 19) =      8.53477  eV     1   --> A              
     e( 20 - 20) =      9.55122  eV     1   --> A              
     e( 21 - 21) =     10.18840  eV     1   --> A              
     e( 22 - 22) =     10.88200  eV     1   --> A              
     e( 23 - 23) =     11.27572  eV     1   --> A              
     e( 24 - 24) =     11.93685  eV     1   --> A              
     e( 25 - 25) =     12.28682  eV     1   --> A              
     e( 26 - 26) =     12.62942  eV     1   --> A              
     e( 27 - 27) =     12.82854  eV     1   --> A              
     e( 28 - 28) =     13.30602  eV     1   --> A              
     e( 29 - 29) =     13.66066  eV     1   --> A              
     e( 30 - 30) =     13.97891  eV     1   --> A              
     e( 31 - 31) =     14.13415  eV     1   --> A              
     e( 32 - 32) =     14.20414  eV     1   --> A              
     e( 33 - 33) =     15.00228  eV     1   --> A              
     e( 34 - 34) =     15.47674  eV     1   --> A              
     e( 35 - 35) =     15.55535  eV     1   --> A              
     e( 36 - 36) =     15.86087  eV     1   --> A              
     e( 37 - 37) =     16.80734  eV     1   --> A              
     e( 38 - 38) =     16.82437  eV     1   --> A              
     e( 39 - 39) =     18.28995  eV     1   --> A              
     e( 40 - 40) =     18.32008  eV     1   --> A              
     e( 41 - 41) =     18.70467  eV     1   --> A              
     e( 42 - 42) =     19.37550  eV     1   --> A              

 **************************************************************************

 **************************************************************************

                    xk=(   0.59175,  -0.00018,   0.00000  )

     Band symmetry, C_1 (1)     point group:

     e(  1 -  1) =    -60.29869  eV     1   --> A              
     e(  2 -  2) =    -34.63700  eV     1   --> A              
     e(  3 -  3) =    -34.52072  eV     1   --> A              
     e(  4 -  4) =    -34.45567  eV     1   --> A              
     e(  5 -  5) =    -11.61209  eV     1   --> A              
     e(  6 -  6) =    -11.55350  eV     1   --> A              
     e(  7 -  7) =     -5.07699  eV     1   --> A              
     e(  8 -  8) =     -4.70603  eV     1   --> A              
[...]
     e( 13 - 13) =      0.21335  eV     1   --> A              
     e( 14 - 14) =      3.09122  eV     1   --> A              
     e( 15 - 15) =      3.12262  eV     1   --> A              
     e( 16 - 16) =      3.36380  eV     1   --> A              
     e( 17 - 17) =      3.53739  eV     1   --> A              
     e( 18 - 18) =      5.99576  eV     1   --> A              
     e( 19 - 19) =      6.39847  eV     1   --> A              
     e( 20 - 20) =      7.29412  eV     1   --> A              
     e( 21 - 21) =      7.75227  eV     1   --> A              
     e( 22 - 22) =      9.38110  eV     1   --> A              
     e( 23 - 23) =     10.16796  eV     1   --> A              
     e( 24 - 24) =     10.54410  eV     1   --> A              
     e( 25 - 25) =     11.29225  eV     1   --> A              
     e( 26 - 26) =     11.69257  eV     1   --> A              
     e( 27 - 27) =     12.22463  eV     1   --> A              
     e( 28 - 28) =     13.27859  eV     1   --> A              
     e( 29 - 29) =     13.28214  eV     1   --> A              
     e( 30 - 30) =     13.98309  eV     1   --> A              
     e( 31 - 31) =     15.53835  eV     1   --> A              
     e( 32 - 32) =     15.70064  eV     1   --> A              
     e( 33 - 33) =     16.35935  eV     1   --> A              
     e( 34 - 34) =     16.81328  eV     1   --> A              
     e( 35 - 35) =     16.95517  eV     1   --> A              
     e( 36 - 36) =     17.97603  eV     1   --> A              
     e( 37 - 37) =     19.50938  eV     1   --> A              
     e( 38 - 38) =     20.16758  eV     1   --> A              
     e( 39 - 39) =     21.19125  eV     1   --> A              
     e( 40 - 40) =     21.49760  eV     1   --> A              
     e( 41 - 41) =     22.24376  eV     1   --> A              
     e( 42 - 42) =     22.32428  eV     1   --> A              

 **************************************************************************

 **************************************************************************

                    xk=(   0.08535,  -0.04927,   0.00000  )

     Band symmetry, C_1 (1)     point group:

     e(  1 -  1) =    -60.34569  eV     1   --> A              
     e(  2 -  2) =    -34.54741  eV     1   --> A              
     e(  3 -  3) =    -34.31459  eV     1   --> A              
     e(  4 -  4) =    -34.29224  eV     1   --> A              
     e(  5 -  5) =    -13.74514  eV     1   --> A              
     e(  6 -  6) =    -12.45804  eV     1   --> A              
     e(  7 -  7) =     -5.29020  eV     1   --> A              
     e(  8 -  8) =     -2.46803  eV     1   --> A              
     e(  9 -  9) =     -2.11874  eV     1   --> A              
     e( 10 - 10) =     -1.95655  eV     1   --> A              
     e( 11 - 11) =     -1.24554  eV     1   --> A              
     e( 12 - 12) =     -0.77476  eV     1   --> A              
     e( 13 - 13) =      0.23712  eV     1   --> A              
     e( 14 - 14) =      3.13045  eV     1   --> A              
     e( 15 - 15) =      3.23031  eV     1   --> A              
     e( 16 - 16) =      3.41368  eV     1   --> A              
     e( 17 - 17) =      3.46280  eV     1   --> A              
     e( 18 - 18) =      5.92849  eV     1   --> A              
     e( 19 - 19) =      6.33840  eV     1   --> A              
     e( 20 - 20) =      7.14972  eV     1   --> A              
     e( 21 - 21) =      7.63835  eV     1   --> A              
     e( 22 - 22) =      9.32812  eV     1   --> A              
     e( 23 - 23) =      9.99470  eV     1   --> A              
     e( 24 - 24) =     10.62758  eV     1   --> A              
     e( 25 - 25) =     11.25708  eV     1   --> A              
     e( 26 - 26) =     11.54841  eV     1   --> A              
     e( 27 - 27) =     12.45302  eV     1   --> A              
     e( 28 - 28) =     13.25840  eV     1   --> A              
     e( 29 - 29) =     13.31881  eV     1   --> A              
     e( 30 - 30) =     13.95196  eV     1   --> A              
     e( 31 - 31) =     15.56115  eV     1   --> A              
     e( 32 - 32) =     15.89237  eV     1   --> A              
     e( 33 - 33) =     16.50735  eV     1   --> A              
     e( 34 - 34) =     16.73551  eV     1   --> A              
     e( 35 - 35) =     16.92080  eV     1   --> A              
     e( 36 - 36) =     17.62966  eV     1   --> A              
     e( 37 - 37) =     19.34101  eV     1   --> A              
     e( 38 - 38) =     20.07496  eV     1   --> A              
     e( 39 - 39) =     21.20705  eV     1   --> A              
     e( 40 - 40) =     21.23254  eV     1   --> A              
     e( 41 - 41) =     22.77555  eV     1   --> A              
     e( 42 - 42) =     22.78875  eV     1   --> A              

 **************************************************************************

 **************************************************************************

                    xk=(   0.06828,  -0.03941,   0.00000  )

     Band symmetry, C_1 (1)     point group:

     e(  1 -  1) =    -60.34678  eV     1   --> A              
     e(  2 -  2) =    -34.54952  eV     1   --> A              
     e(  3 -  3) =    -34.30394  eV     1   --> A              
     e(  4 -  4) =    -34.28983  eV     1   --> A              
     e(  5 -  5) =    -13.78442  eV     1   --> A              
     e(  6 -  6) =    -12.47429  eV     1   --> A              
     e(  7 -  7) =     -5.33386  eV     1   --> A              
     e(  8 -  8) =     -2.38505  eV     1   --> A              
     e(  9 -  9) =     -2.15971  eV     1   --> A              
     e( 10 - 10) =     -1.83163  eV     1   --> A              
     e( 11 - 11) =     -1.18571  eV     1   --> A              
     e( 12 - 12) =     -0.83639  eV     1   --> A              
     e( 13 - 13) =      0.25418  eV     1   --> A              
     e( 14 - 14) =      3.17352  eV     1   --> A              
     e( 15 - 15) =      3.33077  eV     1   --> A              
     e( 16 - 16) =      3.39805  eV     1   --> A              
     e( 17 - 17) =      3.45681  eV     1   --> A              
     e( 18 - 18) =      5.87066  eV     1   --> A              
     e( 19 - 19) =      6.28890  eV     1   --> A              
     e( 20 - 20) =      7.01006  eV     1   --> A              
     e( 21 - 21) =      7.55651  eV     1   --> A              
     e( 22 - 22) =      9.28281  eV     1   --> A              
     e( 23 - 23) =      9.83678  eV     1   --> A              
     e( 24 - 24) =     10.69901  eV     1   --> A              
     e( 25 - 25) =     11.23205  eV     1   --> A              
     e( 26 - 26) =     11.42762  eV     1   --> A              
     e( 27 - 27) =     12.68149  eV     1   --> A              
     e( 28 - 28) =     13.24138  eV     1   --> A              
     e( 29 - 29) =     13.34270  eV     1   --> A              
     e( 30 - 30) =     13.92073  eV     1   --> A              
     e( 31 - 31) =     15.57541  eV     1   --> A              
     e( 32 - 32) =     16.08466  eV     1   --> A              
     e( 33 - 33) =     16.63443  eV     1   --> A              
     e( 34 - 34) =     16.66901  eV     1   --> A              
     e( 35 - 35) =     16.89992  eV     1   --> A              
     e( 36 - 36) =     17.31042  eV     1   --> A              
     e( 37 - 37) =     19.19899  eV     1   --> A              
     e( 38 - 38) =     19.99170  eV     1   --> A              
     e( 39 - 39) =     20.93290  eV     1   --> A              
     e( 40 - 40) =     21.25661  eV     1   --> A              
     e( 41 - 41) =     23.14842  eV     1   --> A              
     e( 42 - 42) =     23.32130  eV     1   --> A              

 **************************************************************************

 **************************************************************************

                    xk=(   0.05121,  -0.02956,   0.00000  )

     Band symmetry, C_1 (1)     point group:

     e(  1 -  1) =    -60.34763  eV     1   --> A              
     e(  2 -  2) =    -34.55119  eV     1   --> A              
     e(  3 -  3) =    -34.29553  eV     1   --> A              
     e(  4 -  4) =    -34.28791  eV     1   --> A              
     e(  5 -  5) =    -13.81522  eV     1   --> A              
     e(  6 -  6) =    -12.48703  eV     1   --> A              
     e(  7 -  7) =     -5.36862  eV     1   --> A              
     e(  8 -  8) =     -2.31753  eV     1   --> A              
     e(  9 -  9) =     -2.19192  eV     1   --> A              
     e( 10 - 10) =     -1.71362  eV     1   --> A              
     e( 11 - 11) =     -1.13706  eV     1   --> A              
     e( 12 - 12) =     -0.90718  eV     1   --> A              
     e( 13 - 13) =      0.26591  eV     1   --> A              
     e( 14 - 14) =      3.21481  eV     1   --> A              
     e( 15 - 15) =      3.34516  eV     1   --> A              
     e( 16 - 16) =      3.41786  eV     1   --> A              
     e( 17 - 17) =      3.49190  eV     1   --> A              
     e( 18 - 18) =      5.82315  eV     1   --> A              
     e( 19 - 19) =      6.25016  eV     1   --> A              
     e( 20 - 20) =      6.88907  eV     1   --> A              
     e( 21 - 21) =      7.49853  eV     1   --> A              
     e( 22 - 22) =      9.24588  eV     1   --> A              
     e( 23 - 23) =      9.70498  eV     1   --> A              
     e( 24 - 24) =     10.75396  eV     1   --> A              
     e( 25 - 25) =     11.21843  eV     1   --> A              
     e( 26 - 26) =     11.33187  eV     1   --> A              
     e( 27 - 27) =     12.89255  eV     1   --> A              
     e( 28 - 28) =     13.22977  eV     1   --> A              
     e( 29 - 29) =     13.35368  eV     1   --> A              
     e( 30 - 30) =     13.89300  eV     1   --> A              
     e( 31 - 31) =     15.58376  eV     1   --> A              
     e( 32 - 32) =     16.26253  eV     1   --> A              
     e( 33 - 33) =     16.61537  eV     1   --> A              
     e( 34 - 34) =     16.73736  eV     1   --> A              
     e( 35 - 35) =     16.88849  eV     1   --> A              
     e( 36 - 36) =     17.03161  eV     1   --> A              
     e( 37 - 37) =     19.08655  eV     1   --> A              
     e( 38 - 38) =     19.91591  eV     1   --> A              
     e( 39 - 39) =     20.70057  eV     1   --> A              
     e( 40 - 40) =     21.27279  eV     1   --> A              
     e( 41 - 41) =     23.36391  eV     1   --> A              
     e( 42 - 42) =     23.71399  eV     1   --> A              

 **************************************************************************

 **************************************************************************

                    xk=(   0.03414,  -0.01971,   0.00000  )

     Band symmetry, C_1 (1)     point group:

     e(  1 -  1) =    -60.34825  eV     1   --> A              
     e(  2 -  2) =    -34.55240  eV     1   --> A              
     e(  3 -  3) =    -34.28948  eV     1   --> A              
     e(  4 -  4) =    -34.28649  eV     1   --> A              
     e(  5 -  5) =    -13.83735  eV     1   --> A              
     e(  6 -  6) =    -12.49618  eV     1   --> A              
     e(  7 -  7) =     -5.39385  eV     1   --> A              
     e(  8 -  8) =     -2.26765  eV     1   --> A              
     e(  9 -  9) =     -2.21507  eV     1   --> A              
     e( 10 - 10) =     -1.60791  eV     1   --> A              
     e( 11 - 11) =     -1.10111  eV     1   --> A              
     e( 12 - 12) =     -0.98030  eV     1   --> A              
     e( 13 - 13) =      0.27344  eV     1   --> A              
     e( 14 - 14) =      3.24893  eV     1   --> A              
     e( 15 - 15) =      3.30594  eV     1   --> A              
     e( 16 - 16) =      3.48550  eV     1   --> A              
     e( 17 - 17) =      3.51794  eV     1   --> A              
     e( 18 - 18) =      5.78732  eV     1   --> A              
     e( 19 - 19) =      6.22237  eV     1   --> A              
     e( 20 - 20) =      6.79662  eV     1   --> A              
     e( 21 - 21) =      7.45940  eV     1   --> A              
     e( 22 - 22) =      9.21809  eV     1   --> A              
     e( 23 - 23) =      9.60659  eV     1   --> A              
     e( 24 - 24) =     10.79060  eV     1   --> A              
     e( 25 - 25) =     11.21457  eV     1   --> A              
     e( 26 - 26) =     11.26259  eV     1   --> A              
     e( 27 - 27) =     13.06733  eV     1   --> A              
     e( 28 - 28) =     13.22248  eV     1   --> A              
     e( 29 - 29) =     13.35644  eV     1   --> A              
     e( 30 - 30) =     13.87103  eV     1   --> A              
     e( 31 - 31) =     15.58832  eV     1   --> A              
     e( 32 - 32) =     16.40968  eV     1   --> A              
     e( 33 - 33) =     16.57599  eV     1   --> A              
     e( 34 - 34) =     16.80965  eV     1   --> A              
     e( 35 - 35) =     16.81324  eV     1   --> A              
     e( 36 - 36) =     16.88293  eV     1   --> A              
     e( 37 - 37) =     19.00551  eV     1   --> A              
     e( 38 - 38) =     19.84861  eV     1   --> A              
     e( 39 - 39) =     20.52764  eV     1   --> A              
     e( 40 - 40) =     21.28373  eV     1   --> A              
     e( 41 - 41) =     23.50005  eV     1   --> A              
     e( 42 - 42) =     23.65515  eV     1   --> A              

 **************************************************************************

 **************************************************************************

                    xk=(   0.01707,  -0.00985,   0.00000  )

     Band symmetry, C_1 (1)     point group:

     e(  1 -  1) =    -60.34863  eV     1   --> A              
     e(  2 -  2) =    -34.55312  eV     1   --> A              
     e(  3 -  3) =    -34.28618  eV     1   --> A              
     e(  4 -  4) =    -34.28528  eV     1   --> A              
     e(  5 -  5) =    -13.85069  eV     1   --> A              
     e(  6 -  6) =    -12.50169  eV     1   --> A              
     e(  7 -  7) =     -5.40915  eV     1   --> A              
     e(  8 -  8) =     -2.23753  eV     1   --> A              
     e(  9 -  9) =     -2.22852  eV     1   --> A              
     e( 10 - 10) =     -1.52670  eV     1   --> A              
     e( 11 - 11) =     -1.07918  eV     1   --> A              
     e( 12 - 12) =     -1.04231  eV     1   --> A              
     e( 13 - 13) =      0.27763  eV     1   --> A              
     e( 14 - 14) =      3.27139  eV     1   --> A              
     e( 15 - 15) =      3.28180  eV     1   --> A              
     e( 16 - 16) =      3.52757  eV     1   --> A              
     e( 17 - 17) =      3.53493  eV     1   --> A              
     e( 18 - 18) =      5.76482  eV     1   --> A              
     e( 19 - 19) =      6.20563  eV     1   --> A              
     e( 20 - 20) =      6.73891  eV     1   --> A              
     e( 21 - 21) =      7.43662  eV     1   --> A              
     e( 22 - 22) =      9.20052  eV     1   --> A              
     e( 23 - 23) =      9.54616  eV     1   --> A              
     e( 24 - 24) =     10.81049  eV     1   --> A              
     e( 25 - 25) =     11.21417  eV     1   --> A              
     e( 26 - 26) =     11.22235  eV     1   --> A              
     e( 27 - 27) =     13.18447  eV     1   --> A              
     e( 28 - 28) =     13.21913  eV     1   --> A              
     e( 29 - 29) =     13.35573  eV     1   --> A              
     e( 30 - 30) =     13.85661  eV     1   --> A              
     e( 31 - 31) =     15.59053  eV     1   --> A              
     e( 32 - 32) =     16.51009  eV     1   --> A              
     e( 33 - 33) =     16.55191  eV     1   --> A              
     e( 34 - 34) =     16.66244  eV     1   --> A              
     e( 35 - 35) =     16.85963  eV     1   --> A              
     e( 36 - 36) =     16.88075  eV     1   --> A              
     e( 37 - 37) =     18.95672  eV     1   --> A              
     e( 38 - 38) =     19.79829  eV     1   --> A              
     e( 39 - 39) =     20.42377  eV     1   --> A              
     e( 40 - 40) =     21.29019  eV     1   --> A              
     e( 41 - 41) =     23.58450  eV     1   --> A              
     e( 42 - 42) =     23.61650  eV     1   --> A              

 **************************************************************************

 **************************************************************************

                    xk=(   0.00000,   0.00000,   0.00000  )

     Band symmetry, C_1 (1)     point group:

     e(  1 -  1) =    -60.34875  eV     1   --> A              
     e(  2 -  2) =    -34.55337  eV     1   --> A              
     e(  3 -  3) =    -34.28563  eV     1   --> A              
     e(  4 -  4) =    -34.28431  eV     1   --> A              
     e(  5 -  5) =    -13.85514  eV     1   --> A              
     e(  6 -  6) =    -12.50354  eV     1   --> A              
     e(  7 -  7) =     -5.41428  eV     1   --> A              
     e(  8 -  8) =     -2.23455  eV     1   --> A              
     e(  9 -  9) =     -2.22584  eV     1   --> A              
     e( 10 - 10) =     -1.49382  eV     1   --> A              
     e( 11 - 11) =     -1.07354  eV     1   --> A              
     e( 12 - 12) =     -1.06710  eV     1   --> A              
     e( 13 - 13) =      0.27896  eV     1   --> A              
     e( 14 - 14) =      3.27364  eV     1   --> A              
     e( 15 - 15) =      3.27925  eV     1   --> A              
     e( 16 - 16) =      3.53761  eV     1   --> A              
     e( 17 - 17) =      3.54509  eV     1   --> A              
     e( 18 - 18) =      5.75713  eV     1   --> A              
     e( 19 - 19) =      6.20005  eV     1   --> A              
     e( 20 - 20) =      6.71932  eV     1   --> A              
     e( 21 - 21) =      7.42912  eV     1   --> A              
     e( 22 - 22) =      9.19446  eV     1   --> A              
     e( 23 - 23) =      9.52583  eV     1   --> A              
     e( 24 - 24) =     10.81664  eV     1   --> A              
     e( 25 - 25) =     11.20512  eV     1   --> A              
     e( 26 - 26) =     11.21854  eV     1   --> A              
     e( 27 - 27) =     13.21459  eV     1   --> A              
     e( 28 - 28) =     13.22969  eV     1   --> A              
     e( 29 - 29) =     13.35506  eV     1   --> A              
     e( 30 - 30) =     13.85149  eV     1   --> A              
     e( 31 - 31) =     15.59119  eV     1   --> A              
     e( 32 - 32) =     16.54360  eV     1   --> A              
     e( 33 - 33) =     16.55115  eV     1   --> A              
     e( 34 - 34) =     16.60552  eV     1   --> A              
     e( 35 - 35) =     16.87460  eV     1   --> A              
     e( 36 - 36) =     16.88085  eV     1   --> A              
     e( 37 - 37) =     18.94044  eV     1   --> A              
     e( 38 - 38) =     19.77907  eV     1   --> A              
     e( 39 - 39) =     20.38963  eV     1   --> A              
     e( 40 - 40) =     21.29233  eV     1   --> A              
     e( 41 - 41) =     23.60079  eV     1   --> A              
     e( 42 - 42) =     23.61654  eV     1   --> A              

 **************************************************************************
 
     BANDS        :     43.97s CPU     33.21s WALL

 
   This run was terminated on:  14:16:31  16Apr2022            

=------------------------------------------------------------------------------=
   JOB DONE.
=------------------------------------------------------------------------------=
